 Gaussian 16, Revision C.01,

 ----------------------------------------------------------------------
 #t hf aug-cc-pvdz symm=none int=(grid=ultrafine) guess=(read,tcheck) s
 table=(opt,rrhf)
 ----------------------------------------------------------------------
 -----
 title
 -----
 Symbolic Z-matrix:
 Charge =  0 Multiplicity = 1

 SCF Done:  E(RHF) =  -360.628379540     A.U. after   16 cycles
 Normal termination of Gaussian 16 at Wed Apr  9 16:00:10 2025.
 Gaussian 16:  ES64L-G16RevC.01  3-Jul-2019

 ----------------------------------------------------------------------
 #t hf aug-cc-pvdz iop(5/13=1,5/36=2,99/5=2) pseudo=read geom=check gue
 ss=(read,tcheck) scf=(maxcycle=1)
 ----------------------------------------------------------------------
 -----
 title
 -----
 Structure from the checkpoint file:  "Grambow2020_wb97xd3_007670_forward_mol1.chk"
 Charge =  0 Multiplicity = 1

                         Standard orientation:
 ---------------------------------------------------------------------
 Center     Atomic      Atomic             Coordinates (Angstroms)
 Number     Number       Type             X           Y           Z
 ---------------------------------------------------------------------
      1          6           0        2.117230    0.602284   -0.484808
      2          8           0        1.609459   -0.573847    0.107006
      3          6           0        0.533530   -0.380141    0.991639
      4          6           0       -0.847834   -0.548095    0.407047
      5          7           0       -1.774148    0.465207    0.381314
      6          8           0       -1.108626    1.449086   -0.126107
      7          6           0       -1.082623   -1.306565   -0.726846
      8          1           0        3.062958    0.333756   -0.953802
      9          1           0        1.444040    1.007551   -1.245704
     10          1           0        2.299393    1.377246    0.267749
     11          1           0        0.593668    0.588108    1.497470
     12          1           0        0.626049   -1.163496    1.751978
     13          1           0       -0.767302    0.891383   -1.224676
     14          1           0       -0.347351   -2.013338   -1.091207
     15          1           0       -0.712521   -0.072617   -1.571773
     16          1           0       -2.108376   -1.411856   -1.068609
 ---------------------------------------------------------------------

 SCF Done:  E(RHF) =  -360.739442214     A.U. after    2 cycles

 The electronic state is 1-A.
 Alpha  occ. eigenvalues --  -20.64240 -20.58499 -15.71691 -11.30706 -11.30698
 Alpha  occ. eigenvalues --  -11.30418 -11.28801  -1.43140  -1.35118  -1.13553
 Alpha  occ. eigenvalues --   -0.99474  -0.96652  -0.90232  -0.78057  -0.73004
 Alpha  occ. eigenvalues --   -0.69450  -0.69126  -0.66555  -0.64913  -0.63427
 Alpha  occ. eigenvalues --   -0.59650  -0.55802  -0.55110  -0.50441  -0.47480
 Alpha  occ. eigenvalues --   -0.46098  -0.43634  -0.33195
 Alpha virt. eigenvalues --    0.03013   0.04097   0.04523   0.05316   0.05889
 Alpha virt. eigenvalues --    0.06597   0.07044   0.07463   0.08206   0.08480
 Alpha virt. eigenvalues --    0.10193   0.11302   0.12529   0.13635   0.14076

 Mulliken charges:
               1
     1  C    0.775947
     2  O   -0.640260
     3  C    0.730580
     4  C   -0.014515
     5  N   -0.337366
     6  O   -0.629826
     7  C    0.546135
     8  H   -0.234998
     9  H   -0.147350
    10  H   -0.060792
    11  H   -0.009526
    12  H   -0.059918
    13  H    0.402354
    14  H   -0.239607
    15  H    0.062372
    16  H   -0.143230
 Sum of Mulliken charges =  -0.00000

 Dipole moment (field-independent basis, Debye):
    X=              1.2206    Y=             -1.7146    Z=             -0.4529  Tot=              2.1528

 Test job not archived.
 1\1\GINC-SE168\SP\RHF\Aug-CC-pVDZ\C4H9N1O2\OHZDE\09-Apr-2025\0\\#t hf
 aug-cc-pvdz iop(5/13=1,5/36=2,99/5=2) pseudo=read geom=check guess=(re
 ad,tcheck) scf=(maxcycle=1)\\title\\0,1\C,0,1.99842101,0.34804845,-0.1
 2928872\O,0,1.2656898,-0.42518697,0.79622259\C,0,0.1122653,0.19390218,
 1.31009092\C,0,-1.18521957,-0.12959297,0.61008489\N,0,-1.95985584,0.82
 50299,-0.00157926\O,0,-1.10879718,1.45254847,-0.74342264\C,0,-1.357628
 53,-1.288494,-0.12702977\H,0,2.95694591,-0.15121393,-0.26505392\H,0,1.
 49494586,0.42309785,-1.09741475\H,0,2.17391486,1.3600738,0.25162994\H,

 Normal termination of Gaussian 16 at Wed Apr  9 16:00:16 2025.
