 Gaussian 16, Revision C.01,

 ----------------------------------------------------------------------
 #t hf aug-cc-pvdz symm=none int=(grid=ultrafine) guess=(read,tcheck) s
 table=(opt,rrhf)
 ----------------------------------------------------------------------
 -----
 title
 -----
 Symbolic Z-matrix:
 Charge =  0 Multiplicity = 1

 SCF Done:  E(RHF) =  -245.672828905     A.U. after   15 cycles
 Normal termination of Gaussian 16 at Wed Apr  9 03:20:50 2025.
 Gaussian 16:  ES64L-G16RevC.01  3-Jul-2019

 ----------------------------------------------------------------------
 #t hf aug-cc-pvdz iop(5/13=1,5/36=2,99/5=2) pseudo=read geom=check gue
 ss=(read,tcheck) scf=(maxcycle=1)
 ----------------------------------------------------------------------
 -----
 title
 -----
 Structure from the checkpoint file:  "Grambow2020_wb97xd3_006116_forward_mol1.chk"
 Charge =  0 Multiplicity = 1

                         Standard orientation:
 ---------------------------------------------------------------------
 Center     Atomic      Atomic             Coordinates (Angstroms)
 Number     Number       Type             X           Y           Z
 ---------------------------------------------------------------------
      1          6           0        0.567271    0.993167   -0.147945
      2          6           0        1.100965   -0.402014   -0.249394
      3          7           0       -0.036510   -1.227538   -0.166842
      4          6           0       -1.041712   -0.455054    0.049640
      5          8           0       -0.844420    0.845088    0.179489
      6          1           0        1.046145    1.655290    0.566600
      7          1           0        0.602024    1.440427   -1.145527
      8          1           0        1.998252   -0.713656    0.739278
      9          1           0        1.675602   -0.580847    1.517110
     10          1           0       -2.070230   -0.785749    0.140717
 ---------------------------------------------------------------------

 SCF Done:  E(RHF) =  -245.749886055     A.U. after    2 cycles

 The electronic state is 1-A.
 Alpha  occ. eigenvalues --  -20.64327 -15.62857 -11.38293 -11.31902 -11.30115
 Alpha  occ. eigenvalues --   -1.44307  -1.21068  -1.04346  -0.85306  -0.82917
 Alpha  occ. eigenvalues --   -0.74842  -0.71482  -0.64078  -0.60939  -0.58292
 Alpha  occ. eigenvalues --   -0.55293  -0.46595  -0.43958  -0.33848
 Alpha virt. eigenvalues --    0.03070   0.03768   0.04338   0.05820   0.07448
 Alpha virt. eigenvalues --    0.09082   0.09489   0.10488   0.10774   0.11993
 Alpha virt. eigenvalues --    0.14037   0.15142   0.15339   0.16505   0.17668

 Mulliken charges:
               1
     1  C    0.709519
     2  C   -0.126231
     3  N   -0.509369
     4  C    0.787752
     5  O   -0.550730
     6  H   -0.178227
     7  H   -0.069304
     8  H    0.203836
     9  H   -0.091174
    10  H   -0.176071
 Sum of Mulliken charges =  -0.00000

 Dipole moment (field-independent basis, Debye):
    X=             -1.2803    Y=              2.1225    Z=              0.4982  Tot=              2.5283

 Test job not archived.
 1\1\GINC-SE102\SP\RHF\Aug-CC-pVDZ\C3H5N1O1\OHZDE\09-Apr-2025\0\\#t hf
 aug-cc-pvdz iop(5/13=1,5/36=2,99/5=2) pseudo=read geom=check guess=(re
 ad,tcheck) scf=(maxcycle=1)\\title\\0,1\C,0,-0.63858052,-0.75135168,-0
 .13786984\C,0,-0.60086311,0.71385649,-0.44347057\N,0,0.76927199,1.0295
 3195,-0.51581769\C,0,1.41398021,-0.03873766,-0.20408283\O,0,0.74302039
 ,-1.12670362,0.13102308\H,0,-1.27543855,-1.06957535,0.68154943\H,0,-0.
 92375992,-1.27895148,-1.05259919\H,0,-1.22555068,1.482744,0.50431343\H
 ,0,-0.91667891,1.33998276,1.28596611\H,0,2.49428208,-0.12934841,-0.188

 Normal termination of Gaussian 16 at Wed Apr  9 03:20:53 2025.
