 Gaussian 16, Revision C.01,

 ----------------------------------------------------------------------
 #t hf aug-cc-pvdz symm=none int=(grid=ultrafine) guess=(read,tcheck) s
 table=(opt,rrhf)
 ----------------------------------------------------------------------
 -----
 title
 -----
 Symbolic Z-matrix:
 Charge =  0 Multiplicity = 1

 SCF Done:  E(RHF) =  -302.733095044     A.U. after   15 cycles
 Normal termination of Gaussian 16 at Wed Apr  9 16:56:20 2025.
 Gaussian 16:  ES64L-G16RevC.01  3-Jul-2019

 ----------------------------------------------------------------------
 #t hf aug-cc-pvdz iop(5/13=1,5/36=2,99/5=2) pseudo=read geom=check gue
 ss=(read,tcheck) scf=(maxcycle=1)
 ----------------------------------------------------------------------
 -----
 title
 -----
 Structure from the checkpoint file:  "Grambow2020_wb97xd3_009074_reverse_mol1.chk"
 Charge =  0 Multiplicity = 1

                         Standard orientation:
 ---------------------------------------------------------------------
 Center     Atomic      Atomic             Coordinates (Angstroms)
 Number     Number       Type             X           Y           Z
 ---------------------------------------------------------------------
      1          6           0        2.430739   -0.540925   -0.006495
      2          7           0        1.162073   -0.014284   -0.466124
      3          6           0        0.630631    0.991733    0.224702
      4          6           0       -0.761865    1.292089   -0.117159
      5          6           0       -1.140724    0.002039    0.006778
      6          6           0       -2.465482   -0.664781   -0.023257
      7          7           0       -0.013928   -0.780411    0.262915
      8          1           0        2.531741   -0.506288    1.083974
      9          1           0        3.225593    0.038571   -0.477107
     10          1           0        2.508168   -1.574747   -0.336300
     11          1           0        1.179407    1.448524    1.056064
     12          1           0       -1.258530    2.223955   -0.317932
     13          1           0       -2.488136   -1.376990   -0.851619
     14          1           0       -3.271896    0.057813   -0.139349
     15          1           0       -2.623156   -1.228910    0.897314
 ---------------------------------------------------------------------

 SCF Done:  E(RHF) =  -302.820083425     A.U. after    2 cycles

 The electronic state is 1-A.
 Alpha  occ. eigenvalues --  -15.67141 -15.61541 -11.36476 -11.29648 -11.26690
 Alpha  occ. eigenvalues --  -11.23712 -11.21425  -1.30917  -1.12529  -1.00321
 Alpha  occ. eigenvalues --   -0.96754  -0.92268  -0.80123  -0.71178  -0.69097
 Alpha  occ. eigenvalues --   -0.64931  -0.63373  -0.59366  -0.57625  -0.57204
 Alpha  occ. eigenvalues --   -0.52722  -0.50079  -0.49132  -0.41250  -0.39034
 Alpha  occ. eigenvalues --   -0.28012
 Alpha virt. eigenvalues --    0.03019   0.03797   0.04202   0.04724   0.06098
 Alpha virt. eigenvalues --    0.06780   0.07394   0.08062   0.08265   0.10820
 Alpha virt. eigenvalues --    0.12155   0.12924   0.13374   0.13625   0.14340

 Mulliken charges:
               1
     1  C    0.814242
     2  N   -0.717362
     3  C    0.853274
     4  C    0.587097
     5  C   -0.091689
     6  C    0.478079
     7  N   -0.966066
     8  H   -0.062735
     9  H   -0.157626
    10  H   -0.157948
    11  H   -0.283573
    12  H   -0.364209
    13  H    0.060061
    14  H   -0.032248
    15  H    0.040703
 Sum of Mulliken charges =  -0.00000

 Dipole moment (field-independent basis, Debye):
    X=              0.7498    Y=              1.9298    Z=              0.6754  Tot=              2.1778

 Test job not archived.
 1\1\GINC-SE162\SP\RHF\Aug-CC-pVDZ\C5H8N2\OHZDE\09-Apr-2025\0\\#t hf au
 g-cc-pvdz iop(5/13=1,5/36=2,99/5=2) pseudo=read geom=check guess=(read
 ,tcheck) scf=(maxcycle=1)\\title\\0,1\C,0,2.42678562,-0.62200833,-0.05
 354046\N,0,1.13298284,-0.23871348,-0.58011533\C,0,0.69034857,0.9820242
 1,-0.28751486\C,0,-0.72082878,1.2078135,-0.60958263\C,0,-1.11512238,0.
 08420817,0.02694459\C,0,-2.45144034,-0.46912843,0.35650215\N,0,0.01291
 07,-0.60455521,0.47488453\H,0,2.62919218,-0.18257336,0.92954277\H,0,3.
 18726079,-0.30937593,-0.7697973\H,0,2.45032721,-1.70629835,0.03198689\

 Normal termination of Gaussian 16 at Wed Apr  9 16:56:25 2025.
