 Gaussian 16, Revision C.01,

 ----------------------------------------------------------------------
 #t hf aug-cc-pvdz symm=none int=(grid=ultrafine) guess=(read,tcheck) s
 table=(opt,rrhf)
 ----------------------------------------------------------------------
 -----
 title
 -----
 Symbolic Z-matrix:
 Charge =  0 Multiplicity = 1

 SCF Done:  E(RHF) =  -305.706664560     A.U. after   15 cycles
 Normal termination of Gaussian 16 at Wed Apr  9 13:59:17 2025.
 Gaussian 16:  ES64L-G16RevC.01  3-Jul-2019

 ----------------------------------------------------------------------
 #t hf aug-cc-pvdz iop(5/13=1,5/36=2,99/5=2) pseudo=read geom=check gue
 ss=(read,tcheck) scf=(maxcycle=1)
 ----------------------------------------------------------------------
 -----
 title
 -----
 Structure from the checkpoint file:  "Grambow2020_b97d3_006758_forward_mol1.chk"
 Charge =  0 Multiplicity = 1

                         Standard orientation:
 ---------------------------------------------------------------------
 Center     Atomic      Atomic             Coordinates (Angstroms)
 Number     Number       Type             X           Y           Z
 ---------------------------------------------------------------------
      1          6           0       -2.527961    0.008472    0.061684
      2          6           0       -1.201432   -0.731953   -0.111157
      3          6           0        0.014748    0.175465   -0.035634
      4          8           0       -0.025577    1.389027    0.020998
      5          6           0        1.399273   -0.554610   -0.075827
      6          8           0        2.529079    0.120921   -0.100822
      7          1           0       -2.569369    0.512838    1.035454
      8          1           0       -3.371108   -0.690934   -0.005751
      9          1           0       -2.646386    0.775726   -0.713201
     10          1           0       -1.165358   -1.248427   -1.086991
     11          1           0       -1.084237   -1.532770    0.638774
     12          1           0        1.267307   -1.149857    1.326043
     13          1           0        1.330318   -1.543529   -0.589239
     14          1           0        2.103052   -0.586875    0.999103
 ---------------------------------------------------------------------

 SCF Done:  E(RHF) =  -305.802074664     A.U. after    2 cycles

 The electronic state is 1-A.
 Alpha  occ. eigenvalues --  -20.59422 -20.54975 -11.40214 -11.37100 -11.27686
 Alpha  occ. eigenvalues --  -11.24846  -1.37905  -1.33235  -1.07407  -0.97525
 Alpha  occ. eigenvalues --   -0.87846  -0.77842  -0.73166  -0.70929  -0.66002
 Alpha  occ. eigenvalues --   -0.64645  -0.62338  -0.55844  -0.54969  -0.53907
 Alpha  occ. eigenvalues --   -0.51286  -0.49888  -0.43242  -0.41471
 Alpha virt. eigenvalues --    0.02130   0.03507   0.03970   0.04835   0.06063
 Alpha virt. eigenvalues --    0.06514   0.07353   0.08286   0.08889   0.10503
 Alpha virt. eigenvalues --    0.11921   0.12939   0.13214   0.13894   0.14599

 Mulliken charges:
               1
     1  C    0.415662
     2  C    0.042569
     3  C   -0.013612
     4  O   -0.464226
     5  C    0.555084
     6  O   -0.768963
     7  H   -0.039092
     8  H   -0.022416
     9  H   -0.024731
    10  H    0.060088
    11  H   -0.038627
    12  H    0.128052
    13  H   -0.099150
    14  H    0.269362
 Sum of Mulliken charges =  -0.00000

 Dipole moment (field-independent basis, Debye):
    X=             -3.2530    Y=             -4.9544    Z=              0.7009  Tot=              5.9682

 Test job not archived.
 1\1\GINC-SE131\SP\RHF\Aug-CC-pVDZ\C4H8O2\OHZDE\09-Apr-2025\0\\#t hf au
 g-cc-pvdz iop(5/13=1,5/36=2,99/5=2) pseudo=read geom=check guess=(read
 ,tcheck) scf=(maxcycle=1)\\title\\0,1\C,0,-2.1081271,0.29366896,-0.153
 65087\C,0,-0.7659896,-0.43385633,-0.06905618\C,0,0.43008272,0.46649493
 ,-0.32787088\O,0,0.36317996,1.62192654,-0.69944606\C,0,1.83025075,-0.2
 0371351,-0.12322062\O,0,2.94486251,0.44256269,-0.39413638\H,0,-2.15858
 668,1.1062929,0.58216476\H,0,-2.93581751,-0.40164764,0.03628313\H,0,-2
 .24502913,0.73830476,-1.14698265\H,0,-0.72060029,-1.25864666,-0.802512

 Normal termination of Gaussian 16 at Wed Apr  9 13:59:21 2025.
