 Gaussian 16, Revision C.01,

 ----------------------------------------------------------------------
 #t hf aug-cc-pvdz symm=none int=(grid=ultrafine) guess=(read,tcheck) s
 table=(opt,rrhf)
 ----------------------------------------------------------------------
 -----
 title
 -----
 Symbolic Z-matrix:
 Charge =  0 Multiplicity = 1

 SCF Done:  E(RHF) =  -321.405653258     A.U. after   15 cycles
 Normal termination of Gaussian 16 at Wed Apr  9 16:22:48 2025.
 Gaussian 16:  ES64L-G16RevC.01  3-Jul-2019

 ----------------------------------------------------------------------
 #t hf aug-cc-pvdz iop(5/13=1,5/36=2,99/5=2) pseudo=read geom=check gue
 ss=(read,tcheck) scf=(maxcycle=1)
 ----------------------------------------------------------------------
 -----
 title
 -----
 Structure from the checkpoint file:  "Grambow2020_wb97xd3_008184_forward_mol1.chk"
 Charge =  0 Multiplicity = 1

                         Standard orientation:
 ---------------------------------------------------------------------
 Center     Atomic      Atomic             Coordinates (Angstroms)
 Number     Number       Type             X           Y           Z
 ---------------------------------------------------------------------
      1          8           0        0.014649    2.143789   -0.503185
      2          6           0       -0.088579    1.169093    0.753683
      3          6           0       -0.056618   -0.110444    0.027838
      4          6           0        1.183539   -0.824618   -0.009881
      5          6           0        2.248369   -1.377641   -0.061548
      6          6           0       -1.277558   -0.847547   -0.047173
      7          7           0       -2.283142   -1.403314   -0.126318
      8          1           0        0.895002    2.541219   -0.568561
      9          1           0        0.769181    1.403103    1.378064
     10          1           0       -1.034156    1.447343    1.205453
     11          1           0       -0.000900    1.116801   -0.983309
     12          1           0        3.180758   -1.888632   -0.099457
 ---------------------------------------------------------------------

 SCF Done:  E(RHF) =  -321.504609851     A.U. after    2 cycles

 The electronic state is 1-A.
 Alpha  occ. eigenvalues --  -20.69114 -15.61109 -11.36889 -11.27238 -11.27014
 Alpha  occ. eigenvalues --  -11.25749 -11.23590  -1.43197  -1.17691  -1.10432
 Alpha  occ. eigenvalues --   -1.01672  -0.92210  -0.84130  -0.77684  -0.73420
 Alpha  occ. eigenvalues --   -0.68493  -0.66583  -0.63046  -0.60197  -0.52547
 Alpha  occ. eigenvalues --   -0.51603  -0.44973  -0.43392  -0.40455  -0.31899
 Alpha virt. eigenvalues --    0.01336   0.03749   0.03853   0.04975   0.06411
 Alpha virt. eigenvalues --    0.08876   0.09534   0.09965   0.10732   0.11744
 Alpha virt. eigenvalues --    0.12333   0.13208   0.14098   0.14393   0.15378

 Mulliken charges:
               1
     1  O   -0.559198
     2  C    0.760865
     3  C    0.274105
     4  C   -0.257678
     5  C    0.642391
     6  C   -0.627945
     7  N   -0.233720
     8  H    0.258370
     9  H   -0.186980
    10  H   -0.252027
    11  H    0.667962
    12  H   -0.486144
 Sum of Mulliken charges =  -0.00000

 Dipole moment (field-independent basis, Debye):
    X=              4.5995    Y=              5.7623    Z=              0.9477  Tot=              7.4336

 Test job not archived.
 1\1\GINC-SE042\SP\RHF\Aug-CC-pVDZ\C5H5N1O1\OHZDE\09-Apr-2025\0\\#t hf
 aug-cc-pvdz iop(5/13=1,5/36=2,99/5=2) pseudo=read geom=check guess=(re
 ad,tcheck) scf=(maxcycle=1)\\title\\0,1\O,0,-1.61155586,-0.65713742,-0
 .9325124\C,0,-0.88274268,-0.62007614,0.48447892\C,0,0.46197756,-0.2480
 8944,0.01710325\C,0,0.85702707,1.12190962,0.14553358\C,0,1.14223493,2.
 28580186,0.22540143\C,0,1.46828244,-1.26077021,0.05544518\N,0,2.251215
 47,-2.10536133,0.06018934\H,0,-2.18765561,0.11170756,-1.05181061\H,0,-
 1.4216159,0.11745373,1.07272187\H,0,-1.0058556,-1.63252239,0.85248721\

 Normal termination of Gaussian 16 at Wed Apr  9 16:22:52 2025.
