 Gaussian 16, Revision C.01,

 ----------------------------------------------------------------------
 #t hf aug-cc-pvdz symm=none int=(grid=ultrafine) guess=(read,tcheck) s
 table=(opt,rrhf)
 ----------------------------------------------------------------------
 -----
 title
 -----
 Symbolic Z-matrix:
 Charge =  0 Multiplicity = 1

 SCF Done:  E(RHF) =  -344.819497542     A.U. after   14 cycles

 1\1\GINC-SE174\Stability\RHF\Aug-CC-pVDZ\C5H10O2\OHZDE\09-Apr-2025\0\\
 #t hf aug-cc-pvdz symm=none int=(grid=ultrafine) guess=(read,tcheck) s
 table=(opt,rrhf)\\title\\0,1\C,0,-2.22411782,-0.67709619,-0.54484042\C
 ,0,-1.13594323,0.37716035,-0.68604015\C,0,0.00956572,0.17498975,0.2763
 6898\O,0,0.74273101,-1.0567208,-0.04916079\C,0,1.22029661,1.08758028,0
 .09433647\C,0,2.12039907,-0.13655737,-0.13390874\O,0,2.68648661,-0.702
 92778,0.89525942\H,0,-3.01887948,-0.51873758,-1.27483407\H,0,-1.815392
 58,-1.67654253,-0.70072658\H,0,-2.67465504,-0.64819271,0.45009689\H,0,

 Normal termination of Gaussian 16 at Wed Apr  9 16:10:15 2025.
 Gaussian 16:  ES64L-G16RevC.01  3-Jul-2019

 ----------------------------------------------------------------------
 #t hf aug-cc-pvdz iop(5/13=1,5/36=2,99/5=2) pseudo=read geom=check gue
 ss=(read,tcheck) scf=(maxcycle=1)
 ----------------------------------------------------------------------
 -----
 title
 -----
 Structure from the checkpoint file:  "Grambow2020_wb97xd3_007830_reverse_mol1.chk"
 Charge =  0 Multiplicity = 1

                         Standard orientation:
 ---------------------------------------------------------------------
 Center     Atomic      Atomic             Coordinates (Angstroms)
 Number     Number       Type             X           Y           Z
 ---------------------------------------------------------------------
      1          6           0        2.698628   -0.544659   -0.035824
      2          6           0        1.674422    0.557709    0.190682
      3          6           0        0.336030    0.258009   -0.440335
      4          8           0       -0.302483   -0.885039    0.227763
      5          6           0       -0.798005    1.230795   -0.124930
      6          6           0       -1.621515    0.086995    0.486909
      7          8           0       -2.412370   -0.603556   -0.286464
      8          1           0        3.641737   -0.309691    0.459100
      9          1           0        2.336369   -1.494834    0.359380
     10          1           0        2.905055   -0.678678   -1.100318
     11          1           0        1.521741    0.722077    1.261880
     12          1           0        2.032381    1.505279   -0.225163
     13          1           0        0.455956    0.026051   -1.501609
     14          1           0       -1.257652   -1.195801   -0.411626
     15          1           0       -1.300728    1.672970   -0.982028
     16          1           0       -0.515264    2.004518    0.589322
     17          1           0       -1.838141    0.123768    1.561666
 ---------------------------------------------------------------------

 SCF Done:  E(RHF) =  -344.927129946     A.U. after    2 cycles

 The electronic state is 1-A.
 Alpha  occ. eigenvalues --  -20.60129 -20.52533 -11.37360 -11.31417 -11.25076
 Alpha  occ. eigenvalues --  -11.24785 -11.23277  -1.39623  -1.27305  -1.07590
 Alpha  occ. eigenvalues --   -1.02300  -0.91324  -0.83781  -0.78484  -0.74139
 Alpha  occ. eigenvalues --   -0.69888  -0.66068  -0.61631  -0.60512  -0.59704
 Alpha  occ. eigenvalues --   -0.57191  -0.54857  -0.52584  -0.50578  -0.49346
 Alpha  occ. eigenvalues --   -0.48105  -0.44400  -0.42186
 Alpha virt. eigenvalues --    0.03123   0.03964   0.04178   0.04743   0.06263
 Alpha virt. eigenvalues --    0.06489   0.06697   0.07099   0.07945   0.09176
 Alpha virt. eigenvalues --    0.11187   0.12539   0.13422   0.13671   0.14221

 Mulliken charges:
               1
     1  C    0.472921
     2  C    0.056256
     3  C    0.319670
     4  O   -1.002035
     5  C    0.432916
     6  C    1.019541
     7  O   -0.853631
     8  H   -0.045105
     9  H   -0.048948
    10  H   -0.067598
    11  H   -0.036504
    12  H   -0.043568
    13  H   -0.300697
    14  H    0.553306
    15  H   -0.094216
    16  H   -0.175620
    17  H   -0.186689
 Sum of Mulliken charges =  -0.00000

 Dipole moment (field-independent basis, Debye):
    X=              3.0876    Y=              2.6334    Z=              0.4264  Tot=              4.0805

 Test job not archived.
 1\1\GINC-SE174\SP\RHF\Aug-CC-pVDZ\C5H10O2\OHZDE\09-Apr-2025\0\\#t hf a
 ug-cc-pvdz iop(5/13=1,5/36=2,99/5=2) pseudo=read geom=check guess=(rea
 d,tcheck) scf=(maxcycle=1)\\title\\0,1\C,0,-2.22411782,-0.67709619,-0.
 54484042\C,0,-1.13594323,0.37716035,-0.68604015\C,0,0.00956572,0.17498
 975,0.27636898\O,0,0.74273101,-1.0567208,-0.04916079\C,0,1.22029661,1.
 08758028,0.09433647\C,0,2.12039907,-0.13655737,-0.13390874\O,0,2.68648
 661,-0.70292778,0.89525942\H,0,-3.01887948,-0.51873758,-1.27483407\H,0
 ,-1.81539258,-1.67654253,-0.70072658\H,0,-2.67465504,-0.64819271,0.450

 Normal termination of Gaussian 16 at Wed Apr  9 16:10:21 2025.
