 Gaussian 16, Revision C.01,

 ----------------------------------------------------------------------
 #t hf aug-cc-pvdz symm=none int=(grid=ultrafine) guess=(read,tcheck) s
 table=(opt,rrhf)
 ----------------------------------------------------------------------
 -----
 title
 -----
 Symbolic Z-matrix:
 Charge =  0 Multiplicity = 1

 SCF Done:  E(RHF) =  -322.632564732     A.U. after   16 cycles
 Normal termination of Gaussian 16 at Wed Apr  9 16:08:04 2025.
 Gaussian 16:  ES64L-G16RevC.01  3-Jul-2019

 ----------------------------------------------------------------------
 #t hf aug-cc-pvdz iop(5/13=1,5/36=2,99/5=2) pseudo=read geom=check gue
 ss=(read,tcheck) scf=(maxcycle=1)
 ----------------------------------------------------------------------
 -----
 title
 -----
 Structure from the checkpoint file:  "Grambow2020_wb97xd3_007789_reverse_mol1.chk"
 Charge =  0 Multiplicity = 1

                         Standard orientation:
 ---------------------------------------------------------------------
 Center     Atomic      Atomic             Coordinates (Angstroms)
 Number     Number       Type             X           Y           Z
 ---------------------------------------------------------------------
      1          6           0        2.507248   -0.468283    0.072365
      2          6           0        1.075387   -0.055947    0.032371
      3          6           0        0.593576    1.202804    0.024405
      4          7           0       -0.816323    1.181584   -0.113574
      5          6           0       -1.201763   -0.102052   -0.138729
      6          8           0       -2.340303   -0.633475    0.153029
      7          6           0       -0.068075   -0.960832   -0.115713
      8          1           0        2.700950   -1.112277    0.932979
      9          1           0        3.168686    0.396239    0.134768
     10          1           0        2.775281   -1.035960   -0.822298
     11          1           0        1.115278    2.144814    0.083840
     12          1           0       -1.426490    1.923799    0.181944
     13          1           0       -0.036589   -1.832522   -0.760421
     14          1           0       -1.298676   -1.381521    0.571787
 ---------------------------------------------------------------------

 SCF Done:  E(RHF) =  -322.731169235     A.U. after    2 cycles

 The electronic state is 1-A.
 Alpha  occ. eigenvalues --  -20.55756 -15.67975 -11.37525 -11.27695 -11.25492
 Alpha  occ. eigenvalues --  -11.24145 -11.22469  -1.36487  -1.25871  -1.08056
 Alpha  occ. eigenvalues --   -0.99279  -0.93871  -0.81558  -0.77918  -0.71775
 Alpha  occ. eigenvalues --   -0.67342  -0.62026  -0.61541  -0.58081  -0.57840
 Alpha  occ. eigenvalues --   -0.56998  -0.53508  -0.50419  -0.46211  -0.38517
 Alpha  occ. eigenvalues --   -0.30626
 Alpha virt. eigenvalues --    0.02977   0.03681   0.04477   0.05145   0.06153
 Alpha virt. eigenvalues --    0.07148   0.08177   0.09302   0.10109   0.11340
 Alpha virt. eigenvalues --    0.12145   0.12517   0.13718   0.14570   0.15310

 Mulliken charges:
               1
     1  C    0.385804
     2  C   -0.400654
     3  C    0.982825
     4  N   -0.495582
     5  C    0.526821
     6  O   -0.749027
     7  C   -0.050100
     8  H    0.068428
     9  H   -0.101827
    10  H    0.052579
    11  H   -0.351768
    12  H   -0.072728
    13  H   -0.297638
    14  H    0.502866
 Sum of Mulliken charges =  -0.00000

 Dipole moment (field-independent basis, Debye):
    X=              2.7517    Y=              1.9445    Z=             -0.0462  Tot=              3.3697

 Test job not archived.
 1\1\GINC-SE138\SP\RHF\Aug-CC-pVDZ\C5H7N1O1\OHZDE\09-Apr-2025\0\\#t hf
 aug-cc-pvdz iop(5/13=1,5/36=2,99/5=2) pseudo=read geom=check guess=(re
 ad,tcheck) scf=(maxcycle=1)\\title\\0,1\C,0,-1.92354353,0.69164893,-0.
 28930151\C,0,-0.5062014,0.30009223,-0.04502697\C,0,0.49331084,1.096713
 32,0.38279303\N,0,1.66999864,0.33340806,0.58297999\C,0,1.39927292,-0.9
 2986093,0.22552284\O,0,2.19180242,-1.87325906,-0.1561882\C,0,0.0274830
 2,-1.06255547,-0.12642399\H,0,-2.21571471,0.46705258,-1.31745441\H,0,-
 2.07815938,1.75650559,-0.11332382\H,0,-2.60018966,0.13817222,0.3666972

 Normal termination of Gaussian 16 at Wed Apr  9 16:08:09 2025.
