 Gaussian 16, Revision C.01,

 ----------------------------------------------------------------------
 #t hf aug-cc-pvdz symm=none int=(grid=ultrafine) guess=(read,tcheck) s
 table=(opt,rrhf)
 ----------------------------------------------------------------------
 -----
 title
 -----
 Symbolic Z-matrix:
 Charge =  0 Multiplicity = 1

 SCF Done:  E(RHF) =  -358.510668225     A.U. after   13 cycles
 Normal termination of Gaussian 16 at Wed Apr  9 03:28:37 2025.
 Gaussian 16:  ES64L-G16RevC.01  3-Jul-2019

 ----------------------------------------------------------------------
 #t hf aug-cc-pvdz iop(5/13=1,5/36=2,99/5=2) pseudo=read geom=check gue
 ss=(read,tcheck) scf=(maxcycle=1)
 ----------------------------------------------------------------------
 -----
 title
 -----
 Structure from the checkpoint file:  "Grambow2020_wb97xd3_006789_reverse_mol2.chk"
 Charge =  0 Multiplicity = 1

                         Standard orientation:
 ---------------------------------------------------------------------
 Center     Atomic      Atomic             Coordinates (Angstroms)
 Number     Number       Type             X           Y           Z
 ---------------------------------------------------------------------
      1          8           0       -3.254896   -0.366498    0.140704
      2          6           0       -2.374677    0.290187   -0.086115
      3          6           0        0.811650   -0.675159    0.719622
      4          6           0        0.915399   -1.150222   -0.669819
      5          7           0        2.041657   -0.416262   -0.077507
      6          6           0        1.243110    0.696186    0.443584
      7          8           0        0.561588    1.553086   -0.400901
      8          1           0       -0.374025    1.330592   -0.393344
      9          1           0        0.810216   -1.240847    1.640270
     10          1           0        0.337787   -0.667918   -1.451797
     11          1           0        1.130673   -2.199502   -0.836523
     12          1           0        1.777322    1.232850    1.221888
 ---------------------------------------------------------------------

 SCF Done:  E(RHF) =  -358.620372026     A.U. after    2 cycles

 The electronic state is 1-A.
 Alpha  occ. eigenvalues --  -20.70368 -20.58304 -15.64438 -11.39432 -11.33923
 Alpha  occ. eigenvalues --  -11.28568 -11.28368  -1.51510  -1.36813  -1.28976
 Alpha  occ. eigenvalues --   -0.95584  -0.84657  -0.83737  -0.81887  -0.73119
 Alpha  occ. eigenvalues --   -0.69792  -0.67975  -0.67962  -0.63219  -0.60157
 Alpha  occ. eigenvalues --   -0.58241  -0.56234  -0.50450  -0.46895  -0.42879
 Alpha  occ. eigenvalues --   -0.39595
 Alpha virt. eigenvalues --    0.03383   0.04086   0.04709   0.05876   0.06754
 Alpha virt. eigenvalues --    0.07680   0.08421   0.09453   0.10762   0.12231
 Alpha virt. eigenvalues --    0.13113   0.13405   0.13859   0.14138   0.14565

 Mulliken charges:
               1
     1  O   -0.228193
     2  C    0.208593
     3  C    0.791205
     4  C    0.810768
     5  N   -0.797528
     6  C    0.809768
     7  O   -0.517744
     8  H    0.182595
     9  H   -0.434277
    10  H   -0.295830
    11  H   -0.284910
    12  H   -0.244447
 Sum of Mulliken charges =  -0.00000

 Dipole moment (field-independent basis, Debye):
    X=             -2.3854    Y=             -1.0201    Z=              0.9462  Tot=              2.7615

 Test job not archived.
 1\1\GINC-SE102\SP\RHF\Aug-CC-pVDZ\C4H5N1O2\OHZDE\09-Apr-2025\0\\#t hf
 aug-cc-pvdz iop(5/13=1,5/36=2,99/5=2) pseudo=read geom=check guess=(re
 ad,tcheck) scf=(maxcycle=1)\\title\\0,1\O,0,3.29031391,-0.04822578,-1.
 3513623\C,0,2.25027131,-0.46109654,-1.42426743\C,0,-0.07734439,0.15712
 542,1.01167018\C,0,-0.54422853,1.25631122,0.15096944\N,0,-1.5330043,0.
 38855049,0.80465117\C,0,-0.91504888,-0.87793211,0.40351803\O,0,-0.8236
 8326,-1.24724202,-0.92583092\H,0,0.07659194,-1.10793352,-1.23409978\H,
 0,0.39732173,0.19874151,1.98149368\H,0,-0.42786316,1.1880519,-0.925851

 Normal termination of Gaussian 16 at Wed Apr  9 03:28:42 2025.
