 Gaussian 16, Revision C.01,

 ----------------------------------------------------------------------
 #t hf aug-cc-pvdz symm=none int=(grid=ultrafine) guess=(read,tcheck) s
 table=(opt,rrhf)
 ----------------------------------------------------------------------
 -----
 title
 -----
 Symbolic Z-matrix:
 Charge =  0 Multiplicity = 1

 SCF Done:  E(RHF) =  -268.659389164     A.U. after   16 cycles
 Normal termination of Gaussian 16 at Wed Apr  9 03:15:03 2025.
 Gaussian 16:  ES64L-G16RevC.01  3-Jul-2019

 ----------------------------------------------------------------------
 #t hf aug-cc-pvdz iop(5/13=1,5/36=2,99/5=2) pseudo=read geom=check gue
 ss=(read,tcheck) scf=(maxcycle=1)
 ----------------------------------------------------------------------
 -----
 title
 -----
 Structure from the checkpoint file:  "Grambow2020_b97d3_007032_forward_mol1.chk"
 Charge =  0 Multiplicity = 1

                         Standard orientation:
 ---------------------------------------------------------------------
 Center     Atomic      Atomic             Coordinates (Angstroms)
 Number     Number       Type             X           Y           Z
 ---------------------------------------------------------------------
      1          6           0       -2.669998    0.206470    0.060899
      2          6           0       -1.339100   -0.442066   -0.006973
      3          6           0       -0.111412   -0.078804   -0.106585
      4          6           0        0.929380    1.105477   -0.076812
      5          6           0        2.124223    0.261437    0.156239
      6          8           0        0.972319   -1.158942   -0.148078
      7          1           0       -3.264774   -0.184693    0.902117
      8          1           0       -2.625670    1.307953    0.168792
      9          1           0       -3.249086   -0.008683   -0.851896
     10          1           0        0.965215    1.650873   -1.029005
     11          1           0        0.704196    1.809230    0.734206
     12          1           0        2.851909    0.087164   -0.632982
     13          1           0        2.488924    0.110103    1.172138
     14          1           0        0.752175   -1.815504    0.560655
 ---------------------------------------------------------------------

 SCF Done:  E(RHF) =  -268.740731276     A.U. after    2 cycles

 The electronic state is 1-A.
 Alpha  occ. eigenvalues --  -20.63080 -11.37892 -11.27114 -11.25963 -11.20750
 Alpha  occ. eigenvalues --  -11.16002  -1.34729  -1.08033  -0.99212  -0.91316
 Alpha  occ. eigenvalues --   -0.84788  -0.76465  -0.70686  -0.63242  -0.61258
 Alpha  occ. eigenvalues --   -0.59867  -0.56438  -0.55169  -0.52761  -0.51741
 Alpha  occ. eigenvalues --   -0.50832  -0.31867  -0.24922
 Alpha virt. eigenvalues --    0.02021   0.03923   0.04249   0.04809   0.05735
 Alpha virt. eigenvalues --    0.06438   0.07064   0.08004   0.08193   0.10197
 Alpha virt. eigenvalues --    0.12056   0.12453   0.13569   0.14450   0.15066

 Mulliken charges:
               1
     1  C    0.343206
     2  C   -1.321558
     3  C    0.670257
     4  C    0.016920
     5  C    1.027258
     6  O   -0.677094
     7  H    0.026574
     8  H   -0.112311
     9  H    0.076796
    10  H    0.064762
    11  H    0.024576
    12  H   -0.169800
    13  H   -0.194057
    14  H    0.224471
 Sum of Mulliken charges =  -0.00000

 Dipole moment (field-independent basis, Debye):
    X=              5.7160    Y=              2.3835    Z=              1.5024  Tot=              6.3727

 Test job not archived.
 1\1\GINC-SE073\SP\RHF\Aug-CC-pVDZ\C5H8O1\OHZDE\09-Apr-2025\0\\#t hf au
 g-cc-pvdz iop(5/13=1,5/36=2,99/5=2) pseudo=read geom=check guess=(read
 ,tcheck) scf=(maxcycle=1)\\title\\0,1\C,0,2.52697553,0.2388098,-0.3190
 3697\C,0,1.18678886,0.71932681,0.09266546\C,0,-0.03272162,0.33033949,-
 0.01021513\C,0,-1.0284583,-0.82593823,-0.40794\C,0,-2.19233304,-0.2984
 3144,0.34139194\O,0,-1.13478514,1.20287863,0.59560956\H,0,3.23528213,0
 .25284494,0.52507165\H,0,2.52559674,-0.78777796,-0.7349532\H,0,2.95288
 63,0.90212827,-1.08938585\H,0,-1.19823467,-0.87332637,-1.49161088\H,0,

 Normal termination of Gaussian 16 at Wed Apr  9 03:15:07 2025.
