 Gaussian 16, Revision C.01,

 ----------------------------------------------------------------------
 #t hf aug-cc-pvdz symm=none int=(grid=ultrafine) guess=(read,tcheck) s
 table=(opt,rrhf)
 ----------------------------------------------------------------------
 -----
 title
 -----
 Symbolic Z-matrix:
 Charge =  0 Multiplicity = 1

 SCF Done:  E(RHF) =  -269.488650955     A.U. after   17 cycles
 Normal termination of Gaussian 16 at Wed Apr  9 14:40:48 2025.
 Gaussian 16:  ES64L-G16RevC.01  3-Jul-2019

 ----------------------------------------------------------------------
 #t hf aug-cc-pvdz iop(5/13=1,5/36=2,99/5=2) pseudo=read geom=check gue
 ss=(read,tcheck) scf=(maxcycle=1)
 ----------------------------------------------------------------------
 -----
 title
 -----
 Structure from the checkpoint file:  "Grambow2020_wb97xd3_006591_forward_mol1.chk"
 Charge =  0 Multiplicity = 1

                         Standard orientation:
 ---------------------------------------------------------------------
 Center     Atomic      Atomic             Coordinates (Angstroms)
 Number     Number       Type             X           Y           Z
 ---------------------------------------------------------------------
      1          6           0       -0.356483    1.647124    0.050900
      2          6           0       -0.509267    0.172043    0.261192
      3          6           0        0.686293   -0.584984    0.800798
      4          6           0        1.912124   -0.387962    0.025447
      5          6           0        2.899563   -0.210997   -0.627414
      6          6           0       -1.674775   -0.478626   -0.089241
      7          6           0       -2.885414   -0.595244   -0.559011
      8          1           0        0.357907    2.064453    0.763930
      9          1           0        0.031451    1.859152   -0.948568
     10          1           0       -1.321543    2.143699    0.150463
     11          1           0       -0.867509   -1.013108   -0.754834
     12          1           0        0.860232   -0.231175    1.823481
     13          1           0        0.457483   -1.649758    0.874102
     14          1           0        3.780398   -0.059217   -1.205702
     15          1           0       -3.730663   -0.482179    0.121097
 ---------------------------------------------------------------------

 SCF Done:  E(RHF) =  -269.572053960     A.U. after    2 cycles

 The electronic state is 1-A.
 Alpha  occ. eigenvalues --  -11.33024 -11.29563 -11.26429 -11.25697 -11.25355
 Alpha  occ. eigenvalues --  -11.25059 -11.22440  -1.15141  -1.06254  -1.00362
 Alpha  occ. eigenvalues --   -0.97914  -0.88387  -0.74314  -0.71211  -0.66715
 Alpha  occ. eigenvalues --   -0.65274  -0.63347  -0.58917  -0.58144  -0.55194
 Alpha  occ. eigenvalues --   -0.51039  -0.41798  -0.41084  -0.38734  -0.30093
 Alpha virt. eigenvalues --    0.02806   0.03524   0.04377   0.04666   0.05589
 Alpha virt. eigenvalues --    0.06484   0.07096   0.07187   0.07999   0.09148
 Alpha virt. eigenvalues --    0.10355   0.11185   0.11608   0.12568   0.13441

 Mulliken charges:
               1
     1  C    0.231587
     2  C   -0.500545
     3  C    0.153704
     4  C   -0.429666
     5  C    1.010286
     6  C   -0.075909
     7  C   -0.039420
     8  H   -0.014414
     9  H    0.155504
    10  H   -0.008647
    11  H    0.230491
    12  H    0.071668
    13  H   -0.011499
    14  H   -0.532807
    15  H   -0.240333
 Sum of Mulliken charges =  -0.00000

 Dipole moment (field-independent basis, Debye):
    X=              3.1291    Y=              1.7187    Z=              2.0473  Tot=              4.1155

 Test job not archived.
 1\1\GINC-SE114\SP\RHF\Aug-CC-pVDZ\C7H8\OHZDE\09-Apr-2025\0\\#t hf aug-
 cc-pvdz iop(5/13=1,5/36=2,99/5=2) pseudo=read geom=check guess=(read,t
 check) scf=(maxcycle=1)\\title\\0,1\C,0,-0.16297931,-1.46866818,-0.393
 80647\C,0,-0.50152838,-0.05463612,-0.03418398\C,0,0.36615177,1.0418489
 4,-0.6159747\C,0,1.79633469,0.86556802,-0.35878104\C,0,2.95969068,0.69
 818431,-0.13258494\C,0,-1.523953,0.22868748,0.84840243\C,0,-2.50274875
 ,-0.03185394,1.66938128\H,0,0.29299446,-1.51384357,-1.38525733\H,0,0.5
 6282839,-1.88537274,0.30900567\H,0,-1.0579401,-2.08987439,-0.36235049\

 Normal termination of Gaussian 16 at Wed Apr  9 14:40:53 2025.
