 Gaussian 16, Revision C.01,

 ----------------------------------------------------------------------
 #t hf aug-cc-pvdz symm=none int=(grid=ultrafine) guess=(read,tcheck) s
 table=(opt,rrhf)
 ----------------------------------------------------------------------
 -----
 title
 -----
 Symbolic Z-matrix:
 Charge =  0 Multiplicity = 1

 SCF Done:  E(RHF) =  -338.610280297     A.U. after   15 cycles
 Normal termination of Gaussian 16 at Wed Apr  9 16:33:04 2025.
 Gaussian 16:  ES64L-G16RevC.01  3-Jul-2019

 ----------------------------------------------------------------------
 #t hf aug-cc-pvdz iop(5/13=1,5/36=2,99/5=2) pseudo=read geom=check gue
 ss=(read,tcheck) scf=(maxcycle=1)
 ----------------------------------------------------------------------
 -----
 title
 -----
 Structure from the checkpoint file:  "Grambow2020_wb97xd3_008555_forward_mol1.chk"
 Charge =  0 Multiplicity = 1

                         Standard orientation:
 ---------------------------------------------------------------------
 Center     Atomic      Atomic             Coordinates (Angstroms)
 Number     Number       Type             X           Y           Z
 ---------------------------------------------------------------------
      1          7           0       -2.753947    1.167710    0.066200
      2          6           0       -2.632857    0.036450   -0.235222
      3          8           0       -1.043959   -1.075396    0.160196
      4          6           0        0.117825   -0.611640   -0.437704
      5          6           0        1.148695   -0.271329    0.648418
      6          6           0        2.385861    0.266920    0.092758
      7          7           0        3.343882    0.695885   -0.370720
      8          1           0       -2.187286    1.825208    0.578124
      9          1           0       -2.305849   -1.009502   -0.542810
     10          1           0       -0.051455    0.292756   -1.049176
     11          1           0        0.549169   -1.363920   -1.111291
     12          1           0        0.725537    0.460221    1.339855
     13          1           0        1.374869   -1.169160    1.225872
 ---------------------------------------------------------------------

 SCF Done:  E(RHF) =  -338.714712711     A.U. after    2 cycles

 The electronic state is 1-A.
 Alpha  occ. eigenvalues --  -20.52678 -15.72253 -15.62665 -11.41439 -11.29142
 Alpha  occ. eigenvalues --  -11.27692 -11.27472  -1.30259  -1.26252  -1.18709
 Alpha  occ. eigenvalues --   -1.04336  -0.90553  -0.86016  -0.79094  -0.68764
 Alpha  occ. eigenvalues --   -0.66674  -0.60468  -0.59803  -0.57346  -0.55735
 Alpha  occ. eigenvalues --   -0.54309  -0.53101  -0.46535  -0.45004  -0.42301
 Alpha  occ. eigenvalues --   -0.40124
 Alpha virt. eigenvalues --    0.02223   0.03785   0.04705   0.05332   0.06478
 Alpha virt. eigenvalues --    0.06950   0.07950   0.08439   0.09402   0.10088
 Alpha virt. eigenvalues --    0.11112   0.12638   0.13084   0.14211   0.14535

 Mulliken charges:
               1
     1  N   -0.017392
     2  C    0.263898
     3  O   -0.993781
     4  C    0.812578
     5  C    0.212923
     6  C   -0.233444
     7  N   -0.200790
     8  H    0.066413
     9  H    0.428027
    10  H   -0.207213
    11  H   -0.190629
    12  H   -0.000876
    13  H    0.060286
 Sum of Mulliken charges =  -0.00000

 Dipole moment (field-independent basis, Debye):
    X=             -5.4719    Y=              1.3924    Z=              0.8181  Tot=              5.7052

 Test job not archived.
 1\1\GINC-SE125\SP\RHF\Aug-CC-pVDZ\C4H6N2O1\OHZDE\09-Apr-2025\0\\#t hf
 aug-cc-pvdz iop(5/13=1,5/36=2,99/5=2) pseudo=read geom=check guess=(re
 ad,tcheck) scf=(maxcycle=1)\\title\\0,1\N,0,-2.41760711,1.47484675,0.6
 9183047\C,0,-1.99884398,0.65393312,1.42395446\O,0,-0.15598113,-0.06653
 927,1.38001503\C,0,0.15543818,-0.71604716,0.1953407\C,0,1.33473112,-0.
 00265339,-0.48178818\C,0,1.69066494,-0.60698572,-1.76129705\N,0,1.9430
 7412,-1.09638437,-2.76797731\H,0,-2.02074676,2.01965599,-0.05727529\H,
 0,-1.47241577,-0.1989297,1.96345219\H,0,-0.6912539,-0.73389875,-0.5140

 Normal termination of Gaussian 16 at Wed Apr  9 16:33:10 2025.
