 Gaussian 16, Revision C.01,

 ----------------------------------------------------------------------
 #t hf aug-cc-pvdz symm=none int=(grid=ultrafine) guess=(read,tcheck) s
 table=(opt,rrhf)
 ----------------------------------------------------------------------
 -----
 title
 -----
 Symbolic Z-matrix:
 Charge =  0 Multiplicity = 1

 SCF Done:  E(RHF) =  -360.887712126     A.U. after   14 cycles
 Normal termination of Gaussian 16 at Wed Apr  9 03:28:26 2025.
 Gaussian 16:  ES64L-G16RevC.01  3-Jul-2019

 ----------------------------------------------------------------------
 #t hf aug-cc-pvdz iop(5/13=1,5/36=2,99/5=2) pseudo=read geom=check gue
 ss=(read,tcheck) scf=(maxcycle=1)
 ----------------------------------------------------------------------
 -----
 title
 -----
 Structure from the checkpoint file:  "Grambow2020_wb97xd3_006761_reverse_mol2.chk"
 Charge =  0 Multiplicity = 1

                         Standard orientation:
 ---------------------------------------------------------------------
 Center     Atomic      Atomic             Coordinates (Angstroms)
 Number     Number       Type             X           Y           Z
 ---------------------------------------------------------------------
      1          6           0        0.794080    1.660874    0.770837
      2          7           0       -2.596448   -0.203195    0.173623
      3          6           0       -2.164579    0.561566   -0.559755
      4          8           0        0.726347    1.020152   -0.485402
      5          6           0        1.524042   -0.146088   -0.581170
      6          6           0        0.725454   -1.420461   -0.381049
      7          8           0        0.185334   -1.528701    0.916940
      8          1           0        0.475458    0.999083    1.580640
      9          1           0        1.812307    2.010712    0.977598
     10          1           0        0.132233    2.526559    0.729759
     11          1           0       -1.722700    1.263249   -1.234519
     12          1           0        1.966089   -0.157251   -1.582800
     13          1           0        2.340474   -0.103497    0.148858
     14          1           0       -0.062835   -1.480403   -1.139972
     15          1           0        1.395208   -2.272490   -0.539330
     16          1           0       -0.728529   -1.230553    0.898914
 ---------------------------------------------------------------------

 SCF Done:  E(RHF) =  -361.004316792     A.U. after    2 cycles

 The electronic state is 1-A.
 Alpha  occ. eigenvalues --  -20.57917 -20.56232 -15.66540 -11.31037 -11.28843
 Alpha  occ. eigenvalues --  -11.28595 -11.28494  -1.34713  -1.31435  -1.21876
 Alpha  occ. eigenvalues --   -1.01714  -0.92361  -0.83583  -0.80630  -0.72053
 Alpha  occ. eigenvalues --   -0.68738  -0.66286  -0.65431  -0.60551  -0.57743
 Alpha  occ. eigenvalues --   -0.57297  -0.53818  -0.52114  -0.50453  -0.50041
 Alpha  occ. eigenvalues --   -0.49005  -0.48412  -0.42294
 Alpha virt. eigenvalues --    0.03093   0.04249   0.04352   0.05568   0.06229
 Alpha virt. eigenvalues --    0.06320   0.07215   0.08548   0.09062   0.09327
 Alpha virt. eigenvalues --    0.11748   0.12578   0.13217   0.13657   0.14620

 Mulliken charges:
               1
     1  C    0.741041
     2  N   -0.283127
     3  C    0.296890
     4  O   -0.726738
     5  C    0.521445
     6  C    0.737276
     7  O   -0.503581
     8  H    0.034518
     9  H   -0.150661
    10  H   -0.269017
    11  H   -0.002466
    12  H   -0.184628
    13  H   -0.068840
    14  H   -0.157131
    15  H   -0.159684
    16  H    0.174705
 Sum of Mulliken charges =   0.00000

 Dipole moment (field-independent basis, Debye):
    X=              1.2578    Y=              2.2562    Z=             -2.2151  Tot=              3.4028

 Test job not archived.
 1\1\GINC-SE332\SP\RHF\Aug-CC-pVDZ\C4H9N1O2\OHZDE\09-Apr-2025\0\\#t hf
 aug-cc-pvdz iop(5/13=1,5/36=2,99/5=2) pseudo=read geom=check guess=(re
 ad,tcheck) scf=(maxcycle=1)\\title\\0,1\C,0,1.14559376,0.80120776,-1.2
 9207285\N,0,1.31214793,-2.26716882,1.13370919\C,0,1.62057683,-1.208867
 31,1.44043584\O,0,0.47446208,1.02245592,-0.06982913\C,0,-0.93756182,1.
 01448871,-0.17813657\C,0,-1.54941133,-0.31169761,0.23257915\O,0,-1.174
 5025,-1.37286299,-0.61688632\H,0,0.87333805,-0.16043058,-1.73524103\H,
 0,0.92394001,1.59907749,-2.01054163\H,0,2.21549107,0.81232564,-1.08151

 Normal termination of Gaussian 16 at Wed Apr  9 03:28:30 2025.
