 Gaussian 16, Revision C.01,

 ----------------------------------------------------------------------
 #t hf aug-cc-pvdz symm=none int=(grid=ultrafine) guess=(read,tcheck) s
 table=(opt,rrhf)
 ----------------------------------------------------------------------
 -----
 title
 -----
 Symbolic Z-matrix:
 Charge =  0 Multiplicity = 1

 SCF Done:  E(RHF) =  -308.821771115     A.U. after   17 cycles

 1\1\GINC-SE041\Stability\RHF\Aug-CC-pVDZ\C6H12O1\OHZDE\09-Apr-2025\0\\
 #t hf aug-cc-pvdz symm=none int=(grid=ultrafine) guess=(read,tcheck) s
 table=(opt,rrhf)\\title\\0,1\C,0,-0.72265484,-1.71569627,-0.09646441\C
 ,0,-0.70006751,-0.24526509,-0.5747869\C,0,-1.67660961,0.56743177,0.121
 24677\C,0,0.05651385,1.9059476,0.88624549\O,0,0.84090681,0.75189743,1.
 04335649\C,0,0.75243311,0.3227358,-0.26777939\C,0,1.94214136,-0.477010
 12,-0.6835159\H,0,-1.68816706,-2.17619723,-0.30319978\H,0,0.04370246,-
 2.30974765,-0.59860239\H,0,-0.54408055,-1.76712392,0.97934049\H,0,-0.8

 Normal termination of Gaussian 16 at Wed Apr  9 03:28:20 2025.
 Gaussian 16:  ES64L-G16RevC.01  3-Jul-2019

 ----------------------------------------------------------------------
 #t hf aug-cc-pvdz iop(5/13=1,5/36=2,99/5=2) pseudo=read geom=check gue
 ss=(read,tcheck) scf=(maxcycle=1)
 ----------------------------------------------------------------------
 -----
 title
 -----
 Structure from the checkpoint file:  "Grambow2020_wb97xd3_006731_forward_mol1.chk"
 Charge =  0 Multiplicity = 1

                         Standard orientation:
 ---------------------------------------------------------------------
 Center     Atomic      Atomic             Coordinates (Angstroms)
 Number     Number       Type             X           Y           Z
 ---------------------------------------------------------------------
      1          6           0        1.672681   -1.006758    0.529176
      2          6           0        0.538913   -0.783395   -0.498514
      3          6           0       -0.574109   -1.685485   -0.284066
      4          6           0       -1.944009    0.159679    0.031072
      5          8           0       -0.890746    0.789884    0.713176
      6          6           0        0.030538    0.711375   -0.314519
      7          6           0        1.035829    1.813279   -0.259444
      8          1           0        2.086890   -2.010316    0.437984
      9          1           0        2.488337   -0.295579    0.383320
     10          1           0        1.292296   -0.886276    1.545386
     11          1           0        0.951806   -0.850487   -1.507267
     12          1           0       -0.793608   -1.998248    0.730069
     13          1           0       -0.891580   -2.368334   -1.063272
     14          1           0       -2.501964   -0.560341    0.626803
     15          1           0       -2.639929    0.926489   -0.324361
     16          1           0       -1.288727    0.157688   -1.027016
     17          1           0        1.541881    1.851720    0.713765
     18          1           0        1.787992    1.691476   -1.039514
     19          1           0        0.533511    2.770966   -0.403536
 ---------------------------------------------------------------------

 SCF Done:  E(RHF) =  -308.918650782     A.U. after    2 cycles

 The electronic state is 1-A.
 Alpha  occ. eigenvalues --  -20.58588 -11.30200 -11.29524 -11.24775 -11.24208
 Alpha  occ. eigenvalues --  -11.23432 -11.22622  -1.37213  -1.07561  -1.00384
 Alpha  occ. eigenvalues --   -0.92814  -0.90089  -0.83432  -0.75827  -0.68888
 Alpha  occ. eigenvalues --   -0.67054  -0.63087  -0.60478  -0.58761  -0.56712
 Alpha  occ. eigenvalues --   -0.54706  -0.53793  -0.52258  -0.50676  -0.49462
 Alpha  occ. eigenvalues --   -0.44483  -0.43775  -0.23785
 Alpha virt. eigenvalues --    0.03553   0.03678   0.04369   0.04788   0.05548
 Alpha virt. eigenvalues --    0.06161   0.06449   0.06817   0.07397   0.07554
 Alpha virt. eigenvalues --    0.09020   0.09380   0.09758   0.12060   0.12519

 Mulliken charges:
               1
     1  C    0.746083
     2  C   -0.534434
     3  C    0.724360
     4  C    0.706898
     5  O   -0.688881
     6  C   -0.620543
     7  C    0.518253
     8  H   -0.076401
     9  H   -0.117723
    10  H   -0.019570
    11  H   -0.253832
    12  H   -0.143962
    13  H   -0.300177
    14  H   -0.319630
    15  H   -0.267592
    16  H    0.619454
    17  H    0.109203
    18  H    0.003577
    19  H   -0.085085
 Sum of Mulliken charges =   0.00000

 Dipole moment (field-independent basis, Debye):
    X=              0.2309    Y=             -0.7748    Z=             -0.7878  Tot=              1.1289

 Test job not archived.
 1\1\GINC-SE041\SP\RHF\Aug-CC-pVDZ\C6H12O1\OHZDE\09-Apr-2025\0\\#t hf a
 ug-cc-pvdz iop(5/13=1,5/36=2,99/5=2) pseudo=read geom=check guess=(rea
 d,tcheck) scf=(maxcycle=1)\\title\\0,1\C,0,-0.72265484,-1.71569627,-0.
 09646441\C,0,-0.70006751,-0.24526509,-0.5747869\C,0,-1.67660961,0.5674
 3177,0.12124677\C,0,0.05651385,1.9059476,0.88624549\O,0,0.84090681,0.7
 5189743,1.04335649\C,0,0.75243311,0.3227358,-0.26777939\C,0,1.94214136
 ,-0.47701012,-0.6835159\H,0,-1.68816706,-2.17619723,-0.30319978\H,0,0.
 04370246,-2.30974765,-0.59860239\H,0,-0.54408055,-1.76712392,0.9793404

 Normal termination of Gaussian 16 at Wed Apr  9 03:28:28 2025.
