 Gaussian 16, Revision C.01,

 ----------------------------------------------------------------------
 #t hf aug-cc-pvdz symm=none int=(grid=ultrafine) guess=(read,tcheck) s
 table=(opt,rrhf)
 ----------------------------------------------------------------------
 -----
 title
 -----
 Symbolic Z-matrix:
 Charge =  0 Multiplicity = 1

 SCF Done:  E(RHF) =  -308.975793887     A.U. after   14 cycles

 1\1\GINC-SE173\Stability\RHF\Aug-CC-pVDZ\C6H12O1\OHZDE\09-Apr-2025\0\\
 #t hf aug-cc-pvdz symm=none int=(grid=ultrafine) guess=(read,tcheck) s
 table=(opt,rrhf)\\title\\0,1\C,0,2.28564982,0.28459105,-0.38698292\C,0
 ,2.15988853,1.37390354,0.63147938\O,0,1.35476635,1.39110521,1.52389215
 \C,0,-0.86416947,-1.180604,1.25846361\C,0,-2.23034343,-1.61998706,0.81
 617737\C,0,-0.92952563,-2.36134982,0.75255049\C,0,-1.07999305,1.240608
 23,-1.44774653\H,0,1.53362778,-0.48688563,-0.23152467\H,0,3.28830749,-
 0.14751661,-0.32873195\H,0,2.18219792,0.71310794,-1.38718308\H,0,-0.85

 Normal termination of Gaussian 16 at Wed Apr  9 17:15:51 2025.
 Gaussian 16:  ES64L-G16RevC.01  3-Jul-2019

 ----------------------------------------------------------------------
 #t hf aug-cc-pvdz iop(5/13=1,5/36=2,99/5=2) pseudo=read geom=check gue
 ss=(read,tcheck) scf=(maxcycle=1)
 ----------------------------------------------------------------------
 -----
 title
 -----
 Structure from the checkpoint file:  "Grambow2020_wb97xd3_009427_reverse_mol2.chk"
 Charge =  0 Multiplicity = 1

                         Standard orientation:
 ---------------------------------------------------------------------
 Center     Atomic      Atomic             Coordinates (Angstroms)
 Number     Number       Type             X           Y           Z
 ---------------------------------------------------------------------
      1          6           0       -1.967137   -0.374107    1.158544
      2          6           0       -2.448401   -0.474268   -0.254975
      3          8           0       -1.749778   -0.711747   -1.203894
      4          6           0        1.546505   -0.784278   -0.345362
      5          6           0        2.850775   -0.041000   -0.306366
      6          6           0        2.278034   -1.003078    0.689709
      7          6           0       -0.000995    2.488064    0.014428
      8          1           0       -0.890227   -0.521143    1.217917
      9          1           0       -2.484767   -1.119909    1.767864
     10          1           0       -2.234632    0.606147    1.561382
     11          1           0        0.448832    1.985273    0.869886
     12          1           0       -3.536814   -0.312563   -0.399330
     13          1           0        0.636341   -0.948441   -0.898542
     14          1           0        2.853625    1.026341   -0.086703
     15          1           0        3.667505   -0.356920   -0.954048
     16          1           0        2.432943   -1.501663    1.630092
     17          1           0       -0.932542    2.965328    0.317616
     18          1           0        0.684787    3.245465   -0.361830
     19          1           0       -0.199517    1.758062   -0.769016
 ---------------------------------------------------------------------

 SCF Done:  E(RHF) =  -309.080800774     A.U. after    2 cycles

 The electronic state is 1-A.
 Alpha  occ. eigenvalues --  -20.58035 -11.35346 -11.25251 -11.24458 -11.24211
 Alpha  occ. eigenvalues --  -11.23942 -11.21541  -1.37129  -1.14620  -1.02074
 Alpha  occ. eigenvalues --   -0.93769  -0.81694  -0.80847  -0.75707  -0.69329
 Alpha  occ. eigenvalues --   -0.67740  -0.64388  -0.61545  -0.59448  -0.56802
 Alpha  occ. eigenvalues --   -0.54623  -0.54450  -0.54369  -0.52378  -0.48936
 Alpha  occ. eigenvalues --   -0.44664  -0.41423  -0.35328
 Alpha virt. eigenvalues --    0.02904   0.04020   0.04320   0.04998   0.05651
 Alpha virt. eigenvalues --    0.06223   0.06366   0.07524   0.08279   0.08858
 Alpha virt. eigenvalues --    0.09388   0.09741   0.10602   0.11608   0.12298

 Mulliken charges:
               1
     1  C    0.336133
     2  C    0.513216
     3  O   -0.426873
     4  C    0.596598
     5  C    0.586577
     6  C    0.066809
     7  C    0.767800
     8  H   -0.252811
     9  H   -0.000362
    10  H    0.015296
    11  H   -0.234584
    12  H   -0.198007
    13  H   -0.372008
    14  H   -0.295479
    15  H   -0.224805
    16  H   -0.333834
    17  H   -0.203780
    18  H   -0.179013
    19  H   -0.160874
 Sum of Mulliken charges =   0.00000

 Dipole moment (field-independent basis, Debye):
    X=             -2.1850    Y=              0.3058    Z=              2.8776  Tot=              3.6261

 Test job not archived.
 1\1\GINC-SE173\SP\RHF\Aug-CC-pVDZ\C6H12O1\OHZDE\09-Apr-2025\0\\#t hf a
 ug-cc-pvdz iop(5/13=1,5/36=2,99/5=2) pseudo=read geom=check guess=(rea
 d,tcheck) scf=(maxcycle=1)\\title\\0,1\C,0,2.28564982,0.28459105,-0.38
 698292\C,0,2.15988853,1.37390354,0.63147938\O,0,1.35476635,1.39110521,
 1.52389215\C,0,-0.86416947,-1.180604,1.25846361\C,0,-2.23034343,-1.619
 98706,0.81617737\C,0,-0.92952563,-2.36134982,0.75255049\C,0,-1.0799930
 5,1.24060823,-1.44774653\H,0,1.53362778,-0.48688563,-0.23152467\H,0,3.
 28830749,-0.14751661,-0.32873195\H,0,2.18219792,0.71310794,-1.38718308

 Normal termination of Gaussian 16 at Wed Apr  9 17:15:58 2025.
