 Gaussian 16, Revision C.01,

 ----------------------------------------------------------------------
 #t hf aug-cc-pvdz symm=none int=(grid=ultrafine) guess=(read,tcheck) s
 table=(opt,rrhf)
 ----------------------------------------------------------------------
 -----
 title
 -----
 Symbolic Z-matrix:
 Charge =  0 Multiplicity = 1

 SCF Done:  E(RHF) =  -206.630195569     A.U. after   14 cycles
 Normal termination of Gaussian 16 at Wed Apr  9 03:08:38 2025.
 Gaussian 16:  ES64L-G16RevC.01  3-Jul-2019

 ----------------------------------------------------------------------
 #t hf aug-cc-pvdz iop(5/13=1,5/36=2,99/5=2) pseudo=read geom=check gue
 ss=(read,tcheck) scf=(maxcycle=1)
 ----------------------------------------------------------------------
 -----
 title
 -----
 Structure from the checkpoint file:  "Grambow2020_b97d3_006673_forward_mol1.chk"
 Charge =  0 Multiplicity = 1

                         Standard orientation:
 ---------------------------------------------------------------------
 Center     Atomic      Atomic             Coordinates (Angstroms)
 Number     Number       Type             X           Y           Z
 ---------------------------------------------------------------------
      1          8           0       -1.382286   -0.089557   -0.304692
      2          6           0       -0.258585   -0.011411    0.461967
      3          6           0        0.946259   -0.762977   -0.044123
      4          7           0        1.260037    0.472326   -0.244390
      5          1           0       -1.968582    0.664039   -0.095600
      6          1           0       -0.336608    0.153797    1.537954
      7          1           0        0.417175    1.238666    0.198851
 ---------------------------------------------------------------------

 SCF Done:  E(RHF) =  -206.689135980     A.U. after    2 cycles

 The electronic state is 1-A.
 Alpha  occ. eigenvalues --  -20.64519 -15.70348 -11.39506 -11.28627  -1.40738
 Alpha  occ. eigenvalues --   -1.26714  -0.92014  -0.81551  -0.76530  -0.67452
 Alpha  occ. eigenvalues --   -0.65367  -0.55432  -0.48916  -0.47883  -0.37454
 Alpha virt. eigenvalues --    0.01835   0.04228   0.05120   0.07836   0.10707
 Alpha virt. eigenvalues --    0.10771   0.11857   0.12899   0.13753   0.14890
 Alpha virt. eigenvalues --    0.16007   0.18148   0.20064   0.20663   0.22150

 Mulliken charges:
               1
     1  O   -0.508874
     2  C    0.635508
     3  C   -0.023640
     4  N   -0.400230
     5  H    0.197020
     6  H   -0.125297
     7  H    0.225514
 Sum of Mulliken charges =  -0.00000

 Dipole moment (field-independent basis, Debye):
    X=             -3.0427    Y=              3.2371    Z=              2.3961  Tot=              5.0476

 Test job not archived.
 1\1\GINC-SE083\SP\RHF\Aug-CC-pVDZ\C2H3N1O1\OHZDE\09-Apr-2025\0\\#t hf
 aug-cc-pvdz iop(5/13=1,5/36=2,99/5=2) pseudo=read geom=check guess=(re
 ad,tcheck) scf=(maxcycle=1)\\title\\0,1\O,0,-0.90767219,0.9050286,-0.3
 6428392\C,0,-0.05427512,-0.15530959,-0.30124724\C,0,1.36582768,0.10636
 664,-0.7342149\N,0,1.46297892,-0.01808975,0.54625657\H,0,-1.66791779,0
 .7429957,0.22828784\H,0,-0.43361882,-1.17392323,-0.3994959\H,0,0.39822
 532,-0.32820636,1.06034154\\Version=ES64L-G16RevC.01\State=1-A\HF=-206
 .689136\RMSD=3.596e-03\Dipole=-1.6289353,-0.7681155,0.8368053\Quadrupo

 Normal termination of Gaussian 16 at Wed Apr  9 03:08:41 2025.
