 Gaussian 16, Revision C.01,

 ----------------------------------------------------------------------
 #t hf aug-cc-pvdz symm=none int=(grid=ultrafine) guess=(read,tcheck) s
 table=(opt,rrhf)
 ----------------------------------------------------------------------
 -----
 title
 -----
 Symbolic Z-matrix:
 Charge =  0 Multiplicity = 1

 SCF Done:  E(RHF) =  -268.690559071     A.U. after   15 cycles
 Normal termination of Gaussian 16 at Wed Apr  9 14:21:20 2025.
 Gaussian 16:  ES64L-G16RevC.01  3-Jul-2019

 ----------------------------------------------------------------------
 #t hf aug-cc-pvdz iop(5/13=1,5/36=2,99/5=2) pseudo=read geom=check gue
 ss=(read,tcheck) scf=(maxcycle=1)
 ----------------------------------------------------------------------
 -----
 title
 -----
 Structure from the checkpoint file:  "Grambow2020_wb97xd3_006050_reverse_mol1.chk"
 Charge =  0 Multiplicity = 1

                         Standard orientation:
 ---------------------------------------------------------------------
 Center     Atomic      Atomic             Coordinates (Angstroms)
 Number     Number       Type             X           Y           Z
 ---------------------------------------------------------------------
      1          6           0        0.950448    1.539873    0.237966
      2          8           0        0.553182    0.399423   -0.509787
      3          6           0        1.166474   -1.172765   -0.034870
      4          6           0       -0.155538   -1.574354    0.323040
      5          6           0       -0.691364   -0.413018    0.036025
      6          6           0       -1.967065    0.327394   -0.033339
      7          1           0        1.941197    1.843917   -0.100781
      8          1           0        0.246716    2.352551    0.051557
      9          1           0        0.971546    1.315688    1.309582
     10          1           0        1.622344   -1.529481   -0.957730
     11          1           0        1.895890   -0.930657    0.739590
     12          1           0       -2.195855    0.638003   -1.055457
     13          1           0       -2.753712   -0.342212    0.312031
     14          1           0       -1.971307    1.214023    0.606571
 ---------------------------------------------------------------------

 SCF Done:  E(RHF) =  -268.774628456     A.U. after    2 cycles

 The electronic state is 1-A.
 Alpha  occ. eigenvalues --  -20.62308 -11.33815 -11.30706 -11.28077 -11.23879
 Alpha  occ. eigenvalues --  -11.18151  -1.36475  -1.09336  -1.00220  -0.93382
 Alpha  occ. eigenvalues --   -0.87430  -0.70824  -0.68976  -0.66902  -0.65711
 Alpha  occ. eigenvalues --   -0.60972  -0.57909  -0.56953  -0.53681  -0.52415
 Alpha  occ. eigenvalues --   -0.49123  -0.34191  -0.33526
 Alpha virt. eigenvalues --    0.02901   0.04044   0.04714   0.04991   0.06159
 Alpha virt. eigenvalues --    0.06619   0.07150   0.08318   0.09834   0.10807
 Alpha virt. eigenvalues --    0.12419   0.12893   0.13523   0.14858   0.15763

 Mulliken charges:
               1
     1  C    0.787675
     2  O   -0.883947
     3  C    0.922584
     4  C   -0.797229
     5  C    0.316828
     6  C    0.418761
     7  H   -0.186264
     8  H   -0.211983
     9  H   -0.072384
    10  H   -0.151320
    11  H   -0.163968
    12  H    0.044307
    13  H   -0.004069
    14  H   -0.018991
 Sum of Mulliken charges =  -0.00000

 Dipole moment (field-independent basis, Debye):
    X=              2.3167    Y=              3.6168    Z=             -0.2172  Tot=              4.3007

 Test job not archived.
 1\1\GINC-SE131\SP\RHF\Aug-CC-pVDZ\C5H8O1\OHZDE\09-Apr-2025\0\\#t hf au
 g-cc-pvdz iop(5/13=1,5/36=2,99/5=2) pseudo=read geom=check guess=(read
 ,tcheck) scf=(maxcycle=1)\\title\\0,1\C,0,-1.48093574,0.57290053,-0.00
 497516\O,0,-0.56168199,-0.50986744,0.00793974\C,0,-0.3484408,-1.449251
 29,-1.4568237\C,0,0.99285911,-0.97260593,-1.56080251\C,0,0.90609798,-0
 .20523299,-0.50165143\C,0,1.66460895,0.71304238,0.37119797\H,0,-2.4858
 1308,0.17116793,0.12772437\H,0,-1.25454432,1.24404217,0.82493388\H,0,-
 1.41843182,1.12638526,-0.94774399\H,0,-0.55038328,-2.46235571,-1.11103

 Normal termination of Gaussian 16 at Wed Apr  9 14:21:24 2025.
