 Gaussian 16, Revision C.01,

 ----------------------------------------------------------------------
 #t hf aug-cc-pvdz symm=none int=(grid=ultrafine) guess=(read,tcheck) s
 table=(opt,rrhf)
 ----------------------------------------------------------------------
 -----
 title
 -----
 Symbolic Z-matrix:
 Charge =  0 Multiplicity = 1

 SCF Done:  E(RHF) =  -332.489611774     A.U. after   17 cycles
 Normal termination of Gaussian 16 at Wed Apr  9 16:51:53 2025.
 Gaussian 16:  ES64L-G16RevC.01  3-Jul-2019

 ----------------------------------------------------------------------
 #t hf aug-cc-pvdz iop(5/13=1,5/36=2,99/5=2) pseudo=read geom=check gue
 ss=(read,tcheck) scf=(maxcycle=1)
 ----------------------------------------------------------------------
 -----
 title
 -----
 Structure from the checkpoint file:  "Grambow2020_wb97xd3_009011_reverse_mol1.chk"
 Charge =  0 Multiplicity = 1

                         Standard orientation:
 ---------------------------------------------------------------------
 Center     Atomic      Atomic             Coordinates (Angstroms)
 Number     Number       Type             X           Y           Z
 ---------------------------------------------------------------------
      1          7           0        2.884603    0.074718   -0.000846
      2          6           0        1.735225    0.022668    0.000388
      3          6           0        0.327298    0.008743    0.001301
      4          6           0       -0.587132    1.112310    0.000150
      5          7           0       -1.828601    0.829599   -0.000265
      6          7           0       -1.534142   -1.298036   -0.000635
      7          7           0       -0.406451   -1.117630    0.000343
      8          1           0       -0.175438    2.118507   -0.000533
      9          1           0       -2.484769    1.598612   -0.000683
 ---------------------------------------------------------------------

 SCF Done:  E(RHF) =  -332.586157486     A.U. after    2 cycles

 The electronic state is 1-A.
 Alpha  occ. eigenvalues --  -15.81355 -15.80900 -15.65537 -15.64718 -11.34528
 Alpha  occ. eigenvalues --  -11.33169 -11.30352  -1.46834  -1.23281  -1.20445
 Alpha  occ. eigenvalues --   -1.11877  -0.91110  -0.85713  -0.77352  -0.69782
 Alpha  occ. eigenvalues --   -0.69329  -0.68467  -0.59877  -0.55517  -0.53207
 Alpha  occ. eigenvalues --   -0.49069  -0.48311  -0.45847  -0.34946
 Alpha virt. eigenvalues --    0.02516   0.04544   0.06172   0.06933   0.07168
 Alpha virt. eigenvalues --    0.09591   0.09989   0.10449   0.11416   0.12061
 Alpha virt. eigenvalues --    0.12986   0.13578   0.13887   0.15051   0.15666

 Mulliken charges:
               1
     1  N   -0.133185
     2  C   -0.731689
     3  C    1.187822
     4  C    0.611091
     5  N   -0.337897
     6  N   -0.078142
     7  N   -0.232871
     8  H   -0.261694
     9  H   -0.023435
 Sum of Mulliken charges =  -0.00000

 Dipole moment (field-independent basis, Debye):
    X=             -3.5961    Y=              1.5496    Z=              0.0002  Tot=              3.9157

 Test job not archived.
 1\1\GINC-SE057\SP\RHF\Aug-CC-pVDZ\C3H2N4\OHZDE\09-Apr-2025\0\\#t hf au
 g-cc-pvdz iop(5/13=1,5/36=2,99/5=2) pseudo=read geom=check guess=(read
 ,tcheck) scf=(maxcycle=1)\\title\\0,1\N,0,3.07288868,0.31135282,0.5125
 2591\C,0,1.94268964,0.35519272,0.30155038\C,0,0.5572197,0.35965514,0.0
 5073953\C,0,-0.36374719,-0.73845552,0.04671273\N,0,-1.58056871,-0.4666
 7399,-0.21145929\N,0,-1.25097418,1.6412235,-0.45979982\N,0,-0.1441373,
 1.46988047,-0.23666636\H,0,0.02255764,-1.73159946,0.26202247\H,0,-2.24
 092827,-1.23206368,-0.21797754\\Version=ES64L-G16RevC.01\State=1-A\HF=

 Normal termination of Gaussian 16 at Wed Apr  9 16:51:56 2025.
