 Gaussian 16, Revision C.01,

 ----------------------------------------------------------------------
 #t hf aug-cc-pvdz symm=none int=(grid=ultrafine) guess=(read,tcheck) s
 table=(opt,rrhf)
 ----------------------------------------------------------------------
 -----
 title
 -----
 Symbolic Z-matrix:
 Charge =  0 Multiplicity = 1

 SCF Done:  E(RHF) =  -344.877729484     A.U. after   13 cycles

 1\1\GINC-SE332\Stability\RHF\Aug-CC-pVDZ\C5H10O2\OHZDE\09-Apr-2025\0\\
 #t hf aug-cc-pvdz symm=none int=(grid=ultrafine) guess=(read,tcheck) s
 table=(opt,rrhf)\\title\\0,1\O,0,2.66719429,-0.11804998,1.13214487\C,0
 ,2.161738,-0.5734864,-0.1061215\C,0,0.64516476,-0.59906687,-0.02302376
 \C,0,0.03814611,0.76197573,0.12880769\C,0,-3.03096825,-0.21463914,-0.8
 6529017\O,0,-4.08912125,0.34276642,-0.87968882\C,0,-0.75441724,1.13241
 84,1.12212608\H,0,3.62076192,-0.05072401,1.07524804\H,0,2.52862405,-1.
 58272956,-0.3319996\H,0,2.47456654,0.08834823,-0.92543123\H,0,0.345671

 Normal termination of Gaussian 16 at Wed Apr  9 03:40:30 2025.
 Gaussian 16:  ES64L-G16RevC.01  3-Jul-2019

 ----------------------------------------------------------------------
 #t hf aug-cc-pvdz iop(5/13=1,5/36=2,99/5=2) pseudo=read geom=check gue
 ss=(read,tcheck) scf=(maxcycle=1)
 ----------------------------------------------------------------------
 -----
 title
 -----
 Structure from the checkpoint file:  "Grambow2020_wb97xd3_007540_reverse_mol2.chk"
 Charge =  0 Multiplicity = 1

                         Standard orientation:
 ---------------------------------------------------------------------
 Center     Atomic      Atomic             Coordinates (Angstroms)
 Number     Number       Type             X           Y           Z
 ---------------------------------------------------------------------
      1          8           0       -3.093263    0.336417   -0.252596
      2          6           0       -2.377182   -0.800269    0.184880
      3          6           0       -0.920053   -0.627733   -0.208259
      4          6           0       -0.247383    0.508871    0.498571
      5          6           0        2.870023   -0.608233   -0.130180
      6          8           0        3.950052   -0.124218    0.042634
      7          6           0        0.345260    1.529928   -0.099995
      8          1           0       -4.004192    0.261565    0.033178
      9          1           0       -2.770968   -1.713870   -0.278222
     10          1           0       -2.453253   -0.916989    1.274717
     11          1           0       -0.858193   -0.487483   -1.290605
     12          1           0       -0.401456   -1.564203    0.030093
     13          1           0       -0.257947    0.467478    1.586448
     14          1           0        2.378532   -0.612596   -1.121626
     15          1           0        2.300682   -1.082837    0.691600
     16          1           0        0.826924    2.318140    0.465395
     17          1           0        0.361569    1.617825   -1.181386
 ---------------------------------------------------------------------

 SCF Done:  E(RHF) =  -344.990361457     A.U. after    2 cycles

 The electronic state is 1-A.
 Alpha  occ. eigenvalues --  -20.58125 -20.57814 -11.34534 -11.29770 -11.24825
 Alpha  occ. eigenvalues --  -11.24687 -11.23516  -1.36791  -1.33254  -1.08180
 Alpha  occ. eigenvalues --   -0.99170  -0.85967  -0.85722  -0.76829  -0.72840
 Alpha  occ. eigenvalues --   -0.69467  -0.65966  -0.65891  -0.64730  -0.58929
 Alpha  occ. eigenvalues --   -0.58096  -0.55457  -0.54762  -0.50662  -0.49874
 Alpha  occ. eigenvalues --   -0.46332  -0.44417  -0.37304
 Alpha virt. eigenvalues --    0.02783   0.03942   0.04167   0.04586   0.06033
 Alpha virt. eigenvalues --    0.06328   0.06591   0.07061   0.07900   0.09043
 Alpha virt. eigenvalues --    0.10638   0.11964   0.12039   0.13394   0.13863

 Mulliken charges:
               1
     1  O   -0.559861
     2  C    0.803412
     3  C   -0.138891
     4  C    0.954245
     5  C    0.714101
     6  O   -0.417242
     7  C    0.341791
     8  H    0.137085
     9  H   -0.126310
    10  H   -0.134700
    11  H   -0.129228
    12  H   -0.032190
    13  H   -0.476019
    14  H   -0.137332
    15  H   -0.122826
    16  H   -0.342927
    17  H   -0.333108
 Sum of Mulliken charges =  -0.00000

 Dipole moment (field-independent basis, Debye):
    X=             -3.9510    Y=             -2.5179    Z=              0.4867  Tot=              4.7103

 Test job not archived.
 1\1\GINC-SE332\SP\RHF\Aug-CC-pVDZ\C5H10O2\OHZDE\09-Apr-2025\0\\#t hf a
 ug-cc-pvdz iop(5/13=1,5/36=2,99/5=2) pseudo=read geom=check guess=(rea
 d,tcheck) scf=(maxcycle=1)\\title\\0,1\O,0,2.66719429,-0.11804998,1.13
 214487\C,0,2.161738,-0.5734864,-0.1061215\C,0,0.64516476,-0.59906687,-
 0.02302376\C,0,0.03814611,0.76197573,0.12880769\C,0,-3.03096825,-0.214
 63914,-0.86529017\O,0,-4.08912125,0.34276642,-0.87968882\C,0,-0.754417
 24,1.1324184,1.12212608\H,0,3.62076192,-0.05072401,1.07524804\H,0,2.52
 862405,-1.58272956,-0.3319996\H,0,2.47456654,0.08834823,-0.92543123\H,

 Normal termination of Gaussian 16 at Wed Apr  9 03:40:35 2025.
