 Gaussian 16, Revision C.01,

 ----------------------------------------------------------------------
 #t hf aug-cc-pvdz symm=none int=(grid=ultrafine) guess=(read,tcheck) s
 table=(opt,rrhf)
 ----------------------------------------------------------------------
 -----
 title
 -----
 Symbolic Z-matrix:
 Charge =  0 Multiplicity = 1

 SCF Done:  E(RHF) =  -374.443316316     A.U. after   17 cycles
 Normal termination of Gaussian 16 at Wed Apr  9 17:17:12 2025.
 Gaussian 16:  ES64L-G16RevC.01  3-Jul-2019

 ----------------------------------------------------------------------
 #t hf aug-cc-pvdz iop(5/13=1,5/36=2,99/5=2) pseudo=read geom=check gue
 ss=(read,tcheck) scf=(maxcycle=1)
 ----------------------------------------------------------------------
 -----
 title
 -----
 Structure from the checkpoint file:  "Grambow2020_wb97xd3_009449_forward_mol1.chk"
 Charge =  0 Multiplicity = 1

                         Standard orientation:
 ---------------------------------------------------------------------
 Center     Atomic      Atomic             Coordinates (Angstroms)
 Number     Number       Type             X           Y           Z
 ---------------------------------------------------------------------
      1          8           0        2.329160   -0.645131   -0.157823
      2          6           0        1.085769   -0.231635    0.087472
      3          7           0       -0.081850   -0.964061    0.010271
      4          6           0       -1.071002   -0.094682   -0.029383
      5          8           0       -2.364723   -0.444369   -0.011284
      6          6           0       -0.614828    1.224596   -0.040535
      7          7           0        0.720203    1.127446    0.011083
      8          1           0        1.582424   -0.442962    1.115239
      9          1           0       -2.401174   -1.406212   -0.016029
     10          1           0       -1.155287    2.154731    0.012787
     11          1           0        1.390433    1.877076   -0.013943
 ---------------------------------------------------------------------

 SCF Done:  E(RHF) =  -374.556041204     A.U. after    2 cycles

 The electronic state is 1-A.
 Alpha  occ. eigenvalues --  -20.62948 -20.52454 -15.73110 -15.65788 -11.36649
 Alpha  occ. eigenvalues --  -11.36230 -11.33568  -1.41308  -1.35971  -1.26377
 Alpha  occ. eigenvalues --   -1.17965  -1.01095  -0.86878  -0.85219  -0.79328
 Alpha  occ. eigenvalues --   -0.72177  -0.70540  -0.67598  -0.64050  -0.61692
 Alpha  occ. eigenvalues --   -0.59155  -0.52577  -0.48489  -0.45106  -0.42376
 Alpha  occ. eigenvalues --   -0.30587
 Alpha virt. eigenvalues --    0.00925   0.02140   0.03569   0.04793   0.05779
 Alpha virt. eigenvalues --    0.08830   0.10074   0.11097   0.11524   0.11813
 Alpha virt. eigenvalues --    0.13387   0.13756   0.14019   0.15538   0.16017

 Mulliken charges:
               1
     1  O   -0.744186
     2  C    0.857086
     3  N   -0.520919
     4  C    0.597275
     5  O   -0.499571
     6  C    0.682558
     7  N   -0.376312
     8  H    0.123268
     9  H    0.132876
    10  H   -0.190560
    11  H   -0.061515
 Sum of Mulliken charges =  -0.00000

 Dipole moment (field-independent basis, Debye):
    X=             -3.3116    Y=              4.3052    Z=              1.3628  Tot=              5.5998

 Test job not archived.
 1\1\GINC-SE135\SP\RHF\Aug-CC-pVDZ\C3H4N2O2\OHZDE\09-Apr-2025\0\\#t hf
 aug-cc-pvdz iop(5/13=1,5/36=2,99/5=2) pseudo=read geom=check guess=(re
 ad,tcheck) scf=(maxcycle=1)\\title\\0,1\O,0,-2.3429753,0.81127932,-0.9
 4995911\C,0,-1.1339163,0.41566693,-0.55141709\N,0,0.02887631,1.1583816
 6,-0.50635968\C,0,1.02261643,0.29862286,-0.41091658\O,0,2.30241357,0.6
 6192449,-0.24826812\C,0,0.58131415,-1.02524344,-0.44755074\N,0,-0.7512
 2665,-0.94083932,-0.5553493\H,0,-1.74980445,0.64258918,0.40608806\H,0,
 2.33160855,1.62379975,-0.26916339\H,0,1.11902571,-1.94848933,-0.311264

 Normal termination of Gaussian 16 at Wed Apr  9 17:17:16 2025.
