 Gaussian 16, Revision C.01,

 ----------------------------------------------------------------------
 #t hf aug-cc-pvdz symm=none int=(grid=ultrafine) guess=(read,tcheck) s
 table=(opt,rrhf)
 ----------------------------------------------------------------------
 -----
 title
 -----
 Symbolic Z-matrix:
 Charge =  0 Multiplicity = 1

 SCF Done:  E(RHF) =  -305.507064791     A.U. after   14 cycles
 Normal termination of Gaussian 16 at Wed Apr  9 03:52:32 2025.
 Gaussian 16:  ES64L-G16RevC.01  3-Jul-2019

 ----------------------------------------------------------------------
 #t hf aug-cc-pvdz iop(5/13=1,5/36=2,99/5=2) pseudo=read geom=check gue
 ss=(read,tcheck) scf=(maxcycle=1)
 ----------------------------------------------------------------------
 -----
 title
 -----
 Structure from the checkpoint file:  "Grambow2020_wb97xd3_008359_reverse_mol2.chk"
 Charge =  0 Multiplicity = 1

                         Standard orientation:
 ---------------------------------------------------------------------
 Center     Atomic      Atomic             Coordinates (Angstroms)
 Number     Number       Type             X           Y           Z
 ---------------------------------------------------------------------
      1          6           0        2.951667    0.011520    0.001256
      2          6           0        1.651498    0.038913   -0.001203
      3          6           0        0.347451    0.055840   -0.000688
      4          6           0       -0.566460    1.199826   -0.000911
      5          6           0       -1.806580    0.714677    0.000603
      6          8           0       -1.900834   -0.634959    0.001633
      7          6           0       -0.564067   -1.160191   -0.001117
      8          1           0        3.518706    0.000540   -0.924410
      9          1           0       -0.280761    2.238195   -0.001488
     10          1           0        3.515549    0.002136    0.929018
     11          1           0       -2.753279    1.235385    0.000886
     12          1           0       -0.438575   -1.778516   -0.891631
     13          1           0       -0.436020   -1.781573    0.886917
 ---------------------------------------------------------------------

 SCF Done:  E(RHF) =  -305.603366470     A.U. after    2 cycles

 The electronic state is 1-A.
 Alpha  occ. eigenvalues --  -20.60377 -11.31298 -11.30747 -11.26589 -11.25546
 Alpha  occ. eigenvalues --  -11.24833 -11.23895  -1.38799  -1.10311  -1.03462
 Alpha  occ. eigenvalues --   -1.00073  -0.88710  -0.79761  -0.74979  -0.68317
 Alpha  occ. eigenvalues --   -0.68130  -0.63018  -0.60857  -0.59069  -0.56612
 Alpha  occ. eigenvalues --   -0.54519  -0.52703  -0.43778  -0.37886  -0.30359
 Alpha virt. eigenvalues --    0.03451   0.04113   0.04789   0.05029   0.05765
 Alpha virt. eigenvalues --    0.06564   0.09562   0.09655   0.10707   0.10893
 Alpha virt. eigenvalues --    0.11549   0.12674   0.13216   0.14473   0.14606

 Mulliken charges:
               1
     1  C    0.801378
     2  C    0.029014
     3  C   -0.780814
     4  C    0.452970
     5  C    0.512710
     6  O   -0.594424
     7  C    0.869450
     8  H   -0.227602
     9  H   -0.415151
    10  H   -0.227177
    11  H   -0.307193
    12  H   -0.056345
    13  H   -0.056815
 Sum of Mulliken charges =   0.00000

 Dipole moment (field-independent basis, Debye):
    X=              0.4644    Y=              0.3496    Z=             -0.0010  Tot=              0.5813

 Test job not archived.
 1\1\GINC-SE403\SP\RHF\Aug-CC-pVDZ\C6H6O1\OHZDE\09-Apr-2025\0\\#t hf au
 g-cc-pvdz iop(5/13=1,5/36=2,99/5=2) pseudo=read geom=check guess=(read
 ,tcheck) scf=(maxcycle=1)\\title\\0,1\C,0,2.28315438,-0.19015257,1.677
 40837\C,0,1.19070875,-0.07314374,0.98165935\C,0,0.09311932,0.03353444,
 0.2854239\C,0,-0.64606172,1.23578185,-0.10464083\C,0,-1.7035565,0.8379
 9242,-0.80943658\O,0,-1.81889034,-0.49963918,-0.97629717\C,0,-0.705897
 98,-1.11464659,-0.30858665\H,0,3.25926701,-0.18546329,1.20233605\H,0,-
 0.37798516,2.25021385,0.13804813\H,0,2.25739416,-0.29316773,2.75792573

 Normal termination of Gaussian 16 at Wed Apr  9 03:52:36 2025.
