 Gaussian 16, Revision C.01,

 ----------------------------------------------------------------------
 #t hf aug-cc-pvdz symm=none int=(grid=ultrafine) guess=(read,tcheck) s
 table=(opt,rrhf)
 ----------------------------------------------------------------------
 -----
 title
 -----
 Symbolic Z-matrix:
 Charge =  0 Multiplicity = 1

 SCF Done:  E(RHF) =  -306.470753173     A.U. after   15 cycles
 Normal termination of Gaussian 16 at Wed Apr  9 16:23:06 2025.
 Gaussian 16:  ES64L-G16RevC.01  3-Jul-2019

 ----------------------------------------------------------------------
 #t hf aug-cc-pvdz iop(5/13=1,5/36=2,99/5=2) pseudo=read geom=check gue
 ss=(read,tcheck) scf=(maxcycle=1)
 ----------------------------------------------------------------------
 -----
 title
 -----
 Structure from the checkpoint file:  "Grambow2020_wb97xd3_008164_forward_mol1.chk"
 Charge =  0 Multiplicity = 1

                         Standard orientation:
 ---------------------------------------------------------------------
 Center     Atomic      Atomic             Coordinates (Angstroms)
 Number     Number       Type             X           Y           Z
 ---------------------------------------------------------------------
      1          8           0        2.124850   -0.197161   -0.083991
      2          6           0        0.766955    0.025891   -0.076506
      3          6           0        0.096964    1.345938   -0.398059
      4          6           0       -1.142049    0.760621    0.366346
      5          6           0       -1.703011   -0.782179   -0.467022
      6          6           0       -0.269016   -1.129955   -0.109692
      7          6           0       -0.167749   -0.229709    1.065879
      8          1           0        2.360995   -0.648319   -0.896739
      9          1           0       -0.034508    1.667113   -1.436465
     10          1           0        0.542001    2.145717    0.194256
     11          1           0       -1.889667    1.388196    0.834544
     12          1           0       -1.538059    0.396078   -0.783195
     13          1           0       -2.012894   -0.754577   -1.533390
     14          1           0        0.124283   -2.138033   -0.113664
     15          1           0       -0.043517   -0.422529    2.120909
 ---------------------------------------------------------------------

 SCF Done:  E(RHF) =  -306.560717709     A.U. after    2 cycles

 The electronic state is 1-A.
 Alpha  occ. eigenvalues --  -20.59396 -11.31600 -11.30827 -11.26022 -11.25137
 Alpha  occ. eigenvalues --  -11.24954 -11.22509  -1.35539  -1.23284  -1.00174
 Alpha  occ. eigenvalues --   -0.98051  -0.87363  -0.79194  -0.74210  -0.73914
 Alpha  occ. eigenvalues --   -0.66427  -0.64410  -0.62837  -0.59256  -0.56318
 Alpha  occ. eigenvalues --   -0.52760  -0.48589  -0.47507  -0.43250  -0.38699
 Alpha  occ. eigenvalues --   -0.29886
 Alpha virt. eigenvalues --    0.02993   0.03699   0.04240   0.04991   0.05915
 Alpha virt. eigenvalues --    0.06418   0.06886   0.08753   0.10186   0.11643
 Alpha virt. eigenvalues --    0.11847   0.12543   0.13669   0.13852   0.14860

 Mulliken charges:
               1
     1  O   -0.602834
     2  C    0.431288
     3  C    0.283382
     4  C    0.145765
     5  C   -0.208321
     6  C    0.437335
     7  C    0.452934
     8  H    0.142003
     9  H   -0.168792
    10  H   -0.038868
    11  H   -0.381649
    12  H    0.435576
    13  H   -0.133467
    14  H   -0.397489
    15  H   -0.396861
 Sum of Mulliken charges =  -0.00000

 Dipole moment (field-independent basis, Debye):
    X=              1.1074    Y=              1.7809    Z=             -1.2060  Tot=              2.4191

 Test job not archived.
 1\1\GINC-SE037\SP\RHF\Aug-CC-pVDZ\C6H8O1\OHZDE\09-Apr-2025\0\\#t hf au
 g-cc-pvdz iop(5/13=1,5/36=2,99/5=2) pseudo=read geom=check guess=(read
 ,tcheck) scf=(maxcycle=1)\\title\\0,1\O,0,2.20235949,0.7178516,-0.3658
 9832\C,0,0.92743697,0.24045156,-0.16502607\C,0,0.57581916,-1.19113187,
 0.1838925\C,0,-0.86163982,-0.83250506,-0.33298494\C,0,-1.54501576,0.55
 246825,0.66914189\C,0,-0.28167056,1.17645067,0.10383006\C,0,-0.2196191
 8,0.34353609,-1.12298238\H,0,2.48723315,1.18398728,0.42241163\H,0,0.68
 498742,-1.55893755,1.20933166\H,0,1.05197847,-1.87545046,-0.51861877\H

 Normal termination of Gaussian 16 at Wed Apr  9 16:23:12 2025.
