 Gaussian 16, Revision C.01,

 ----------------------------------------------------------------------
 #t hf aug-cc-pvdz symm=none int=(grid=ultrafine) guess=(read,tcheck) s
 table=(opt,rrhf)
 ----------------------------------------------------------------------
 -----
 title
 -----
 Symbolic Z-matrix:
 Charge =  0 Multiplicity = 1

 SCF Done:  E(RHF) =  -344.750794343     A.U. after   16 cycles

 1\1\GINC-SE364\Stability\RHF\Aug-CC-pVDZ\C5H10O2\OHZDE\09-Apr-2025\0\\
 #t hf aug-cc-pvdz symm=none int=(grid=ultrafine) guess=(read,tcheck) s
 table=(opt,rrhf)\\title\\0,1\C,0,-2.19081216,0.1711069,-0.03696549\C,0
 ,-1.10110123,-0.8344464,-0.33944175\O,0,-0.15473436,-0.41442507,-1.287
 50963\C,0,-0.03923209,-0.99048904,0.6586702\C,0,2.16144683,0.01344141,
 0.2889195\C,0,1.65203176,1.28258157,0.19123314\O,0,0.8123841,1.6897175
 1,-0.69607919\H,0,-2.85267398,-0.19410891,0.75216962\H,0,-1.76303383,1
 .12659695,0.27251668\H,0,-2.78625081,0.33851896,-0.9352935\H,0,-1.5370

 Normal termination of Gaussian 16 at Wed Apr  9 03:33:38 2025.
 Gaussian 16:  ES64L-G16RevC.01  3-Jul-2019

 ----------------------------------------------------------------------
 #t hf aug-cc-pvdz iop(5/13=1,5/36=2,99/5=2) pseudo=read geom=check gue
 ss=(read,tcheck) scf=(maxcycle=1)
 ----------------------------------------------------------------------
 -----
 title
 -----
 Structure from the checkpoint file:  "Grambow2020_wb97xd3_007088_reverse_mol1.chk"
 Charge =  0 Multiplicity = 1

                         Standard orientation:
 ---------------------------------------------------------------------
 Center     Atomic      Atomic             Coordinates (Angstroms)
 Number     Number       Type             X           Y           Z
 ---------------------------------------------------------------------
      1          6           0       -2.143772   -0.674281   -0.572937
      2          6           0       -1.489392    0.442515    0.211060
      3          8           0       -0.540756    0.024193    1.157611
      4          6           0       -0.462697    1.230267   -0.477044
      5          6           0        1.908197    0.852516   -0.004027
      6          6           0        1.852926   -0.465034   -0.379223
      7          8           0        1.128974   -1.374851    0.174147
      8          1           0       -2.820751   -0.275234   -1.332304
      9          1           0       -1.392747   -1.299114   -1.060051
     10          1           0       -2.721130   -1.301798    0.107098
     11          1           0       -2.248691    1.071131    0.690409
     12          1           0        0.305844   -0.809705    0.726952
     13          1           0       -0.123185    0.978073   -1.469655
     14          1           0       -0.243277    2.226469   -0.123561
     15          1           0        1.606593    1.165437    0.983721
     16          1           0        2.527421    1.525926   -0.583402
     17          1           0        2.412604   -0.791820   -1.260242
 ---------------------------------------------------------------------

 SCF Done:  E(RHF) =  -344.859524916     A.U. after    2 cycles

 The electronic state is 1-A.
 Alpha  occ. eigenvalues --  -20.54654 -20.52624 -11.36884 -11.31802 -11.30378
 Alpha  occ. eigenvalues --  -11.23430 -11.21437  -1.33892  -1.27900  -1.04133
 Alpha  occ. eigenvalues --   -0.99896  -0.95852  -0.84016  -0.78299  -0.71232
 Alpha  occ. eigenvalues --   -0.67209  -0.66496  -0.65424  -0.61263  -0.58501
 Alpha  occ. eigenvalues --   -0.56429  -0.54829  -0.54063  -0.52772  -0.48368
 Alpha  occ. eigenvalues --   -0.43859  -0.41895  -0.32066
 Alpha virt. eigenvalues --    0.01324   0.03500   0.03991   0.04129   0.05687
 Alpha virt. eigenvalues --    0.05945   0.06458   0.07043   0.07407   0.08554
 Alpha virt. eigenvalues --    0.09665   0.11913   0.12840   0.13436   0.13653

 Mulliken charges:
               1
     1  C    0.402300
     2  C    0.544682
     3  O   -1.003006
     4  C    0.674852
     5  C    0.460448
     6  C    0.717184
     7  O   -0.657384
     8  H    0.003995
     9  H   -0.079996
    10  H   -0.009367
    11  H   -0.221850
    12  H    0.489037
    13  H   -0.254709
    14  H   -0.156747
    15  H   -0.311261
    16  H   -0.342744
    17  H   -0.255436
 Sum of Mulliken charges =  -0.00000

 Dipole moment (field-independent basis, Debye):
    X=             -1.6604    Y=              3.7658    Z=             -3.8077  Tot=              5.6068

 Test job not archived.
 1\1\GINC-SE364\SP\RHF\Aug-CC-pVDZ\C5H10O2\OHZDE\09-Apr-2025\0\\#t hf a
 ug-cc-pvdz iop(5/13=1,5/36=2,99/5=2) pseudo=read geom=check guess=(rea
 d,tcheck) scf=(maxcycle=1)\\title\\0,1\C,0,-2.19081216,0.1711069,-0.03
 696549\C,0,-1.10110123,-0.8344464,-0.33944175\O,0,-0.15473436,-0.41442
 507,-1.28750963\C,0,-0.03923209,-0.99048904,0.6586702\C,0,2.16144683,0
 .01344141,0.2889195\C,0,1.65203176,1.28258157,0.19123314\O,0,0.8123841
 ,1.68971751,-0.69607919\H,0,-2.85267398,-0.19410891,0.75216962\H,0,-1.
 76303383,1.12659695,0.27251668\H,0,-2.78625081,0.33851896,-0.9352935\H

 Normal termination of Gaussian 16 at Wed Apr  9 03:33:44 2025.
