 Gaussian 16, Revision C.01,

 ----------------------------------------------------------------------
 #t hf aug-cc-pvdz symm=none int=(grid=ultrafine) guess=(read,tcheck) s
 table=(opt,rrhf)
 ----------------------------------------------------------------------
 -----
 title
 -----
 Symbolic Z-matrix:
 Charge =  0 Multiplicity = 1

 SCF Done:  E(RHF) =  -315.526363033     A.U. after   19 cycles
 Normal termination of Gaussian 16 at Wed Apr  9 03:08:40 2025.
 Gaussian 16:  ES64L-G16RevC.01  3-Jul-2019

 ----------------------------------------------------------------------
 #t hf aug-cc-pvdz iop(5/13=1,5/36=2,99/5=2) pseudo=read geom=check gue
 ss=(read,tcheck) scf=(maxcycle=1)
 ----------------------------------------------------------------------
 -----
 title
 -----
 Structure from the checkpoint file:  "Grambow2020_b97d3_006682_forward_mol1.chk"
 Charge =  0 Multiplicity = 1

                         Standard orientation:
 ---------------------------------------------------------------------
 Center     Atomic      Atomic             Coordinates (Angstroms)
 Number     Number       Type             X           Y           Z
 ---------------------------------------------------------------------
      1          8           0        2.118018   -0.592206   -0.035099
      2          6           0        0.856921   -0.184509    0.148011
      3          7           0        0.365305    0.970808    0.119022
      4          7           0       -0.703211    1.564173   -0.191220
      5          7           0       -2.005946   -0.551385   -0.044678
      6          6           0       -1.113112   -1.329286    0.009248
      7          1           0        2.646812    0.092013   -0.503260
      8          1           0       -1.001989    2.141022    0.618063
      9          1           0       -0.644853   -2.297781    0.040570
 ---------------------------------------------------------------------

 SCF Done:  E(RHF) =  -315.620397203     A.U. after    2 cycles

 The electronic state is 1-A.
 Alpha  occ. eigenvalues --  -20.66507 -15.74268 -15.71906 -15.63615 -11.37018
 Alpha  occ. eigenvalues --  -11.29065  -1.42295  -1.33495  -1.16491  -1.08731
 Alpha  occ. eigenvalues --   -0.85498  -0.77974  -0.76561  -0.69112  -0.67261
 Alpha  occ. eigenvalues --   -0.61144  -0.59052  -0.54312  -0.45473  -0.44465
 Alpha  occ. eigenvalues --   -0.40290  -0.35353
 Alpha virt. eigenvalues --    0.01992   0.04142   0.04741   0.06341   0.08195
 Alpha virt. eigenvalues --    0.10008   0.10592   0.11778   0.13123   0.13984
 Alpha virt. eigenvalues --    0.14699   0.15411   0.17297   0.17724   0.18740

 Mulliken charges:
               1
     1  O   -0.417264
     2  C    0.214248
     3  N    0.053234
     4  N   -0.105172
     5  N   -0.312397
     6  C    0.310736
     7  H    0.147410
     8  H    0.121813
     9  H   -0.012608
 Sum of Mulliken charges =  -0.00000

 Dipole moment (field-independent basis, Debye):
    X=              3.6576    Y=              0.6603    Z=              0.2371  Tot=              3.7242

 Test job not archived.
 1\1\GINC-SE131\SP\RHF\Aug-CC-pVDZ\C2H3N3O1\OHZDE\09-Apr-2025\0\\#t hf
 aug-cc-pvdz iop(5/13=1,5/36=2,99/5=2) pseudo=read geom=check guess=(re
 ad,tcheck) scf=(maxcycle=1)\\title\\0,1\O,0,-2.09858195,-0.41489745,-0
 .0529563\C,0,-0.79395738,-0.18737059,0.1375636\N,0,0.15859194,-0.99396
 907,0.27660344\N,0,1.38886111,-1.09759005,0.02016888\N,0,1.61600979,1.
 36695859,-0.24171251\C,0,0.46996625,1.66794408,-0.27608474\H,0,-2.2546
 0241,-1.32974218,-0.37802652\H,0,1.88531505,-1.33908643,0.89890352\H,0
 ,-0.37909741,2.32051511,-0.38319036\\Version=ES64L-G16RevC.01\State=1-

 Normal termination of Gaussian 16 at Wed Apr  9 03:08:43 2025.
