 Gaussian 16, Revision C.01,

 ----------------------------------------------------------------------
 #t hf aug-cc-pvdz symm=none int=(grid=ultrafine) guess=(read,tcheck) s
 table=(opt,rrhf)
 ----------------------------------------------------------------------
 -----
 title
 -----
 Symbolic Z-matrix:
 Charge =  0 Multiplicity = 1

 SCF Done:  E(RHF) =  -355.831071516     A.U. after   15 cycles
 Normal termination of Gaussian 16 at Wed Apr  9 16:51:12 2025.
 Gaussian 16:  ES64L-G16RevC.01  3-Jul-2019

 ----------------------------------------------------------------------
 #t hf aug-cc-pvdz iop(5/13=1,5/36=2,99/5=2) pseudo=read geom=check gue
 ss=(read,tcheck) scf=(maxcycle=1)
 ----------------------------------------------------------------------
 -----
 title
 -----
 Structure from the checkpoint file:  "Grambow2020_wb97xd3_008993_reverse_mol1.chk"
 Charge =  0 Multiplicity = 1

                         Standard orientation:
 ---------------------------------------------------------------------
 Center     Atomic      Atomic             Coordinates (Angstroms)
 Number     Number       Type             X           Y           Z
 ---------------------------------------------------------------------
      1          6           0        2.069468   -0.836924   -0.062823
      2          7           0        0.762973   -0.495358    0.509459
      3          6           0        0.202374    0.848862    0.119114
      4          8           0        0.791132    1.453764   -0.735640
      5          7           0       -1.025372    1.045560    0.632537
      6          6           0       -1.972739   -0.344815   -0.273404
      7          7           0       -1.437630   -1.396136   -0.407313
      8          1           0        1.986302   -0.815246   -1.145898
      9          1           0        2.352330   -1.835270    0.267168
     10          1           0        2.820039   -0.109724    0.240616
     11          1           0        0.743729   -0.613997    1.517293
     12          1           0       -1.110540    0.607136    1.544994
     13          1           0       -2.876844    0.209893   -0.467189
     14          1           0       -0.138480   -1.154105    0.088037
 ---------------------------------------------------------------------

 SCF Done:  E(RHF) =  -355.939628243     A.U. after    2 cycles

 The electronic state is 1-A.
 Alpha  occ. eigenvalues --  -20.55517 -15.72084 -15.61635 -15.61319 -11.40113
 Alpha  occ. eigenvalues --  -11.33016 -11.30148  -1.38226  -1.25809  -1.19583
 Alpha  occ. eigenvalues --   -1.13994  -0.96365  -0.81242  -0.79097  -0.75406
 Alpha  occ. eigenvalues --   -0.72820  -0.67530  -0.64540  -0.60489  -0.59246
 Alpha  occ. eigenvalues --   -0.58033  -0.53464  -0.50375  -0.47558  -0.46215
 Alpha  occ. eigenvalues --   -0.43239  -0.34639
 Alpha virt. eigenvalues --    0.01828   0.03450   0.04493   0.04742   0.06575
 Alpha virt. eigenvalues --    0.07294   0.08407   0.09383   0.11149   0.11695
 Alpha virt. eigenvalues --    0.13040   0.13233   0.13806   0.14422   0.14926

 Mulliken charges:
               1
     1  C    0.809882
     2  N   -0.601273
     3  C    0.663971
     4  O   -0.456964
     5  N   -0.629273
     6  C    0.380758
     7  N   -0.413096
     8  H   -0.108695
     9  H   -0.175448
    10  H   -0.133154
    11  H    0.087615
    12  H    0.053708
    13  H   -0.070937
    14  H    0.592907
 Sum of Mulliken charges =  -0.00000

 Dipole moment (field-independent basis, Debye):
    X=              1.8293    Y=             -2.9393    Z=              3.5926  Tot=              4.9892

 Test job not archived.
 1\1\GINC-SE229\SP\RHF\Aug-CC-pVDZ\C3H7N3O1\OHZDE\09-Apr-2025\0\\#t hf
 aug-cc-pvdz iop(5/13=1,5/36=2,99/5=2) pseudo=read geom=check guess=(re
 ad,tcheck) scf=(maxcycle=1)\\title\\0,1\C,0,1.85593542,-0.58464016,0.0
 4858047\N,0,0.47012997,-0.20311522,0.34027382\C,0,-0.06968674,0.969492
 72,-0.43892833\O,0,0.61770741,1.39056135,-1.32962338\N,0,-1.36452965,1
 .20179192,-0.15773253\C,0,-2.12625854,-0.42360025,-0.81289971\N,0,-1.5
 4469726,-1.43903907,-0.61234911\H,0,1.93029296,-0.82726016,-1.00784975
 \H,0,2.11902357,-1.45474797,0.64799515\H,0,2.53132681,0.24162554,0.261

 Normal termination of Gaussian 16 at Wed Apr  9 16:51:17 2025.
