 Gaussian 16, Revision C.01,

 ----------------------------------------------------------------------
 #t hf aug-cc-pvdz symm=none int=(grid=ultrafine) guess=(read,tcheck) s
 table=(opt,rrhf)
 ----------------------------------------------------------------------
 -----
 title
 -----
 Symbolic Z-matrix:
 Charge =  0 Multiplicity = 1

 SCF Done:  E(RHF) =  -302.711759315     A.U. after   17 cycles
 Normal termination of Gaussian 16 at Wed Apr  9 15:33:07 2025.
 Gaussian 16:  ES64L-G16RevC.01  3-Jul-2019

 ----------------------------------------------------------------------
 #t hf aug-cc-pvdz iop(5/13=1,5/36=2,99/5=2) pseudo=read geom=check gue
 ss=(read,tcheck) scf=(maxcycle=1)
 ----------------------------------------------------------------------
 -----
 title
 -----
 Structure from the checkpoint file:  "Grambow2020_wb97xd3_006962_reverse_mol1.chk"
 Charge =  0 Multiplicity = 1

                         Standard orientation:
 ---------------------------------------------------------------------
 Center     Atomic      Atomic             Coordinates (Angstroms)
 Number     Number       Type             X           Y           Z
 ---------------------------------------------------------------------
      1          6           0        0.622498    1.566975    0.522237
      2          6           0        0.821890    0.375639   -0.182418
      3          6           0        2.220495   -0.162031   -0.346023
      4          7           0       -0.025832   -1.646306    0.669545
      5          6           0       -0.357905   -0.760669   -0.311788
      6          6           0       -1.654784   -0.048479   -0.247600
      7          7           0       -2.641743    0.531465   -0.152869
      8          1           0        0.547260    1.253582   -0.936979
      9          1           0        1.440147    2.088572    1.012015
     10          1           0       -0.373975    1.990431    0.597906
     11          1           0        2.649702   -0.417183    0.621207
     12          1           0        2.214031   -1.067393   -0.950195
     13          1           0        2.860492    0.585232   -0.819155
     14          1           0       -0.331184   -1.277788    1.568250
     15          1           0       -0.246616   -1.180184   -1.316238
 ---------------------------------------------------------------------

 SCF Done:  E(RHF) =  -302.801115135     A.U. after    2 cycles

 The electronic state is 1-A.
 Alpha  occ. eigenvalues --  -15.63711 -15.53030 -11.37463 -11.33197 -11.32612
 Alpha  occ. eigenvalues --  -11.28117 -11.26577  -1.20932  -1.17815  -1.10512
 Alpha  occ. eigenvalues --   -0.99464  -0.90520  -0.82665  -0.72135  -0.71584
 Alpha  occ. eigenvalues --   -0.66401  -0.62545  -0.58023  -0.57106  -0.56013
 Alpha  occ. eigenvalues --   -0.54282  -0.52838  -0.47004  -0.46456  -0.36675
 Alpha  occ. eigenvalues --   -0.27983
 Alpha virt. eigenvalues --    0.00364   0.01539   0.03083   0.03900   0.05437
 Alpha virt. eigenvalues --    0.05828   0.06708   0.07210   0.07924   0.10560
 Alpha virt. eigenvalues --    0.11418   0.12103   0.12595   0.13523   0.14051

 Mulliken charges:
               1
     1  C    0.528144
     2  C   -0.726778
     3  C    0.731846
     4  N   -0.675745
     5  C    1.027716
     6  C   -0.273257
     7  N   -0.200005
     8  H    0.308341
     9  H   -0.284370
    10  H   -0.314533
    11  H    0.099198
    12  H   -0.053597
    13  H    0.016367
    14  H   -0.052228
    15  H   -0.131100
 Sum of Mulliken charges =   0.00000

 Dipole moment (field-independent basis, Debye):
    X=              5.2154    Y=              5.8869    Z=             -1.0049  Tot=              7.9288

 Test job not archived.
 1\1\GINC-SE141\SP\RHF\Aug-CC-pVDZ\C5H8N2\OHZDE\09-Apr-2025\0\\#t hf au
 g-cc-pvdz iop(5/13=1,5/36=2,99/5=2) pseudo=read geom=check guess=(read
 ,tcheck) scf=(maxcycle=1)\\title\\0,1\C,0,-0.67246472,1.38310097,-0.09
 801774\C,0,-0.32159638,0.08197886,0.27554514\C,0,-1.40524351,-0.942469
 82,0.49501541\N,0,0.88435255,-1.28075725,-1.21488153\C,0,1.14739958,-0
 .55668039,-0.09053332\C,0,2.10674382,0.56984158,-0.15246288\N,0,2.8142
 8266,1.4711373,-0.23279738\H,0,-0.16250145,0.82502621,1.19104345\H,0,-
 1.70250494,1.66569999,-0.29714057\H,0,0.09674709,2.14137292,-0.2044902

 Normal termination of Gaussian 16 at Wed Apr  9 15:33:13 2025.
