 Gaussian 16, Revision C.01,

 ----------------------------------------------------------------------
 #t hf aug-cc-pvdz symm=none int=(grid=ultrafine) guess=(read,tcheck) s
 table=(opt,rrhf)
 ----------------------------------------------------------------------
 -----
 title
 -----
 Symbolic Z-matrix:
 Charge =  0 Multiplicity = 1

 SCF Done:  E(RHF) =  -309.011633493     A.U. after   15 cycles

 1\1\GINC-SE114\Stability\RHF\Aug-CC-pVDZ\C6H12O1\OHZDE\09-Apr-2025\0\\
 #t hf aug-cc-pvdz symm=none int=(grid=ultrafine) guess=(read,tcheck) s
 table=(opt,rrhf)\\title\\0,1\C,0,-1.57904292,-0.61102938,-0.70860421\C
 ,0,-1.03060012,0.34655961,0.3437589\C,0,-2.09219244,0.70991392,1.37746
 756\C,0,0.18280233,-0.22559819,1.05421146\O,0,1.23907656,-0.5122225,0.
 11573198\C,0,2.17301579,0.381068,0.00591203\C,0,3.14417954,-0.08546242
 ,-1.02869383\H,0,-2.42641947,-0.16384184,-1.23185408\H,0,-0.82144118,-
 0.86841884,-1.44943227\H,0,-1.92647424,-1.53931771,-0.24557967\H,0,-0.

 Normal termination of Gaussian 16 at Wed Apr  9 16:01:22 2025.
 Gaussian 16:  ES64L-G16RevC.01  3-Jul-2019

 ----------------------------------------------------------------------
 #t hf aug-cc-pvdz iop(5/13=1,5/36=2,99/5=2) pseudo=read geom=check gue
 ss=(read,tcheck) scf=(maxcycle=1)
 ----------------------------------------------------------------------
 -----
 title
 -----
 Structure from the checkpoint file:  "Grambow2020_wb97xd3_007693_reverse_mol2.chk"
 Charge =  0 Multiplicity = 1

                         Standard orientation:
 ---------------------------------------------------------------------
 Center     Atomic      Atomic             Coordinates (Angstroms)
 Number     Number       Type             X           Y           Z
 ---------------------------------------------------------------------
      1          6           0        1.451105    1.491854    0.089199
      2          6           0        1.279065    0.034477   -0.325156
      3          6           0        2.606621   -0.716661   -0.294408
      4          6           0        0.274930   -0.690310    0.552823
      5          8           0       -1.016163   -0.051704    0.490586
      6          6           0       -1.883569   -0.578843   -0.316879
      7          6           0       -3.131419    0.240138   -0.258928
      8          1           0        2.147952    2.002290   -0.578389
      9          1           0        0.502960    2.029844    0.064235
     10          1           0        1.851653    1.562163    1.104796
     11          1           0        0.881897    0.000439   -1.346196
     12          1           0        3.024520   -0.732702    0.716443
     13          1           0        3.338288   -0.233635   -0.944102
     14          1           0        2.493513   -1.750026   -0.628684
     15          1           0        0.571127   -0.652566    1.604291
     16          1           0        0.144720   -1.725985    0.236866
     17          1           0       -3.088001    1.110336    0.403749
     18          1           0       -3.944213   -0.427337    0.042176
     19          1           0       -3.375513    0.546887   -1.279785
 ---------------------------------------------------------------------

 SCF Done:  E(RHF) =  -309.111125913     A.U. after    2 cycles

 The electronic state is 1-A.
 Alpha  occ. eigenvalues --  -20.62599 -11.29302 -11.29131 -11.24167 -11.22997
 Alpha  occ. eigenvalues --  -11.22448 -11.22382  -1.40138  -1.09227  -1.01260
 Alpha  occ. eigenvalues --   -0.93458  -0.92873  -0.81382  -0.76581  -0.69307
 Alpha  occ. eigenvalues --   -0.65005  -0.62604  -0.61640  -0.58144  -0.56685
 Alpha  occ. eigenvalues --   -0.54748  -0.54381  -0.52955  -0.52636  -0.48445
 Alpha  occ. eigenvalues --   -0.47622  -0.46604  -0.34541
 Alpha virt. eigenvalues --    0.03553   0.04386   0.04534   0.04878   0.06052
 Alpha virt. eigenvalues --    0.06367   0.06476   0.06844   0.07404   0.08515
 Alpha virt. eigenvalues --    0.09144   0.09208   0.11740   0.12127   0.13110

 Mulliken charges:
               1
     1  C    0.692765
     2  C   -1.531146
     3  C    0.848186
     4  C    1.328224
     5  O   -0.408200
     6  C   -0.299406
     7  C    0.309545
     8  H   -0.044344
     9  H   -0.084324
    10  H    0.006648
    11  H   -0.138858
    12  H    0.004365
    13  H   -0.065951
    14  H   -0.068035
    15  H   -0.201356
    16  H   -0.134363
    17  H   -0.195620
    18  H   -0.013136
    19  H   -0.004993
 Sum of Mulliken charges =   0.00000

 Dipole moment (field-independent basis, Debye):
    X=              1.0112    Y=              0.6242    Z=              0.5047  Tot=              1.2911

 Test job not archived.
 1\1\GINC-SE114\SP\RHF\Aug-CC-pVDZ\C6H12O1\OHZDE\09-Apr-2025\0\\#t hf a
 ug-cc-pvdz iop(5/13=1,5/36=2,99/5=2) pseudo=read geom=check guess=(rea
 d,tcheck) scf=(maxcycle=1)\\title\\0,1\C,0,-1.57904292,-0.61102938,-0.
 70860421\C,0,-1.03060012,0.34655961,0.3437589\C,0,-2.09219244,0.709913
 92,1.37746756\C,0,0.18280233,-0.22559819,1.05421146\O,0,1.23907656,-0.
 5122225,0.11573198\C,0,2.17301579,0.381068,0.00591203\C,0,3.14417954,-
 0.08546242,-1.02869383\H,0,-2.42641947,-0.16384184,-1.23185408\H,0,-0.
 82144118,-0.86841884,-1.44943227\H,0,-1.92647424,-1.53931771,-0.245579

 Normal termination of Gaussian 16 at Wed Apr  9 16:01:29 2025.
