 Gaussian 16, Revision C.01,

 ----------------------------------------------------------------------
 #t hf aug-cc-pvdz symm=none int=(grid=ultrafine) guess=(read,tcheck) s
 table=(opt,rrhf)
 ----------------------------------------------------------------------
 -----
 title
 -----
 Symbolic Z-matrix:
 Charge =  0 Multiplicity = 1

 SCF Done:  E(RHF) =  -354.666432034     A.U. after   14 cycles
 Normal termination of Gaussian 16 at Wed Apr  9 15:42:44 2025.
 Gaussian 16:  ES64L-G16RevC.01  3-Jul-2019

 ----------------------------------------------------------------------
 #t hf aug-cc-pvdz iop(5/13=1,5/36=2,99/5=2) pseudo=read geom=check gue
 ss=(read,tcheck) scf=(maxcycle=1)
 ----------------------------------------------------------------------
 -----
 title
 -----
 Structure from the checkpoint file:  "Grambow2020_wb97xd3_007310_reverse_mol2.chk"
 Charge =  0 Multiplicity = 1

                         Standard orientation:
 ---------------------------------------------------------------------
 Center     Atomic      Atomic             Coordinates (Angstroms)
 Number     Number       Type             X           Y           Z
 ---------------------------------------------------------------------
      1          8           0       -2.017136   -0.755449    0.001815
      2          6           0       -1.841573    0.680293    0.011885
      3          6           0       -0.388616    0.370295   -0.006856
      4          7           0       -0.599895   -0.909854   -0.015510
      5          7           0        2.091115   -0.807667    0.007929
      6          6           0        1.878303    0.514273   -0.000206
      7          7           0        0.741203    1.124701   -0.009159
      8          1           0        1.307662   -1.449322    0.007927
      9          1           0       -2.233981    1.139093    0.920122
     10          1           0       -2.256024    1.152927   -0.879193
     11          1           0        3.027105   -1.165989    0.023768
     12          1           0        2.776686    1.127466    0.001086
 ---------------------------------------------------------------------

 SCF Done:  E(RHF) =  -354.772122518     A.U. after    2 cycles

 The electronic state is 1-A.
 Alpha  occ. eigenvalues --  -20.59761 -15.67285 -15.67049 -15.62015 -11.36466
 Alpha  occ. eigenvalues --  -11.32005 -11.30294  -1.40853  -1.27654  -1.17148
 Alpha  occ. eigenvalues --   -1.07319  -0.97185  -0.88223  -0.77421  -0.75501
 Alpha  occ. eigenvalues --   -0.68717  -0.68698  -0.65784  -0.63187  -0.57072
 Alpha  occ. eigenvalues --   -0.53281  -0.51116  -0.45975  -0.44516  -0.43029
 Alpha  occ. eigenvalues --   -0.34399
 Alpha virt. eigenvalues --    0.02311   0.04068   0.04380   0.05438   0.07149
 Alpha virt. eigenvalues --    0.08911   0.09349   0.10611   0.11120   0.11903
 Alpha virt. eigenvalues --    0.13824   0.14257   0.16349   0.16644   0.16792

 Mulliken charges:
               1
     1  O   -0.762079
     2  C    0.959068
     3  C    0.037427
     4  N   -0.135257
     5  N   -0.153503
     6  C    0.758891
     7  N   -0.470389
     8  H    0.106909
     9  H   -0.048542
    10  H   -0.047731
    11  H    0.006725
    12  H   -0.251518
 Sum of Mulliken charges =   0.00000

 Dipole moment (field-independent basis, Debye):
    X=              3.7742    Y=              0.8362    Z=              0.0783  Tot=              3.8665

 Test job not archived.
 1\1\GINC-SE087\SP\RHF\Aug-CC-pVDZ\C3H5N3O1\OHZDE\09-Apr-2025\0\\#t hf
 aug-cc-pvdz iop(5/13=1,5/36=2,99/5=2) pseudo=read geom=check guess=(re
 ad,tcheck) scf=(maxcycle=1)\\title\\0,1\O,0,-2.18661964,0.83802806,-0.
 47920794\C,0,-2.04300525,-0.40852507,0.24034673\C,0,-0.58581709,-0.210
 32985,0.02856134\N,0,-0.76849186,0.90388297,-0.61069977\N,0,1.91188582
 ,0.66088273,-0.70584319\C,0,1.67179311,-0.4580298,-0.01066504\N,0,0.52
 509177,-0.91671664,0.36400872\H,0,1.14419938,1.25324143,-0.9978834\H,0
 ,-2.50599985,-1.24513037,-0.28415536\H,0,-2.40597691,-0.33699896,1.266

 Normal termination of Gaussian 16 at Wed Apr  9 15:42:48 2025.
