 Gaussian 16, Revision C.01,

 ----------------------------------------------------------------------
 #t hf aug-cc-pvdz symm=none int=(grid=ultrafine) guess=(read,tcheck) s
 table=(opt,rrhf)
 ----------------------------------------------------------------------
 -----
 title
 -----
 Symbolic Z-matrix:
 Charge =  0 Multiplicity = 1

 SCF Done:  E(RHF) =  -289.173546859     A.U. after   13 cycles

 1\1\GINC-SE229\Stability\RHF\Aug-CC-pVDZ\C6H13N1\OHZDE\09-Apr-2025\0\\
 #t hf aug-cc-pvdz symm=none int=(grid=ultrafine) guess=(read,tcheck) s
 table=(opt,rrhf)\\title\\0,1\C,0,-1.08761578,1.54960626,0.98501967\C,0
 ,-1.00136675,0.05222601,1.08083802\N,0,-0.68978133,-0.69803706,-0.1544
 018\C,0,-1.42356082,-1.90506744,-0.48385506\C,0,0.2207444,-0.70697124,
 0.88349076\C,0,1.35629715,-1.23246417,1.29276776\C,0,1.78600866,1.4518
 6129,-1.90127304\H,0,-2.06431967,1.85962674,0.60797788\H,0,-0.94289556
 ,2.00324618,1.96753791\H,0,-0.31887769,1.92850377,0.31195871\H,0,-1.72

 Normal termination of Gaussian 16 at Wed Apr  9 17:05:14 2025.
 Gaussian 16:  ES64L-G16RevC.01  3-Jul-2019

 ----------------------------------------------------------------------
 #t hf aug-cc-pvdz iop(5/13=1,5/36=2,99/5=2) pseudo=read geom=check gue
 ss=(read,tcheck) scf=(maxcycle=1)
 ----------------------------------------------------------------------
 -----
 title
 -----
 Structure from the checkpoint file:  "Grambow2020_wb97xd3_009133_reverse_mol2.chk"
 Charge =  0 Multiplicity = 1

                         Standard orientation:
 ---------------------------------------------------------------------
 Center     Atomic      Atomic             Coordinates (Angstroms)
 Number     Number       Type             X           Y           Z
 ---------------------------------------------------------------------
      1          6           0        0.033682    2.129280    0.185801
      2          6           0       -0.892051    0.946410    0.236864
      3          7           0       -0.573956   -0.212138   -0.624750
      4          6           0       -1.620839   -0.873224   -1.380328
      5          6           0       -0.515786   -0.360231    0.746761
      6          6           0       -0.338663   -1.238374    1.711449
      7          6           0        3.132996   -0.425243   -0.497295
      8          1           0       -0.195103    2.765529   -0.671560
      9          1           0       -0.066146    2.730626    1.091611
     10          1           0        1.067592    1.794720    0.104370
     11          1           0       -1.954153    1.180626    0.326100
     12          1           0       -1.316825   -1.899250   -1.589098
     13          1           0       -2.573733   -0.897544   -0.835092
     14          1           0       -1.763000   -0.356380   -2.329700
     15          1           0        3.118336   -0.443403    0.591895
     16          1           0       -0.380337   -0.929692    2.746791
     17          1           0       -0.128795   -2.277324    1.490555
     18          1           0        2.113153   -0.524137   -0.867576
     19          1           0        3.743553   -1.249015   -0.865121
     20          1           0        3.557114    0.518497   -0.839442
 ---------------------------------------------------------------------

 SCF Done:  E(RHF) =  -289.268734796     A.U. after    2 cycles

 The electronic state is 1-A.
 Alpha  occ. eigenvalues --  -15.63358 -11.28171 -11.28044 -11.26595 -11.23132
 Alpha  occ. eigenvalues --  -11.22587 -11.20304  -1.27510  -1.02407  -0.99883
 Alpha  occ. eigenvalues --   -0.94046  -0.92525  -0.80331  -0.72698  -0.66743
 Alpha  occ. eigenvalues --   -0.63672  -0.61363  -0.59734  -0.56890  -0.56302
 Alpha  occ. eigenvalues --   -0.54118  -0.53419  -0.53189  -0.53112  -0.46626
 Alpha  occ. eigenvalues --   -0.45744  -0.40828  -0.33672
 Alpha virt. eigenvalues --    0.03284   0.04038   0.04173   0.04362   0.06146
 Alpha virt. eigenvalues --    0.06534   0.06562   0.06783   0.07681   0.08323
 Alpha virt. eigenvalues --    0.08678   0.09569   0.10840   0.11827   0.12583

 Mulliken charges:
               1
     1  C    0.433719
     2  C    0.019058
     3  N   -0.513182
     4  C    0.798529
     5  C   -0.552248
     6  C    1.520001
     7  C    0.799482
     8  H    0.009907
     9  H    0.079025
    10  H   -0.202562
    11  H   -0.357180
    12  H   -0.210053
    13  H   -0.106353
    14  H   -0.208895
    15  H   -0.156957
    16  H   -0.324018
    17  H   -0.382861
    18  H   -0.281968
    19  H   -0.215904
    20  H   -0.147540
 Sum of Mulliken charges =  -0.00000

 Dipole moment (field-independent basis, Debye):
    X=             -1.4112    Y=              0.5472    Z=             -0.2098  Tot=              1.5280

 Test job not archived.
 1\1\GINC-SE229\SP\RHF\Aug-CC-pVDZ\C6H13N1\OHZDE\09-Apr-2025\0\\#t hf a
 ug-cc-pvdz iop(5/13=1,5/36=2,99/5=2) pseudo=read geom=check guess=(rea
 d,tcheck) scf=(maxcycle=1)\\title\\0,1\C,0,-1.08761578,1.54960626,0.98
 501967\C,0,-1.00136675,0.05222601,1.08083802\N,0,-0.68978133,-0.698037
 06,-0.1544018\C,0,-1.42356082,-1.90506744,-0.48385506\C,0,0.2207444,-0
 .70697124,0.88349076\C,0,1.35629715,-1.23246417,1.29276776\C,0,1.78600
 866,1.45186129,-1.90127304\H,0,-2.06431967,1.85962674,0.60797788\H,0,-
 0.94289556,2.00324618,1.96753791\H,0,-0.31887769,1.92850377,0.31195871

 Normal termination of Gaussian 16 at Wed Apr  9 17:05:29 2025.
