 Gaussian 16, Revision C.01,

 ----------------------------------------------------------------------
 #t hf aug-cc-pvdz symm=none int=(grid=ultrafine) guess=(read,tcheck) s
 table=(opt,rrhf)
 ----------------------------------------------------------------------
 -----
 title
 -----
 Symbolic Z-matrix:
 Charge =  0 Multiplicity = 1

 SCF Done:  E(RHF) =  -340.470636889     A.U. after   13 cycles
 Normal termination of Gaussian 16 at Wed Apr  9 14:21:03 2025.
 Gaussian 16:  ES64L-G16RevC.01  3-Jul-2019

 ----------------------------------------------------------------------
 #t hf aug-cc-pvdz iop(5/13=1,5/36=2,99/5=2) pseudo=read geom=check gue
 ss=(read,tcheck) scf=(maxcycle=1)
 ----------------------------------------------------------------------
 -----
 title
 -----
 Structure from the checkpoint file:  "Grambow2020_wb97xd3_006044_reverse_mol2.chk"
 Charge =  0 Multiplicity = 1

                         Standard orientation:
 ---------------------------------------------------------------------
 Center     Atomic      Atomic             Coordinates (Angstroms)
 Number     Number       Type             X           Y           Z
 ---------------------------------------------------------------------
      1          8           0        1.727908   -0.456532    0.299081
      2          6           0        0.469575   -0.085152    0.036039
      3          8           0        0.217277    1.100943   -0.654435
      4          6           0       -0.559841    0.804399    0.546192
      5          6           0       -1.528136   -0.280516    0.116336
      6          8           0       -0.413185   -1.091788   -0.355719
      7          1           0        2.321445    0.200762   -0.073385
      8          1           0       -0.617685    1.554802    1.319291
      9          1           0       -2.035316   -0.775236    0.944831
     10          1           0       -2.214027   -0.033695   -0.693556
 ---------------------------------------------------------------------

 SCF Done:  E(RHF) =  -340.580369781     A.U. after    2 cycles

 The electronic state is 1-A.
 Alpha  occ. eigenvalues --  -20.62153 -20.60418 -20.59315 -11.42486 -11.31487
 Alpha  occ. eigenvalues --  -11.31421  -1.47471  -1.37306  -1.32792  -1.00366
 Alpha  occ. eigenvalues --   -0.92037  -0.81899  -0.78731  -0.73630  -0.69644
 Alpha  occ. eigenvalues --   -0.67293  -0.61575  -0.58227  -0.57723  -0.55636
 Alpha  occ. eigenvalues --   -0.50821  -0.48473  -0.41983
 Alpha virt. eigenvalues --    0.03128   0.04286   0.04855   0.05368   0.08631
 Alpha virt. eigenvalues --    0.10666   0.10960   0.11506   0.11796   0.13869
 Alpha virt. eigenvalues --    0.14480   0.15506   0.17101   0.17796   0.20725

 Mulliken charges:
               1
     1  O   -0.441651
     2  C    0.800518
     3  O   -0.730087
     4  C    0.567256
     5  C    0.928940
     6  O   -0.747327
     7  H    0.126773
     8  H   -0.235603
     9  H   -0.144537
    10  H   -0.124282
 Sum of Mulliken charges =   0.00000

 Dipole moment (field-independent basis, Debye):
    X=             -1.0241    Y=              1.8496    Z=              1.8948  Tot=              2.8390

 Test job not archived.
 1\1\GINC-SE037\SP\RHF\Aug-CC-pVDZ\C3H4O3\OHZDE\09-Apr-2025\0\\#t hf au
 g-cc-pvdz iop(5/13=1,5/36=2,99/5=2) pseudo=read geom=check guess=(read
 ,tcheck) scf=(maxcycle=1)\\title\\0,1\O,0,1.55514735,0.87939868,1.0728
 4732\C,0,0.67461847,0.28219043,0.26135032\O,0,0.50492022,0.73686179,-1
 .04697143\C,0,-0.67861504,0.45807892,-0.23772523\C,0,-0.75666241,-1.05
 532358,-0.18356999\O,0,0.60932168,-1.10998722,0.32161563\H,0,1.9869793
 9,1.58479041,0.58397432\H,0,-1.43774397,1.22060968,-0.15771057\H,0,-1.
 45426005,-1.43648585,0.56239061\H,0,-0.85191364,-1.57642426,-1.1357639

 Normal termination of Gaussian 16 at Wed Apr  9 14:21:06 2025.
