 Gaussian 16, Revision C.01,

 ----------------------------------------------------------------------
 #t hf aug-cc-pvdz symm=none int=(grid=ultrafine) guess=(read,tcheck) s
 table=(opt,rrhf)
 ----------------------------------------------------------------------
 -----
 title
 -----
 Symbolic Z-matrix:
 Charge =  0 Multiplicity = 1

 SCF Done:  E(RHF) =  -301.882364442     A.U. after   16 cycles
 Normal termination of Gaussian 16 at Wed Apr  9 14:17:18 2025.
 Gaussian 16:  ES64L-G16RevC.01  3-Jul-2019

 ----------------------------------------------------------------------
 #t hf aug-cc-pvdz iop(5/13=1,5/36=2,99/5=2) pseudo=read geom=check gue
 ss=(read,tcheck) scf=(maxcycle=1)
 ----------------------------------------------------------------------
 -----
 title
 -----
 Structure from the checkpoint file:  "Grambow2020_b97d3_006937_forward_mol1.chk"
 Charge =  0 Multiplicity = 1

                         Standard orientation:
 ---------------------------------------------------------------------
 Center     Atomic      Atomic             Coordinates (Angstroms)
 Number     Number       Type             X           Y           Z
 ---------------------------------------------------------------------
      1          6           0       -2.224934   -0.345480    0.281177
      2          7           0       -0.939048   -0.642964   -0.360738
      3          6           0        0.068970    0.359086   -0.022433
      4          8           0       -0.142332    1.571719   -0.114576
      5          7           0        1.407640   -0.250062   -0.631390
      6          6           0        2.065835   -0.370083    0.538743
      7          1           0       -2.175853   -0.321314    1.385360
      8          1           0       -2.944872   -1.114122   -0.029822
      9          1           0       -2.566607    0.632389   -0.072335
     10          1           0       -0.624149   -1.571454   -0.066493
     11          1           0        1.294211   -1.087686   -1.198654
     12          1           0        0.432639   -0.018163    1.222055
     13          1           0        2.666647   -1.255407    0.776184
     14          1           0        2.317272    0.552051    1.060291
 ---------------------------------------------------------------------

 SCF Done:  E(RHF) =  -301.974626303     A.U. after    2 cycles

 The electronic state is 1-A.
 Alpha  occ. eigenvalues --  -20.49304 -15.67289 -15.63111 -11.40249 -11.39012
 Alpha  occ. eigenvalues --  -11.25310  -1.31692  -1.23220  -1.15874  -0.94070
 Alpha  occ. eigenvalues --   -0.89856  -0.80454  -0.73564  -0.68126  -0.66663
 Alpha  occ. eigenvalues --   -0.62617  -0.60780  -0.57266  -0.54971  -0.52490
 Alpha  occ. eigenvalues --   -0.46956  -0.41512  -0.40124  -0.33174
 Alpha virt. eigenvalues --    0.01419   0.02329   0.03568   0.04297   0.05580
 Alpha virt. eigenvalues --    0.06436   0.06856   0.08573   0.09203   0.10858
 Alpha virt. eigenvalues --    0.12638   0.13043   0.14063   0.14653   0.14836

 Mulliken charges:
               1
     1  C    0.649514
     2  N   -0.537862
     3  C    0.626973
     4  O   -0.610236
     5  N   -0.440105
     6  C    0.816115
     7  H   -0.060429
     8  H   -0.201361
     9  H   -0.080207
    10  H    0.020797
    11  H   -0.003594
    12  H    0.078233
    13  H   -0.138907
    14  H   -0.118932
 Sum of Mulliken charges =  -0.00000

 Dipole moment (field-independent basis, Debye):
    X=              3.6485    Y=             -5.9998    Z=              1.8341  Tot=              7.2576

 Test job not archived.
 1\1\GINC-SE056\SP\RHF\Aug-CC-pVDZ\C3H8N2O1\OHZDE\09-Apr-2025\0\\#t hf
 aug-cc-pvdz iop(5/13=1,5/36=2,99/5=2) pseudo=read geom=check guess=(re
 ad,tcheck) scf=(maxcycle=1)\\title\\0,1\C,0,-2.03310192,0.54473204,0.3
 9035359\N,0,-0.92662804,-0.41892125,0.35656778\C,0,0.05028321,-0.07152
 828,-0.67281007\O,0,-0.27354625,0.19229747,-1.83433844\N,0,1.24081178,
 -1.09390832,-0.40577567\C,0,2.17563428,-0.16651046,-0.11789073\H,0,-1.
 71427705,1.58067011,0.60805867\H,0,-2.74376229,0.2179516,1.16107938\H,
 0,-2.52874392,0.5321556,-0.58541271\H,0,-0.4754607,-0.44391257,1.27507

 Normal termination of Gaussian 16 at Wed Apr  9 14:17:22 2025.
