 Gaussian 16, Revision C.01,

 ----------------------------------------------------------------------
 #t hf aug-cc-pvdz symm=none int=(grid=ultrafine) guess=(read,tcheck) s
 table=(opt,rrhf)
 ----------------------------------------------------------------------
 -----
 title
 -----
 Symbolic Z-matrix:
 Charge =  0 Multiplicity = 1

 SCF Done:  E(RHF) =  -322.743404926     A.U. after   14 cycles
 Normal termination of Gaussian 16 at Wed Apr  9 15:35:03 2025.
 Gaussian 16:  ES64L-G16RevC.01  3-Jul-2019

 ----------------------------------------------------------------------
 #t hf aug-cc-pvdz iop(5/13=1,5/36=2,99/5=2) pseudo=read geom=check gue
 ss=(read,tcheck) scf=(maxcycle=1)
 ----------------------------------------------------------------------
 -----
 title
 -----
 Structure from the checkpoint file:  "Grambow2020_wb97xd3_007010_reverse_mol2.chk"
 Charge =  0 Multiplicity = 1

                         Standard orientation:
 ---------------------------------------------------------------------
 Center     Atomic      Atomic             Coordinates (Angstroms)
 Number     Number       Type             X           Y           Z
 ---------------------------------------------------------------------
      1          6           0        2.441609   -1.615633    0.000432
      2          6           0        1.393109   -0.557582    0.041065
      3          6           0        1.624493    0.748065   -0.061092
      4          6           0        0.563503    1.765965   -0.014529
      5          7           0       -0.668205    1.476939    0.075991
      6          6           0       -2.479681   -1.203443    0.036311
      7          8           0       -3.422141   -0.600165   -0.067164
      8          1           0        2.429412   -2.203560    0.922038
      9          1           0        3.439377   -1.195303   -0.130660
     10          1           0        2.249557   -2.314870   -0.817659
     11          1           0        0.363091   -0.883249    0.164021
     12          1           0        2.640225    1.114233   -0.181869
     13          1           0        0.913335    2.803796   -0.062093
     14          1           0       -1.238633    2.317474    0.098479
 ---------------------------------------------------------------------

 SCF Done:  E(RHF) =  -322.844885619     A.U. after    2 cycles

 The electronic state is 1-A.
 Alpha  occ. eigenvalues --  -20.66316 -15.61173 -11.35571 -11.29554 -11.25545
 Alpha  occ. eigenvalues --  -11.23951 -11.23531  -1.47486  -1.18273  -1.07027
 Alpha  occ. eigenvalues --   -0.95876  -0.83705  -0.80013  -0.73898  -0.68751
 Alpha  occ. eigenvalues --   -0.64355  -0.64100  -0.63081  -0.58466  -0.57832
 Alpha  occ. eigenvalues --   -0.54547  -0.53635  -0.50546  -0.47596  -0.41673
 Alpha  occ. eigenvalues --   -0.34777
 Alpha virt. eigenvalues --    0.03308   0.03872   0.04977   0.05877   0.06544
 Alpha virt. eigenvalues --    0.06781   0.07766   0.08893   0.09669   0.10074
 Alpha virt. eigenvalues --    0.11230   0.12735   0.13123   0.13895   0.14182

 Mulliken charges:
               1
     1  C    0.207143
     2  C    0.180314
     3  C    0.485205
     4  C    0.588946
     5  N   -0.348430
     6  C    0.235780
     7  O   -0.237568
     8  H    0.078439
     9  H   -0.112833
    10  H    0.079250
    11  H   -0.400049
    12  H   -0.434223
    13  H   -0.354280
    14  H    0.032307
 Sum of Mulliken charges =  -0.00000

 Dipole moment (field-independent basis, Debye):
    X=              2.1353    Y=              0.4418    Z=             -0.0364  Tot=              2.1809

 Test job not archived.
 1\1\GINC-SE229\SP\RHF\Aug-CC-pVDZ\C5H7N1O1\OHZDE\09-Apr-2025\0\\#t hf
 aug-cc-pvdz iop(5/13=1,5/36=2,99/5=2) pseudo=read geom=check guess=(re
 ad,tcheck) scf=(maxcycle=1)\\title\\0,1\C,0,-2.15121261,0.88979212,0.1
 7742304\C,0,-0.75436805,0.38820315,0.04435598\C,0,0.33258915,1.0509912
 4,0.42896495\C,0,1.6983671,0.52520853,0.27999998\N,0,1.94803861,-0.629
 1674,-0.18250996\C,0,0.25503731,-3.23262182,-1.08983639\O,0,1.18715212
 ,-3.85858054,-1.13695283\H,0,-2.63394958,0.94527042,-0.80188944\H,0,-2
 .18704662,1.87717153,0.63916078\H,0,-2.74974301,0.20258007,0.78123678\

 Normal termination of Gaussian 16 at Wed Apr  9 15:35:08 2025.
