 Gaussian 16, Revision C.01,

 ----------------------------------------------------------------------
 #t hf aug-cc-pvdz symm=none int=(grid=ultrafine) guess=(read,tcheck) s
 table=(opt,rrhf)
 ----------------------------------------------------------------------
 -----
 title
 -----
 Symbolic Z-matrix:
 Charge =  0 Multiplicity = 1

 SCF Done:  E(RHF) =  -308.918209062     A.U. after   14 cycles

 1\1\GINC-SE073\Stability\RHF\Aug-CC-pVDZ\C6H12O1\OHZDE\09-Apr-2025\0\\
 #t hf aug-cc-pvdz symm=none int=(grid=ultrafine) guess=(read,tcheck) s
 table=(opt,rrhf)\\title\\0,1\C,0,-0.68180213,-1.95526752,-0.40064356\C
 ,0,-0.73200559,-0.48359151,-0.76502955\C,0,-1.447991,0.40766556,0.2614
 7148\C,0,-0.10094886,2.27639557,1.34764942\O,0,-0.16837632,0.85268749,
 0.78006698\C,0,0.51805701,0.35373198,-0.44050571\C,0,1.85154632,-0.250
 7357,-0.12821288\H,0,-1.66658858,-2.40835514,-0.52784744\H,0,0.0190169
 9,-2.50189721,-1.03433415\H,0,-0.38446899,-2.10117985,0.63977772\H,0,-

 Normal termination of Gaussian 16 at Wed Apr  9 03:27:42 2025.
 Gaussian 16:  ES64L-G16RevC.01  3-Jul-2019

 ----------------------------------------------------------------------
 #t hf aug-cc-pvdz iop(5/13=1,5/36=2,99/5=2) pseudo=read geom=check gue
 ss=(read,tcheck) scf=(maxcycle=1)
 ----------------------------------------------------------------------
 -----
 title
 -----
 Structure from the checkpoint file:  "Grambow2020_wb97xd3_006725_reverse_mol2.chk"
 Charge =  0 Multiplicity = 1

                         Standard orientation:
 ---------------------------------------------------------------------
 Center     Atomic      Atomic             Coordinates (Angstroms)
 Number     Number       Type             X           Y           Z
 ---------------------------------------------------------------------
      1          6           0       -2.166862   -0.374584   -0.410832
      2          6           0       -0.997239   -0.509808    0.545632
      3          6           0        0.143441   -1.407351    0.041702
      4          6           0        2.444928   -0.351716   -0.232615
      5          8           0        0.917682   -0.234914   -0.319327
      6          6           0        0.046604    0.621196    0.528167
      7          6           0       -0.204254    1.959060   -0.094962
      8          1           0       -2.749716   -1.297264   -0.425527
      9          1           0       -2.835857    0.435504   -0.114659
     10          1           0       -1.830397   -0.181740   -1.431506
     11          1           0       -1.343718   -0.756388    1.548264
     12          1           0       -0.028330   -2.030503   -0.834367
     13          1           0        0.681279   -1.960285    0.810948
     14          1           0        2.755264    0.506292   -0.842929
     15          1           0        2.634273   -0.080925    0.821378
     16          1           0        0.556128    0.714707    1.490781
     17          1           0       -0.691723    1.868108   -1.064927
     18          1           0       -0.834564    2.561850    0.561486
     19          1           0        0.746196    2.479173   -0.226885
 ---------------------------------------------------------------------

 SCF Done:  E(RHF) =  -309.016145210     A.U. after    2 cycles

 The electronic state is 1-A.
 Alpha  occ. eigenvalues --  -20.64970 -11.32630 -11.31430 -11.27067 -11.25073
 Alpha  occ. eigenvalues --  -11.25012 -11.19170  -1.41593  -1.10174  -1.03731
 Alpha  occ. eigenvalues --   -0.96447  -0.90499  -0.85591  -0.77356  -0.70769
 Alpha  occ. eigenvalues --   -0.68806  -0.67787  -0.62968  -0.59303  -0.57541
 Alpha  occ. eigenvalues --   -0.57012  -0.56533  -0.55712  -0.51181  -0.48960
 Alpha  occ. eigenvalues --   -0.48067  -0.45476  -0.27211
 Alpha virt. eigenvalues --    0.02406   0.03787   0.03846   0.04784   0.05998
 Alpha virt. eigenvalues --    0.06151   0.06563   0.06791   0.07454   0.08998
 Alpha virt. eigenvalues --    0.09240   0.09850   0.11911   0.12075   0.13323

 Mulliken charges:
               1
     1  C    0.567366
     2  C   -0.414347
     3  C    1.124271
     4  C    0.167231
     5  O   -0.729800
     6  C    0.408527
     7  C    0.432861
     8  H   -0.075063
     9  H   -0.003919
    10  H   -0.009151
    11  H   -0.200055
    12  H   -0.236240
    13  H   -0.181188
    14  H   -0.271717
    15  H   -0.271492
    16  H   -0.329936
    17  H    0.016014
    18  H    0.021873
    19  H   -0.015235
 Sum of Mulliken charges =  -0.00000

 Dipole moment (field-independent basis, Debye):
    X=             -5.8914    Y=              1.5323    Z=              1.9166  Tot=              6.3821

 Test job not archived.
 1\1\GINC-SE073\SP\RHF\Aug-CC-pVDZ\C6H12O1\OHZDE\09-Apr-2025\0\\#t hf a
 ug-cc-pvdz iop(5/13=1,5/36=2,99/5=2) pseudo=read geom=check guess=(rea
 d,tcheck) scf=(maxcycle=1)\\title\\0,1\C,0,-0.68180213,-1.95526752,-0.
 40064356\C,0,-0.73200559,-0.48359151,-0.76502955\C,0,-1.447991,0.40766
 556,0.26147148\C,0,-0.10094886,2.27639557,1.34764942\O,0,-0.16837632,0
 .85268749,0.78006698\C,0,0.51805701,0.35373198,-0.44050571\C,0,1.85154
 632,-0.2507357,-0.12821288\H,0,-1.66658858,-2.40835514,-0.52784744\H,0
 ,0.01901699,-2.50189721,-1.03433415\H,0,-0.38446899,-2.10117985,0.6397

 Normal termination of Gaussian 16 at Wed Apr  9 03:27:50 2025.
