 Gaussian 16, Revision C.01,

 ----------------------------------------------------------------------
 #t hf aug-cc-pvdz symm=none int=(grid=ultrafine) guess=(read,tcheck) s
 table=(opt,rrhf)
 ----------------------------------------------------------------------
 -----
 title
 -----
 Symbolic Z-matrix:
 Charge =  0 Multiplicity = 1

 SCF Done:  E(RHF) =  -344.889327385     A.U. after   13 cycles

 1\1\GINC-SE049\Stability\RHF\Aug-CC-pVDZ\C5H10O2\OHZDE\09-Apr-2025\0\\
 #t hf aug-cc-pvdz symm=none int=(grid=ultrafine) guess=(read,tcheck) s
 table=(opt,rrhf)\\title\\0,1\C,0,2.15460571,0.46188527,-1.73439776\C,0
 ,1.15882317,-0.13393759,-1.09812745\C,0,0.44396349,-0.28066819,2.04260
 415\O,0,-0.75793349,0.1535602,1.44813019\C,0,-0.89175326,-0.16967944,0
 .10514988\C,0,-2.27504638,0.23573323,-0.33479304\O,0,0.05256512,0.5287
 4848,-0.68965577\H,0,3.00567573,-0.12037468,-2.05529199\H,0,1.31109659
 ,0.24383725,1.63091325\H,0,2.13417342,1.52252598,-1.94700999\H,0,1.168

 Normal termination of Gaussian 16 at Wed Apr  9 03:33:55 2025.
 Gaussian 16:  ES64L-G16RevC.01  3-Jul-2019

 ----------------------------------------------------------------------
 #t hf aug-cc-pvdz iop(5/13=1,5/36=2,99/5=2) pseudo=read geom=check gue
 ss=(read,tcheck) scf=(maxcycle=1)
 ----------------------------------------------------------------------
 -----
 title
 -----
 Structure from the checkpoint file:  "Grambow2020_wb97xd3_007111_reverse_mol2.chk"
 Charge =  0 Multiplicity = 1

                         Standard orientation:
 ---------------------------------------------------------------------
 Center     Atomic      Atomic             Coordinates (Angstroms)
 Number     Number       Type             X           Y           Z
 ---------------------------------------------------------------------
      1          6           0        2.818476   -0.035429   -0.170827
      2          6           0        1.603335   -0.070179    0.352291
      3          6           0       -0.908262    1.920644   -0.001620
      4          8           0       -1.450805    0.649106   -0.276117
      5          6           0       -0.748282   -0.413515    0.274597
      6          6           0       -1.530400   -1.674422    0.010376
      7          8           0        0.531860   -0.548753   -0.320552
      8          1           0        3.641754    0.339179    0.419259
      9          1           0        0.062275    2.059308   -0.486744
     10          1           0        3.009197   -0.380201   -1.178467
     11          1           0        1.400820    0.271947    1.365913
     12          1           0       -1.609885    2.655990   -0.390915
     13          1           0       -0.792292    2.076353    1.078994
     14          1           0       -0.602875   -0.243395    1.354422
     15          1           0       -1.629647   -1.817209   -1.065602
     16          1           0       -1.013406   -2.533133    0.437064
     17          1           0       -2.523593   -1.594252    0.450522
 ---------------------------------------------------------------------

 SCF Done:  E(RHF) =  -345.004172199     A.U. after    2 cycles

 The electronic state is 1-A.
 Alpha  occ. eigenvalues --  -20.59734 -20.58121 -11.35585 -11.30664 -11.28671
 Alpha  occ. eigenvalues --  -11.22896 -11.22103  -1.39940  -1.33299  -1.05916
 Alpha  occ. eigenvalues --   -1.00066  -0.92758  -0.84923  -0.81434  -0.72477
 Alpha  occ. eigenvalues --   -0.71006  -0.67081  -0.63251  -0.62337  -0.58788
 Alpha  occ. eigenvalues --   -0.57351  -0.54664  -0.53594  -0.52780  -0.51385
 Alpha  occ. eigenvalues --   -0.49693  -0.46200  -0.35037
 Alpha virt. eigenvalues --    0.03413   0.04495   0.04612   0.04721   0.06241
 Alpha virt. eigenvalues --    0.06397   0.06594   0.07315   0.07613   0.09152
 Alpha virt. eigenvalues --    0.11912   0.12137   0.13397   0.14180   0.14514

 Mulliken charges:
               1
     1  C    0.660717
     2  C    0.611191
     3  C    0.762871
     4  O   -0.708004
     5  C    0.942538
     6  C    0.277999
     7  O   -0.687199
     8  H   -0.265112
     9  H   -0.047555
    10  H   -0.374673
    11  H   -0.466134
    12  H   -0.282131
    13  H   -0.080218
    14  H   -0.277177
    15  H   -0.008924
    16  H   -0.039602
    17  H   -0.018585
 Sum of Mulliken charges =  -0.00000

 Dipole moment (field-independent basis, Debye):
    X=             -0.0238    Y=              0.7311    Z=              1.9500  Tot=              2.0826

 Test job not archived.
 1\1\GINC-SE049\SP\RHF\Aug-CC-pVDZ\C5H10O2\OHZDE\09-Apr-2025\0\\#t hf a
 ug-cc-pvdz iop(5/13=1,5/36=2,99/5=2) pseudo=read geom=check guess=(rea
 d,tcheck) scf=(maxcycle=1)\\title\\0,1\C,0,2.15460571,0.46188527,-1.73
 439776\C,0,1.15882317,-0.13393759,-1.09812745\C,0,0.44396349,-0.280668
 19,2.04260415\O,0,-0.75793349,0.1535602,1.44813019\C,0,-0.89175326,-0.
 16967944,0.10514988\C,0,-2.27504638,0.23573323,-0.33479304\O,0,0.05256
 512,0.52874848,-0.68965577\H,0,3.00567573,-0.12037468,-2.05529199\H,0,
 1.31109659,0.24383725,1.63091325\H,0,2.13417342,1.52252598,-1.94700999

 Normal termination of Gaussian 16 at Wed Apr  9 03:34:01 2025.
