 Gaussian 16, Revision C.01,

 ----------------------------------------------------------------------
 #t hf aug-cc-pvdz symm=none int=(grid=ultrafine) guess=(read,tcheck) s
 table=(opt,rrhf)
 ----------------------------------------------------------------------
 -----
 title
 -----
 Symbolic Z-matrix:
 Charge =  0 Multiplicity = 1

 SCF Done:  E(RHF) =  -287.885728291     A.U. after   16 cycles

 1\1\GINC-SE226\Stability\RHF\Aug-CC-pVDZ\C6H11N1\OHZDE\09-Apr-2025\0\\
 #t hf aug-cc-pvdz symm=none int=(grid=ultrafine) guess=(read,tcheck) s
 table=(opt,rrhf)\\title\\0,1\C,0,-2.43570109,-0.13367594,-0.91141894\C
 ,0,-1.3512169,-0.3901297,0.12763737\C,0,0.00372028,0.10711481,-0.31520
 034\C,0,1.16011904,-0.01587862,0.75731886\C,0,2.46491529,-0.6473881,0.
 32551321\C,0,0.93193799,1.37186472,0.53258468\N,0,0.82620355,2.5776042
 1,0.39070378\H,0,-3.40254538,-0.51314828,-0.5762341\H,0,-2.54332808,0.
 93505751,-1.11012388\H,0,-2.19486681,-0.6235922,-1.85780064\H,0,-1.629

 Normal termination of Gaussian 16 at Wed Apr  9 15:13:19 2025.
 Gaussian 16:  ES64L-G16RevC.01  3-Jul-2019

 ----------------------------------------------------------------------
 #t hf aug-cc-pvdz iop(5/13=1,5/36=2,99/5=2) pseudo=read geom=check gue
 ss=(read,tcheck) scf=(maxcycle=1)
 ----------------------------------------------------------------------
 -----
 title
 -----
 Structure from the checkpoint file:  "Grambow2020_wb97xd3_006816_reverse_mol1.chk"
 Charge =  0 Multiplicity = 1

                         Standard orientation:
 ---------------------------------------------------------------------
 Center     Atomic      Atomic             Coordinates (Angstroms)
 Number     Number       Type             X           Y           Z
 ---------------------------------------------------------------------
      1          6           0       -2.805329   -0.103558   -0.268218
      2          6           0       -1.530998   -0.470241    0.482207
      3          6           0       -0.285017   -0.198191   -0.325712
      4          6           0        1.084274   -0.442098    0.428101
      5          6           0        2.137527   -1.277486   -0.265109
      6          6           0        0.989007    0.952683    0.156230
      7          7           0        1.008635    2.153299   -0.051750
      8          1           0       -3.692656   -0.321187    0.328795
      9          1           0       -2.820219    0.959424   -0.519428
     10          1           0       -2.885305   -0.665359   -1.201835
     11          1           0       -1.488801    0.098696    1.418030
     12          1           0       -1.573868   -1.528573    0.774768
     13          1           0       -0.252443   -0.635055   -1.322707
     14          1           0       -0.014613    1.435248   -0.509817
     15          1           0        0.930458   -0.703257    1.474817
     16          1           0        1.827905   -2.323919   -0.271971
     17          1           0        2.273339   -0.952794   -1.297545
     18          1           0        3.098975   -1.202970    0.244148
 ---------------------------------------------------------------------

 SCF Done:  E(RHF) =  -287.973173899     A.U. after    2 cycles

 The electronic state is 1-A.
 Alpha  occ. eigenvalues --  -15.63350 -11.34772 -11.28194 -11.25174 -11.23946
 Alpha  occ. eigenvalues --  -11.23695 -11.22623  -1.24321  -1.11426  -1.03559
 Alpha  occ. eigenvalues --   -0.95584  -0.87033  -0.79758  -0.71491  -0.66378
 Alpha  occ. eigenvalues --   -0.62613  -0.60442  -0.59390  -0.56849  -0.56493
 Alpha  occ. eigenvalues --   -0.54392  -0.52839  -0.50202  -0.48848  -0.45786
 Alpha  occ. eigenvalues --   -0.44550  -0.29287
 Alpha virt. eigenvalues --    0.02980   0.03894   0.04062   0.05109   0.05954
 Alpha virt. eigenvalues --    0.06355   0.06544   0.07457   0.08267   0.09078
 Alpha virt. eigenvalues --    0.09477   0.10227   0.12444   0.12716   0.13494

 Mulliken charges:
               1
     1  C    0.426481
     2  C    0.152115
     3  C   -0.118781
     4  C    0.293644
     5  C    0.587849
     6  C   -0.080463
     7  N   -0.503012
     8  H   -0.051994
     9  H   -0.081019
    10  H   -0.074773
    11  H   -0.178261
    12  H   -0.084328
    13  H   -0.486888
    14  H    0.385723
    15  H   -0.188293
    16  H    0.019896
    17  H   -0.021903
    18  H    0.004008
 Sum of Mulliken charges =  -0.00000

 Dipole moment (field-independent basis, Debye):
    X=             -0.2750    Y=             -3.2716    Z=              0.2861  Tot=              3.2956

 Test job not archived.
 1\1\GINC-SE226\SP\RHF\Aug-CC-pVDZ\C6H11N1\OHZDE\09-Apr-2025\0\\#t hf a
 ug-cc-pvdz iop(5/13=1,5/36=2,99/5=2) pseudo=read geom=check guess=(rea
 d,tcheck) scf=(maxcycle=1)\\title\\0,1\C,0,-2.43570109,-0.13367594,-0.
 91141894\C,0,-1.3512169,-0.3901297,0.12763737\C,0,0.00372028,0.1071148
 1,-0.31520034\C,0,1.16011904,-0.01587862,0.75731886\C,0,2.46491529,-0.
 6473881,0.32551321\C,0,0.93193799,1.37186472,0.53258468\N,0,0.82620355
 ,2.57760421,0.39070378\H,0,-3.40254538,-0.51314828,-0.5762341\H,0,-2.5
 4332808,0.93505751,-1.11012388\H,0,-2.19486681,-0.6235922,-1.85780064\

 Normal termination of Gaussian 16 at Wed Apr  9 15:13:26 2025.
