 Gaussian 16, Revision C.01,

 ----------------------------------------------------------------------
 #t hf aug-cc-pvdz symm=none int=(grid=ultrafine) guess=(read,tcheck) s
 table=(opt,rrhf)
 ----------------------------------------------------------------------
 -----
 title
 -----
 Symbolic Z-matrix:
 Charge =  0 Multiplicity = 1

 SCF Done:  E(RHF) =  -308.880673843     A.U. after   16 cycles

 1\1\GINC-SE163\Stability\RHF\Aug-CC-pVDZ\C6H12O1\OHZDE\09-Apr-2025\0\\
 #t hf aug-cc-pvdz symm=none int=(grid=ultrafine) guess=(read,tcheck) s
 table=(opt,rrhf)\\title\\0,1\C,0,2.6872441,0.4493778,0.79886792\C,0,1.
 53337744,0.13035068,-0.12402231\O,0,0.56504876,-0.62811892,0.57552573\
 C,0,-0.42800205,-1.32714321,-0.39635954\C,0,-1.15349356,-0.05653715,1.
 01445793\C,0,-1.71047143,-0.47708087,-0.24028192\C,0,-1.97417617,0.561
 71284,-1.31112214\H,0,3.13153184,-0.46879206,1.1851864\H,0,2.35638554,
 1.05290884,1.64647606\H,0,3.45646221,1.00853653,0.26311046\H,0,1.82892

 Normal termination of Gaussian 16 at Wed Apr  9 17:15:57 2025.
 Gaussian 16:  ES64L-G16RevC.01  3-Jul-2019

 ----------------------------------------------------------------------
 #t hf aug-cc-pvdz iop(5/13=1,5/36=2,99/5=2) pseudo=read geom=check gue
 ss=(read,tcheck) scf=(maxcycle=1)
 ----------------------------------------------------------------------
 -----
 title
 -----
 Structure from the checkpoint file:  "Grambow2020_wb97xd3_009424_forward_mol1.chk"
 Charge =  0 Multiplicity = 1

                         Standard orientation:
 ---------------------------------------------------------------------
 Center     Atomic      Atomic             Coordinates (Angstroms)
 Number     Number       Type             X           Y           Z
 ---------------------------------------------------------------------
      1          6           0        2.844545    0.292340    0.260544
      2          6           0        1.461288    0.549891   -0.291886
      3          8           0        0.672526   -0.616627   -0.152623
      4          6           0       -0.596934   -0.561367   -1.049709
      5          6           0       -0.813350   -0.797550    0.957419
      6          6           0       -1.723179   -0.283211   -0.027020
      7          6           0       -2.198072    1.150645    0.090726
      8          1           0        3.312180   -0.545618   -0.257929
      9          1           0        2.803896    0.056473    1.325847
     10          1           0        3.473562    1.175005    0.131580
     11          1           0        1.463586    0.787203   -1.362302
     12          1           0        0.987295    1.395918    0.222502
     13          1           0       -0.628866   -1.582470   -1.440241
     14          1           0       -0.389203   -0.174138    1.740024
     15          1           0       -0.769210   -1.863322    1.133246
     16          1           0       -2.535259   -0.977267   -0.244535
     17          1           0       -2.634922    1.470979   -0.855599
     18          1           0       -2.945253    1.265487    0.881332
     19          1           0       -1.363797    1.820286    0.306611
 ---------------------------------------------------------------------

 SCF Done:  E(RHF) =  -308.977782607     A.U. after    2 cycles

 The electronic state is 1-A.
 Alpha  occ. eigenvalues --  -20.58181 -11.35097 -11.27581 -11.24429 -11.22348
 Alpha  occ. eigenvalues --  -11.22249 -11.22239  -1.32599  -1.10926  -1.00384
 Alpha  occ. eigenvalues --   -0.94707  -0.87470  -0.83458  -0.75437  -0.69816
 Alpha  occ. eigenvalues --   -0.65202  -0.62769  -0.60696  -0.59406  -0.58608
 Alpha  occ. eigenvalues --   -0.54969  -0.53140  -0.52686  -0.51031  -0.48059
 Alpha  occ. eigenvalues --   -0.46991  -0.41907  -0.26384
 Alpha virt. eigenvalues --    0.02860   0.04102   0.04422   0.04690   0.06126
 Alpha virt. eigenvalues --    0.06172   0.06254   0.06905   0.07222   0.08579
 Alpha virt. eigenvalues --    0.08907   0.09662   0.10419   0.12631   0.13622

 Mulliken charges:
               1
     1  C    0.290053
     2  C    0.734303
     3  O   -0.810321
     4  C    0.243695
     5  C    0.947470
     6  C   -0.276279
     7  C    0.589907
     8  H   -0.047682
     9  H   -0.070675
    10  H   -0.031646
    11  H   -0.201841
    12  H   -0.253714
    13  H   -0.382625
    14  H   -0.276203
    15  H   -0.227436
    16  H   -0.169612
    17  H   -0.002896
    18  H    0.011571
    19  H   -0.066069
 Sum of Mulliken charges =  -0.00000

 Dipole moment (field-independent basis, Debye):
    X=             -0.5978    Y=             -0.2839    Z=              3.6244  Tot=              3.6843

 Test job not archived.
 1\1\GINC-SE163\SP\RHF\Aug-CC-pVDZ\C6H12O1\OHZDE\09-Apr-2025\0\\#t hf a
 ug-cc-pvdz iop(5/13=1,5/36=2,99/5=2) pseudo=read geom=check guess=(rea
 d,tcheck) scf=(maxcycle=1)\\title\\0,1\C,0,2.6872441,0.4493778,0.79886
 792\C,0,1.53337744,0.13035068,-0.12402231\O,0,0.56504876,-0.62811892,0
 .57552573\C,0,-0.42800205,-1.32714321,-0.39635954\C,0,-1.15349356,-0.0
 5653715,1.01445793\C,0,-1.71047143,-0.47708087,-0.24028192\C,0,-1.9741
 7617,0.56171284,-1.31112214\H,0,3.13153184,-0.46879206,1.1851864\H,0,2
 .35638554,1.05290884,1.64647606\H,0,3.45646221,1.00853653,0.26311046\H

 Normal termination of Gaussian 16 at Wed Apr  9 17:16:04 2025.
