 Gaussian 16, Revision C.01,

 ----------------------------------------------------------------------
 #t hf aug-cc-pvdz symm=none int=(grid=ultrafine) guess=(read,tcheck) s
 table=(opt,rrhf)
 ----------------------------------------------------------------------
 -----
 title
 -----
 Symbolic Z-matrix:
 Charge =  0 Multiplicity = 1

 SCF Done:  E(RHF) =  -306.632376690     A.U. after   16 cycles
 Normal termination of Gaussian 16 at Wed Apr  9 03:59:19 2025.
 Gaussian 16:  ES64L-G16RevC.01  3-Jul-2019

 ----------------------------------------------------------------------
 #t hf aug-cc-pvdz iop(5/13=1,5/36=2,99/5=2) pseudo=read geom=check gue
 ss=(read,tcheck) scf=(maxcycle=1)
 ----------------------------------------------------------------------
 -----
 title
 -----
 Structure from the checkpoint file:  "Grambow2020_wb97xd3_008795_reverse_mol1.chk"
 Charge =  0 Multiplicity = 1

                         Standard orientation:
 ---------------------------------------------------------------------
 Center     Atomic      Atomic             Coordinates (Angstroms)
 Number     Number       Type             X           Y           Z
 ---------------------------------------------------------------------
      1          8           0        2.325882   -0.024202    0.051824
      2          6           0        1.125216   -0.026939   -0.030185
      3          6           0        0.296928   -1.265890   -0.238226
      4          6           0       -1.098971   -1.113978    0.359248
      5          6           0       -1.792038    0.142726   -0.168752
      6          6           0       -1.026390    1.433536   -0.110457
      7          6           0        0.353877    1.282049    0.029318
      8          1           0        0.222169   -1.403598   -1.324464
      9          1           0        0.843538   -2.123358    0.155326
     10          1           0       -1.697858   -2.002452    0.148189
     11          1           0       -1.021408   -1.050184    1.450504
     12          1           0       -2.000906    0.033964   -1.243588
     13          1           0       -2.774231    0.270723    0.290031
     14          1           0       -0.333095    1.600608    1.031692
     15          1           0        1.003005    2.158880    0.032049
 ---------------------------------------------------------------------

 SCF Done:  E(RHF) =  -306.723162918     A.U. after    2 cycles

 The electronic state is 1-A.
 Alpha  occ. eigenvalues --  -20.58444 -11.35871 -11.29650 -11.25892 -11.25805
 Alpha  occ. eigenvalues --  -11.25476 -11.24900  -1.37836  -1.14794  -1.05832
 Alpha  occ. eigenvalues --   -0.99286  -0.86374  -0.83243  -0.72630  -0.69346
 Alpha  occ. eigenvalues --   -0.65544  -0.64229  -0.60083  -0.58955  -0.58263
 Alpha  occ. eigenvalues --   -0.53362  -0.51425  -0.49913  -0.48390  -0.45991
 Alpha  occ. eigenvalues --   -0.33938
 Alpha virt. eigenvalues --    0.02988   0.04029   0.04389   0.04564   0.06280
 Alpha virt. eigenvalues --    0.06941   0.07054   0.07135   0.07635   0.09521
 Alpha virt. eigenvalues --    0.11132   0.12592   0.13556   0.13979   0.14159

 Mulliken charges:
               1
     1  O   -0.483159
     2  C   -0.035891
     3  C    0.369626
     4  C    0.420772
     5  C    0.359583
     6  C   -1.258011
     7  C    0.863290
     8  H    0.057524
     9  H   -0.044366
    10  H   -0.067834
    11  H   -0.114023
    12  H    0.038656
    13  H   -0.046239
    14  H    0.200140
    15  H   -0.260067
 Sum of Mulliken charges =  -0.00000

 Dipole moment (field-independent basis, Debye):
    X=             -1.9933    Y=             -2.0378    Z=              0.3548  Tot=              2.8726

 Test job not archived.
 1\1\GINC-SE159\SP\RHF\Aug-CC-pVDZ\C6H8O1\OHZDE\09-Apr-2025\0\\#t hf au
 g-cc-pvdz iop(5/13=1,5/36=2,99/5=2) pseudo=read geom=check guess=(read
 ,tcheck) scf=(maxcycle=1)\\title\\0,1\O,0,0.86998313,-2.53420422,0.504
 34737\C,0,0.52984102,-1.41889097,0.20650248\C,0,-0.88730437,-1.0263352
 ,-0.11277919\C,0,-1.15093589,0.43992129,0.2176373\C,0,-0.12901646,1.35
 179203,-0.46251071\C,0,1.32379497,1.00569798,-0.30324912\C,0,1.5654326
 9,-0.3118576,0.08826498\H,0,-1.01399647,-1.1920265,-1.1902586\H,0,-1.5
 6454146,-1.71191532,0.39736436\H,0,-2.16707492,0.71481859,-0.07303497\

 Normal termination of Gaussian 16 at Wed Apr  9 03:59:26 2025.
