 Gaussian 16, Revision C.01,

 ----------------------------------------------------------------------
 #t hf aug-cc-pvdz symm=none int=(grid=ultrafine) guess=(read,tcheck) s
 table=(opt,rrhf)
 ----------------------------------------------------------------------
 -----
 title
 -----
 Symbolic Z-matrix:
 Charge =  0 Multiplicity = 1

 SCF Done:  E(RHF) =  -375.773832226     A.U. after   13 cycles
 Normal termination of Gaussian 16 at Wed Apr  9 03:45:31 2025.
 Gaussian 16:  ES64L-G16RevC.01  3-Jul-2019

 ----------------------------------------------------------------------
 #t hf aug-cc-pvdz iop(5/13=1,5/36=2,99/5=2) pseudo=read geom=check gue
 ss=(read,tcheck) scf=(maxcycle=1)
 ----------------------------------------------------------------------
 -----
 title
 -----
 Structure from the checkpoint file:  "Grambow2020_wb97xd3_007914_reverse_mol2.chk"
 Charge =  0 Multiplicity = 1

                         Standard orientation:
 ---------------------------------------------------------------------
 Center     Atomic      Atomic             Coordinates (Angstroms)
 Number     Number       Type             X           Y           Z
 ---------------------------------------------------------------------
      1          6           0        0.651662    1.264098    0.195277
      2          8           0       -0.687932    1.115647   -0.260570
      3          6           0       -1.120477   -0.142757    0.017448
      4          7           0       -2.263531   -0.609971   -0.218329
      5          7           0       -0.087939   -0.825865    0.631533
      6          6           0        1.153939   -0.167184    0.416432
      7          8           0        1.801361   -0.714737   -0.716535
      8          1           0        1.228953    1.782770   -0.568976
      9          1           0        2.739622   -0.520578   -0.671763
     10          1           0        0.656748    1.838123    1.125568
     11          1           0       -2.858464    0.090604   -0.644520
     12          1           0       -0.135146   -1.830139    0.620114
     13          1           0        1.810398   -0.242150    1.289049
 ---------------------------------------------------------------------

 SCF Done:  E(RHF) =  -375.890717435     A.U. after    2 cycles

 The electronic state is 1-A.
 Alpha  occ. eigenvalues --  -20.61710 -20.59815 -15.64986 -15.58011 -11.37965
 Alpha  occ. eigenvalues --  -11.35543 -11.31614  -1.42300  -1.35697  -1.21629
 Alpha  occ. eigenvalues --   -1.15524  -1.00359  -0.88384  -0.83388  -0.76600
 Alpha  occ. eigenvalues --   -0.72925  -0.69006  -0.68509  -0.63646  -0.60629
 Alpha  occ. eigenvalues --   -0.59959  -0.56191  -0.55462  -0.48814  -0.46428
 Alpha  occ. eigenvalues --   -0.42876  -0.36806
 Alpha virt. eigenvalues --    0.02242   0.04192   0.04263   0.05374   0.06419
 Alpha virt. eigenvalues --    0.06793   0.09492   0.10749   0.11695   0.12948
 Alpha virt. eigenvalues --    0.13194   0.14056   0.15090   0.15452   0.16629

 Mulliken charges:
               1
     1  C    0.798296
     2  O   -0.624117
     3  C    0.797456
     4  N   -0.354001
     5  N   -0.409478
     6  C    0.747775
     7  O   -0.609460
     8  H   -0.153446
     9  H    0.150376
    10  H   -0.133429
    11  H    0.002888
    12  H   -0.072752
    13  H   -0.140107
 Sum of Mulliken charges =  -0.00000

 Dipole moment (field-independent basis, Debye):
    X=              4.7406    Y=              1.5873    Z=              1.5189  Tot=              5.2249

 Test job not archived.
 1\1\GINC-SE072\SP\RHF\Aug-CC-pVDZ\C3H6N2O2\OHZDE\09-Apr-2025\0\\#t hf
 aug-cc-pvdz iop(5/13=1,5/36=2,99/5=2) pseudo=read geom=check guess=(re
 ad,tcheck) scf=(maxcycle=1)\\title\\0,1\C,0,-0.73157523,-0.70709622,-0
 .52002597\O,0,-0.66074903,0.68828529,-0.78879873\C,0,0.43096367,1.2104
 5672,-0.16954645\N,0,0.8171728,2.40590395,-0.21644352\N,0,1.06757016,0
 .19007364,0.51120504\C,0,0.20215788,-0.92634217,0.67572998\O,0,-0.4587
 2363,-0.84544067,1.92443889\H,0,-1.76196705,-0.96888508,-0.28311238\H,
 0,-0.76936777,-1.71701785,2.1772008\H,0,-0.39403384,-1.26329516,-1.398

 Normal termination of Gaussian 16 at Wed Apr  9 03:45:35 2025.
