 Gaussian 16, Revision C.01,

 ----------------------------------------------------------------------
 #t hf aug-cc-pvdz symm=none int=(grid=ultrafine) guess=(read,tcheck) s
 table=(opt,rrhf)
 ----------------------------------------------------------------------
 -----
 title
 -----
 Symbolic Z-matrix:
 Charge =  0 Multiplicity = 1

 SCF Done:  E(RHF) =  -320.726223437     A.U. after   13 cycles
 Normal termination of Gaussian 16 at Wed Apr  9 14:19:03 2025.
 Gaussian 16:  ES64L-G16RevC.01  3-Jul-2019

 ----------------------------------------------------------------------
 #t hf aug-cc-pvdz iop(5/13=1,5/36=2,99/5=2) pseudo=read geom=check gue
 ss=(read,tcheck) scf=(maxcycle=1)
 ----------------------------------------------------------------------
 -----
 title
 -----
 Structure from the checkpoint file:  "Grambow2020_b97d3_007139_reverse_mol2.chk"
 Charge =  0 Multiplicity = 1

                         Standard orientation:
 ---------------------------------------------------------------------
 Center     Atomic      Atomic             Coordinates (Angstroms)
 Number     Number       Type             X           Y           Z
 ---------------------------------------------------------------------
      1          8           0       -2.038739   -0.110216    0.001226
      2          6           0       -0.707211    0.052419    0.002454
      3          7           0       -0.077913    1.170069    0.013396
      4          6           0        1.347274    0.818364   -0.013811
      5          6           0        1.378012   -0.742635    0.015399
      6          8           0       -0.029377   -1.125342   -0.016080
      7          1           0       -2.399326    0.799633   -0.005036
      8          1           0        1.823756    1.218884   -0.921853
      9          1           0        1.871212    1.253388    0.850557
     10          1           0        1.817220   -1.154211    0.933108
     11          1           0        1.869006   -1.192601   -0.855974
 ---------------------------------------------------------------------

 SCF Done:  E(RHF) =  -320.825932377     A.U. after    2 cycles

 The electronic state is 1-A.
 Alpha  occ. eigenvalues --  -20.63523 -20.62235 -15.60976 -11.41489 -11.31355
 Alpha  occ. eigenvalues --  -11.28009  -1.44003  -1.36570  -1.18326  -1.01458
 Alpha  occ. eigenvalues --   -0.87909  -0.83253  -0.73307  -0.71133  -0.68539
 Alpha  occ. eigenvalues --   -0.63502  -0.62396  -0.57741  -0.57705  -0.53386
 Alpha  occ. eigenvalues --   -0.51258  -0.43968  -0.37895
 Alpha virt. eigenvalues --    0.03422   0.04179   0.04767   0.05099   0.07258
 Alpha virt. eigenvalues --    0.08942   0.10918   0.11519   0.11689   0.13894
 Alpha virt. eigenvalues --    0.14587   0.15034   0.15994   0.16806   0.19184

 Mulliken charges:
               1
     1  O   -0.441724
     2  C    0.769441
     3  N   -0.485392
     4  C    0.481023
     5  C    0.747174
     6  O   -0.646434
     7  H    0.145032
     8  H   -0.135722
     9  H   -0.128176
    10  H   -0.154288
    11  H   -0.150934
 Sum of Mulliken charges =  -0.00000

 Dipole moment (field-independent basis, Debye):
    X=              1.7611    Y=              0.4320    Z=             -0.0104  Tot=              1.8134

 Test job not archived.
 1\1\GINC-SE207\SP\RHF\Aug-CC-pVDZ\C3H5N1O2\OHZDE\09-Apr-2025\0\\#t hf
 aug-cc-pvdz iop(5/13=1,5/36=2,99/5=2) pseudo=read geom=check guess=(re
 ad,tcheck) scf=(maxcycle=1)\\title\\0,1\O,0,2.47522064,-0.25765815,0.1
 0199904\C,0,1.13730464,-0.16700231,0.0676178\N,0,0.30447554,-1.0687539
 1,0.43979459\C,0,-1.02626184,-0.50317069,0.18514444\C,0,-0.75567469,0.
 93565989,-0.35805386\O,0,0.69906839,1.02074863,-0.42646734\H,0,2.65376
 006,-1.15366217,0.45298086\H,0,-1.57129435,-1.11958391,-0.54626966\H,0
 ,-1.62389803,-0.48524138,1.10894063\H,0,-1.10704489,1.72968346,0.31317

 Normal termination of Gaussian 16 at Wed Apr  9 14:19:07 2025.
