 Gaussian 16, Revision C.01,

 ----------------------------------------------------------------------
 #t hf aug-cc-pvdz symm=none int=(grid=ultrafine) guess=(read,tcheck) s
 table=(opt,rrhf)
 ----------------------------------------------------------------------
 -----
 title
 -----
 Symbolic Z-matrix:
 Charge =  0 Multiplicity = 1

 SCF Done:  E(RHF) =  -306.525635544     A.U. after   16 cycles
 Normal termination of Gaussian 16 at Wed Apr  9 15:05:03 2025.
 Gaussian 16:  ES64L-G16RevC.01  3-Jul-2019

 ----------------------------------------------------------------------
 #t hf aug-cc-pvdz iop(5/13=1,5/36=2,99/5=2) pseudo=read geom=check gue
 ss=(read,tcheck) scf=(maxcycle=1)
 ----------------------------------------------------------------------
 -----
 title
 -----
 Structure from the checkpoint file:  "Grambow2020_wb97xd3_006669_forward_mol1.chk"
 Charge =  0 Multiplicity = 1

                         Standard orientation:
 ---------------------------------------------------------------------
 Center     Atomic      Atomic             Coordinates (Angstroms)
 Number     Number       Type             X           Y           Z
 ---------------------------------------------------------------------
      1          6           0        2.185680   -0.285782   -0.145048
      2          6           0        0.712916   -0.509095   -0.398206
      3          6           0       -0.187646   -0.764336    0.805363
      4          8           0       -0.049804    1.279738    0.790032
      5          6           0       -0.170308    0.771208   -0.546127
      6          6           0       -1.545621    0.133328   -0.678001
      7          6           0       -1.531841   -0.859734    0.220212
      8          1           0        2.657420   -1.209240    0.195508
      9          1           0        2.337791    0.480895    0.613146
     10          1           0        2.687868    0.025919   -1.063004
     11          1           0        0.533026   -1.229990   -1.194807
     12          1           0        0.039336    0.203989    1.530366
     13          1           0        0.094179    1.532444   -1.286338
     14          1           0       -2.385016    0.516744   -1.243851
     15          1           0       -2.345256   -1.472202    0.579553
 ---------------------------------------------------------------------

 SCF Done:  E(RHF) =  -306.614859751     A.U. after    2 cycles

 The electronic state is 1-A.
 Alpha  occ. eigenvalues --  -20.53378 -11.31181 -11.30588 -11.26737 -11.25975
 Alpha  occ. eigenvalues --  -11.25848 -11.22694  -1.29669  -1.12989  -1.03010
 Alpha  occ. eigenvalues --   -0.93670  -0.90408  -0.76070  -0.75183  -0.68949
 Alpha  occ. eigenvalues --   -0.65981  -0.61311  -0.58511  -0.56973  -0.56028
 Alpha  occ. eigenvalues --   -0.53584  -0.49251  -0.48963  -0.43301  -0.37918
 Alpha  occ. eigenvalues --   -0.35585
 Alpha virt. eigenvalues --    0.03155   0.03349   0.03980   0.05218   0.05464
 Alpha virt. eigenvalues --    0.05861   0.06846   0.07602   0.08236   0.09756
 Alpha virt. eigenvalues --    0.11323   0.12278   0.12676   0.13252   0.14163

 Mulliken charges:
               1
     1  C    0.592073
     2  C   -0.407298
     3  C   -0.638546
     4  O   -0.985816
     5  C    0.924717
     6  C    0.483965
     7  C    0.777731
     8  H    0.008036
     9  H    0.020133
    10  H    0.020316
    11  H   -0.387849
    12  H    0.528720
    13  H   -0.366033
    14  H   -0.305469
    15  H   -0.264679
 Sum of Mulliken charges =   0.00000

 Dipole moment (field-independent basis, Debye):
    X=             -0.5985    Y=             -2.4997    Z=             -2.1799  Tot=              3.3703

 Test job not archived.
 1\1\GINC-SE100\SP\RHF\Aug-CC-pVDZ\C6H8O1\OHZDE\09-Apr-2025\0\\#t hf au
 g-cc-pvdz iop(5/13=1,5/36=2,99/5=2) pseudo=read geom=check guess=(read
 ,tcheck) scf=(maxcycle=1)\\title\\0,1\C,0,1.94174432,0.39548514,-0.174
 84352\C,0,0.57943054,-0.23774589,-0.33643251\C,0,-0.10377746,-0.789350
 91,0.91004095\O,0,-0.56138405,1.2052149,1.0089239\C,0,-0.64390058,0.73
 413366,-0.34374672\C,0,-1.78370668,-0.27150349,-0.41658573\C,0,-1.4084
 9815,-1.2503881,0.41657219\H,0,2.68632355,-0.36246864,0.07495448\H,0,1
 .93095754,1.14420611,0.6157835\H,0,2.25300436,0.87422891,-1.10538913\H

 Normal termination of Gaussian 16 at Wed Apr  9 15:05:08 2025.
