 Gaussian 16, Revision C.01,

 ----------------------------------------------------------------------
 #t hf aug-cc-pvdz symm=none int=(grid=ultrafine) guess=(read,tcheck) s
 table=(opt,rrhf)
 ----------------------------------------------------------------------
 -----
 title
 -----
 Symbolic Z-matrix:
 Charge =  0 Multiplicity = 1

 SCF Done:  E(RHF) =  -273.135878400     A.U. after   14 cycles
 Normal termination of Gaussian 16 at Wed Apr  9 16:08:39 2025.
 Gaussian 16:  ES64L-G16RevC.01  3-Jul-2019

 ----------------------------------------------------------------------
 #t hf aug-cc-pvdz iop(5/13=1,5/36=2,99/5=2) pseudo=read geom=check gue
 ss=(read,tcheck) scf=(maxcycle=1)
 ----------------------------------------------------------------------
 -----
 title
 -----
 Structure from the checkpoint file:  "Grambow2020_wb97xd3_007784_reverse_mol2.chk"
 Charge =  0 Multiplicity = 1

                         Standard orientation:
 ---------------------------------------------------------------------
 Center     Atomic      Atomic             Coordinates (Angstroms)
 Number     Number       Type             X           Y           Z
 ---------------------------------------------------------------------
      1          6           0       -1.732891   -0.857714   -0.932035
      2          6           0       -0.776866   -0.069158   -0.034099
      3          6           0       -0.590706   -0.806769    1.298229
      4          6           0       -1.382919    1.342135    0.233526
      5          6           0        0.415194    0.382384   -0.794158
      6          6           0        2.519253   -0.519955   -0.167991
      7          6           0        1.612095    0.721012    0.002346
      8          1           0       -1.914097   -0.316364   -1.860861
      9          1           0       -1.301579   -1.826837   -1.191926
     10          1           0       -2.688408   -1.037865   -0.430341
     11          1           0       -1.555373   -0.924973    1.797279
     12          1           0       -0.186952   -1.807813    1.132099
     13          1           0        0.072180   -0.281662    1.986619
     14          1           0       -1.425924    1.945927   -0.675023
     15          1           0       -2.403881    1.196670    0.591588
     16          1           0       -0.821653    1.886487    0.993821
     17          1           0        2.734331   -0.702509   -1.220267
     18          1           0        2.057242   -1.416493    0.247724
     19          1           0        3.457491   -0.351577    0.360346
     20          1           0        2.132859    1.573179   -0.439690
     21          1           0        1.464801    0.912221    1.073722
 ---------------------------------------------------------------------

 SCF Done:  E(RHF) =  -273.220934513     A.U. after    2 cycles

 The electronic state is 1-A.
 Alpha  occ. eigenvalues --  -11.25099 -11.24558 -11.23800 -11.23734 -11.23233
 Alpha  occ. eigenvalues --  -11.22715 -11.21565  -1.11482  -1.03946  -0.93995
 Alpha  occ. eigenvalues --   -0.92816  -0.89391  -0.81189  -0.69258  -0.64609
 Alpha  occ. eigenvalues --   -0.62191  -0.60302  -0.59559  -0.55549  -0.54309
 Alpha  occ. eigenvalues --   -0.53653  -0.52336  -0.51560  -0.50435  -0.48543
 Alpha  occ. eigenvalues --   -0.47346  -0.44610  -0.32474
 Alpha virt. eigenvalues --    0.03391   0.04041   0.04387   0.04816   0.06240
 Alpha virt. eigenvalues --    0.06306   0.06518   0.06779   0.07153   0.08709
 Alpha virt. eigenvalues --    0.08824   0.09370   0.09478   0.09807   0.10532

 Mulliken charges:
               1
     1  C    1.162707
     2  C   -2.942191
     3  C    1.106742
     4  C    1.044293
     5  C   -0.474230
     6  C    0.363818
     7  C    0.698161
     8  H   -0.010656
     9  H   -0.031956
    10  H   -0.019860
    11  H   -0.006385
    12  H   -0.063535
    13  H   -0.096868
    14  H   -0.004685
    15  H   -0.034726
    16  H   -0.071672
    17  H   -0.019038
    18  H   -0.187921
    19  H   -0.057356
    20  H   -0.128727
    21  H   -0.225915
 Sum of Mulliken charges =  -0.00000

 Dipole moment (field-independent basis, Debye):
    X=              0.0720    Y=             -0.0994    Z=              1.9962  Tot=              1.9999

 Test job not archived.
 1\1\GINC-SE100\SP\RHF\Aug-CC-pVDZ\C7H14\OHZDE\09-Apr-2025\0\\#t hf aug
 -cc-pvdz iop(5/13=1,5/36=2,99/5=2) pseudo=read geom=check guess=(read,
 tcheck) scf=(maxcycle=1)\\title\\0,1\C,0,-1.085297,1.65436679,0.850727
 83\C,0,-0.62449835,0.29897494,0.30973616\C,0,-0.96112676,0.19572527,-1
 .18352995\C,0,-1.36151282,-0.83314734,1.08805422\C,0,0.74826392,-0.019
 97747,0.77490319\C,0,2.45632443,-0.15775537,-0.86732375\C,0,1.49403187
 ,-1.01938913,-0.01671845\H,0,-0.89890364,1.717938,1.9230288\H,0,-0.534
 236,2.46543907,0.3698261\H,0,-2.15133805,1.81346363,0.66255644\H,0,-2.

 Normal termination of Gaussian 16 at Wed Apr  9 16:08:48 2025.
