 Gaussian 16, Revision C.01,

 ----------------------------------------------------------------------
 #t hf aug-cc-pvdz symm=none int=(grid=ultrafine) guess=(read,tcheck) s
 table=(opt,rrhf)
 ----------------------------------------------------------------------
 -----
 title
 -----
 Symbolic Z-matrix:
 Charge =  0 Multiplicity = 1

 SCF Done:  E(RHF) =  -302.741138765     A.U. after   16 cycles
 Normal termination of Gaussian 16 at Wed Apr  9 04:05:52 2025.
 Gaussian 16:  ES64L-G16RevC.01  3-Jul-2019

 ----------------------------------------------------------------------
 #t hf aug-cc-pvdz iop(5/13=1,5/36=2,99/5=2) pseudo=read geom=check gue
 ss=(read,tcheck) scf=(maxcycle=1)
 ----------------------------------------------------------------------
 -----
 title
 -----
 Structure from the checkpoint file:  "Grambow2020_wb97xd3_009338_forward_mol1.chk"
 Charge =  0 Multiplicity = 1

                         Standard orientation:
 ---------------------------------------------------------------------
 Center     Atomic      Atomic             Coordinates (Angstroms)
 Number     Number       Type             X           Y           Z
 ---------------------------------------------------------------------
      1          6           0       -2.697572   -0.674956    0.403939
      2          7           0       -1.038173   -0.008830   -0.433638
      3          6           0        0.045917   -0.846219   -0.378856
      4          6           0        1.117174   -0.099324   -0.009205
      5          6           0        2.526051   -0.538803    0.211670
      6          6           0        0.577307    1.217698    0.131024
      7          7           0       -0.702096    1.266355   -0.126407
      8          1           0       -1.956593   -0.229645   -0.911234
      9          1           0       -2.821779    0.228823    1.012603
     10          1           0       -2.189979   -1.411377    1.040502
     11          1           0       -0.054401   -1.897528   -0.599151
     12          1           0        3.211129   -0.024232   -0.464423
     13          1           0        2.630407   -1.610465    0.042389
     14          1           0        2.848787   -0.328308    1.233033
     15          1           0        1.101048    2.119680    0.415168
 ---------------------------------------------------------------------

 SCF Done:  E(RHF) =  -302.831065652     A.U. after    2 cycles

 The electronic state is 1-A.
 Alpha  occ. eigenvalues --  -15.71008 -15.66579 -11.29311 -11.28009 -11.26607
 Alpha  occ. eigenvalues --  -11.25302 -11.24988  -1.34955  -1.10158  -1.08147
 Alpha  occ. eigenvalues --   -0.96535  -0.89003  -0.80911  -0.79610  -0.73620
 Alpha  occ. eigenvalues --   -0.64217  -0.61638  -0.60057  -0.57900  -0.57325
 Alpha  occ. eigenvalues --   -0.55497  -0.54353  -0.46196  -0.38264  -0.36250
 Alpha  occ. eigenvalues --   -0.35452
 Alpha virt. eigenvalues --    0.02886   0.03681   0.04261   0.04832   0.05977
 Alpha virt. eigenvalues --    0.06756   0.07036   0.08508   0.09486   0.10355
 Alpha virt. eigenvalues --    0.10847   0.12104   0.13319   0.13507   0.14307

 Mulliken charges:
               1
     1  C    0.130913
     2  N   -0.524465
     3  C    1.006958
     4  C   -0.492848
     5  C    0.234678
     6  C    0.805519
     7  N   -0.548416
     8  H    0.356734
     9  H   -0.105559
    10  H   -0.153798
    11  H   -0.426037
    12  H    0.067359
    13  H   -0.064978
    14  H    0.069208
    15  H   -0.355268
 Sum of Mulliken charges =  -0.00000

 Dipole moment (field-independent basis, Debye):
    X=              3.0592    Y=             -1.2713    Z=              0.5191  Tot=              3.3533

 Test job not archived.
 1\1\GINC-SE222\SP\RHF\Aug-CC-pVDZ\C5H8N2\OHZDE\09-Apr-2025\0\\#t hf au
 g-cc-pvdz iop(5/13=1,5/36=2,99/5=2) pseudo=read geom=check guess=(read
 ,tcheck) scf=(maxcycle=1)\\title\\0,1\C,0,-2.86878245,-0.5273825,-0.00
 546188\N,0,-1.16668933,0.30928254,-0.55476471\C,0,-0.07931735,-0.52241
 196,-0.62811147\C,0,0.9580988,0.11207755,-0.02538843\C,0,2.35470722,-0
 .37325569,0.17660422\C,0,0.39621884,1.36180642,0.38465188\N,0,-0.86464
 053,1.47523712,0.06390544\H,0,-2.05038874,0.21082536,-1.12898875\H,0,-
 3.04124824,0.20885775,0.78884381\H,0,-2.39484886,-1.39488817,0.4720307

 Normal termination of Gaussian 16 at Wed Apr  9 04:05:57 2025.
