 Gaussian 16, Revision C.01,

 ----------------------------------------------------------------------
 #t hf aug-cc-pvdz symm=none int=(grid=ultrafine) guess=(read,tcheck) s
 table=(opt,rrhf)
 ----------------------------------------------------------------------
 -----
 title
 -----
 Symbolic Z-matrix:
 Charge =  0 Multiplicity = 1

 SCF Done:  E(RHF) =  -301.546388607     A.U. after   15 cycles
 Normal termination of Gaussian 16 at Wed Apr  9 03:46:29 2025.
 Gaussian 16:  ES64L-G16RevC.01  3-Jul-2019

 ----------------------------------------------------------------------
 #t hf aug-cc-pvdz iop(5/13=1,5/36=2,99/5=2) pseudo=read geom=check gue
 ss=(read,tcheck) scf=(maxcycle=1)
 ----------------------------------------------------------------------
 -----
 title
 -----
 Structure from the checkpoint file:  "Grambow2020_wb97xd3_007930_forward_mol1.chk"
 Charge =  0 Multiplicity = 1

                         Standard orientation:
 ---------------------------------------------------------------------
 Center     Atomic      Atomic             Coordinates (Angstroms)
 Number     Number       Type             X           Y           Z
 ---------------------------------------------------------------------
      1          6           0        1.610332    0.777741    0.042385
      2          6           0        1.661254   -0.782662   -0.008366
      3          6           0        0.151516   -0.666624   -0.067011
      4          7           0       -1.064869   -1.173061    0.095840
      5          6           0       -1.973023   -0.003957    0.089278
      6          6           0       -1.159989    1.108024   -0.015828
      7          7           0        0.136867    0.652098   -0.062913
      8          1           0        2.052424    1.306361   -0.799922
      9          1           0        1.928611    1.219165    0.985022
     10          1           0        2.139991   -1.200765   -0.892168
     11          1           0        2.057231   -1.255599    0.888597
     12          1           0       -2.009253   -1.171184   -0.594033
     13          1           0       -1.413532    2.153641   -0.060732
 ---------------------------------------------------------------------

 SCF Done:  E(RHF) =  -301.633075600     A.U. after    2 cycles

 The electronic state is 1-A.
 Alpha  occ. eigenvalues --  -15.70113 -15.64192 -11.32881 -11.32770 -11.29187
 Alpha  occ. eigenvalues --  -11.25969 -11.22464  -1.35428  -1.19289  -1.07854
 Alpha  occ. eigenvalues --   -0.95136  -0.92122  -0.81310  -0.76276  -0.71510
 Alpha  occ. eigenvalues --   -0.70976  -0.60699  -0.57765  -0.57478  -0.56595
 Alpha  occ. eigenvalues --   -0.54085  -0.45795  -0.42857  -0.34186  -0.31178
 Alpha virt. eigenvalues --    0.02248   0.03541   0.03803   0.05122   0.06576
 Alpha virt. eigenvalues --    0.06746   0.08508   0.09855   0.10076   0.11329
 Alpha virt. eigenvalues --    0.12365   0.13093   0.13510   0.14695   0.14914

 Mulliken charges:
               1
     1  C    0.898741
     2  C    0.406643
     3  C    0.193284
     4  N   -0.718117
     5  C   -0.361714
     6  C    0.568629
     7  N   -0.463018
     8  H   -0.230437
     9  H   -0.206673
    10  H   -0.062259
    11  H   -0.058708
    12  H    0.301135
    13  H   -0.267507
 Sum of Mulliken charges =  -0.00000

 Dipole moment (field-independent basis, Debye):
    X=              6.3176    Y=              1.2044    Z=             -1.0305  Tot=              6.5134

 Test job not archived.
 1\1\GINC-SE162\SP\RHF\Aug-CC-pVDZ\C5H6N2\OHZDE\09-Apr-2025\0\\#t hf au
 g-cc-pvdz iop(5/13=1,5/36=2,99/5=2) pseudo=read geom=check guess=(read
 ,tcheck) scf=(maxcycle=1)\\title\\0,1\C,0,-1.37497808,-0.53036709,-0.0
 2626636\C,0,-1.22394798,1.01762606,0.11842187\C,0,0.25938773,0.7138323
 2,0.05810294\N,0,1.52637262,1.03339911,0.29308966\C,0,2.27684854,-0.23
 435863,0.1475954\C,0,1.33062623,-1.20935505,-0.10264268\N,0,0.10455343
 ,-0.5859233,-0.10289464\H,0,-1.86056709,-0.8890559,-0.93175627\H,0,-1.
 77019623,-1.03920199,0.85100762\H,0,-1.62334251,1.60019806,-0.70994901

 Normal termination of Gaussian 16 at Wed Apr  9 03:46:34 2025.
