 Gaussian 16, Revision C.01,

 ----------------------------------------------------------------------
 #t hf aug-cc-pvdz symm=none int=(grid=ultrafine) guess=(read,tcheck) s
 table=(opt,rrhf)
 ----------------------------------------------------------------------
 -----
 title
 -----
 Symbolic Z-matrix:
 Charge =  0 Multiplicity = 1

 SCF Done:  E(RHF) =  -344.758932723     A.U. after   15 cycles

 1\1\GINC-SE100\Stability\RHF\Aug-CC-pVDZ\C5H10O2\OHZDE\09-Apr-2025\0\\
 #t hf aug-cc-pvdz symm=none int=(grid=ultrafine) guess=(read,tcheck) s
 table=(opt,rrhf)\\title\\0,1\C,0,2.10995627,0.79002545,-0.54215298\O,0
 ,0.70458739,0.79766988,-0.39855649\C,0,0.11186939,-0.35600896,-0.88667
 157\C,0,0.23891894,-1.67080691,-0.08412247\O,0,-1.07207119,-1.79626311
 ,-0.03724415\C,0,-1.39588748,-0.49481598,-0.63641192\C,0,-2.03239277,0
 .43949261,0.35211204\H,0,2.55715546,-0.06436774,-0.02609995\H,0,2.3937
 118,0.75456242,-1.60144514\H,0,2.48037883,1.7143677,-0.10338964\H,0,0.

 Normal termination of Gaussian 16 at Wed Apr  9 14:58:06 2025.
 Gaussian 16:  ES64L-G16RevC.01  3-Jul-2019

 ----------------------------------------------------------------------
 #t hf aug-cc-pvdz iop(5/13=1,5/36=2,99/5=2) pseudo=read geom=check gue
 ss=(read,tcheck) scf=(maxcycle=1)
 ----------------------------------------------------------------------
 -----
 title
 -----
 Structure from the checkpoint file:  "Grambow2020_wb97xd3_006655_reverse_mol2.chk"
 Charge =  0 Multiplicity = 1

                         Standard orientation:
 ---------------------------------------------------------------------
 Center     Atomic      Atomic             Coordinates (Angstroms)
 Number     Number       Type             X           Y           Z
 ---------------------------------------------------------------------
      1          6           0        2.477423    0.172437   -0.065982
      2          8           0        1.158592    0.678576   -0.050247
      3          6           0        0.249130   -0.182894   -0.642949
      4          6           0       -0.178519   -1.465432    0.106139
      5          8           0       -1.446818   -1.116211    0.028062
      6          6           0       -1.227466    0.221708   -0.537166
      7          6           0       -1.589350    1.310552    0.431704
      8          1           0        2.539193   -0.790812    0.448432
      9          1           0        2.836010    0.049851   -1.095672
     10          1           0        3.104111    0.899346    0.446854
     11          1           0        0.540763   -0.448690   -1.671802
     12          1           0        0.973141   -0.593491    3.161813
     13          1           0        0.729660   -1.040349    2.614866
     14          1           0       -1.773105    0.314371   -1.478532
     15          1           0       -1.313987    2.276083    0.004755
     16          1           0       -2.662986    1.307724    0.623570
     17          1           0       -1.054300    1.188818    1.372717
 ---------------------------------------------------------------------

 SCF Done:  E(RHF) =  -344.872085618     A.U. after    2 cycles

 The electronic state is 1-A.
 Alpha  occ. eigenvalues --  -20.63552 -20.59202 -11.31920 -11.30816 -11.30380
 Alpha  occ. eigenvalues --  -11.29133 -11.24178  -1.42933  -1.35959  -1.05726
 Alpha  occ. eigenvalues --   -0.99454  -0.92088  -0.87902  -0.76365  -0.72250
 Alpha  occ. eigenvalues --   -0.69118  -0.67530  -0.64395  -0.61230  -0.58879
 Alpha  occ. eigenvalues --   -0.58184  -0.56059  -0.55346  -0.51912  -0.51266
 Alpha  occ. eigenvalues --   -0.50127  -0.46287  -0.35552
 Alpha virt. eigenvalues --    0.03149   0.04089   0.04417   0.05644   0.05928
 Alpha virt. eigenvalues --    0.06524   0.06975   0.08111   0.09052   0.09492
 Alpha virt. eigenvalues --    0.09688   0.11495   0.12250   0.12755   0.13675

 Mulliken charges:
               1
     1  C    0.710481
     2  O   -0.752241
     3  C    0.603516
     4  C    0.029544
     5  O   -0.663887
     6  C    0.403414
     7  C    0.331819
     8  H   -0.044076
     9  H   -0.054638
    10  H   -0.249432
    11  H   -0.127916
    12  H    0.020533
    13  H    0.016851
    14  H   -0.242496
    15  H    0.037544
    16  H   -0.013224
    17  H   -0.005792
 Sum of Mulliken charges =   0.00000

 Dipole moment (field-independent basis, Debye):
    X=              0.6354    Y=              2.4157    Z=             -1.9404  Tot=              3.1630

 Test job not archived.
 1\1\GINC-SE100\SP\RHF\Aug-CC-pVDZ\C5H10O2\OHZDE\09-Apr-2025\0\\#t hf a
 ug-cc-pvdz iop(5/13=1,5/36=2,99/5=2) pseudo=read geom=check guess=(rea
 d,tcheck) scf=(maxcycle=1)\\title\\0,1\C,0,2.10995627,0.79002545,-0.54
 215298\O,0,0.70458739,0.79766988,-0.39855649\C,0,0.11186939,-0.3560089
 6,-0.88667157\C,0,0.23891894,-1.67080691,-0.08412247\O,0,-1.07207119,-
 1.79626311,-0.03724415\C,0,-1.39588748,-0.49481598,-0.63641192\C,0,-2.
 03239277,0.43949261,0.35211204\H,0,2.55715546,-0.06436774,-0.02609995\
 H,0,2.3937118,0.75456242,-1.60144514\H,0,2.48037883,1.7143677,-0.10338

 Normal termination of Gaussian 16 at Wed Apr  9 14:58:12 2025.
