 Gaussian 16, Revision C.01,

 ----------------------------------------------------------------------
 #t hf aug-cc-pvdz symm=none int=(grid=ultrafine) guess=(read,tcheck) s
 table=(opt,rrhf)
 ----------------------------------------------------------------------
 -----
 title
 -----
 Symbolic Z-matrix:
 Charge =  0 Multiplicity = 1

 SCF Done:  E(RHF) =  -343.769430918     A.U. after   13 cycles
 Normal termination of Gaussian 16 at Wed Apr  9 16:08:05 2025.
 Gaussian 16:  ES64L-G16RevC.01  3-Jul-2019

 ----------------------------------------------------------------------
 #t hf aug-cc-pvdz iop(5/13=1,5/36=2,99/5=2) pseudo=read geom=check gue
 ss=(read,tcheck) scf=(maxcycle=1)
 ----------------------------------------------------------------------
 -----
 title
 -----
 Structure from the checkpoint file:  "Grambow2020_wb97xd3_007804_forward_mol2.chk"
 Charge =  0 Multiplicity = 1

                         Standard orientation:
 ---------------------------------------------------------------------
 Center     Atomic      Atomic             Coordinates (Angstroms)
 Number     Number       Type             X           Y           Z
 ---------------------------------------------------------------------
      1          6           0        1.543049    1.265319   -0.078024
      2          6           0        0.726739   -0.000298    0.045457
      3          6           0        1.553831   -1.258171   -0.082498
      4          6           0       -0.341973   -0.005583    1.151066
      5          6           0       -1.317614   -0.001603   -0.009306
      6          8           0       -2.492593    0.000428   -0.165276
      7          8           0       -0.352079   -0.001476   -0.963769
      8          1           0        0.905645    2.148415   -0.019332
      9          1           0        2.282209    1.316504    0.723874
     10          1           0        2.070266    1.284928   -1.033047
     11          1           0        0.925305   -2.147592   -0.024937
     12          1           0        2.080193   -1.270940   -1.038131
     13          1           0        2.294236   -1.302940    0.718673
     14          1           0       -0.392081   -0.901357    1.767759
     15          1           0       -0.392586    0.883387    1.777323
 ---------------------------------------------------------------------

 SCF Done:  E(RHF) =  -343.878434911     A.U. after    2 cycles

 The electronic state is 1-A.
 Alpha  occ. eigenvalues --  -20.61143 -20.56429 -11.39457 -11.32899 -11.26750
 Alpha  occ. eigenvalues --  -11.24844 -11.24835  -1.42893  -1.34667  -1.08825
 Alpha  occ. eigenvalues --   -1.01077  -0.96564  -0.82602  -0.75737  -0.70404
 Alpha  occ. eigenvalues --   -0.69679  -0.68886  -0.62331  -0.60109  -0.59240
 Alpha  occ. eigenvalues --   -0.57570  -0.55119  -0.53671  -0.53009  -0.49806
 Alpha  occ. eigenvalues --   -0.46990  -0.45464
 Alpha virt. eigenvalues --    0.02716   0.04155   0.04191   0.05176   0.06060
 Alpha virt. eigenvalues --    0.06460   0.07041   0.09129   0.09149   0.09860
 Alpha virt. eigenvalues --    0.12870   0.12891   0.13910   0.14176   0.14836

 Mulliken charges:
               1
     1  C    0.633596
     2  C   -0.921477
     3  C    0.634510
     4  C    0.475569
     5  C    0.362545
     6  O   -0.414806
     7  O   -0.707501
     8  H   -0.042736
     9  H    0.076882
    10  H    0.036476
    11  H   -0.041861
    12  H    0.037491
    13  H    0.077754
    14  H   -0.102531
    15  H   -0.103912
 Sum of Mulliken charges =   0.00000

 Dipole moment (field-independent basis, Debye):
    X=              4.7102    Y=             -0.0048    Z=              2.6321  Tot=              5.3958

 Test job not archived.
 1\1\GINC-SE043\SP\RHF\Aug-CC-pVDZ\C5H8O2\OHZDE\09-Apr-2025\0\\#t hf au
 g-cc-pvdz iop(5/13=1,5/36=2,99/5=2) pseudo=read geom=check guess=(read
 ,tcheck) scf=(maxcycle=1)\\title\\0,1\C,0,-0.85838645,1.27961525,-0.41
 474127\C,0,-0.11966611,0.07416513,0.11871622\C,0,-1.01960059,-0.911407
 89,0.8268551\C,0,0.94093197,-0.53176729,-0.81537205\C,0,1.92123385,-0.
 01159185,0.2174792\O,0,3.09505618,0.00268533,0.38131954\O,0,0.96251476
 ,0.50999018,1.02498679\H,0,-0.16977882,1.9837415,-0.88337114\H,0,-1.59
 743382,0.97056837,-1.15657448\H,0,-1.37840767,1.79449961,0.39450753\H,

 Normal termination of Gaussian 16 at Wed Apr  9 16:08:11 2025.
