 Gaussian 16, Revision C.01,

 ----------------------------------------------------------------------
 #t hf aug-cc-pvdz symm=none int=(grid=ultrafine) guess=(read,tcheck) s
 table=(opt,rrhf)
 ----------------------------------------------------------------------
 -----
 title
 -----
 Symbolic Z-matrix:
 Charge =  0 Multiplicity = 1

 SCF Done:  E(RHF) =  -266.737338238     A.U. after   15 cycles
 Normal termination of Gaussian 16 at Wed Apr  9 03:02:34 2025.
 Gaussian 16:  ES64L-G16RevC.01  3-Jul-2019

 ----------------------------------------------------------------------
 #t hf aug-cc-pvdz iop(5/13=1,5/36=2,99/5=2) pseudo=read geom=check gue
 ss=(read,tcheck) scf=(maxcycle=1)
 ----------------------------------------------------------------------
 -----
 title
 -----
 Structure from the checkpoint file:  "Grambow2020_b97d3_006472_reverse_mol2.chk"
 Charge =  0 Multiplicity = 1

                         Standard orientation:
 ---------------------------------------------------------------------
 Center     Atomic      Atomic             Coordinates (Angstroms)
 Number     Number       Type             X           Y           Z
 ---------------------------------------------------------------------
      1          8           0       -1.401077   -0.970881    0.115114
      2          6           0       -1.250379    0.412639   -0.158973
      3          6           0        0.091780    0.951682    0.323377
      4          6           0        1.855254   -0.737719    0.051302
      5          8           0        1.148156    0.243342   -0.445066
      6          1           0       -0.775622   -1.451659   -0.460000
      7          1           0       -1.371540    0.644281   -1.231736
      8          1           0       -2.051043    0.926133    0.390453
      9          1           0        0.210709    2.019702    0.105234
     10          1           0        0.253122    0.739363    1.389669
     11          1           0        1.577807   -0.817115    1.151758
 ---------------------------------------------------------------------

 SCF Done:  E(RHF) =  -266.821227225     A.U. after    2 cycles

 The electronic state is 1-A.
 Alpha  occ. eigenvalues --  -20.64779 -20.59386 -11.32546 -11.31719 -11.31456
 Alpha  occ. eigenvalues --   -1.40476  -1.33843  -1.04592  -0.90347  -0.83452
 Alpha  occ. eigenvalues --   -0.73044  -0.70521  -0.67950  -0.62397  -0.61205
 Alpha  occ. eigenvalues --   -0.57699  -0.55647  -0.52046  -0.48084  -0.36457
 Alpha virt. eigenvalues --    0.03051   0.04398   0.04807   0.05196   0.06523
 Alpha virt. eigenvalues --    0.07455   0.08643   0.10862   0.11523   0.12469
 Alpha virt. eigenvalues --    0.14060   0.14306   0.15181   0.15781   0.16383

 Mulliken charges:
               1
     1  O   -0.563232
     2  C    0.646021
     3  C    0.600695
     4  C    0.110794
     5  O   -0.541054
     6  H    0.178766
     7  H   -0.070947
     8  H   -0.097214
     9  H   -0.114050
    10  H   -0.077252
    11  H   -0.072527
 Sum of Mulliken charges =  -0.00000

 Dipole moment (field-independent basis, Debye):
    X=             -1.6177    Y=              2.6253    Z=              0.9439  Tot=              3.2249

 Test job not archived.
 1\1\GINC-SE332\SP\RHF\Aug-CC-pVDZ\C3H6O2\OHZDE\09-Apr-2025\0\\#t hf au
 g-cc-pvdz iop(5/13=1,5/36=2,99/5=2) pseudo=read geom=check guess=(read
 ,tcheck) scf=(maxcycle=1)\\title\\0,1\O,0,-1.55117057,-0.63465521,-0.2
 2950412\C,0,-0.9650024,0.64476545,-0.05215867\C,0,0.48111045,0.5541093
 1,0.42235167\C,0,1.60710998,-1.38272145,-0.5869818\O,0,1.25076875,-0.1
 2663457,-0.65114484\H,0,-1.11568147,-1.05069281,-0.99785277\H,0,-1.009
 60248,1.25832822,-0.96906065\H,0,-1.5559976,1.15136447,0.72288324\H,0,
 0.93604034,1.5432602,0.55280319\H,0,0.56994387,-0.05209898,1.33488051\

 Normal termination of Gaussian 16 at Wed Apr  9 03:02:36 2025.
