 Gaussian 16, Revision C.01,

 ----------------------------------------------------------------------
 #t hf aug-cc-pvdz symm=none int=(grid=ultrafine) guess=(read,tcheck) s
 table=(opt,rrhf)
 ----------------------------------------------------------------------
 -----
 title
 -----
 Symbolic Z-matrix:
 Charge =  0 Multiplicity = 1

 SCF Done:  E(RHF) =  -269.904007302     A.U. after   15 cycles

 1\1\GINC-SE131\Stability\RHF\Aug-CC-pVDZ\C5H10O1\OHZDE\09-Apr-2025\0\\
 #t hf aug-cc-pvdz symm=none int=(grid=ultrafine) guess=(read,tcheck) s
 table=(opt,rrhf)\\title\\0,1\C,0,-1.32548676,-1.08992931,0.066281\C,0,
 -0.1566406,-0.00441248,0.11692065\C,0,-0.69215687,1.43215343,0.0343635
 5\C,0,0.20008946,-0.66731649,1.35522648\C,0,2.06395084,0.06275452,-0.7
 5533943\O,0,0.70150527,-0.26494101,-1.00349115\H,0,-1.21797616,-1.5653
 5535,-0.91220698\H,0,-2.29633266,-0.61151442,0.21851234\H,0,-1.1945144
 9,-1.91026318,0.80639177\H,0,-1.12662527,1.6213994,-0.95629324\H,0,0.1

 Normal termination of Gaussian 16 at Wed Apr  9 14:03:12 2025.
 Gaussian 16:  ES64L-G16RevC.01  3-Jul-2019

 ----------------------------------------------------------------------
 #t hf aug-cc-pvdz iop(5/13=1,5/36=2,99/5=2) pseudo=read geom=check gue
 ss=(read,tcheck) scf=(maxcycle=1)
 ----------------------------------------------------------------------
 -----
 title
 -----
 Structure from the checkpoint file:  "Grambow2020_b97d3_006766_reverse_mol2.chk"
 Charge =  0 Multiplicity = 1

                         Standard orientation:
 ---------------------------------------------------------------------
 Center     Atomic      Atomic             Coordinates (Angstroms)
 Number     Number       Type             X           Y           Z
 ---------------------------------------------------------------------
      1          6           0       -1.504486   -0.752794   -0.604484
      2          6           0       -0.316996    0.075633    0.066850
      3          6           0       -0.575631    1.588831    0.041307
      4          6           0       -0.575555   -0.772347    1.213225
      5          6           0        2.054116   -0.192825    0.113018
      6          8           0        0.872098   -0.223618   -0.678882
      7          1           0       -1.082101   -1.132380   -1.538579
      8          1           0       -2.381264   -0.115567   -0.745195
      9          1           0       -1.791068   -1.657493   -0.023747
     10          1           0       -0.550242    1.963217   -0.990763
     11          1           0        0.208889    2.107362    0.608393
     12          1           0       -1.546195    1.836310    0.491024
     13          1           0        1.958709   -0.857722    0.985529
     14          1           0       -1.447800   -0.316278    1.735668
     15          1           0        2.868180   -0.545606   -0.531744
     16          1           0        2.297421    0.828117    0.460977
 ---------------------------------------------------------------------

 SCF Done:  E(RHF) =  -269.988143645     A.U. after    2 cycles

 The electronic state is 1-A.
 Alpha  occ. eigenvalues --  -20.56705 -11.31261 -11.27649 -11.26642 -11.26031
 Alpha  occ. eigenvalues --  -11.24263  -1.32900  -1.09503  -0.96042  -0.91939
 Alpha  occ. eigenvalues --   -0.88514  -0.74821  -0.66026  -0.64845  -0.62871
 Alpha  occ. eigenvalues --   -0.59318  -0.56944  -0.55907  -0.55313  -0.53409
 Alpha  occ. eigenvalues --   -0.50015  -0.46042  -0.43827  -0.36139
 Alpha virt. eigenvalues --    0.03364   0.04285   0.04700   0.05074   0.06359
 Alpha virt. eigenvalues --    0.06694   0.07250   0.07408   0.07703   0.09309
 Alpha virt. eigenvalues --    0.10362   0.12290   0.12752   0.13441   0.14733

 Mulliken charges:
               1
     1  C    0.380380
     2  C   -0.368254
     3  C    0.646680
     4  C   -0.169991
     5  C    0.673347
     6  O   -0.788132
     7  H    0.015668
     8  H   -0.058168
     9  H    0.031143
    10  H    0.061892
    11  H   -0.055286
    12  H   -0.027018
    13  H   -0.026957
    14  H    0.006743
    15  H   -0.216215
    16  H   -0.105833
 Sum of Mulliken charges =  -0.00000

 Dipole moment (field-independent basis, Debye):
    X=             -1.1902    Y=              1.8142    Z=              0.0300  Tot=              2.1700

 Test job not archived.
 1\1\GINC-SE131\SP\RHF\Aug-CC-pVDZ\C5H10O1\OHZDE\09-Apr-2025\0\\#t hf a
 ug-cc-pvdz iop(5/13=1,5/36=2,99/5=2) pseudo=read geom=check guess=(rea
 d,tcheck) scf=(maxcycle=1)\\title\\0,1\C,0,-1.32548676,-1.08992931,0.0
 66281\C,0,-0.1566406,-0.00441248,0.11692065\C,0,-0.69215687,1.43215343
 ,0.03436355\C,0,0.20008946,-0.66731649,1.35522648\C,0,2.06395084,0.062
 75452,-0.75533943\O,0,0.70150527,-0.26494101,-1.00349115\H,0,-1.217976
 16,-1.56535535,-0.91220698\H,0,-2.29633266,-0.61151442,0.21851234\H,0,
 -1.19451449,-1.91026318,0.80639177\H,0,-1.12662527,1.6213994,-0.956293

 Normal termination of Gaussian 16 at Wed Apr  9 14:03:17 2025.
