 Gaussian 16, Revision C.01,

 ----------------------------------------------------------------------
 #t hf aug-cc-pvdz symm=none int=(grid=ultrafine) guess=(read,tcheck) s
 table=(opt,rrhf)
 ----------------------------------------------------------------------
 -----
 title
 -----
 Symbolic Z-matrix:
 Charge =  0 Multiplicity = 1

 SCF Done:  E(RHF) =  -271.867659603     A.U. after   15 cycles
 Normal termination of Gaussian 16 at Wed Apr  9 15:48:26 2025.
 Gaussian 16:  ES64L-G16RevC.01  3-Jul-2019

 ----------------------------------------------------------------------
 #t hf aug-cc-pvdz iop(5/13=1,5/36=2,99/5=2) pseudo=read geom=check gue
 ss=(read,tcheck) scf=(maxcycle=1)
 ----------------------------------------------------------------------
 -----
 title
 -----
 Structure from the checkpoint file:  "Grambow2020_wb97xd3_007416_forward_mol1.chk"
 Charge =  0 Multiplicity = 1

                         Standard orientation:
 ---------------------------------------------------------------------
 Center     Atomic      Atomic             Coordinates (Angstroms)
 Number     Number       Type             X           Y           Z
 ---------------------------------------------------------------------
      1          6           0        2.355410   -0.599002    0.462820
      2          6           0        1.224784   -0.123418   -0.432224
      3          6           0       -0.069912   -0.982401   -0.372086
      4          6           0       -1.267101    0.030287   -0.377761
      5          6           0       -2.435454   -0.445412    0.468218
      6          6           0       -0.734049    1.429410    0.062693
      7          6           0        0.500037    1.104974   -0.016312
      8          1           0        2.015918   -0.689816    1.496698
      9          1           0        2.719132   -1.573958    0.133176
     10          1           0        3.202973    0.090645    0.439740
     11          1           0        1.582350   -0.036783   -1.463393
     12          1           0       -0.123004   -1.718755   -1.176302
     13          1           0       -0.073169   -1.526609    0.576826
     14          1           0       -1.612067    0.177494   -1.406056
     15          1           0       -2.141172   -0.526997    1.517114
     16          1           0       -2.780324   -1.429191    0.135425
     17          1           0       -3.265887    0.257586    0.405218
     18          1           0        1.540332    2.121147    0.658337
     19          1           0        1.492634    2.368608   -0.088870
 ---------------------------------------------------------------------

 SCF Done:  E(RHF) =  -271.952048393     A.U. after    2 cycles

 The electronic state is 1-A.
 Alpha  occ. eigenvalues --  -11.27875 -11.27020 -11.24954 -11.24176 -11.24144
 Alpha  occ. eigenvalues --  -11.21562 -11.19825  -1.15244  -1.03526  -0.98621
 Alpha  occ. eigenvalues --   -0.93056  -0.85813  -0.77579  -0.72532  -0.67876
 Alpha  occ. eigenvalues --   -0.62016  -0.60625  -0.57569  -0.57130  -0.54104
 Alpha  occ. eigenvalues --   -0.51868  -0.50513  -0.49523  -0.47375  -0.45017
 Alpha  occ. eigenvalues --   -0.37146  -0.34085
 Alpha virt. eigenvalues --    0.02986   0.04062   0.04317   0.04613   0.06071
 Alpha virt. eigenvalues --    0.06239   0.06337   0.06900   0.07181   0.08755
 Alpha virt. eigenvalues --    0.09092   0.09372   0.11585   0.12578   0.12750

 Mulliken charges:
               1
     1  C    0.674075
     2  C   -0.691896
     3  C    0.673524
     4  C   -0.576342
     5  C    0.629813
     6  C   -0.457475
     7  C    0.307211
     8  H    0.017572
     9  H   -0.011890
    10  H   -0.067772
    11  H   -0.114677
    12  H   -0.058631
    13  H   -0.186217
    14  H   -0.120113
    15  H    0.017254
    16  H   -0.027855
    17  H   -0.061481
    18  H   -0.033914
    19  H    0.088813
 Sum of Mulliken charges =   0.00000

 Dipole moment (field-independent basis, Debye):
    X=              3.0992    Y=             -1.9796    Z=             -0.6836  Tot=              3.7405

 Test job not archived.
 1\1\GINC-SE232\SP\RHF\Aug-CC-pVDZ\C7H12\OHZDE\09-Apr-2025\0\\#t hf aug
 -cc-pvdz iop(5/13=1,5/36=2,99/5=2) pseudo=read geom=check guess=(read,
 tcheck) scf=(maxcycle=1)\\title\\0,1\C,0,-2.28071284,-0.41711944,-0.25
 394146\C,0,-1.10217359,0.50879959,-0.0103903\C,0,-0.03599759,-0.028663
 13,0.98565567\C,0,1.35956712,0.34316552,0.37494026\C,0,2.41652206,-0.7
 1117687,0.65463097\C,0,1.17444567,0.62173848,-1.14946666\C,0,-0.103040
 69,0.63815306,-1.10226496\H,0,-1.93632392,-1.40314758,-0.57261195\H,0,
 -2.86788178,-0.53601946,0.65852422\H,0,-2.94911956,-0.02238853,-1.0233

 Normal termination of Gaussian 16 at Wed Apr  9 15:48:33 2025.
