 Gaussian 16, Revision C.01,

 ----------------------------------------------------------------------
 #t hf aug-cc-pvdz symm=none int=(grid=ultrafine) guess=(read,tcheck) s
 table=(opt,rrhf)
 ----------------------------------------------------------------------
 -----
 title
 -----
 Symbolic Z-matrix:
 Charge =  0 Multiplicity = 1

 SCF Done:  E(RHF) =  -270.003182996     A.U. after   13 cycles

 1\1\GINC-SE453\Stability\RHF\Aug-CC-pVDZ\C5H10O1\OHZDE\09-Apr-2025\0\\
 #t hf aug-cc-pvdz symm=none int=(grid=ultrafine) guess=(read,tcheck) s
 table=(opt,rrhf)\\title\\0,1\C,0,-1.66176115,0.12589536,0.85163151\C,0
 ,-1.20805564,-0.86661501,-0.23622536\C,0,-0.12645443,-0.29696633,-1.11
 377507\C,0,1.10007792,-0.81693319,-1.27583666\C,0,1.92648861,-0.186151
 04,1.87356386\O,0,2.85684412,0.43636304,1.62533211\H,0,-2.48706754,-0.
 29280482,1.44443274\H,0,-0.8308852,0.355182,1.53171222\H,0,-2.00823351
 ,1.06945343,0.40535268\H,0,-0.85534789,-1.79806177,0.23114504\H,0,-2.0

 Normal termination of Gaussian 16 at Wed Apr  9 03:07:58 2025.
 Gaussian 16:  ES64L-G16RevC.01  3-Jul-2019

 ----------------------------------------------------------------------
 #t hf aug-cc-pvdz iop(5/13=1,5/36=2,99/5=2) pseudo=read geom=check gue
 ss=(read,tcheck) scf=(maxcycle=1)
 ----------------------------------------------------------------------
 -----
 title
 -----
 Structure from the checkpoint file:  "Grambow2020_b97d3_006643_reverse_mol2.chk"
 Charge =  0 Multiplicity = 1

                         Standard orientation:
 ---------------------------------------------------------------------
 Center     Atomic      Atomic             Coordinates (Angstroms)
 Number     Number       Type             X           Y           Z
 ---------------------------------------------------------------------
      1          6           0       -1.583195   -1.483621    0.101907
      2          6           0       -1.775986   -0.068294   -0.476055
      3          6           0       -1.051449    0.979346    0.325164
      4          6           0       -0.098911    1.799477   -0.145013
      5          6           0        2.004529   -0.715765   -0.643673
      6          8           0        2.851559   -0.285688   -0.001584
      7          1           0       -2.163799   -2.222194   -0.468411
      8          1           0       -0.524742   -1.772693    0.062517
      9          1           0       -1.911088   -1.529744    1.150653
     10          1           0       -1.432023   -0.041031   -1.520745
     11          1           0       -2.854152    0.167247   -0.487431
     12          1           0       -1.331067    1.042567    1.382480
     13          1           0        0.842481   -0.229226    2.468086
     14          1           0        0.398538    2.529176    0.494852
     15          1           0        0.208957    1.771784   -1.192501
     16          1           0        0.984494   -0.497238    3.149194
 ---------------------------------------------------------------------

 SCF Done:  E(RHF) =  -270.093668382     A.U. after    2 cycles

 The electronic state is 1-A.
 Alpha  occ. eigenvalues --  -20.67676 -11.37705 -11.24782 -11.24042 -11.23533
 Alpha  occ. eigenvalues --  -11.23039  -1.47140  -1.07088  -0.98317  -0.85498
 Alpha  occ. eigenvalues --   -0.81024  -0.75774  -0.64671  -0.64458  -0.64390
 Alpha  occ. eigenvalues --   -0.61018  -0.59365  -0.58576  -0.55470  -0.53764
 Alpha  occ. eigenvalues --   -0.51965  -0.48977  -0.47981  -0.36298
 Alpha virt. eigenvalues --    0.03731   0.04555   0.04749   0.05230   0.06349
 Alpha virt. eigenvalues --    0.06891   0.07195   0.07291   0.08717   0.09068
 Alpha virt. eigenvalues --    0.10974   0.11247   0.12785   0.12840   0.14253

 Mulliken charges:
               1
     1  C    0.283671
     2  C    0.011461
     3  C    0.787230
     4  C    0.419505
     5  C    0.269968
     6  O   -0.276969
     7  H   -0.083123
     8  H   -0.115902
     9  H   -0.057106
    10  H   -0.116215
    11  H    0.014062
    12  H   -0.433034
    13  H   -0.146930
    14  H   -0.336259
    15  H   -0.350735
    16  H    0.130376
 Sum of Mulliken charges =  -0.00000

 Dipole moment (field-independent basis, Debye):
    X=             -0.7959    Y=             -0.4618    Z=             -0.3565  Tot=              0.9868

 Test job not archived.
 1\1\GINC-SE453\SP\RHF\Aug-CC-pVDZ\C5H10O1\OHZDE\09-Apr-2025\0\\#t hf a
 ug-cc-pvdz iop(5/13=1,5/36=2,99/5=2) pseudo=read geom=check guess=(rea
 d,tcheck) scf=(maxcycle=1)\\title\\0,1\C,0,-1.66176115,0.12589536,0.85
 163151\C,0,-1.20805564,-0.86661501,-0.23622536\C,0,-0.12645443,-0.2969
 6633,-1.11377507\C,0,1.10007792,-0.81693319,-1.27583666\C,0,1.92648861
 ,-0.18615104,1.87356386\O,0,2.85684412,0.43636304,1.62533211\H,0,-2.48
 706754,-0.29280482,1.44443274\H,0,-0.8308852,0.355182,1.53171222\H,0,-
 2.00823351,1.06945343,0.40535268\H,0,-0.85534789,-1.79806177,0.2311450

 Normal termination of Gaussian 16 at Wed Apr  9 03:08:02 2025.
