 Gaussian 16, Revision C.01,

 ----------------------------------------------------------------------
 #t hf aug-cc-pvdz symm=none int=(grid=ultrafine) guess=(read,tcheck) s
 table=(opt,rrhf)
 ----------------------------------------------------------------------
 -----
 title
 -----
 Symbolic Z-matrix:
 Charge =  0 Multiplicity = 1

 SCF Done:  E(RHF) =  -302.719186034     A.U. after   19 cycles
 Normal termination of Gaussian 16 at Wed Apr  9 16:15:13 2025.
 Gaussian 16:  ES64L-G16RevC.01  3-Jul-2019

 ----------------------------------------------------------------------
 #t hf aug-cc-pvdz iop(5/13=1,5/36=2,99/5=2) pseudo=read geom=check gue
 ss=(read,tcheck) scf=(maxcycle=1)
 ----------------------------------------------------------------------
 -----
 title
 -----
 Structure from the checkpoint file:  "Grambow2020_wb97xd3_008032_forward_mol1.chk"
 Charge =  0 Multiplicity = 1

                         Standard orientation:
 ---------------------------------------------------------------------
 Center     Atomic      Atomic             Coordinates (Angstroms)
 Number     Number       Type             X           Y           Z
 ---------------------------------------------------------------------
      1          6           0        1.021487    1.608731   -0.331330
      2          6           0        0.254664    0.620904    0.520630
      3          6           0       -1.293279    0.746013    0.352765
      4          7           0       -1.621221   -0.371107   -0.510000
      5          6           0       -0.734355   -1.347295   -0.040804
      6          6           0        0.729303   -0.909056    0.007432
      7          7           0        1.877343   -1.208828   -0.021439
      8          1           0        0.760674    1.512958   -1.387577
      9          1           0        0.748303    2.617762   -0.006444
     10          1           0        2.095471    1.474527   -0.228474
     11          1           0        0.581398    0.663045    1.558678
     12          1           0       -1.607623    1.708307   -0.063463
     13          1           0       -1.782311    0.615527    1.321498
     14          1           0       -1.430949   -0.148248   -1.479619
     15          1           0       -1.024732   -1.700106    0.953321
 ---------------------------------------------------------------------

 SCF Done:  E(RHF) =  -302.806160230     A.U. after    2 cycles

 The electronic state is 1-A.
 Alpha  occ. eigenvalues --  -15.65097 -15.60280 -11.32751 -11.31780 -11.30285
 Alpha  occ. eigenvalues --  -11.28196 -11.25311  -1.26186  -1.16285  -1.06115
 Alpha  occ. eigenvalues --   -0.95892  -0.93090  -0.81618  -0.74063  -0.68025
 Alpha  occ. eigenvalues --   -0.65587  -0.62448  -0.60514  -0.58195  -0.55579
 Alpha  occ. eigenvalues --   -0.53417  -0.51027  -0.50222  -0.42693  -0.42043
 Alpha  occ. eigenvalues --   -0.28968
 Alpha virt. eigenvalues --    0.00494   0.02560   0.03358   0.04343   0.05103
 Alpha virt. eigenvalues --    0.06536   0.06991   0.07391   0.07624   0.10211
 Alpha virt. eigenvalues --    0.11292   0.12401   0.13118   0.13538   0.14318

 Mulliken charges:
               1
     1  C    0.489389
     2  C   -0.358612
     3  C    0.881903
     4  N   -0.551901
     5  C    0.638346
     6  C   -0.131784
     7  N   -0.412796
     8  H   -0.002874
     9  H   -0.050923
    10  H   -0.038023
    11  H   -0.184810
    12  H   -0.154075
    13  H   -0.148404
    14  H    0.088906
    15  H   -0.064341
 Sum of Mulliken charges =  -0.00000

 Dipole moment (field-independent basis, Debye):
    X=             -3.0536    Y=              3.8306    Z=              0.7994  Tot=              4.9635

 Test job not archived.
 1\1\GINC-SE041\SP\RHF\Aug-CC-pVDZ\C5H8N2\OHZDE\09-Apr-2025\0\\#t hf au
 g-cc-pvdz iop(5/13=1,5/36=2,99/5=2) pseudo=read geom=check guess=(read
 ,tcheck) scf=(maxcycle=1)\\title\\0,1\C,0,1.19775933,-0.51000393,-1.07
 910675\C,0,0.58447859,-0.06446222,0.23048649\C,0,-0.23705487,1.2575439
 4,0.09881043\N,0,-1.60916401,0.7916354,0.08815652\C,0,-1.54437896,-0.2
 6756582,1.00112784\C,0,-0.45507038,-1.29850956,0.70577283\N,0,-0.06453
 854,-2.41502427,0.80362083\H,0,0.4394598,-0.62819214,-1.8561948\H,0,1.
 89721379,0.26626295,-1.4054455\H,0,1.72899525,-1.45234896,-0.97045082\

 Normal termination of Gaussian 16 at Wed Apr  9 16:15:31 2025.
