 Gaussian 16, Revision C.01,

 ----------------------------------------------------------------------
 #t hf aug-cc-pvdz symm=none int=(grid=ultrafine) guess=(read,tcheck) s
 table=(opt,rrhf)
 ----------------------------------------------------------------------
 -----
 title
 -----
 Symbolic Z-matrix:
 Charge =  0 Multiplicity = 1

 SCF Done:  E(RHF) =  -354.788781101     A.U. after   14 cycles
 Normal termination of Gaussian 16 at Wed Apr  9 03:39:14 2025.
 Gaussian 16:  ES64L-G16RevC.01  3-Jul-2019

 ----------------------------------------------------------------------
 #t hf aug-cc-pvdz iop(5/13=1,5/36=2,99/5=2) pseudo=read geom=check gue
 ss=(read,tcheck) scf=(maxcycle=1)
 ----------------------------------------------------------------------
 -----
 title
 -----
 Structure from the checkpoint file:  "Grambow2020_wb97xd3_007467_forward_mol2.chk"
 Charge =  0 Multiplicity = 1

                         Standard orientation:
 ---------------------------------------------------------------------
 Center     Atomic      Atomic             Coordinates (Angstroms)
 Number     Number       Type             X           Y           Z
 ---------------------------------------------------------------------
      1          7           0       -2.364834   -0.534191   -0.080724
      2          6           0       -1.068781   -0.020789   -0.000471
      3          6           0       -0.577879    1.229219    0.014723
      4          7           0        0.818665    1.117211    0.017993
      5          6           0        1.211214   -0.197835    0.005460
      6          8           0        2.335481   -0.654122   -0.016020
      7          7           0        0.012219   -0.891289    0.017354
      8          1           0       -2.652595   -1.011039    0.762933
      9          1           0       -3.039945    0.175743   -0.316832
     10          1           0       -1.085743    2.176772    0.041164
     11          1           0        1.481360    1.867101   -0.022247
     12          1           0       -0.036607   -1.881281   -0.137498
 ---------------------------------------------------------------------

 SCF Done:  E(RHF) =  -354.897351727     A.U. after    2 cycles

 The electronic state is 1-A.
 Alpha  occ. eigenvalues --  -20.51884 -15.66592 -15.66183 -15.65163 -11.38555
 Alpha  occ. eigenvalues --  -11.32493 -11.27209  -1.36387  -1.28363  -1.19820
 Alpha  occ. eigenvalues --   -1.14845  -0.98873  -0.85920  -0.82796  -0.73487
 Alpha  occ. eigenvalues --   -0.68944  -0.67287  -0.65503  -0.63650  -0.61890
 Alpha  occ. eigenvalues --   -0.61390  -0.51146  -0.46429  -0.44767  -0.43196
 Alpha  occ. eigenvalues --   -0.29629
 Alpha virt. eigenvalues --    0.02266   0.03135   0.04465   0.05398   0.06341
 Alpha virt. eigenvalues --    0.09590   0.11086   0.11564   0.12438   0.12644
 Alpha virt. eigenvalues --    0.13364   0.14375   0.14592   0.15771   0.17088

 Mulliken charges:
               1
     1  N   -0.294137
     2  C    0.437362
     3  C    1.212689
     4  N   -0.497063
     5  C    0.552613
     6  O   -0.484168
     7  N   -0.451859
     8  H    0.017509
     9  H    0.021404
    10  H   -0.286217
    11  H   -0.104479
    12  H   -0.123654
 Sum of Mulliken charges =  -0.00000

 Dipole moment (field-independent basis, Debye):
    X=             -5.1423    Y=              2.0681    Z=              0.6870  Tot=              5.5850

 Test job not archived.
 1\1\GINC-SE186\SP\RHF\Aug-CC-pVDZ\C3H5N3O1\OHZDE\09-Apr-2025\0\\#t hf
 aug-cc-pvdz iop(5/13=1,5/36=2,99/5=2) pseudo=read geom=check guess=(re
 ad,tcheck) scf=(maxcycle=1)\\title\\0,1\N,0,2.04996204,-0.1836757,0.04
 176022\C,0,0.668868,0.01833032,0.00242711\C,0,-0.09557351,1.12253409,-
 0.00748845\N,0,-1.42867722,0.69416605,0.0397132\C,0,-1.5089059,-0.6753
 7041,0.07884105\O,0,-2.49745051,-1.37616105,0.14447837\N,0,-0.18395644
 ,-1.07643429,0.03126324\H,0,2.41198491,-0.59680309,-0.80689299\H,0,2.5
 5172297,0.66582652,0.24696817\H,0,0.18058459,2.16048994,-0.06103804\H,

 Normal termination of Gaussian 16 at Wed Apr  9 03:39:19 2025.
