 Gaussian 16, Revision C.01,

 ----------------------------------------------------------------------
 #t hf aug-cc-pvdz symm=none int=(grid=ultrafine) guess=(read,tcheck) s
 table=(opt,rrhf)
 ----------------------------------------------------------------------
 -----
 title
 -----
 Symbolic Z-matrix:
 Charge =  0 Multiplicity = 1

 SCF Done:  E(RHF) =  -338.598539996     A.U. after   15 cycles
 Normal termination of Gaussian 16 at Wed Apr  9 16:29:00 2025.
 Gaussian 16:  ES64L-G16RevC.01  3-Jul-2019

 ----------------------------------------------------------------------
 #t hf aug-cc-pvdz iop(5/13=1,5/36=2,99/5=2) pseudo=read geom=check gue
 ss=(read,tcheck) scf=(maxcycle=1)
 ----------------------------------------------------------------------
 -----
 title
 -----
 Structure from the checkpoint file:  "Grambow2020_wb97xd3_008469_forward_mol1.chk"
 Charge =  0 Multiplicity = 1

                         Standard orientation:
 ---------------------------------------------------------------------
 Center     Atomic      Atomic             Coordinates (Angstroms)
 Number     Number       Type             X           Y           Z
 ---------------------------------------------------------------------
      1          7           0       -1.749795   -1.151954    0.029119
      2          6           0       -0.490177   -0.536195   -0.023368
      3          6           0       -0.080079    0.766332   -0.020030
      4          8           0       -0.951780    1.799965   -0.003575
      5          6           0        1.339362    0.816565    0.003995
      6          6           0        1.910151   -0.436391   -0.090963
      7          7           0        0.682178   -1.286192   -0.001233
      8          1           0       -2.266903   -1.052589   -0.833050
      9          1           0       -2.318203   -0.800862    0.786898
     10          1           0       -0.462474    2.624329    0.015796
     11          1           0        1.921591    1.726554    0.073800
     12          1           0        1.430979   -1.256635    0.917325
     13          1           0        0.707020   -2.235355   -0.345162
 ---------------------------------------------------------------------

 SCF Done:  E(RHF) =  -338.698924540     A.U. after    2 cycles

 The electronic state is 1-A.
 Alpha  occ. eigenvalues --  -20.61634 -15.71906 -15.63585 -11.31245 -11.29323
 Alpha  occ. eigenvalues --  -11.24262 -11.22375  -1.38263  -1.29408  -1.16603
 Alpha  occ. eigenvalues --   -1.04891  -0.96380  -0.83046  -0.80964  -0.72933
 Alpha  occ. eigenvalues --   -0.69916  -0.66965  -0.66755  -0.63189  -0.60509
 Alpha  occ. eigenvalues --   -0.56796  -0.54705  -0.43606  -0.37811  -0.35741
 Alpha  occ. eigenvalues --   -0.31224
 Alpha virt. eigenvalues --    0.02891   0.03597   0.04317   0.04771   0.06450
 Alpha virt. eigenvalues --    0.07649   0.09853   0.10805   0.12414   0.12725
 Alpha virt. eigenvalues --    0.13368   0.14021   0.14511   0.14706   0.15667

 Mulliken charges:
               1
     1  N   -0.261290
     2  C    0.004653
     3  C    0.691487
     4  O   -0.608005
     5  C    0.665918
     6  C   -0.273704
     7  N   -0.442129
     8  H    0.037118
     9  H    0.025312
    10  H    0.147406
    11  H   -0.407689
    12  H    0.433816
    13  H   -0.012893
 Sum of Mulliken charges =  -0.00000

 Dipole moment (field-independent basis, Debye):
    X=             -2.6843    Y=              0.1715    Z=              0.4779  Tot=              2.7319

 Test job not archived.
 1\1\GINC-SE026\SP\RHF\Aug-CC-pVDZ\C4H6N2O1\OHZDE\09-Apr-2025\0\\#t hf
 aug-cc-pvdz iop(5/13=1,5/36=2,99/5=2) pseudo=read geom=check guess=(re
 ad,tcheck) scf=(maxcycle=1)\\title\\0,1\N,0,1.81924975,0.91471269,-0.0
 2049967\C,0,0.51432868,0.40357932,-0.08739788\C,0,-0.01350677,-0.84737
 734,0.05842439\O,0,0.75619236,-1.93679845,0.28036228\C,0,-1.43005756,-
 0.77661579,-0.02089127\C,0,-1.8754168,0.49342379,-0.32645767\N,0,-0.58
 278052,1.24331159,-0.25651843\H,0,2.38016583,0.65331417,-0.81903153\H,
 0,2.30216125,0.62757244,0.81910185\H,0,0.1927153,-2.70717511,0.3719359

 Normal termination of Gaussian 16 at Wed Apr  9 16:29:04 2025.
