 Gaussian 16, Revision C.01,

 ----------------------------------------------------------------------
 #t hf aug-cc-pvdz symm=none int=(grid=ultrafine) guess=(read,tcheck) s
 table=(opt,rrhf)
 ----------------------------------------------------------------------
 -----
 title
 -----
 Symbolic Z-matrix:
 Charge =  0 Multiplicity = 1

 SCF Done:  E(RHF) =  -358.442672619     A.U. after   18 cycles
 Normal termination of Gaussian 16 at Wed Apr  9 03:39:15 2025.
 Gaussian 16:  ES64L-G16RevC.01  3-Jul-2019

 ----------------------------------------------------------------------
 #t hf aug-cc-pvdz iop(5/13=1,5/36=2,99/5=2) pseudo=read geom=check gue
 ss=(read,tcheck) scf=(maxcycle=1)
 ----------------------------------------------------------------------
 -----
 title
 -----
 Structure from the checkpoint file:  "Grambow2020_wb97xd3_007450_reverse_mol2.chk"
 Charge =  0 Multiplicity = 1

                         Standard orientation:
 ---------------------------------------------------------------------
 Center     Atomic      Atomic             Coordinates (Angstroms)
 Number     Number       Type             X           Y           Z
 ---------------------------------------------------------------------
      1          8           0        2.282346   -0.521494   -0.530999
      2          6           0        1.329590   -0.774792    0.475983
      3          6           0        0.019549   -0.089234    0.195955
      4          7           0        0.162158    1.355144    0.133600
      5          8           0       -0.828153    1.986385   -0.085079
      6          6           0       -2.299425   -1.206046   -0.172185
      7          6           0       -1.135538   -0.672688    0.010228
      8          1           0        2.464129    0.421810   -0.537354
      9          1           0        1.181776   -1.852849    0.515642
     10          1           0        1.698495   -0.445926    1.455791
     11          1           0       -2.632293   -1.487681   -1.164593
     12          1           0       -2.965814   -1.383924    0.664046
 ---------------------------------------------------------------------

 SCF Done:  E(RHF) =  -358.553694288     A.U. after    2 cycles

 The electronic state is 1-A.
 Alpha  occ. eigenvalues --  -20.64710 -20.58404 -15.77602 -11.31139 -11.30375
 Alpha  occ. eigenvalues --  -11.29308 -11.28156  -1.48292  -1.34064  -1.13223
 Alpha  occ. eigenvalues --   -1.04646  -0.94584  -0.89696  -0.76446  -0.72921
 Alpha  occ. eigenvalues --   -0.70018  -0.68883  -0.64893  -0.63397  -0.62410
 Alpha  occ. eigenvalues --   -0.61318  -0.53752  -0.49324  -0.43658  -0.40188
 Alpha  occ. eigenvalues --   -0.39936
 Alpha virt. eigenvalues --    0.03103   0.04068   0.04303   0.04868   0.05655
 Alpha virt. eigenvalues --    0.06402   0.08710   0.09093   0.11073   0.12044
 Alpha virt. eigenvalues --    0.12804   0.13206   0.15422   0.15619   0.16207

 Mulliken charges:
               1
     1  O   -0.556820
     2  C    0.663997
     3  C    0.482571
     4  N   -0.421017
     5  O   -0.405333
     6  C    0.653305
     7  C   -0.016222
     8  H    0.170351
     9  H   -0.205947
    10  H   -0.000303
    11  H   -0.180483
    12  H   -0.184099
 Sum of Mulliken charges =  -0.00000

 Dipole moment (field-independent basis, Debye):
    X=             -1.2446    Y=             -2.0519    Z=              1.1690  Tot=              2.6694

 Test job not archived.
 1\1\GINC-SE054\SP\RHF\Aug-CC-pVDZ\C4H5N1O2\OHZDE\09-Apr-2025\0\\#t hf
 aug-cc-pvdz iop(5/13=1,5/36=2,99/5=2) pseudo=read geom=check guess=(re
 ad,tcheck) scf=(maxcycle=1)\\title\\0,1\O,0,-2.24254109,0.8381791,0.53
 003977\C,0,-1.49407258,-0.25092146,0.04057932\C,0,-0.08705637,0.147826
 94,-0.31426912\N,0,-0.05312326,1.15830746,-1.35745271\O,0,1.02442723,1
 .53820213,-1.70611522\C,0,2.11887362,-0.75217761,0.72702861\C,0,1.0090
 0553,-0.31636009,0.22639607\H,0,-2.31273161,1.48987456,-0.17229558\H,0
 ,-1.47772961,-1.00802363,0.82298452\H,0,-1.97193564,-0.6878651,-0.8454

 Normal termination of Gaussian 16 at Wed Apr  9 03:39:20 2025.
