 Gaussian 16, Revision C.01,

 ----------------------------------------------------------------------
 #t hf aug-cc-pvdz symm=none int=(grid=ultrafine) guess=(read,tcheck) s
 table=(opt,rrhf)
 ----------------------------------------------------------------------
 -----
 title
 -----
 Symbolic Z-matrix:
 Charge =  0 Multiplicity = 1

 SCF Done:  E(RHF) =  -359.652947124     A.U. after   16 cycles
 Normal termination of Gaussian 16 at Wed Apr  9 04:04:47 2025.
 Gaussian 16:  ES64L-G16RevC.01  3-Jul-2019

 ----------------------------------------------------------------------
 #t hf aug-cc-pvdz iop(5/13=1,5/36=2,99/5=2) pseudo=read geom=check gue
 ss=(read,tcheck) scf=(maxcycle=1)
 ----------------------------------------------------------------------
 -----
 title
 -----
 Structure from the checkpoint file:  "Grambow2020_wb97xd3_009255_forward_mol1.chk"
 Charge =  0 Multiplicity = 1

                         Standard orientation:
 ---------------------------------------------------------------------
 Center     Atomic      Atomic             Coordinates (Angstroms)
 Number     Number       Type             X           Y           Z
 ---------------------------------------------------------------------
      1          6           0       -0.841228    1.621677    0.403251
      2          6           0       -0.269863    0.243142    0.226444
      3          6           0       -1.204586   -0.793457   -0.219314
      4          8           0       -2.402715   -0.643413   -0.283721
      5          6           0        1.112571    0.105276   -0.177536
      6          8           0        1.936216    0.830683   -0.639708
      7          7           0        1.483506   -1.242844    0.462995
      8          1           0       -1.116260    2.066244   -0.556481
      9          1           0       -1.748045    1.563900    1.003747
     10          1           0       -0.127167    2.282425    0.894678
     11          1           0        0.382036   -0.858739    1.021468
     12          1           0       -0.765081   -1.778157   -0.491012
     13          1           0        2.294025   -1.125479    1.060469
     14          1           0        1.646575   -2.008285   -0.183472
 ---------------------------------------------------------------------

 SCF Done:  E(RHF) =  -359.764453083     A.U. after    2 cycles

 The electronic state is 1-A.
 Alpha  occ. eigenvalues --  -20.59469 -20.54809 -15.71279 -11.40803 -11.34270
 Alpha  occ. eigenvalues --  -11.24523 -11.22730  -1.40477  -1.34301  -1.23608
 Alpha  occ. eigenvalues --   -1.07399  -0.93718  -0.85190  -0.75459  -0.74795
 Alpha  occ. eigenvalues --   -0.72732  -0.70901  -0.63722  -0.62619  -0.60385
 Alpha  occ. eigenvalues --   -0.56354  -0.54469  -0.53808  -0.53024  -0.47691
 Alpha  occ. eigenvalues --   -0.42899  -0.34473
 Alpha virt. eigenvalues --    0.01584   0.03453   0.04521   0.05111   0.06793
 Alpha virt. eigenvalues --    0.07142   0.07995   0.08435   0.10272   0.11106
 Alpha virt. eigenvalues --    0.12039   0.12308   0.13553   0.14518   0.15255

 Mulliken charges:
               1
     1  C    0.453040
     2  C   -0.596141
     3  C    0.622377
     4  O   -0.535770
     5  C    0.283897
     6  O   -0.464473
     7  N   -0.510965
     8  H    0.084848
     9  H    0.008305
    10  H   -0.010230
    11  H    0.758885
    12  H   -0.242212
    13  H    0.068308
    14  H    0.080131
 Sum of Mulliken charges =  -0.00000

 Dipole moment (field-independent basis, Debye):
    X=              4.3543    Y=             -3.3463    Z=              1.9754  Tot=              5.8361

 Test job not archived.
 1\1\GINC-SE339\SP\RHF\Aug-CC-pVDZ\C4H7N1O2\OHZDE\09-Apr-2025\0\\#t hf
 aug-cc-pvdz iop(5/13=1,5/36=2,99/5=2) pseudo=read geom=check guess=(re
 ad,tcheck) scf=(maxcycle=1)\\title\\0,1\C,0,-1.13267512,-1.04013023,0.
 98667004\C,0,-0.33180593,-0.11301285,0.11653194\C,0,-1.00140455,1.1203
 308,-0.30471\O,0,-2.17835905,1.34304033,-0.13931738\C,0,1.10430582,-0.
 06172496,0.2847043\O,0,1.87300998,-0.42670928,1.11782541\N,0,1.5627231
 5,0.32379154,-1.13181602\H,0,-1.30149362,-0.61162487,1.97775529\H,0,-2
 .11028424,-1.20599552,0.53609173\H,0,-0.62712301,-1.99792101,1.1092467

 Normal termination of Gaussian 16 at Wed Apr  9 04:04:52 2025.
