 Gaussian 16, Revision C.01,

 ----------------------------------------------------------------------
 #t hf aug-cc-pvdz symm=none int=(grid=ultrafine) guess=(read,tcheck) s
 table=(opt,rrhf)
 ----------------------------------------------------------------------
 -----
 title
 -----
 Symbolic Z-matrix:
 Charge =  0 Multiplicity = 1

 SCF Done:  E(RHF) =  -302.779065894     A.U. after   15 cycles
 Normal termination of Gaussian 16 at Wed Apr  9 15:39:04 2025.
 Gaussian 16:  ES64L-G16RevC.01  3-Jul-2019

 ----------------------------------------------------------------------
 #t hf aug-cc-pvdz iop(5/13=1,5/36=2,99/5=2) pseudo=read geom=check gue
 ss=(read,tcheck) scf=(maxcycle=1)
 ----------------------------------------------------------------------
 -----
 title
 -----
 Structure from the checkpoint file:  "Grambow2020_wb97xd3_007246_reverse_mol2.chk"
 Charge =  0 Multiplicity = 1

                         Standard orientation:
 ---------------------------------------------------------------------
 Center     Atomic      Atomic             Coordinates (Angstroms)
 Number     Number       Type             X           Y           Z
 ---------------------------------------------------------------------
      1          6           0       -2.242078   -0.718415    0.584052
      2          7           0       -1.163361   -0.180943   -0.447653
      3          6           0       -0.717844    1.156465   -0.147249
      4          7           0        0.518124    1.234073    0.130452
      5          6           0        1.039084   -0.078062   -0.042751
      6          6           0        2.475317   -0.336269    0.220256
      7          6           0        0.071153   -0.921533   -0.401514
      8          1           0       -1.725563   -0.591551    1.546588
      9          1           0       -3.017925    0.061237    0.534793
     10          1           0       -1.625662   -0.249576   -1.350439
     11          1           0       -1.447931    1.952739   -0.110933
     12          1           0        3.094587    0.292090   -0.421796
     13          1           0        2.714626   -0.082508    1.254397
     14          1           0        2.727109   -1.380947    0.044661
     15          1           0        0.043623   -1.986509   -0.553630
 ---------------------------------------------------------------------

 SCF Done:  E(RHF) =  -302.869133490     A.U. after    2 cycles

 The electronic state is 1-A.
 Alpha  occ. eigenvalues --  -15.74237 -15.65887 -11.35390 -11.30625 -11.29143
 Alpha  occ. eigenvalues --  -11.25543 -11.19743  -1.34760  -1.19617  -1.07368
 Alpha  occ. eigenvalues --   -0.97251  -0.87462  -0.84417  -0.80427  -0.76480
 Alpha  occ. eigenvalues --   -0.67674  -0.62022  -0.61830  -0.59385  -0.56975
 Alpha  occ. eigenvalues --   -0.56119  -0.49447  -0.49103  -0.47601  -0.37128
 Alpha  occ. eigenvalues --   -0.28226
 Alpha virt. eigenvalues --    0.02714   0.03146   0.04070   0.04699   0.06114
 Alpha virt. eigenvalues --    0.06747   0.06828   0.08480   0.08799   0.10580
 Alpha virt. eigenvalues --    0.11077   0.11948   0.12623   0.13808   0.14270

 Mulliken charges:
               1
     1  C    0.269897
     2  N   -0.593826
     3  C    0.701287
     4  N   -0.675670
     5  C   -0.289289
     6  C    0.350670
     7  C    1.000012
     8  H   -0.260740
     9  H   -0.229199
    10  H    0.148414
    11  H   -0.243620
    12  H    0.062162
    13  H    0.085580
    14  H   -0.008928
    15  H   -0.316752
 Sum of Mulliken charges =  -0.00000

 Dipole moment (field-independent basis, Debye):
    X=              2.6096    Y=              1.4115    Z=             -2.6801  Tot=              3.9982

 Test job not archived.
 1\1\GINC-SE138\SP\RHF\Aug-CC-pVDZ\C5H8N2\OHZDE\09-Apr-2025\0\\#t hf au
 g-cc-pvdz iop(5/13=1,5/36=2,99/5=2) pseudo=read geom=check guess=(read
 ,tcheck) scf=(maxcycle=1)\\title\\0,1\C,0,-2.31521002,-0.19297876,-0.6
 4034165\N,0,-1.19365823,0.40418555,0.30962519\C,0,-0.65764681,-0.57070
 745,1.22595738\N,0,0.57858462,-0.80457396,1.05924036\C,0,1.0074513,0.0
 8192173,0.0329384\C,0,2.41998817,0.0524416,-0.41703899\C,0,-0.01455733
 ,0.81536011,-0.40820745\H,0,-1.79835576,-1.04778058,-1.10026869\H,0,-3
 .03402311,-0.60820105,0.08292953\H,0,-1.6527985,1.17881283,0.78142955\

 Normal termination of Gaussian 16 at Wed Apr  9 15:39:10 2025.
