 Gaussian 16, Revision C.01,

 ----------------------------------------------------------------------
 #t hf aug-cc-pvdz symm=none int=(grid=ultrafine) guess=(read,tcheck) s
 table=(opt,rrhf)
 ----------------------------------------------------------------------
 -----
 title
 -----
 Symbolic Z-matrix:
 Charge =  0 Multiplicity = 1

 SCF Done:  E(RHF) =  -322.676600986     A.U. after   14 cycles
 Normal termination of Gaussian 16 at Wed Apr  9 16:06:04 2025.
 Gaussian 16:  ES64L-G16RevC.01  3-Jul-2019

 ----------------------------------------------------------------------
 #t hf aug-cc-pvdz iop(5/13=1,5/36=2,99/5=2) pseudo=read geom=check gue
 ss=(read,tcheck) scf=(maxcycle=1)
 ----------------------------------------------------------------------
 -----
 title
 -----
 Structure from the checkpoint file:  "Grambow2020_wb97xd3_007757_reverse_mol2.chk"
 Charge =  0 Multiplicity = 1

                         Standard orientation:
 ---------------------------------------------------------------------
 Center     Atomic      Atomic             Coordinates (Angstroms)
 Number     Number       Type             X           Y           Z
 ---------------------------------------------------------------------
      1          6           0        3.540074    0.126947   -0.026272
      2          6           0        2.068268    0.075690    0.000609
      3          6           0        0.914785    0.643842    0.010597
      4          6           0       -2.640219   -0.002093   -0.008998
      5          7           0       -2.516997    1.201422    0.001589
      6          8           0       -2.638093   -1.160505   -0.026058
      7          6           0        0.895417   -0.859074    0.043979
      8          1           0        3.950918   -0.363149    0.859424
      9          1           0        3.921499   -0.410492   -0.897464
     10          1           0        3.902260    1.154662   -0.059993
     11          1           0        0.299562    1.525950    0.003985
     12          1           0       -3.283320    1.847947    0.049358
     13          1           0        0.649544   -1.376119    0.972359
     14          1           0        0.613311   -1.416585   -0.849820
 ---------------------------------------------------------------------

 SCF Done:  E(RHF) =  -322.781731252     A.U. after    2 cycles

 The electronic state is 1-A.
 Alpha  occ. eigenvalues --  -20.63814 -15.65673 -11.42959 -11.24625 -11.24220
 Alpha  occ. eigenvalues --  -11.23241 -11.23205  -1.44646  -1.23388  -1.14663
 Alpha  occ. eigenvalues --   -0.98017  -0.81159  -0.80594  -0.74526  -0.72173
 Alpha  occ. eigenvalues --   -0.67214  -0.65842  -0.63234  -0.60325  -0.58719
 Alpha  occ. eigenvalues --   -0.55719  -0.48894  -0.46694  -0.45438  -0.40341
 Alpha  occ. eigenvalues --   -0.34010
 Alpha virt. eigenvalues --    0.02938   0.03891   0.05057   0.05490   0.05932
 Alpha virt. eigenvalues --    0.07220   0.07869   0.09565   0.10831   0.10954
 Alpha virt. eigenvalues --    0.11899   0.12933   0.13008   0.14794   0.15106

 Mulliken charges:
               1
     1  C    0.169247
     2  C   -0.656745
     3  C    0.531978
     4  C    0.021611
     5  N    0.088400
     6  O   -0.156429
     7  C    0.676334
     8  H    0.051980
     9  H    0.050327
    10  H    0.000193
    11  H   -0.423697
    12  H    0.043782
    13  H   -0.195497
    14  H   -0.201485
 Sum of Mulliken charges =  -0.00000

 Dipole moment (field-independent basis, Debye):
    X=             -0.7614    Y=              2.3136    Z=              0.0794  Tot=              2.4369

 Test job not archived.
 1\1\GINC-SE173\SP\RHF\Aug-CC-pVDZ\C5H7N1O1\OHZDE\09-Apr-2025\0\\#t hf
 aug-cc-pvdz iop(5/13=1,5/36=2,99/5=2) pseudo=read geom=check guess=(re
 ad,tcheck) scf=(maxcycle=1)\\title\\0,1\C,0,-2.76095088,-0.33187332,-0
 .62943583\C,0,-1.34039717,-0.14694307,-0.28681094\C,0,-0.11688119,-0.5
 4228681,-0.27545585\C,0,3.23287858,0.40875014,0.68907018\N,0,3.3263487
 9,-0.68679975,0.18431384\O,0,3.02628569,1.45385585,1.14435903\C,0,-0.3
 7111932,0.79190277,0.36917134\H,0,-3.37237593,-0.31747214,0.27576959\H
 ,0,-3.10671157,0.48706484,-1.26432953\H,0,-2.92542824,-1.27521408,-1.1

 Normal termination of Gaussian 16 at Wed Apr  9 16:06:10 2025.
