 Gaussian 16, Revision C.01,

 ----------------------------------------------------------------------
 #t hf aug-cc-pvdz symm=none int=(grid=ultrafine) guess=(read,tcheck) s
 table=(opt,rrhf)
 ----------------------------------------------------------------------
 -----
 title
 -----
 Symbolic Z-matrix:
 Charge =  0 Multiplicity = 1

 SCF Done:  E(RHF) =  -317.765225742     A.U. after   14 cycles
 Normal termination of Gaussian 16 at Wed Apr  9 16:49:54 2025.
 Gaussian 16:  ES64L-G16RevC.01  3-Jul-2019

 ----------------------------------------------------------------------
 #t hf aug-cc-pvdz iop(5/13=1,5/36=2,99/5=2) pseudo=read geom=check gue
 ss=(read,tcheck) scf=(maxcycle=1)
 ----------------------------------------------------------------------
 -----
 title
 -----
 Structure from the checkpoint file:  "Grambow2020_wb97xd3_008968_forward_mol2.chk"
 Charge =  0 Multiplicity = 1

                         Standard orientation:
 ---------------------------------------------------------------------
 Center     Atomic      Atomic             Coordinates (Angstroms)
 Number     Number       Type             X           Y           Z
 ---------------------------------------------------------------------
      1          7           0        2.281430    0.000406   -0.072013
      2          6           0        0.897431    0.000614   -0.008323
      3          6           0        0.150574    1.176429   -0.004379
      4          7           0       -1.173096    1.180723    0.003931
      5          6           0       -1.775828   -0.000545    0.007130
      6          7           0       -1.172044   -1.181281    0.004447
      7          6           0        0.151491   -1.175510   -0.004066
      8          1           0        2.734828    0.834545    0.260088
      9          1           0        2.733070   -0.838435    0.250744
     10          1           0        0.647654    2.144130   -0.010120
     11          1           0       -2.860387   -0.001827    0.012673
     12          1           0        0.648802   -2.143272   -0.010112
 ---------------------------------------------------------------------

 SCF Done:  E(RHF) =  -317.857461954     A.U. after    2 cycles

 The electronic state is 1-A.
 Alpha  occ. eigenvalues --  -15.64810 -15.63771 -15.63764 -11.30796 -11.30159
 Alpha  occ. eigenvalues --  -11.29725 -11.29706  -1.28802  -1.20398  -1.16274
 Alpha  occ. eigenvalues --   -1.03132  -0.89819  -0.87513  -0.74094  -0.73475
 Alpha  occ. eigenvalues --   -0.68752  -0.65137  -0.59234  -0.59023  -0.58520
 Alpha  occ. eigenvalues --   -0.49860  -0.47027  -0.41942  -0.40469  -0.32196
 Alpha virt. eigenvalues --    0.02448   0.03530   0.04601   0.05849   0.07365
 Alpha virt. eigenvalues --    0.08015   0.08417   0.10869   0.11299   0.11600
 Alpha virt. eigenvalues --    0.12605   0.13577   0.13884   0.14688   0.14745

 Mulliken charges:
               1
     1  N   -0.346043
     2  C    0.274434
     3  C    0.871546
     4  N   -0.578712
     5  C    0.522222
     6  N   -0.578810
     7  C    0.874529
     8  H   -0.042611
     9  H   -0.041557
    10  H   -0.348585
    11  H   -0.256954
    12  H   -0.349458
 Sum of Mulliken charges =   0.00000

 Dipole moment (field-independent basis, Debye):
    X=              3.4778    Y=             -0.0039    Z=              0.9459  Tot=              3.6041

 Test job not archived.
 1\1\GINC-SE219\SP\RHF\Aug-CC-pVDZ\C4H5N3\OHZDE\09-Apr-2025\0\\#t hf au
 g-cc-pvdz iop(5/13=1,5/36=2,99/5=2) pseudo=read geom=check guess=(read
 ,tcheck) scf=(maxcycle=1)\\title\\0,1\N,0,-2.01105607,0.05801382,0.041
 88249\C,0,-0.62628442,0.01819008,0.02364294\C,0,0.15473084,1.16835369,
 0.11018825\N,0,1.47744866,1.13145304,0.14546627\C,0,2.04471548,-0.0662
 1955,0.09566494\N,0,1.40652344,-1.22572624,0.01226858\C,0,0.08423066,-
 1.17879509,-0.02223796\H,0,-2.42786774,0.92304461,-0.25751314\H,0,-2.4
 7593789,-0.74713173,-0.34208478\H,0,-0.3134,2.14942599,0.15399116\H,0,

 Normal termination of Gaussian 16 at Wed Apr  9 16:49:59 2025.
