 Gaussian 16, Revision C.01,

 ----------------------------------------------------------------------
 #t hf aug-cc-pvdz symm=none int=(grid=ultrafine) guess=(read,tcheck) s
 table=(opt,rrhf)
 ----------------------------------------------------------------------
 -----
 title
 -----
 Symbolic Z-matrix:
 Charge =  0 Multiplicity = 1

 SCF Done:  E(RHF) =  -317.598366196     A.U. after   17 cycles
 Normal termination of Gaussian 16 at Wed Apr  9 16:50:58 2025.
 Gaussian 16:  ES64L-G16RevC.01  3-Jul-2019

 ----------------------------------------------------------------------
 #t hf aug-cc-pvdz iop(5/13=1,5/36=2,99/5=2) pseudo=read geom=check gue
 ss=(read,tcheck) scf=(maxcycle=1)
 ----------------------------------------------------------------------
 -----
 title
 -----
 Structure from the checkpoint file:  "Grambow2020_wb97xd3_008974_forward_mol1.chk"
 Charge =  0 Multiplicity = 1

                         Standard orientation:
 ---------------------------------------------------------------------
 Center     Atomic      Atomic             Coordinates (Angstroms)
 Number     Number       Type             X           Y           Z
 ---------------------------------------------------------------------
      1          7           0        2.124345   -0.039217   -0.363387
      2          6           0        0.924228    0.171151    0.113428
      3          6           0        0.303833   -1.115045    0.291772
      4          7           0       -1.027281   -1.250055   -0.026369
      5          6           0       -1.656784   -0.143537   -0.252672
      6          7           0       -1.188080    1.134802   -0.019088
      7          6           0        0.066768    1.313239    0.238878
      8          1           0        2.853484    0.662514   -0.241941
      9          1           0        1.582089   -1.340839   -0.311482
     10          1           0        0.644880   -1.710458    1.140253
     11          1           0       -2.693156   -0.194117   -0.566919
     12          1           0        0.421550    2.309335    0.493561
 ---------------------------------------------------------------------

 SCF Done:  E(RHF) =  -317.688885215     A.U. after    2 cycles

 The electronic state is 1-A.
 Alpha  occ. eigenvalues --  -15.66382 -15.65635 -15.64306 -11.33304 -11.32628
 Alpha  occ. eigenvalues --  -11.31496 -11.26666  -1.29648  -1.21910  -1.17360
 Alpha  occ. eigenvalues --   -1.01050  -0.91584  -0.86169  -0.76281  -0.73604
 Alpha  occ. eigenvalues --   -0.68538  -0.62113  -0.61310  -0.56792  -0.53225
 Alpha  occ. eigenvalues --   -0.48707  -0.46959  -0.41696  -0.40046  -0.32673
 Alpha virt. eigenvalues --    0.02523   0.03905   0.04128   0.04484   0.04976
 Alpha virt. eigenvalues --    0.06914   0.09509   0.10304   0.10645   0.11177
 Alpha virt. eigenvalues --    0.11774   0.13166   0.13883   0.14385   0.14909

 Mulliken charges:
               1
     1  N   -0.595320
     2  C    0.071136
     3  C    0.388507
     4  N   -0.486015
     5  C    0.583309
     6  N   -0.532396
     7  C    0.785359
     8  H   -0.030701
     9  H    0.454807
    10  H   -0.148384
    11  H   -0.257836
    12  H   -0.232468
 Sum of Mulliken charges =  -0.00000

 Dipole moment (field-independent basis, Debye):
    X=              2.3270    Y=              1.8844    Z=              0.9965  Tot=              3.1558

 Test job not archived.
 1\1\GINC-SE026\SP\RHF\Aug-CC-pVDZ\C4H5N3\OHZDE\09-Apr-2025\0\\#t hf au
 g-cc-pvdz iop(5/13=1,5/36=2,99/5=2) pseudo=read geom=check guess=(read
 ,tcheck) scf=(maxcycle=1)\\title\\0,1\N,0,-1.89008169,0.12238076,-0.51
 738539\C,0,-0.73986859,-0.08664067,0.07015909\C,0,0.01068123,1.1384882
 9,-0.01188704\N,0,1.35996056,1.06426682,-0.26731549\C,0,1.87239712,-0.
 12057533,-0.19365247\N,0,1.25729951,-1.25633736,0.2963432\C,0,-0.01865
 915,-1.24568867,0.50811344\H,0,-2.69609897,-0.45652379,-0.28495115\H,0
 ,-1.21051041,1.34041904,-0.73074089\H,0,-0.29570274,1.94669926,0.65420

 Normal termination of Gaussian 16 at Wed Apr  9 16:51:03 2025.
