 Gaussian 16, Revision C.01,

 ----------------------------------------------------------------------
 #t hf aug-cc-pvdz symm=none int=(grid=ultrafine) guess=(read,tcheck) s
 table=(opt,rrhf)
 ----------------------------------------------------------------------
 -----
 title
 -----
 Symbolic Z-matrix:
 Charge =  0 Multiplicity = 1

 SCF Done:  E(RHF) =  -343.481993792     A.U. after   16 cycles
 Normal termination of Gaussian 16 at Wed Apr  9 16:36:09 2025.
 Gaussian 16:  ES64L-G16RevC.01  3-Jul-2019

 ----------------------------------------------------------------------
 #t hf aug-cc-pvdz iop(5/13=1,5/36=2,99/5=2) pseudo=read geom=check gue
 ss=(read,tcheck) scf=(maxcycle=1)
 ----------------------------------------------------------------------
 -----
 title
 -----
 Structure from the checkpoint file:  "Grambow2020_wb97xd3_008657_forward_mol1.chk"
 Charge =  0 Multiplicity = 1

                         Standard orientation:
 ---------------------------------------------------------------------
 Center     Atomic      Atomic             Coordinates (Angstroms)
 Number     Number       Type             X           Y           Z
 ---------------------------------------------------------------------
      1          6           0       -2.417756    0.424955   -0.122158
      2          6           0       -1.019639   -0.599976    0.941270
      3          8           0       -0.934358   -0.287861   -0.754631
      4          6           0        0.123021   -0.164342    0.163357
      5          6           0        1.412571   -0.897668   -0.185988
      6          8           0        2.148451    0.332227   -0.106942
      7          6           0        0.977921    1.090164    0.241285
      8          1           0       -3.158866   -0.096639    0.472401
      9          1           0       -2.178857    1.393030    0.297636
     10          1           0       -2.749378    0.494671   -1.158636
     11          1           0       -1.071218   -1.695789    0.954996
     12          1           0        1.753682   -1.627155    0.553485
     13          1           0        1.433590   -1.336054   -1.186923
     14          1           0        0.743982    1.857097   -0.502725
     15          1           0        1.057614    1.537112    1.235754
 ---------------------------------------------------------------------

 SCF Done:  E(RHF) =  -343.587716806     A.U. after    2 cycles

 The electronic state is 1-A.
 Alpha  occ. eigenvalues --  -20.61708 -20.56723 -11.33715 -11.29955 -11.29066
 Alpha  occ. eigenvalues --  -11.28829 -11.25770  -1.37324  -1.33802  -1.00591
 Alpha  occ. eigenvalues --   -0.95759  -0.94532  -0.89321  -0.74629  -0.70099
 Alpha  occ. eigenvalues --   -0.68851  -0.65660  -0.61833  -0.60598  -0.58437
 Alpha  occ. eigenvalues --   -0.57505  -0.55185  -0.52727  -0.46531  -0.45148
 Alpha  occ. eigenvalues --   -0.43127  -0.33568
 Alpha virt. eigenvalues --    0.03181   0.04374   0.04555   0.04725   0.06387
 Alpha virt. eigenvalues --    0.06677   0.06829   0.07387   0.09194   0.10893
 Alpha virt. eigenvalues --    0.12026   0.12730   0.13780   0.13978   0.14466

 Mulliken charges:
               1
     1  C    0.791166
     2  C   -0.091337
     3  O   -0.779807
     4  C   -0.177360
     5  C    0.847696
     6  O   -0.721198
     7  C    0.817211
     8  H   -0.021113
     9  H   -0.041646
    10  H   -0.185289
    11  H   -0.115380
    12  H   -0.100336
    13  H   -0.049046
    14  H   -0.074242
    15  H   -0.099319
 Sum of Mulliken charges =   0.00000

 Dipole moment (field-independent basis, Debye):
    X=             -2.6004    Y=              0.1237    Z=              0.3805  Tot=              2.6310

 Test job not archived.
 1\1\GINC-SE168\SP\RHF\Aug-CC-pVDZ\C5H8O2\OHZDE\09-Apr-2025\0\\#t hf au
 g-cc-pvdz iop(5/13=1,5/36=2,99/5=2) pseudo=read geom=check guess=(read
 ,tcheck) scf=(maxcycle=1)\\title\\0,1\C,0,2.18756181,-0.22859089,0.067
 40438\C,0,0.54324642,0.20261205,1.18382103\O,0,0.75913982,0.6553376,-0
 .46820715\C,0,-0.41245348,0.12265982,0.0971551\C,0,-1.69732205,0.90648
 149,-0.14260134\O,0,-2.30954139,-0.25174074,-0.7292157\C,0,-1.13894528
 ,-1.05985465,-0.52299152\H,0,2.76922864,-0.00046868,0.95308416\H,0,1.9
 8338195,-1.28791737,-0.01386613\H,0,2.68434141,0.1655336,-0.81972359\H

 Normal termination of Gaussian 16 at Wed Apr  9 16:36:14 2025.
