 Gaussian 16, Revision C.01,

 ----------------------------------------------------------------------
 #t hf aug-cc-pvdz symm=none int=(grid=ultrafine) guess=(read,tcheck) s
 table=(opt,rrhf)
 ----------------------------------------------------------------------
 -----
 title
 -----
 Symbolic Z-matrix:
 Charge =  0 Multiplicity = 1

 SCF Done:  E(RHF) =  -306.543510795     A.U. after   15 cycles
 Normal termination of Gaussian 16 at Wed Apr  9 16:23:07 2025.
 Gaussian 16:  ES64L-G16RevC.01  3-Jul-2019

 ----------------------------------------------------------------------
 #t hf aug-cc-pvdz iop(5/13=1,5/36=2,99/5=2) pseudo=read geom=check gue
 ss=(read,tcheck) scf=(maxcycle=1)
 ----------------------------------------------------------------------
 -----
 title
 -----
 Structure from the checkpoint file:  "Grambow2020_wb97xd3_008178_reverse_mol1.chk"
 Charge =  0 Multiplicity = 1

                         Standard orientation:
 ---------------------------------------------------------------------
 Center     Atomic      Atomic             Coordinates (Angstroms)
 Number     Number       Type             X           Y           Z
 ---------------------------------------------------------------------
      1          6           0       -1.540708   -0.458215    0.166710
      2          6           0       -0.572221   -0.087402   -0.963706
      3          8           0       -0.175679    1.235390   -0.586223
      4          6           0        0.311357    0.991843    0.705287
      5          6           0        1.917055   -0.470609   -0.073227
      6          6           0        0.520779   -0.962442   -0.231600
      7          6           0       -0.250055   -0.417425    0.996289
      8          1           0       -2.336309    0.256905    0.376480
      9          1           0       -1.930280   -1.472078    0.082837
     10          1           0       -0.809200   -0.124833   -2.022914
     11          1           0        0.126894    1.833601    1.372938
     12          1           0        2.237262    0.070289   -0.983472
     13          1           0        1.475041    0.831011    0.702049
     14          1           0        0.454176   -2.031592   -0.433558
     15          1           0       -0.129398   -0.820918    1.996897
 ---------------------------------------------------------------------

 SCF Done:  E(RHF) =  -306.632474392     A.U. after    2 cycles

 The electronic state is 1-A.
 Alpha  occ. eigenvalues --  -20.58511 -11.31701 -11.30096 -11.27055 -11.25638
 Alpha  occ. eigenvalues --  -11.25242 -11.24289  -1.38143  -1.13823  -1.00998
 Alpha  occ. eigenvalues --   -0.96412  -0.82859  -0.80348  -0.76853  -0.72886
 Alpha  occ. eigenvalues --   -0.67194  -0.63528  -0.59447  -0.57548  -0.54345
 Alpha  occ. eigenvalues --   -0.53487  -0.49996  -0.47833  -0.44273  -0.42337
 Alpha  occ. eigenvalues --   -0.34719
 Alpha virt. eigenvalues --    0.03119   0.03922   0.04473   0.04629   0.06046
 Alpha virt. eigenvalues --    0.06210   0.06664   0.08244   0.08410   0.10756
 Alpha virt. eigenvalues --    0.11647   0.12403   0.13017   0.13622   0.13773

 Mulliken charges:
               1
     1  C    0.695020
     2  C    0.796329
     3  O   -0.747302
     4  C    0.623936
     5  C   -0.213818
     6  C    0.203065
     7  C    0.249973
     8  H   -0.205070
     9  H   -0.244258
    10  H   -0.331060
    11  H   -0.301262
    12  H    0.007526
    13  H    0.150957
    14  H   -0.324342
    15  H   -0.359693
 Sum of Mulliken charges =  -0.00000

 Dipole moment (field-independent basis, Debye):
    X=             -1.9226    Y=             -0.9634    Z=             -0.0155  Tot=              2.1505

 Test job not archived.
 1\1\GINC-SE114\SP\RHF\Aug-CC-pVDZ\C6H8O1\OHZDE\09-Apr-2025\0\\#t hf au
 g-cc-pvdz iop(5/13=1,5/36=2,99/5=2) pseudo=read geom=check guess=(read
 ,tcheck) scf=(maxcycle=1)\\title\\0,1\C,0,-1.52941311,-0.12583519,-0.2
 6106525\C,0,-0.57705365,-0.5312443,0.87117394\O,0,0.26668079,-1.484198
 83,0.21580555\C,0,0.73571851,-0.70944545,-0.85390343\C,0,1.69662713,0.
 83692594,0.56331425\C,0,0.20870091,0.81427,0.60944449\C,0,-0.24356582,
 0.48493273,-0.8348312\H,0,-2.02144113,-0.9394451,-0.79429038\H,0,-2.24
 168017,0.64443972,0.0323121\H,0,-0.88875798,-0.90483141,1.84212947\H,0

 Normal termination of Gaussian 16 at Wed Apr  9 16:23:12 2025.
