 Gaussian 16, Revision C.01,

 ----------------------------------------------------------------------
 #t hf aug-cc-pvdz symm=none int=(grid=ultrafine) guess=(read,tcheck) s
 table=(opt,rrhf)
 ----------------------------------------------------------------------
 -----
 title
 -----
 Symbolic Z-matrix:
 Charge =  0 Multiplicity = 1

 SCF Done:  E(RHF) =  -305.663006477     A.U. after   15 cycles
 Normal termination of Gaussian 16 at Wed Apr  9 14:17:17 2025.
 Gaussian 16:  ES64L-G16RevC.01  3-Jul-2019

 ----------------------------------------------------------------------
 #t hf aug-cc-pvdz iop(5/13=1,5/36=2,99/5=2) pseudo=read geom=check gue
 ss=(read,tcheck) scf=(maxcycle=1)
 ----------------------------------------------------------------------
 -----
 title
 -----
 Structure from the checkpoint file:  "Grambow2020_b97d3_006965_forward_mol1.chk"
 Charge =  0 Multiplicity = 1

                         Standard orientation:
 ---------------------------------------------------------------------
 Center     Atomic      Atomic             Coordinates (Angstroms)
 Number     Number       Type             X           Y           Z
 ---------------------------------------------------------------------
      1          8           0        1.822471   -0.973859   -0.175426
      2          6           0        1.677141    0.377446    0.236881
      3          6           0        0.406898    1.038133   -0.329615
      4          6           0       -0.848537    0.524279    0.331887
      5          6           0       -1.945612   -0.063095   -0.454404
      6          8           0       -1.123990   -0.939228    0.183248
      7          1           0        0.966101   -1.414834   -0.020650
      8          1           0        1.674740    0.476221    1.340886
      9          1           0        2.563953    0.906272   -0.137472
     10          1           0        0.444977    2.127128   -0.165610
     11          1           0        0.358830    0.864266   -1.413294
     12          1           0       -1.023017    0.836952    1.363392
     13          1           0       -3.098993   -0.036291   -0.392314
     14          1           0       -3.213775    0.284413    0.653996
 ---------------------------------------------------------------------

 SCF Done:  E(RHF) =  -305.759581049     A.U. after    2 cycles

 The electronic state is 1-A.
 Alpha  occ. eigenvalues --  -20.63479 -20.56992 -11.35419 -11.34005 -11.29975
 Alpha  occ. eigenvalues --  -11.26118  -1.42644  -1.31791  -1.05923  -0.94085
 Alpha  occ. eigenvalues --   -0.88785  -0.82480  -0.74755  -0.69515  -0.66491
 Alpha  occ. eigenvalues --   -0.65185  -0.61403  -0.59385  -0.55307  -0.53744
 Alpha  occ. eigenvalues --   -0.50558  -0.47799  -0.45252  -0.35731
 Alpha virt. eigenvalues --    0.02485   0.03860   0.04454   0.05186   0.06241
 Alpha virt. eigenvalues --    0.06650   0.07562   0.08700   0.09669   0.10107
 Alpha virt. eigenvalues --    0.11431   0.12681   0.13243   0.14618   0.14999

 Mulliken charges:
               1
     1  O   -0.568914
     2  C    0.728487
     3  C   -0.168708
     4  C    1.038530
     5  C    0.151030
     6  O   -0.675895
     7  H    0.206419
     8  H   -0.091746
     9  H   -0.144321
    10  H    0.053687
    11  H   -0.028397
    12  H   -0.359520
    13  H   -0.209317
    14  H    0.068664
 Sum of Mulliken charges =   0.00000

 Dipole moment (field-independent basis, Debye):
    X=             -1.0845    Y=              3.0201    Z=              0.9282  Tot=              3.3405

 Test job not archived.
 1\1\GINC-SE219\SP\RHF\Aug-CC-pVDZ\C4H8O2\OHZDE\09-Apr-2025\0\\#t hf au
 g-cc-pvdz iop(5/13=1,5/36=2,99/5=2) pseudo=read geom=check guess=(read
 ,tcheck) scf=(maxcycle=1)\\title\\0,1\O,0,2.02579853,0.96929917,0.4455
 2351\C,0,1.74404753,-0.26841887,-0.19151033\C,0,0.38644183,-0.8589579,
 0.23170952\C,0,-0.77652975,-0.0980907,-0.35678473\C,0,-1.8291123,0.476
 55698,0.49684567\O,0,-0.88977614,1.34281399,0.03153142\H,0,1.23145834,
 1.52784075,0.35150966\H,0,1.77253468,-0.18222194,-1.29620356\H,0,2.550
 28625,-0.95289646,0.10463519\H,0,0.30705486,-1.90258546,-0.11296165\H,

 Normal termination of Gaussian 16 at Wed Apr  9 14:17:21 2025.
