 Gaussian 16, Revision C.01,

 ----------------------------------------------------------------------
 #t hf aug-cc-pvdz symm=none int=(grid=ultrafine) guess=(read,tcheck) s
 table=(opt,rrhf)
 ----------------------------------------------------------------------
 -----
 title
 -----
 Symbolic Z-matrix:
 Charge =  0 Multiplicity = 1

 SCF Done:  E(RHF) =  -354.639977448     A.U. after   15 cycles
 Normal termination of Gaussian 16 at Wed Apr  9 03:39:17 2025.
 Gaussian 16:  ES64L-G16RevC.01  3-Jul-2019

 ----------------------------------------------------------------------
 #t hf aug-cc-pvdz iop(5/13=1,5/36=2,99/5=2) pseudo=read geom=check gue
 ss=(read,tcheck) scf=(maxcycle=1)
 ----------------------------------------------------------------------
 -----
 title
 -----
 Structure from the checkpoint file:  "Grambow2020_wb97xd3_007465_reverse_mol1.chk"
 Charge =  0 Multiplicity = 1

                         Standard orientation:
 ---------------------------------------------------------------------
 Center     Atomic      Atomic             Coordinates (Angstroms)
 Number     Number       Type             X           Y           Z
 ---------------------------------------------------------------------
      1          7           0       -2.247227   -0.643479   -0.133394
      2          6           0       -1.184832    0.123524    0.123281
      3          6           0       -0.591125    1.330164    0.089521
      4          7           0        0.830178    1.111803   -0.012089
      5          6           0        1.176891   -0.185299   -0.053012
      6          8           0        2.244945   -0.723301   -0.124260
      7          7           0       -0.112731   -0.891850    0.158495
      8          1           0       -3.081056   -0.185794   -0.467826
      9          1           0       -1.022944   -1.425144   -0.459499
     10          1           0       -1.010398    2.294593   -0.132921
     11          1           0        1.528010    1.831789   -0.048961
     12          1           0       -0.070319   -1.374686    1.053459
 ---------------------------------------------------------------------

 SCF Done:  E(RHF) =  -354.746979333     A.U. after    2 cycles

 The electronic state is 1-A.
 Alpha  occ. eigenvalues --  -20.57366 -15.72012 -15.68523 -15.58643 -11.43172
 Alpha  occ. eigenvalues --  -11.33647 -11.26933  -1.40592  -1.31734  -1.21925
 Alpha  occ. eigenvalues --   -1.11686  -0.99147  -0.87982  -0.82494  -0.74452
 Alpha  occ. eigenvalues --   -0.72082  -0.68915  -0.65551  -0.63848  -0.60580
 Alpha  occ. eigenvalues --   -0.57185  -0.51440  -0.49233  -0.44468  -0.42836
 Alpha  occ. eigenvalues --   -0.28132
 Alpha virt. eigenvalues --    0.02776   0.03775   0.04069   0.05249   0.06731
 Alpha virt. eigenvalues --    0.09764   0.10466   0.11386   0.11695   0.12383
 Alpha virt. eigenvalues --    0.13373   0.14004   0.14389   0.14624   0.15943

 Mulliken charges:
               1
     1  N   -0.660436
     2  C    0.529089
     3  C    0.957438
     4  N   -0.360619
     5  C    0.644614
     6  O   -0.400207
     7  N   -0.817848
     8  H   -0.089003
     9  H    0.432996
    10  H   -0.280295
    11  H   -0.094076
    12  H    0.138346
 Sum of Mulliken charges =  -0.00000

 Dipole moment (field-independent basis, Debye):
    X=             -0.6593    Y=              2.2816    Z=              0.2514  Tot=              2.3882

 Test job not archived.
 1\1\GINC-SE116\SP\RHF\Aug-CC-pVDZ\C3H5N3O1\OHZDE\09-Apr-2025\0\\#t hf
 aug-cc-pvdz iop(5/13=1,5/36=2,99/5=2) pseudo=read geom=check guess=(re
 ad,tcheck) scf=(maxcycle=1)\\title\\0,1\N,0,2.06664288,-0.23924212,-0.
 13898316\C,0,0.80777936,0.16108186,-0.33357196\C,0,-0.08054068,1.15985
 54,-0.4850501\N,0,-1.35194195,0.68765281,0.00349055\C,0,-1.31846968,-0
 .57129017,0.47071823\O,0,-2.17218276,-1.27313029,0.9331626\N,0,0.06399
 502,-1.01646053,0.15816466\H,0,2.78551753,0.4676983,-0.14570828\H,0,1.
 17257887,-1.11827182,0.66361877\H,0,0.0883348,2.21085549,-0.63429511\H

 Normal termination of Gaussian 16 at Wed Apr  9 03:39:22 2025.
