 Gaussian 16, Revision C.01,

 ----------------------------------------------------------------------
 #t hf aug-cc-pvdz symm=none int=(grid=ultrafine) guess=(read,tcheck) s
 table=(opt,rrhf)
 ----------------------------------------------------------------------
 -----
 title
 -----
 Symbolic Z-matrix:
 Charge =  0 Multiplicity = 1

 SCF Done:  E(RHF) =  -339.186930939     A.U. after   17 cycles
 Normal termination of Gaussian 16 at Wed Apr  9 14:11:03 2025.
 Gaussian 16:  ES64L-G16RevC.01  3-Jul-2019

 ----------------------------------------------------------------------
 #t hf aug-cc-pvdz iop(5/13=1,5/36=2,99/5=2) pseudo=read geom=check gue
 ss=(read,tcheck) scf=(maxcycle=1)
 ----------------------------------------------------------------------
 -----
 title
 -----
 Structure from the checkpoint file:  "Grambow2020_b97d3_006809_reverse_mol1.chk"
 Charge =  0 Multiplicity = 1

                         Standard orientation:
 ---------------------------------------------------------------------
 Center     Atomic      Atomic             Coordinates (Angstroms)
 Number     Number       Type             X           Y           Z
 ---------------------------------------------------------------------
      1          8           0       -1.541034    0.030390    0.235260
      2          6           0       -1.124338   -1.057373   -0.316066
      3          6           0        0.794695   -0.194741    0.082335
      4          8           0        1.838187   -0.769999    0.165359
      5          6           0       -0.206417    0.767461    0.494775
      6          8           0        0.399836    1.127068   -0.685077
      7          1           0       -2.007871   -1.673292   -0.602291
      8          1           0       -0.351683    1.481539    1.311685
 ---------------------------------------------------------------------

 SCF Done:  E(RHF) =  -339.291703615     A.U. after    2 cycles

 The electronic state is 1-A.
 Alpha  occ. eigenvalues --  -20.68790 -20.62387 -20.60882 -11.46003 -11.42570
 Alpha  occ. eigenvalues --  -11.36886  -1.47515  -1.41277  -1.36909  -0.98658
 Alpha  occ. eigenvalues --   -0.92175  -0.80947  -0.76142  -0.71971  -0.69317
 Alpha  occ. eigenvalues --   -0.67341  -0.64403  -0.60046  -0.58415  -0.52480
 Alpha  occ. eigenvalues --   -0.45051  -0.41307
 Alpha virt. eigenvalues --    0.02887   0.03765   0.04662   0.06688   0.08492
 Alpha virt. eigenvalues --    0.09496   0.10307   0.10881   0.11998   0.13431
 Alpha virt. eigenvalues --    0.14326   0.14789   0.15613   0.15665   0.20183

 Mulliken charges:
               1
     1  O   -0.505259
     2  C    0.259421
     3  C    0.288483
     4  O   -0.342365
     5  C    1.264938
     6  O   -0.696473
     7  H   -0.125739
     8  H   -0.143005
 Sum of Mulliken charges =  -0.00000

 Dipole moment (field-independent basis, Debye):
    X=             -3.5349    Y=             -0.0585    Z=              1.8326  Tot=              3.9821

 Test job not archived.
 1\1\GINC-SE120\SP\RHF\Aug-CC-pVDZ\C3H2O3\OHZDE\09-Apr-2025\0\\#t hf au
 g-cc-pvdz iop(5/13=1,5/36=2,99/5=2) pseudo=read geom=check guess=(read
 ,tcheck) scf=(maxcycle=1)\\title\\0,1\O,0,-0.93630741,-0.703987,0.6104
 4268\C,0,-1.0032323,0.56693994,0.81315088\C,0,0.62189203,0.59294168,-0
 .58106624\O,0,0.9833803,1.51658712,-1.24657051\C,0,0.2785857,-0.793893
 89,-0.34233122\O,0,1.43963643,-0.43206904,0.2979456\H,0,-1.82651266,0.
 76988424,1.53629251\H,0,0.2024299,-1.71835506,-0.92364171\\Version=ES6
 4L-G16RevC.01\State=1-A\HF=-339.2917036\RMSD=4.635e-03\Dipole=-1.30451

 Normal termination of Gaussian 16 at Wed Apr  9 14:11:06 2025.
