 Gaussian 16, Revision C.01,

 ----------------------------------------------------------------------
 #t hf aug-cc-pvdz symm=none int=(grid=ultrafine) guess=(read,tcheck) s
 table=(opt,rrhf)
 ----------------------------------------------------------------------
 -----
 title
 -----
 Symbolic Z-matrix:
 Charge =  0 Multiplicity = 1

 SCF Done:  E(RHF) =  -268.747757283     A.U. after   15 cycles
 Normal termination of Gaussian 16 at Wed Apr  9 14:23:19 2025.
 Gaussian 16:  ES64L-G16RevC.01  3-Jul-2019

 ----------------------------------------------------------------------
 #t hf aug-cc-pvdz iop(5/13=1,5/36=2,99/5=2) pseudo=read geom=check gue
 ss=(read,tcheck) scf=(maxcycle=1)
 ----------------------------------------------------------------------
 -----
 title
 -----
 Structure from the checkpoint file:  "Grambow2020_wb97xd3_006196_reverse_mol2.chk"
 Charge =  0 Multiplicity = 1

                         Standard orientation:
 ---------------------------------------------------------------------
 Center     Atomic      Atomic             Coordinates (Angstroms)
 Number     Number       Type             X           Y           Z
 ---------------------------------------------------------------------
      1          6           0        1.607628    0.904714   -0.075814
      2          6           0        2.067316   -0.516866    0.012193
      3          6           0        0.682017   -0.145999    0.457174
      4          6           0       -0.481600   -0.587905   -0.366523
      5          6           0       -2.662289    0.176916    0.320815
      6          8           0       -1.552963    0.394051   -0.290757
      7          1           0        1.392975    1.311922   -1.055466
      8          1           0        2.012730    1.619838    0.626688
      9          1           0        2.787401   -0.780723    0.774504
     10          1           0        2.169204   -1.076026   -0.909558
     11          1           0        0.499293   -0.139055    1.525919
     12          1           0       -0.213233   -0.654516   -1.422508
     13          1           0       -2.613349   -0.873052    0.729510
     14          1           0       -0.889756   -1.545953   -0.030105
 ---------------------------------------------------------------------

 SCF Done:  E(RHF) =  -268.833140333     A.U. after    2 cycles

 The electronic state is 1-A.
 Alpha  occ. eigenvalues --  -20.63851 -11.31537 -11.30215 -11.25720 -11.25169
 Alpha  occ. eigenvalues --  -11.24788  -1.40940  -1.16108  -1.00946  -0.85788
 Alpha  occ. eigenvalues --   -0.83631  -0.80315  -0.72176  -0.67456  -0.66978
 Alpha  occ. eigenvalues --   -0.62204  -0.59076  -0.55059  -0.53210  -0.50951
 Alpha  occ. eigenvalues --   -0.44640  -0.43726  -0.35098
 Alpha virt. eigenvalues --    0.03105   0.03962   0.04301   0.04841   0.06191
 Alpha virt. eigenvalues --    0.06578   0.06801   0.07659   0.09636   0.10756
 Alpha virt. eigenvalues --    0.12059   0.13148   0.13381   0.13778   0.14805

 Mulliken charges:
               1
     1  C    0.702671
     2  C    0.727471
     3  C    0.346183
     4  C    0.702614
     5  C    0.124546
     6  O   -0.468900
     7  H   -0.346411
     8  H   -0.318187
     9  H   -0.320341
    10  H   -0.349710
    11  H   -0.388858
    12  H   -0.227094
    13  H   -0.112323
    14  H   -0.071661
 Sum of Mulliken charges =   0.00000

 Dipole moment (field-independent basis, Debye):
    X=              3.2887    Y=             -2.4338    Z=             -0.0734  Tot=              4.0920

 Test job not archived.
 1\1\GINC-SE173\SP\RHF\Aug-CC-pVDZ\C5H8O1\OHZDE\09-Apr-2025\0\\#t hf au
 g-cc-pvdz iop(5/13=1,5/36=2,99/5=2) pseudo=read geom=check guess=(read
 ,tcheck) scf=(maxcycle=1)\\title\\0,1\C,0,-1.61073159,-0.36334728,-0.1
 2317166\C,0,-1.37905152,1.11511744,-0.14355398\C,0,-0.36413485,0.20390
 198,0.48432765\C,0,0.94596641,0.00322034,-0.20205778\C,0,2.46247983,-1
 .59339363,0.77967624\O,0,1.44018579,-1.34363835,0.04190381\H,0,-1.5122
 4489,-0.90819814,-1.05325305\H,0,-2.36211181,-0.75619123,0.54773817\H,
 0,-1.96940471,1.73964712,0.51272755\H,0,-1.12647523,1.57694837,-1.0899

 Normal termination of Gaussian 16 at Wed Apr  9 14:23:23 2025.
