 Gaussian 16, Revision C.01,

 ----------------------------------------------------------------------
 #t hf aug-cc-pvdz symm=none int=(grid=ultrafine) guess=(read,tcheck) s
 table=(opt,rrhf)
 ----------------------------------------------------------------------
 -----
 title
 -----
 Symbolic Z-matrix:
 Charge =  0 Multiplicity = 1

 SCF Done:  E(RHF) =  -286.690129353     A.U. after   15 cycles
 Normal termination of Gaussian 16 at Wed Apr  9 15:58:10 2025.
 Gaussian 16:  ES64L-G16RevC.01  3-Jul-2019

 ----------------------------------------------------------------------
 #t hf aug-cc-pvdz iop(5/13=1,5/36=2,99/5=2) pseudo=read geom=check gue
 ss=(read,tcheck) scf=(maxcycle=1)
 ----------------------------------------------------------------------
 -----
 title
 -----
 Structure from the checkpoint file:  "Grambow2020_wb97xd3_007632_reverse_mol1.chk"
 Charge =  0 Multiplicity = 1

                         Standard orientation:
 ---------------------------------------------------------------------
 Center     Atomic      Atomic             Coordinates (Angstroms)
 Number     Number       Type             X           Y           Z
 ---------------------------------------------------------------------
      1          6           0        2.080063   -0.650337    0.094456
      2          6           0        0.698766   -0.117295   -0.134960
      3          6           0        0.430291    1.290531   -0.598157
      4          6           0       -0.071842    0.838960    0.728804
      5          6           0       -1.383744    0.035185    0.700039
      6          7           0       -1.676117   -0.449719   -0.627204
      7          6           0       -0.459123   -1.154786   -0.263342
      8          1           0        2.067378   -1.421544    0.867238
      9          1           0        2.770160    0.136256    0.405934
     10          1           0        2.473839   -1.105298   -0.817848
     11          1           0        1.297080    1.936997   -0.553848
     12          1           0       -0.230505    1.534164   -1.423651
     13          1           0        0.297036    1.259761    1.654225
     14          1           0       -2.226164    0.173068    1.371495
     15          1           0       -1.532346    0.270501   -1.323435
     16          1           0       -0.950120   -1.089415    1.049283
 ---------------------------------------------------------------------

 SCF Done:  E(RHF) =  -286.771569975     A.U. after    2 cycles

 The electronic state is 1-A.
 Alpha  occ. eigenvalues --  -15.63212 -11.31139 -11.29289 -11.26057 -11.25379
 Alpha  occ. eigenvalues --  -11.24945 -11.22942  -1.28224  -1.13735  -0.97726
 Alpha  occ. eigenvalues --   -0.93842  -0.86991  -0.80279  -0.72803  -0.70313
 Alpha  occ. eigenvalues --   -0.66638  -0.58650  -0.57925  -0.57339  -0.54578
 Alpha  occ. eigenvalues --   -0.53334  -0.49539  -0.46709  -0.43217  -0.39539
 Alpha  occ. eigenvalues --   -0.31176
 Alpha virt. eigenvalues --    0.02968   0.03741   0.04046   0.05025   0.06108
 Alpha virt. eigenvalues --    0.06797   0.06980   0.07464   0.08654   0.10138
 Alpha virt. eigenvalues --    0.10723   0.12551   0.12834   0.13192   0.13863

 Mulliken charges:
               1
     1  C    0.554682
     2  C   -0.609036
     3  C    0.786324
     4  C    0.528960
     5  C    0.265274
     6  N   -0.559071
     7  C   -0.173347
     8  H    0.050203
     9  H   -0.031487
    10  H    0.008907
    11  H   -0.368053
    12  H   -0.403339
    13  H   -0.393864
    14  H   -0.184072
    15  H    0.079008
    16  H    0.448910
 Sum of Mulliken charges =  -0.00000

 Dipole moment (field-independent basis, Debye):
    X=              0.9837    Y=              3.0754    Z=              1.0402  Tot=              3.3923

 Test job not archived.
 1\1\GINC-SE219\SP\RHF\Aug-CC-pVDZ\C6H9N1\OHZDE\09-Apr-2025\0\\#t hf au
 g-cc-pvdz iop(5/13=1,5/36=2,99/5=2) pseudo=read geom=check guess=(read
 ,tcheck) scf=(maxcycle=1)\\title\\0,1\C,0,1.67667906,-0.6845686,0.8344
 1216\C,0,0.47215208,-0.27996378,0.04058945\C,0,0.51340963,0.78119309,-
 1.02751493\C,0,-0.33866665,0.97625852,0.17780484\C,0,-1.70584189,0.270
 93709,0.14145519\N,0,-1.74731349,-0.7465201,-0.88091931\C,0,-0.7556771
 2,-1.24210156,0.05804026\H,0,1.38029383,-1.0321073,1.8261212\H,0,2.377
 23446,0.14389149,0.95630414\H,0,2.20439967,-1.50537548,0.34234091\H,0,

 Normal termination of Gaussian 16 at Wed Apr  9 15:58:16 2025.
