 Gaussian 16, Revision C.01,

 ----------------------------------------------------------------------
 #t hf aug-cc-pvdz symm=none int=(grid=ultrafine) guess=(read,tcheck) s
 table=(opt,rrhf)
 ----------------------------------------------------------------------
 -----
 title
 -----
 Symbolic Z-matrix:
 Charge =  0 Multiplicity = 1

 SCF Done:  E(RHF) =  -263.793554780     A.U. after   14 cycles
 Normal termination of Gaussian 16 at Wed Apr  9 14:15:03 2025.
 Gaussian 16:  ES64L-G16RevC.01  3-Jul-2019

 ----------------------------------------------------------------------
 #t hf aug-cc-pvdz iop(5/13=1,5/36=2,99/5=2) pseudo=read geom=check gue
 ss=(read,tcheck) scf=(maxcycle=1)
 ----------------------------------------------------------------------
 -----
 title
 -----
 Structure from the checkpoint file:  "Grambow2020_b97d3_006866_reverse_mol2.chk"
 Charge =  0 Multiplicity = 1

                         Standard orientation:
 ---------------------------------------------------------------------
 Center     Atomic      Atomic             Coordinates (Angstroms)
 Number     Number       Type             X           Y           Z
 ---------------------------------------------------------------------
      1          6           0       -1.984644   -0.053436   -0.355572
      2          6           0       -0.679593   -0.034161    0.470925
      3          6           0        0.189517   -1.261915    0.219705
      4          7           0        1.315298   -0.701109   -0.153334
      5          7           0        1.417306    0.773473   -0.217555
      6          6           0        0.238388    1.132148    0.156137
      7          1           0       -1.758967   -0.081318   -1.429149
      8          1           0       -2.567781   -0.946803   -0.103173
      9          1           0       -2.591109    0.838452   -0.148935
     10          1           0       -0.947592   -0.021698    1.542848
     11          1           0        2.172371   -1.179943   -0.421638
     12          1           0       -0.017160    2.188939    0.209106
 ---------------------------------------------------------------------

 SCF Done:  E(RHF) =  -263.869762510     A.U. after    2 cycles

 The electronic state is 1-A.
 Alpha  occ. eigenvalues --  -15.70179 -15.68405 -11.30409 -11.26521 -11.26448
 Alpha  occ. eigenvalues --  -11.25073  -1.30938  -1.11273  -1.05977  -0.92153
 Alpha  occ. eigenvalues --   -0.80749  -0.79321  -0.68246  -0.63196  -0.60412
 Alpha  occ. eigenvalues --   -0.58035  -0.55899  -0.51590  -0.50466  -0.46391
 Alpha  occ. eigenvalues --   -0.39976  -0.36327
 Alpha virt. eigenvalues --    0.03068   0.04261   0.04504   0.04654   0.06698
 Alpha virt. eigenvalues --    0.07471   0.09830   0.09867   0.10802   0.11997
 Alpha virt. eigenvalues --    0.13124   0.14299   0.14579   0.15234   0.15687

 Mulliken charges:
               1
     1  C    0.479425
     2  C   -0.605489
     3  C    0.068264
     4  N   -0.128814
     5  N   -0.460670
     6  C    0.940191
     7  H   -0.040756
     8  H   -0.022449
     9  H   -0.016671
    10  H    0.013810
    11  H    0.001410
    12  H   -0.228251
 Sum of Mulliken charges =   0.00000

 Dipole moment (field-independent basis, Debye):
    X=             -1.0159    Y=              1.7574    Z=              0.1594  Tot=              2.0361

 Test job not archived.
 1\1\GINC-SE138\SP\RHF\Aug-CC-pVDZ\C4H6N2\OHZDE\09-Apr-2025\0\\#t hf au
 g-cc-pvdz iop(5/13=1,5/36=2,99/5=2) pseudo=read geom=check guess=(read
 ,tcheck) scf=(maxcycle=1)\\title\\0,1\C,0,-1.5297791,-0.40521163,-0.18
 012896\C,0,-0.11414336,-0.32870038,0.4336689\C,0,0.92897399,-1.0530333
 2,-0.41077871\N,0,1.79546826,-0.09056511,-0.62026923\N,0,1.55342606,1.
 25423346,-0.05294757\C,0,0.43375981,1.08061876,0.55889075\H,0,-1.54096
 82,0.05151289,-1.17790233\H,0,-1.83287082,-1.45418251,-0.2783858\H,0,-
 2.2586499,0.1188671,0.45236829\H,0,-0.14016543,-0.8105842,1.42770446\H

 Normal termination of Gaussian 16 at Wed Apr  9 14:15:06 2025.
