 Gaussian 16, Revision C.01,

 ----------------------------------------------------------------------
 #t hf aug-cc-pvdz symm=none int=(grid=ultrafine) guess=(read,tcheck) s
 table=(opt,rrhf)
 ----------------------------------------------------------------------
 -----
 title
 -----
 Symbolic Z-matrix:
 Charge =  0 Multiplicity = 1

 SCF Done:  E(RHF) =  -374.551367168     A.U. after   15 cycles
 Normal termination of Gaussian 16 at Wed Apr  9 15:45:42 2025.
 Gaussian 16:  ES64L-G16RevC.01  3-Jul-2019

 ----------------------------------------------------------------------
 #t hf aug-cc-pvdz iop(5/13=1,5/36=2,99/5=2) pseudo=read geom=check gue
 ss=(read,tcheck) scf=(maxcycle=1)
 ----------------------------------------------------------------------
 -----
 title
 -----
 Structure from the checkpoint file:  "Grambow2020_wb97xd3_007340_reverse_mol2.chk"
 Charge =  0 Multiplicity = 1

                         Standard orientation:
 ---------------------------------------------------------------------
 Center     Atomic      Atomic             Coordinates (Angstroms)
 Number     Number       Type             X           Y           Z
 ---------------------------------------------------------------------
      1          7           0        2.078589   -0.906092    0.039428
      2          6           0        1.137624    0.097679   -0.018496
      3          6           0       -0.154173   -0.298914    0.628813
      4          8           0       -1.167793    0.775051    0.800809
      5          6           0       -1.424377   -0.182894   -0.064101
      6          8           0       -2.260266   -0.517726   -0.826064
      7          7           0        1.255500    1.257526   -0.506895
      8          1           0        2.877211   -0.823839   -0.565624
      9          1           0        1.763211   -1.848899    0.189730
     10          1           0       -0.079691   -0.950589    1.495324
     11          1           0        2.170672    1.409470   -0.922419
 ---------------------------------------------------------------------

 SCF Done:  E(RHF) =  -374.668072593     A.U. after    2 cycles

 The electronic state is 1-A.
 Alpha  occ. eigenvalues --  -20.65312 -20.59669 -15.67369 -15.61663 -11.43104
 Alpha  occ. eigenvalues --  -11.36362 -11.35604  -1.48024  -1.38424  -1.26578
 Alpha  occ. eigenvalues --   -1.14369  -1.00666  -0.86583  -0.80388  -0.76049
 Alpha  occ. eigenvalues --   -0.74178  -0.71166  -0.68969  -0.66317  -0.60111
 Alpha  occ. eigenvalues --   -0.58113  -0.55577  -0.51752  -0.45777  -0.44649
 Alpha  occ. eigenvalues --   -0.39320
 Alpha virt. eigenvalues --    0.01842   0.03114   0.04525   0.06600   0.07712
 Alpha virt. eigenvalues --    0.09961   0.10494   0.11220   0.12290   0.13126
 Alpha virt. eigenvalues --    0.13527   0.14069   0.14516   0.15854   0.16389

 Mulliken charges:
               1
     1  N   -0.222574
     2  C    0.462936
     3  C    1.179891
     4  O   -0.544665
     5  C    0.039389
     6  O   -0.299328
     7  N   -0.358875
     8  H   -0.020846
     9  H    0.001639
    10  H   -0.212063
    11  H   -0.025505
 Sum of Mulliken charges =  -0.00000

 Dipole moment (field-independent basis, Debye):
    X=              4.8984    Y=             -3.7087    Z=              1.0962  Tot=              6.2410

 Test job not archived.
 1\1\GINC-SE138\SP\RHF\Aug-CC-pVDZ\C3H4N2O2\OHZDE\09-Apr-2025\0\\#t hf
 aug-cc-pvdz iop(5/13=1,5/36=2,99/5=2) pseudo=read geom=check guess=(re
 ad,tcheck) scf=(maxcycle=1)\\title\\0,1\N,0,-1.63976381,-0.17613697,-0
 .34444264\C,0,-0.41434179,-0.44221728,0.22465181\C,0,0.46713462,0.7687
 8939,0.26330597\O,0,1.73161093,0.64521035,1.03546972\C,0,1.81567514,0.
 7509075,-0.27347025\O,0,2.62470717,0.783426,-1.13127034\N,0,0.00532401
 ,-1.5299121,0.71298984\H,0,-2.19689553,-0.96384255,-0.6268862\H,0,-1.7
 2632304,0.63130895,-0.93729796\H,0,-0.02983639,1.72270477,0.41865685\H

 Normal termination of Gaussian 16 at Wed Apr  9 15:45:46 2025.
