 Gaussian 16, Revision C.01,

 ----------------------------------------------------------------------
 #t hf aug-cc-pvdz symm=none int=(grid=ultrafine) guess=(read,tcheck) s
 table=(opt,rrhf)
 ----------------------------------------------------------------------
 -----
 title
 -----
 Symbolic Z-matrix:
 Charge =  0 Multiplicity = 1

 SCF Done:  E(RHF) =  -268.702603286     A.U. after   17 cycles
 Normal termination of Gaussian 16 at Wed Apr  9 03:16:37 2025.
 Gaussian 16:  ES64L-G16RevC.01  3-Jul-2019

 ----------------------------------------------------------------------
 #t hf aug-cc-pvdz iop(5/13=1,5/36=2,99/5=2) pseudo=read geom=check gue
 ss=(read,tcheck) scf=(maxcycle=1)
 ----------------------------------------------------------------------
 -----
 title
 -----
 Structure from the checkpoint file:  "Grambow2020_b97d3_007072_forward_mol1.chk"
 Charge =  0 Multiplicity = 1

                         Standard orientation:
 ---------------------------------------------------------------------
 Center     Atomic      Atomic             Coordinates (Angstroms)
 Number     Number       Type             X           Y           Z
 ---------------------------------------------------------------------
      1          6           0       -2.189804    0.053501    0.050640
      2          6           0       -0.735545    0.057836   -0.306106
      3          6           0        0.154994    1.155800   -0.026132
      4          6           0        1.518395    0.635123    0.016489
      5          8           0        1.505650   -0.693964   -0.033107
      6          6           0        0.077011   -1.167579    0.035355
      7          1           0       -2.752837   -0.684281   -0.546009
      8          1           0       -2.651723    1.034376   -0.134384
      9          1           0       -2.380505   -0.205705    1.118688
     10          1           0       -0.014278    2.180804   -0.368033
     11          1           0        0.384967    1.259036    1.138320
     12          1           0        2.480759    1.135000   -0.000937
     13          1           0       -0.061654   -1.546513    1.082453
     14          1           0       -0.000242   -2.029088   -0.646719
 ---------------------------------------------------------------------

 SCF Done:  E(RHF) =  -268.784508278     A.U. after    2 cycles

 The electronic state is 1-A.
 Alpha  occ. eigenvalues --  -20.65507 -11.40799 -11.29966 -11.27817 -11.20878
 Alpha  occ. eigenvalues --  -11.16558  -1.41756  -1.08799  -1.02023  -0.92327
 Alpha  occ. eigenvalues --   -0.82282  -0.78313  -0.72674  -0.68510  -0.64056
 Alpha  occ. eigenvalues --   -0.59056  -0.55589  -0.54849  -0.53572  -0.50784
 Alpha  occ. eigenvalues --   -0.49112  -0.46786  -0.21616
 Alpha virt. eigenvalues --    0.02580   0.04423   0.04824   0.05234   0.05730
 Alpha virt. eigenvalues --    0.06346   0.07070   0.07582   0.08284   0.10165
 Alpha virt. eigenvalues --    0.11523   0.12915   0.13437   0.13886   0.15295

 Mulliken charges:
               1
     1  C    0.443301
     2  C   -0.833513
     3  C    0.108762
     4  C    0.500429
     5  O   -0.595364
     6  C    0.763470
     7  H   -0.013150
     8  H   -0.069421
     9  H    0.014665
    10  H   -0.140504
    11  H    0.357263
    12  H   -0.260832
    13  H   -0.108511
    14  H   -0.166596
 Sum of Mulliken charges =  -0.00000

 Dipole moment (field-independent basis, Debye):
    X=              2.6461    Y=              1.9113    Z=              0.9399  Tot=              3.3968

 Test job not archived.
 1\1\GINC-SE054\SP\RHF\Aug-CC-pVDZ\C5H8O1\OHZDE\09-Apr-2025\0\\#t hf au
 g-cc-pvdz iop(5/13=1,5/36=2,99/5=2) pseudo=read geom=check guess=(read
 ,tcheck) scf=(maxcycle=1)\\title\\0,1\C,0,-1.77469344,0.40224049,-0.41
 995418\C,0,-0.35526243,-0.07407854,-0.44211815\C,0,0.78573184,0.803707
 65,-0.37433031\C,0,1.92035243,0.03545213,0.1298553\O,0,1.51903763,-1.1
 6554408,0.53685657\C,0,0.01547286,-1.22525229,0.46112047\H,0,-2.464100
 28,-0.35415972,-0.83213924\H,0,-1.9020412,1.31356846,-1.02243474\H,0,-
 2.14691877,0.62976065,0.60667243\H,0,0.96597035,1.62478276,-1.07399502

 Normal termination of Gaussian 16 at Wed Apr  9 03:16:41 2025.
