 Gaussian 16, Revision C.01,

 ----------------------------------------------------------------------
 #t hf aug-cc-pvdz symm=none int=(grid=ultrafine) guess=(read,tcheck) s
 table=(opt,rrhf)
 ----------------------------------------------------------------------
 -----
 title
 -----
 Symbolic Z-matrix:
 Charge =  0 Multiplicity = 1

 SCF Done:  E(RHF) =  -343.701168367     A.U. after   14 cycles
 Normal termination of Gaussian 16 at Wed Apr  9 15:38:03 2025.
 Gaussian 16:  ES64L-G16RevC.01  3-Jul-2019

 ----------------------------------------------------------------------
 #t hf aug-cc-pvdz iop(5/13=1,5/36=2,99/5=2) pseudo=read geom=check gue
 ss=(read,tcheck) scf=(maxcycle=1)
 ----------------------------------------------------------------------
 -----
 title
 -----
 Structure from the checkpoint file:  "Grambow2020_wb97xd3_007223_reverse_mol2.chk"
 Charge =  0 Multiplicity = 1

                         Standard orientation:
 ---------------------------------------------------------------------
 Center     Atomic      Atomic             Coordinates (Angstroms)
 Number     Number       Type             X           Y           Z
 ---------------------------------------------------------------------
      1          8           0        2.744930   -0.842641    0.295790
      2          6           0        1.393322   -0.558850   -0.022544
      3          6           0        1.145656    0.892254    0.234265
      4          6           0        0.579221    1.719143   -0.630057
      5          6           0       -2.364749    0.145688    1.140708
      6          6           0       -2.144546   -0.366559   -0.041572
      7          8           0       -1.951041   -0.826697   -1.084574
      8          1           0        2.877490   -1.790420    0.251544
      9          1           0        0.718389   -1.153733    0.609299
     10          1           0        1.167174   -0.796399   -1.068885
     11          1           0        1.461705    1.249500    1.211028
     12          1           0        0.402319    2.759641   -0.386289
     13          1           0        0.272683    1.384712   -1.615837
     14          1           0       -3.175277   -0.235850    1.741471
     15          1           0       -1.729023    0.947194    1.483139
 ---------------------------------------------------------------------

 SCF Done:  E(RHF) =  -343.813860251     A.U. after    2 cycles

 The electronic state is 1-A.
 Alpha  occ. eigenvalues --  -20.64510 -20.57504 -11.39722 -11.29268 -11.24850
 Alpha  occ. eigenvalues --  -11.24666 -11.23856  -1.44544  -1.32749  -1.06226
 Alpha  occ. eigenvalues --   -1.05039  -0.92246  -0.77232  -0.77104  -0.71304
 Alpha  occ. eigenvalues --   -0.68569  -0.66859  -0.66583  -0.66259  -0.62636
 Alpha  occ. eigenvalues --   -0.58177  -0.57427  -0.55216  -0.49279  -0.46991
 Alpha  occ. eigenvalues --   -0.37858  -0.37191
 Alpha virt. eigenvalues --    0.03228   0.04147   0.04527   0.05233   0.06623
 Alpha virt. eigenvalues --    0.07002   0.07251   0.07624   0.08404   0.10875
 Alpha virt. eigenvalues --    0.12385   0.13093   0.13227   0.13582   0.14689

 Mulliken charges:
               1
     1  O   -0.555205
     2  C    0.725943
     3  C    0.473182
     4  C    0.509416
     5  C    0.791277
     6  C   -0.112297
     7  O   -0.262170
     8  H    0.130031
     9  H   -0.072711
    10  H   -0.174495
    11  H   -0.384797
    12  H   -0.334421
    13  H   -0.342741
    14  H   -0.211851
    15  H   -0.179161
 Sum of Mulliken charges =  -0.00000

 Dipole moment (field-independent basis, Debye):
    X=             -1.4377    Y=             -0.5189    Z=              1.4078  Tot=              2.0780

 Test job not archived.
 1\1\GINC-SE041\SP\RHF\Aug-CC-pVDZ\C5H8O2\OHZDE\09-Apr-2025\0\\#t hf au
 g-cc-pvdz iop(5/13=1,5/36=2,99/5=2) pseudo=read geom=check guess=(read
 ,tcheck) scf=(maxcycle=1)\\title\\0,1\O,0,2.64744366,-0.40962494,0.828
 18866\C,0,1.44167227,-0.3444709,0.08617346\C,0,0.67306307,0.85233913,0
 .54429917\C,0,0.16190328,1.76763271,-0.26353644\C,0,-2.50771977,-0.904
 62509,-0.16114033\C,0,-1.78482128,-0.94410232,-1.2495026\O,0,-1.145104
 32,-0.98667307,-2.21177776\H,0,3.0856646,-1.23777649,0.62833329\H,0,0.
 83640232,-1.24566856,0.25977306\H,0,1.63450897,-0.27405074,-0.99097916

 Normal termination of Gaussian 16 at Wed Apr  9 15:38:09 2025.
