 Gaussian 16, Revision C.01,

 ----------------------------------------------------------------------
 #t hf aug-cc-pvdz symm=none int=(grid=ultrafine) guess=(read,tcheck) s
 table=(opt,rrhf)
 ----------------------------------------------------------------------
 -----
 title
 -----
 Symbolic Z-matrix:
 Charge =  0 Multiplicity = 1

 SCF Done:  E(RHF) =  -264.902757432     A.U. after   16 cycles
 Normal termination of Gaussian 16 at Wed Apr  9 03:07:56 2025.
 Gaussian 16:  ES64L-G16RevC.01  3-Jul-2019

 ----------------------------------------------------------------------
 #t hf aug-cc-pvdz iop(5/13=1,5/36=2,99/5=2) pseudo=read geom=check gue
 ss=(read,tcheck) scf=(maxcycle=1)
 ----------------------------------------------------------------------
 -----
 title
 -----
 Structure from the checkpoint file:  "Grambow2020_b97d3_006629_forward_mol1.chk"
 Charge =  0 Multiplicity = 1

                         Standard orientation:
 ---------------------------------------------------------------------
 Center     Atomic      Atomic             Coordinates (Angstroms)
 Number     Number       Type             X           Y           Z
 ---------------------------------------------------------------------
      1          6           0       -1.985752   -0.489451   -0.215942
      2          6           0       -0.928427   -1.294662    0.200830
      3          6           0        1.114468    0.014771    0.480435
      4          7           0        2.023035   -0.613743   -0.403224
      5          6           0        0.390424    1.145910    0.192921
      6          7           0       -0.608153    1.768643   -0.124355
      7          1           0       -2.799637   -0.282742    0.483459
      8          1           0       -2.279039   -0.527261   -1.269427
      9          1           0       -1.424578    0.886371   -0.263274
     10          1           0       -0.841308   -1.609687    1.240090
     11          1           0       -0.312915   -1.843143   -0.510129
     12          1           0        1.291618   -0.198557    1.535152
     13          1           0        1.921510   -0.271586   -1.358169
     14          1           0        2.995894   -0.497106   -0.114119
 ---------------------------------------------------------------------

 SCF Done:  E(RHF) =  -264.982445460     A.U. after    2 cycles

 The electronic state is 1-A.
 Alpha  occ. eigenvalues --  -15.64360 -15.63572 -11.30346 -11.29473 -11.27371
 Alpha  occ. eigenvalues --  -11.23219  -1.20326  -1.16781  -1.02651  -0.95062
 Alpha  occ. eigenvalues --   -0.81193  -0.73909  -0.68484  -0.65196  -0.64071
 Alpha  occ. eigenvalues --   -0.59992  -0.58272  -0.54778  -0.51561  -0.46302
 Alpha  occ. eigenvalues --   -0.44636  -0.35928  -0.31429
 Alpha virt. eigenvalues --    0.03071   0.03853   0.04329   0.05439   0.06409
 Alpha virt. eigenvalues --    0.06678   0.07902   0.08361   0.09440   0.11557
 Alpha virt. eigenvalues --    0.12072   0.13315   0.14143   0.14770   0.15087

 Mulliken charges:
               1
     1  C    0.102981
     2  C    0.611857
     3  C    0.774975
     4  N   -0.391985
     5  C   -0.206809
     6  N   -0.357269
     7  H   -0.139202
     8  H   -0.126816
     9  H    0.360273
    10  H   -0.213626
    11  H   -0.233394
    12  H   -0.208542
    13  H    0.015000
    14  H    0.012556
 Sum of Mulliken charges =  -0.00000

 Dipole moment (field-independent basis, Debye):
    X=              1.6820    Y=             -2.1692    Z=              0.2010  Tot=              2.7522

 Test job not archived.
 1\1\GINC-SE188\SP\RHF\Aug-CC-pVDZ\C4H8N2\OHZDE\09-Apr-2025\0\\#t hf au
 g-cc-pvdz iop(5/13=1,5/36=2,99/5=2) pseudo=read geom=check guess=(read
 ,tcheck) scf=(maxcycle=1)\\title\\0,1\C,0,-1.83816973,0.15575958,0.000
 69694\C,0,-0.89910632,-0.75142571,0.4856447\C,0,1.36062918,0.16501829,
 0.34442714\N,0,2.03946219,-0.77586343,-0.4650817\C,0,0.81936949,1.3450
 1564,-0.1039291\N,0,-0.08319783,2.08262776,-0.46018447\H,0,-2.51931081
 ,0.63842764,0.70594742\H,0,-2.24980396,-0.01252304,-0.99906051\H,0,-1.
 05250913,1.36529267,-0.35959736\H,0,-0.75279486,-0.88597144,1.55680373

 Normal termination of Gaussian 16 at Wed Apr  9 03:08:00 2025.
