 Gaussian 16, Revision C.01,

 ----------------------------------------------------------------------
 #t hf aug-cc-pvdz symm=none int=(grid=ultrafine) guess=(read,tcheck) s
 table=(opt,rrhf)
 ----------------------------------------------------------------------
 -----
 title
 -----
 Symbolic Z-matrix:
 Charge =  0 Multiplicity = 1

 SCF Done:  E(RHF) =  -308.918197982     A.U. after   16 cycles

 1\1\GINC-SE069\Stability\RHF\Aug-CC-pVDZ\C6H12O1\OHZDE\09-Apr-2025\0\\
 #t hf aug-cc-pvdz symm=none int=(grid=ultrafine) guess=(read,tcheck) s
 table=(opt,rrhf)\\title\\0,1\C,0,-1.258555,-1.56123225,-1.04010948\C,0
 ,-0.47914064,-0.4689676,-0.35527292\C,0,-0.93029462,0.21480909,0.90684
 198\C,0,-0.37278768,1.69264424,0.70337857\O,0,0.22688011,1.77463939,-0
 .54311893\C,0,0.89456787,-0.23857267,-0.61001238\C,0,2.0141073,-0.0830
 7682,0.35643423\H,0,-2.31151948,-1.28708129,-1.12582898\H,0,-0.8781922
 3,-1.75143694,-2.04670732\H,0,-1.20920804,-2.50311917,-0.48661214\H,0,

 Normal termination of Gaussian 16 at Wed Apr  9 03:27:46 2025.
 Gaussian 16:  ES64L-G16RevC.01  3-Jul-2019

 ----------------------------------------------------------------------
 #t hf aug-cc-pvdz iop(5/13=1,5/36=2,99/5=2) pseudo=read geom=check gue
 ss=(read,tcheck) scf=(maxcycle=1)
 ----------------------------------------------------------------------
 -----
 title
 -----
 Structure from the checkpoint file:  "Grambow2020_wb97xd3_006724_forward_mol1.chk"
 Charge =  0 Multiplicity = 1

                         Standard orientation:
 ---------------------------------------------------------------------
 Center     Atomic      Atomic             Coordinates (Angstroms)
 Number     Number       Type             X           Y           Z
 ---------------------------------------------------------------------
      1          6           0        2.362075    0.012513   -0.159889
      2          6           0        0.865905   -0.028364    0.011383
      3          6           0        0.150758   -1.027518    0.879875
      4          6           0       -1.210567   -1.248075    0.083409
      5          8           0       -1.166488   -0.507947   -1.087209
      6          6           0        0.030969    1.066560   -0.318879
      7          6           0       -1.032668    1.713346    0.494701
      8          1           0        2.755421   -0.987924   -0.348689
      9          1           0        2.650033    0.650324   -0.999157
     10          1           0        2.862292    0.398177    0.732855
     11          1           0        0.236530   -0.414881   -1.030602
     12          1           0       -0.049854   -0.679686    1.895643
     13          1           0        0.729445   -1.950072    0.961442
     14          1           0       -2.067693   -0.963640    0.709000
     15          1           0       -1.319951   -2.314514   -0.143593
     16          1           0        0.374795    1.671636   -1.158427
     17          1           0       -1.476215    1.048209    1.230807
     18          1           0       -0.547050    2.536099    1.035702
     19          1           0       -1.814681    2.139077   -0.130910
 ---------------------------------------------------------------------

 SCF Done:  E(RHF) =  -309.013038246     A.U. after    2 cycles

 The electronic state is 1-A.
 Alpha  occ. eigenvalues --  -20.49036 -11.34571 -11.25449 -11.25185 -11.24218
 Alpha  occ. eigenvalues --  -11.23088 -11.22374  -1.24916  -1.10975  -1.02054
 Alpha  occ. eigenvalues --   -0.96049  -0.91396  -0.80970  -0.74071  -0.67385
 Alpha  occ. eigenvalues --   -0.65073  -0.62350  -0.60715  -0.57586  -0.56945
 Alpha  occ. eigenvalues --   -0.55504  -0.54213  -0.52560  -0.50696  -0.48616
 Alpha  occ. eigenvalues --   -0.43534  -0.37659  -0.33602
 Alpha virt. eigenvalues --    0.02762   0.03979   0.04338   0.04869   0.05910
 Alpha virt. eigenvalues --    0.06150   0.06642   0.06940   0.07914   0.08605
 Alpha virt. eigenvalues --    0.09032   0.09491   0.10001   0.12822   0.13030

 Mulliken charges:
               1
     1  C    0.742261
     2  C   -0.895074
     3  C    0.422683
     4  C    0.944470
     5  O   -0.891053
     6  C   -0.293798
     7  C    0.329571
     8  H    0.032579
     9  H   -0.005556
    10  H   -0.002790
    11  H    0.755682
    12  H   -0.085842
    13  H   -0.125401
    14  H   -0.186776
    15  H   -0.275422
    16  H   -0.451248
    17  H   -0.117349
    18  H    0.076091
    19  H    0.026971
 Sum of Mulliken charges =  -0.00000

 Dipole moment (field-independent basis, Debye):
    X=              2.3361    Y=              2.6081    Z=              2.1206  Tot=              4.0935

 Test job not archived.
 1\1\GINC-SE069\SP\RHF\Aug-CC-pVDZ\C6H12O1\OHZDE\09-Apr-2025\0\\#t hf a
 ug-cc-pvdz iop(5/13=1,5/36=2,99/5=2) pseudo=read geom=check guess=(rea
 d,tcheck) scf=(maxcycle=1)\\title\\0,1\C,0,-1.258555,-1.56123225,-1.04
 010948\C,0,-0.47914064,-0.4689676,-0.35527292\C,0,-0.93029462,0.214809
 09,0.90684198\C,0,-0.37278768,1.69264424,0.70337857\O,0,0.22688011,1.7
 7463939,-0.54311893\C,0,0.89456787,-0.23857267,-0.61001238\C,0,2.01410
 73,-0.08307682,0.35643423\H,0,-2.31151948,-1.28708129,-1.12582898\H,0,
 -0.87819223,-1.75143694,-2.04670732\H,0,-1.20920804,-2.50311917,-0.486

 Normal termination of Gaussian 16 at Wed Apr  9 03:27:54 2025.
