 Gaussian 16, Revision C.01,

 ----------------------------------------------------------------------
 #t hf aug-cc-pvdz symm=none int=(grid=ultrafine) guess=(read,tcheck) s
 table=(opt,rrhf)
 ----------------------------------------------------------------------
 -----
 title
 -----
 Symbolic Z-matrix:
 Charge =  0 Multiplicity = 1

 SCF Done:  E(RHF) =  -338.697405322     A.U. after   15 cycles
 Normal termination of Gaussian 16 at Wed Apr  9 15:19:51 2025.
 Gaussian 16:  ES64L-G16RevC.01  3-Jul-2019

 ----------------------------------------------------------------------
 #t hf aug-cc-pvdz iop(5/13=1,5/36=2,99/5=2) pseudo=read geom=check gue
 ss=(read,tcheck) scf=(maxcycle=1)
 ----------------------------------------------------------------------
 -----
 title
 -----
 Structure from the checkpoint file:  "Grambow2020_wb97xd3_006849_reverse_mol2.chk"
 Charge =  0 Multiplicity = 1

                         Standard orientation:
 ---------------------------------------------------------------------
 Center     Atomic      Atomic             Coordinates (Angstroms)
 Number     Number       Type             X           Y           Z
 ---------------------------------------------------------------------
      1          7           0        2.364684   -0.562930   -0.030869
      2          6           0        1.049552   -0.239782    0.007807
      3          6           0        0.655821    1.224951    0.018623
      4          7           0       -0.779479    1.113759   -0.093052
      5          6           0       -1.065927   -0.210166   -0.023385
      6          8           0       -2.351505   -0.523671    0.031981
      7          6           0       -0.006519   -1.116822   -0.020070
      8          1           0        3.073108    0.100213    0.222174
      9          1           0        2.588243   -1.538523    0.056349
     10          1           0        0.948712    1.721609    0.949109
     11          1           0       -1.414121    1.817937    0.240417
     12          1           0       -2.367755   -1.489107    0.067936
     13          1           0        1.089857    1.772354   -0.822230
 ---------------------------------------------------------------------

 SCF Done:  E(RHF) =  -338.800121406     A.U. after    2 cycles

 The electronic state is 1-A.
 Alpha  occ. eigenvalues --  -20.62327 -15.65535 -15.64075 -11.36523 -11.30052
 Alpha  occ. eigenvalues --  -11.29346 -11.14910  -1.40748  -1.25691  -1.19086
 Alpha  occ. eigenvalues --   -1.01550  -0.97640  -0.82768  -0.80017  -0.74550
 Alpha  occ. eigenvalues --   -0.71256  -0.67746  -0.65956  -0.61506  -0.60675
 Alpha  occ. eigenvalues --   -0.57714  -0.52994  -0.48816  -0.44292  -0.31126
 Alpha  occ. eigenvalues --   -0.29541
 Alpha virt. eigenvalues --    0.02531   0.03590   0.04636   0.04884   0.06268
 Alpha virt. eigenvalues --    0.07228   0.09803   0.11902   0.12076   0.12475
 Alpha virt. eigenvalues --    0.12767   0.13447   0.14538   0.14889   0.16205

 Mulliken charges:
               1
     1  N   -0.329668
     2  C    0.452722
     3  C    0.925713
     4  N   -0.446452
     5  C    0.906855
     6  O   -0.505167
     7  C   -0.860802
     8  H   -0.058579
     9  H   -0.022890
    10  H   -0.069785
    11  H   -0.102290
    12  H    0.189372
    13  H   -0.079027
 Sum of Mulliken charges =  -0.00000

 Dipole moment (field-independent basis, Debye):
    X=              1.8021    Y=              3.8207    Z=              1.1975  Tot=              4.3909

 Test job not archived.
 1\1\GINC-SE114\SP\RHF\Aug-CC-pVDZ\C4H6N2O1\OHZDE\09-Apr-2025\0\\#t hf
 aug-cc-pvdz iop(5/13=1,5/36=2,99/5=2) pseudo=read geom=check guess=(re
 ad,tcheck) scf=(maxcycle=1)\\title\\0,1\N,0,-2.00368712,0.90028897,-0.
 08120685\C,0,-0.73175882,0.44681821,0.02858533\C,0,-0.35829386,-0.8567
 6999,-0.65094697\N,0,1.06656533,-0.87764021,-0.41800316\C,0,1.33765083
 ,0.18327432,0.38240638\O,0,2.58054927,0.26858215,0.83183754\C,0,0.3089
 3637,1.08307116,0.65898149\H,0,-2.75423689,0.29095063,-0.34773284\H,0,
 -2.23567786,1.71610071,0.45730983\H,0,-0.85318317,-1.71681509,-0.18870

 Normal termination of Gaussian 16 at Wed Apr  9 15:19:56 2025.
