 Gaussian 16, Revision C.01,

 ----------------------------------------------------------------------
 #t hf aug-cc-pvdz symm=none int=(grid=ultrafine) guess=(read,tcheck) s
 table=(opt,rrhf)
 ----------------------------------------------------------------------
 -----
 title
 -----
 Symbolic Z-matrix:
 Charge =  0 Multiplicity = 1

 SCF Done:  E(RHF) =  -323.852532098     A.U. after   14 cycles
 Normal termination of Gaussian 16 at Wed Apr  9 15:58:06 2025.
 Gaussian 16:  ES64L-G16RevC.01  3-Jul-2019

 ----------------------------------------------------------------------
 #t hf aug-cc-pvdz iop(5/13=1,5/36=2,99/5=2) pseudo=read geom=check gue
 ss=(read,tcheck) scf=(maxcycle=1)
 ----------------------------------------------------------------------
 -----
 title
 -----
 Structure from the checkpoint file:  "Grambow2020_wb97xd3_007606_reverse_mol2.chk"
 Charge =  0 Multiplicity = 1

                         Standard orientation:
 ---------------------------------------------------------------------
 Center     Atomic      Atomic             Coordinates (Angstroms)
 Number     Number       Type             X           Y           Z
 ---------------------------------------------------------------------
      1          6           0        2.278801    1.145357   -0.193278
      2          6           0        2.398681   -0.310706    0.136189
      3          7           0        1.299727   -1.010851    0.016181
      4          6           0       -0.055722   -0.620763   -0.395795
      5          6           0       -0.845151   -0.012754    0.752082
      6          6           0       -2.252261    0.360369    0.379728
      7          8           0       -2.734581    0.186942   -0.705832
      8          1           0        1.357825    1.514519   -0.661923
      9          1           0        2.430022    1.687170    0.746146
     10          1           0        3.128390    1.425847   -0.818286
     11          1           0       -0.004317    0.075062   -1.231173
     12          1           0        1.382200   -1.987562    0.256686
     13          1           0       -0.563373   -1.510769   -0.768440
     14          1           0       -0.351166    0.885079    1.139723
     15          1           0       -0.898743   -0.700882    1.603874
     16          1           0       -2.848359    0.822938    1.193227
 ---------------------------------------------------------------------

 SCF Done:  E(RHF) =  -323.953463319     A.U. after    2 cycles

 The electronic state is 1-A.
 Alpha  occ. eigenvalues --  -20.58780 -15.66854 -11.35869 -11.28938 -11.26820
 Alpha  occ. eigenvalues --  -11.25196 -11.22811  -1.37968  -1.23174  -1.06778
 Alpha  occ. eigenvalues --   -0.98797  -0.92583  -0.80547  -0.78014  -0.71672
 Alpha  occ. eigenvalues --   -0.67294  -0.66554  -0.63195  -0.60581  -0.58348
 Alpha  occ. eigenvalues --   -0.55934  -0.55014  -0.53201  -0.51482  -0.46524
 Alpha  occ. eigenvalues --   -0.42944  -0.32751
 Alpha virt. eigenvalues --    0.02751   0.03710   0.04186   0.04911   0.06162
 Alpha virt. eigenvalues --    0.06482   0.07176   0.08150   0.08570   0.10135
 Alpha virt. eigenvalues --    0.10971   0.11916   0.12455   0.12784   0.13610

 Mulliken charges:
               1
     1  C    0.525664
     2  C   -0.261533
     3  N   -0.174803
     4  C    0.748728
     5  C   -0.060221
     6  C    0.572328
     7  O   -0.445639
     8  H   -0.280922
     9  H   -0.017544
    10  H   -0.090047
    11  H   -0.172692
    12  H   -0.027857
    13  H   -0.186365
    14  H   -0.004350
    15  H    0.011922
    16  H   -0.136669
 Sum of Mulliken charges =   0.00000

 Dipole moment (field-independent basis, Debye):
    X=             -1.4493    Y=              0.2670    Z=              2.0246  Tot=              2.5042

 Test job not archived.
 1\1\GINC-SE100\SP\RHF\Aug-CC-pVDZ\C5H9N1O1\OHZDE\09-Apr-2025\0\\#t hf
 aug-cc-pvdz iop(5/13=1,5/36=2,99/5=2) pseudo=read geom=check guess=(re
 ad,tcheck) scf=(maxcycle=1)\\title\\0,1\C,0,-1.88949231,0.12908564,1.3
 016906\C,0,-1.92758054,1.05539615,0.12545174\N,0,-1.03805936,0.8246953
 9,-0.80612396\C,0,0.00855312,-0.2012779,-0.91155889\C,0,1.25971378,0.1
 8240216,-0.13833049\C,0,2.36925751,-0.82388973,-0.25713733\O,0,2.30464
 747,-1.83000111,-0.90883867\H,0,-1.25720101,-0.76667993,1.25790068\H,0
 ,-1.57485875,0.73292763,2.15920182\H,0,-2.91245214,-0.17334979,1.53233

 Normal termination of Gaussian 16 at Wed Apr  9 15:58:12 2025.
