 Gaussian 16, Revision C.01,

 ----------------------------------------------------------------------
 #t hf aug-cc-pvdz symm=none int=(grid=ultrafine) guess=(read,tcheck) s
 table=(opt,rrhf)
 ----------------------------------------------------------------------
 -----
 title
 -----
 Symbolic Z-matrix:
 Charge =  0 Multiplicity = 1

 SCF Done:  E(RHF) =  -302.157037607     A.U. after   18 cycles
 Normal termination of Gaussian 16 at Wed Apr  9 13:49:38 2025.
 Gaussian 16:  ES64L-G16RevC.01  3-Jul-2019

 ----------------------------------------------------------------------
 #t hf aug-cc-pvdz iop(5/13=1,5/36=2,99/5=2) pseudo=read geom=check gue
 ss=(read,tcheck) scf=(maxcycle=1)
 ----------------------------------------------------------------------
 -----
 title
 -----
 Structure from the checkpoint file:  "Grambow2020_b97d3_006707_reverse_mol1.chk"
 Charge =  0 Multiplicity = 1

                         Standard orientation:
 ---------------------------------------------------------------------
 Center     Atomic      Atomic             Coordinates (Angstroms)
 Number     Number       Type             X           Y           Z
 ---------------------------------------------------------------------
      1          8           0       -2.353855   -0.367207    0.016655
      2          6           0       -1.212312   -0.022737    0.112383
      3          6           0       -0.343706    1.098539   -0.066450
      4          6           0        0.951196    1.155957   -0.111370
      5          6           0        1.710096   -0.027275    0.131993
      6          8           0        1.186006   -1.164214   -0.140584
      7          1           0        0.010796   -0.947463   -0.003849
      8          1           0        2.700354   -0.028073    0.595941
 ---------------------------------------------------------------------

 SCF Done:  E(RHF) =  -302.247772945     A.U. after    2 cycles

 The electronic state is 1-A.
 Alpha  occ. eigenvalues --  -20.66946 -20.62264 -11.43169 -11.39164 -11.32355
 Alpha  occ. eigenvalues --  -11.28145  -1.43483  -1.40088  -1.11951  -0.98191
 Alpha  occ. eigenvalues --   -0.85980  -0.79521  -0.73954  -0.71418  -0.67787
 Alpha  occ. eigenvalues --   -0.62861  -0.60125  -0.56698  -0.44912  -0.43577
 Alpha  occ. eigenvalues --   -0.36168
 Alpha virt. eigenvalues --   -0.00846   0.02146   0.02726   0.06076   0.07495
 Alpha virt. eigenvalues --    0.07667   0.09279   0.10059   0.11296   0.11999
 Alpha virt. eigenvalues --    0.12966   0.14310   0.14395   0.14776   0.16085

 Mulliken charges:
               1
     1  O   -0.344984
     2  C   -0.144358
     3  C    0.211376
     4  C   -0.318632
     5  C    0.797927
     6  O   -0.601226
     7  H    0.491205
     8  H   -0.091307
 Sum of Mulliken charges =  -0.00000

 Dipole moment (field-independent basis, Debye):
    X=              3.7177    Y=             -0.0559    Z=              1.0825  Tot=              3.8725

 Test job not archived.
 1\1\GINC-SE054\SP\RHF\Aug-CC-pVDZ\C4H2O2\OHZDE\09-Apr-2025\0\\#t hf au
 g-cc-pvdz iop(5/13=1,5/36=2,99/5=2) pseudo=read geom=check guess=(read
 ,tcheck) scf=(maxcycle=1)\\title\\0,1\O,0,-2.51515359,-0.6586882,0.540
 68561\C,0,-1.45878062,-0.16594241,0.27194375\C,0,-0.8533263,0.88395884
 ,-0.48624439\C,0,0.38908956,1.07879179,-0.80330611\C,0,1.38681456,0.20
 16595,-0.28332847\O,0,1.06043321,-1.00330886,0.00498671\H,0,-0.1063749
 4,-0.89778111,0.27741811\H,0,2.41067013,0.51306245,-0.05837021\\Versio
 n=ES64L-G16RevC.01\State=1-A\HF=-302.2477729\RMSD=5.776e-03\Dipole=1.4

 Normal termination of Gaussian 16 at Wed Apr  9 13:49:41 2025.
