 Gaussian 16, Revision C.01,

 ----------------------------------------------------------------------
 #t hf aug-cc-pvdz symm=none int=(grid=ultrafine) guess=(read,tcheck) s
 table=(opt,rrhf)
 ----------------------------------------------------------------------
 -----
 title
 -----
 Symbolic Z-matrix:
 Charge =  0 Multiplicity = 1

 SCF Done:  E(RHF) =  -339.247681067     A.U. after   17 cycles
 Normal termination of Gaussian 16 at Wed Apr  9 14:11:54 2025.
 Gaussian 16:  ES64L-G16RevC.01  3-Jul-2019

 ----------------------------------------------------------------------
 #t hf aug-cc-pvdz iop(5/13=1,5/36=2,99/5=2) pseudo=read geom=check gue
 ss=(read,tcheck) scf=(maxcycle=1)
 ----------------------------------------------------------------------
 -----
 title
 -----
 Structure from the checkpoint file:  "Grambow2020_b97d3_006815_reverse_mol1.chk"
 Charge =  0 Multiplicity = 1

                         Standard orientation:
 ---------------------------------------------------------------------
 Center     Atomic      Atomic             Coordinates (Angstroms)
 Number     Number       Type             X           Y           Z
 ---------------------------------------------------------------------
      1          8           0        0.944301    1.012835    0.158926
      2          6           0       -0.157753    1.496177   -0.280149
      3          6           0       -1.272819   -0.367536    0.154584
      4          8           0       -2.400007   -0.528506   -0.062689
      5          6           0        1.083759   -0.511864    0.394427
      6          8           0        1.584779   -1.194511   -0.445148
      7          1           0       -0.017733    2.609691   -0.308338
      8          1           0        1.066023   -0.628894    1.486455
 ---------------------------------------------------------------------

 SCF Done:  E(RHF) =  -339.353940416     A.U. after    2 cycles

 The electronic state is 1-A.
 Alpha  occ. eigenvalues --  -20.67969 -20.65636 -20.62107 -11.45265 -11.37467
 Alpha  occ. eigenvalues --  -11.34582  -1.45238  -1.44663  -1.39746  -0.97084
 Alpha  occ. eigenvalues --   -0.83752  -0.79556  -0.74462  -0.72406  -0.68737
 Alpha  occ. eigenvalues --   -0.63807  -0.62430  -0.61986  -0.59856  -0.54892
 Alpha  occ. eigenvalues --   -0.52038  -0.36792
 Alpha virt. eigenvalues --    0.02920   0.04128   0.04982   0.07157   0.08799
 Alpha virt. eigenvalues --    0.09683   0.10400   0.10709   0.11260   0.12929
 Alpha virt. eigenvalues --    0.13771   0.14617   0.14997   0.16171   0.16845

 Mulliken charges:
               1
     1  O   -0.543106
     2  C    0.274091
     3  C    0.207183
     4  O   -0.289039
     5  C    0.946929
     6  O   -0.413729
     7  H   -0.120334
     8  H   -0.061994
 Sum of Mulliken charges =  -0.00000

 Dipole moment (field-independent basis, Debye):
    X=              0.6398    Y=              1.7742    Z=              2.5074  Tot=              3.1376

 Test job not archived.
 1\1\GINC-SE120\SP\RHF\Aug-CC-pVDZ\C3H2O3\OHZDE\09-Apr-2025\0\\#t hf au
 g-cc-pvdz iop(5/13=1,5/36=2,99/5=2) pseudo=read geom=check guess=(read
 ,tcheck) scf=(maxcycle=1)\\title\\0,1\O,0,-0.70414992,-0.56146951,0.73
 923698\C,0,-0.94169975,0.69669306,0.70017905\C,0,0.49208982,1.02502011
 ,-0.95579329\O,0,0.72148877,2.05473584,-1.4361409\C,0,0.53786387,-1.13
 949297,0.01611333\O,0,1.53879959,-1.33948092,0.63259251\H,0,-1.9125910
 4,0.84522439,1.24388987\H,0,0.13353166,-1.65374699,-0.86626754\\Versio
 n=ES64L-G16RevC.01\State=1-A\HF=-339.3539404\RMSD=2.522e-03\Dipole=-1.

 Normal termination of Gaussian 16 at Wed Apr  9 14:11:57 2025.
