 Gaussian 16, Revision C.01,

 ----------------------------------------------------------------------
 #t hf aug-cc-pvdz symm=none int=(grid=ultrafine) guess=(read,tcheck) s
 table=(opt,rrhf)
 ----------------------------------------------------------------------
 -----
 title
 -----
 Symbolic Z-matrix:
 Charge =  0 Multiplicity = 1

 SCF Done:  E(RHF) =  -283.527914001     A.U. after   16 cycles
 Normal termination of Gaussian 16 at Wed Apr  9 14:19:04 2025.
 Gaussian 16:  ES64L-G16RevC.01  3-Jul-2019

 ----------------------------------------------------------------------
 #t hf aug-cc-pvdz iop(5/13=1,5/36=2,99/5=2) pseudo=read geom=check gue
 ss=(read,tcheck) scf=(maxcycle=1)
 ----------------------------------------------------------------------
 -----
 title
 -----
 Structure from the checkpoint file:  "Grambow2020_b97d3_007172_forward_mol1.chk"
 Charge =  0 Multiplicity = 1

                         Standard orientation:
 ---------------------------------------------------------------------
 Center     Atomic      Atomic             Coordinates (Angstroms)
 Number     Number       Type             X           Y           Z
 ---------------------------------------------------------------------
      1          6           0        2.300067   -0.167657   -0.007966
      2          7           0        0.936088   -0.684570    0.002777
      3          6           0       -0.150795    0.094224    0.010338
      4          8           0       -0.124446    1.391143    0.000027
      5          6           0       -1.508326   -0.317642    0.014790
      6          6           0       -2.770507   -0.549625   -0.017906
      7          1           0        2.886066   -0.682835   -0.779587
      8          1           0        2.781350   -0.308841    0.969899
      9          1           0        2.257556    0.900992   -0.236536
     10          1           0        0.786801   -1.687251    0.030684
     11          1           0       -1.491459    1.084984    0.000358
 ---------------------------------------------------------------------

 SCF Done:  E(RHF) =  -283.613136288     A.U. after    2 cycles

 The electronic state is 1-A.
 Alpha  occ. eigenvalues --  -20.59641 -15.70835 -11.43601 -11.30994 -11.29052
 Alpha  occ. eigenvalues --  -11.23234  -1.39041  -1.25081  -1.05654  -0.98894
 Alpha  occ. eigenvalues --   -0.87017  -0.82740  -0.69989  -0.66795  -0.65265
 Alpha  occ. eigenvalues --   -0.59760  -0.58747  -0.57459  -0.45379  -0.44680
 Alpha  occ. eigenvalues --   -0.41398  -0.39283
 Alpha virt. eigenvalues --    0.01999   0.03780   0.04313   0.05188   0.07409
 Alpha virt. eigenvalues --    0.07587   0.08770   0.10145   0.11035   0.11409
 Alpha virt. eigenvalues --    0.11502   0.13592   0.14735   0.14839   0.15773

 Mulliken charges:
               1
     1  C    0.670215
     2  N   -0.328016
     3  C    0.454271
     4  O   -0.718848
     5  C    0.004403
     6  C   -0.267301
     7  H   -0.094905
     8  H   -0.054661
     9  H   -0.127987
    10  H   -0.046222
    11  H    0.509051
 Sum of Mulliken charges =  -0.00000

 Dipole moment (field-independent basis, Debye):
    X=              5.6298    Y=             -2.1663    Z=              0.0374  Tot=              6.0324

 Test job not archived.
 1\1\GINC-SE112\SP\RHF\Aug-CC-pVDZ\C4H5N1O1\OHZDE\09-Apr-2025\0\\#t hf
 aug-cc-pvdz iop(5/13=1,5/36=2,99/5=2) pseudo=read geom=check guess=(re
 ad,tcheck) scf=(maxcycle=1)\\title\\0,1\C,0,-1.77422913,0.12507016,-0.
 21326035\N,0,-0.37113385,0.40619413,-0.49618659\C,0,0.64442893,-0.1376
 3137,0.18261955\O,0,0.50668837,-0.97985119,1.15960053\C,0,2.0321527,0.
 0712986,-0.02502085\C,0,3.3099695,0.14017962,-0.12713434\H,0,-2.301936
 2,-0.10640791,-1.147148\H,0,-2.2563395,0.98389092,0.27436826\H,0,-1.82
 041361,-0.739781,0.45454213\H,0,-0.13652259,1.06687836,-1.22891229\H,0

 Normal termination of Gaussian 16 at Wed Apr  9 14:19:08 2025.
