 Gaussian 16, Revision C.01,

 ----------------------------------------------------------------------
 #t hf aug-cc-pvdz symm=none int=(grid=ultrafine) guess=(read,tcheck) s
 table=(opt,rrhf)
 ----------------------------------------------------------------------
 -----
 title
 -----
 Symbolic Z-matrix:
 Charge =  0 Multiplicity = 1

 SCF Done:  E(RHF) =  -336.291466982     A.U. after   16 cycles
 Normal termination of Gaussian 16 at Wed Apr  9 03:45:40 2025.
 Gaussian 16:  ES64L-G16RevC.01  3-Jul-2019

 ----------------------------------------------------------------------
 #t hf aug-cc-pvdz iop(5/13=1,5/36=2,99/5=2) pseudo=read geom=check gue
 ss=(read,tcheck) scf=(maxcycle=1)
 ----------------------------------------------------------------------
 -----
 title
 -----
 Structure from the checkpoint file:  "Grambow2020_wb97xd3_007923_forward_mol1.chk"
 Charge =  0 Multiplicity = 1

                         Standard orientation:
 ---------------------------------------------------------------------
 Center     Atomic      Atomic             Coordinates (Angstroms)
 Number     Number       Type             X           Y           Z
 ---------------------------------------------------------------------
      1          7           0        1.098980    1.352497    0.002250
      2          6           0        1.128541    0.007803   -0.000003
      3          8           0        2.110552   -0.685255   -0.003641
      4          6           0       -0.222222   -0.648448    0.001553
      5          6           0       -1.043512   -1.638229    0.003497
      6          6           0       -1.561247    0.013638   -0.000560
      7          7           0       -2.371585    0.841593   -0.003414
      8          1           0        0.239161    1.870658    0.008188
      9          1           0        1.975300    1.844166    0.002168
 ---------------------------------------------------------------------

 SCF Done:  E(RHF) =  -336.390963904     A.U. after    2 cycles

 The electronic state is 1-A.
 Alpha  occ. eigenvalues --  -20.58802 -15.69979 -15.69651 -11.43867 -11.36199
 Alpha  occ. eigenvalues --  -11.35707 -11.34088  -1.40945  -1.26808  -1.23367
 Alpha  occ. eigenvalues --   -1.17688  -0.93318  -0.81232  -0.75739  -0.71825
 Alpha  occ. eigenvalues --   -0.67706  -0.65090  -0.60564  -0.57726  -0.56425
 Alpha  occ. eigenvalues --   -0.49892  -0.47947  -0.46498  -0.44077
 Alpha virt. eigenvalues --    0.01550   0.02504   0.05326   0.05850   0.07431
 Alpha virt. eigenvalues --    0.08262   0.08539   0.09734   0.10955   0.12656
 Alpha virt. eigenvalues --    0.12677   0.12996   0.13952   0.15496   0.16321

 Mulliken charges:
               1
     1  N   -0.103055
     2  C    0.632753
     3  O   -0.433422
     4  C    0.632382
     5  C   -0.180243
     6  C   -0.359373
     7  N   -0.212095
     8  H   -0.016666
     9  H    0.039719
 Sum of Mulliken charges =  -0.00000

 Dipole moment (field-independent basis, Debye):
    X=              0.9105    Y=              3.3106    Z=              0.0201  Tot=              3.4336

 Test job not archived.
 1\1\GINC-SE396\SP\RHF\Aug-CC-pVDZ\C4H2N2O1\OHZDE\09-Apr-2025\0\\#t hf
 aug-cc-pvdz iop(5/13=1,5/36=2,99/5=2) pseudo=read geom=check guess=(re
 ad,tcheck) scf=(maxcycle=1)\\title\\0,1\N,0,-1.27327433,0.52470191,0.8
 4211384\C,0,-0.77332832,-0.67487761,0.4954959\O,0,-1.40165061,-1.67926
 961,0.29277395\C,0,0.72184597,-0.71526633,0.36114627\C,0,1.8623312,-1.
 26116655,0.12561444\C,0,1.69001348,0.40271725,0.57117985\N,0,2.1086318
 5,1.45614305,0.81038046\H,0,-0.6886139,1.32652141,0.99400956\H,0,-2.26
 918335,0.60933549,0.94543772\\Version=ES64L-G16RevC.01\State=1-A\HF=-3

 Normal termination of Gaussian 16 at Wed Apr  9 03:45:43 2025.
