 Gaussian 16, Revision C.01,

 ----------------------------------------------------------------------
 #t hf aug-cc-pvdz symm=none int=(grid=ultrafine) guess=(read,tcheck) s
 table=(opt,rrhf)
 ----------------------------------------------------------------------
 -----
 title
 -----
 Symbolic Z-matrix:
 Charge =  0 Multiplicity = 1

 SCF Done:  E(RHF) =  -284.788894733     A.U. after   13 cycles
 Normal termination of Gaussian 16 at Wed Apr  9 03:05:49 2025.
 Gaussian 16:  ES64L-G16RevC.01  3-Jul-2019

 ----------------------------------------------------------------------
 #t hf aug-cc-pvdz iop(5/13=1,5/36=2,99/5=2) pseudo=read geom=check gue
 ss=(read,tcheck) scf=(maxcycle=1)
 ----------------------------------------------------------------------
 -----
 title
 -----
 Structure from the checkpoint file:  "Grambow2020_b97d3_006560_reverse_mol2.chk"
 Charge =  0 Multiplicity = 1

                         Standard orientation:
 ---------------------------------------------------------------------
 Center     Atomic      Atomic             Coordinates (Angstroms)
 Number     Number       Type             X           Y           Z
 ---------------------------------------------------------------------
      1          8           0       -1.086917   -0.872051    0.656629
      2          6           0       -1.342053    0.350148   -0.072673
      3          6           0       -0.124824    1.263740    0.146886
      4          7           0        0.727247    0.209505   -0.508758
      5          6           0        1.884504   -0.298707    0.223343
      6          6           0       -0.430766   -0.651227   -0.626147
      7          1           0        1.638731   -0.634872    1.246863
      8          1           0       -2.370672    0.604586   -0.320272
      9          1           0        0.106278    1.458235    1.204208
     10          1           0       -0.123625    2.198663   -0.429459
     11          1           0        2.650050    0.486953    0.281625
     12          1           0        2.308584   -1.146483   -0.333364
     13          1           0       -0.525904   -1.440930   -1.369783
 ---------------------------------------------------------------------

 SCF Done:  E(RHF) =  -284.876447177     A.U. after    2 cycles

 The electronic state is 1-A.
 Alpha  occ. eigenvalues --  -20.58504 -15.62874 -11.32710 -11.30318 -11.27846
 Alpha  occ. eigenvalues --  -11.25919  -1.38484  -1.19166  -0.99991  -0.91488
 Alpha  occ. eigenvalues --   -0.85678  -0.76488  -0.72325  -0.65782  -0.63710
 Alpha  occ. eigenvalues --   -0.59589  -0.57994  -0.55695  -0.51986  -0.50206
 Alpha  occ. eigenvalues --   -0.46918  -0.42145  -0.37639
 Alpha virt. eigenvalues --    0.03501   0.04047   0.04157   0.05209   0.06460
 Alpha virt. eigenvalues --    0.07217   0.07901   0.10548   0.11155   0.11717
 Alpha virt. eigenvalues --    0.12904   0.14081   0.14871   0.15088   0.15853

 Mulliken charges:
               1
     1  O   -0.809017
     2  C    0.468478
     3  C    0.802518
     4  N   -0.873759
     5  C    0.664166
     6  C    0.934674
     7  H   -0.056216
     8  H   -0.268313
     9  H   -0.105203
    10  H   -0.187117
    11  H   -0.163605
    12  H   -0.174134
    13  H   -0.232474
 Sum of Mulliken charges =  -0.00000

 Dipole moment (field-independent basis, Debye):
    X=              0.2942    Y=              1.2719    Z=             -0.9179  Tot=              1.5958

 Test job not archived.
 1\1\GINC-SE143\SP\RHF\Aug-CC-pVDZ\C4H7N1O1\OHZDE\09-Apr-2025\0\\#t hf
 aug-cc-pvdz iop(5/13=1,5/36=2,99/5=2) pseudo=read geom=check guess=(re
 ad,tcheck) scf=(maxcycle=1)\\title\\0,1\O,0,-1.47910147,-1.00401724,-0
 .01731271\C,0,-1.51551738,0.38754955,-0.40841454\C,0,-0.38513833,1.096
 17662,0.35617216\N,0,0.59334126,0.18763509,-0.33984084\C,0,1.51005143,
 -0.60009441,0.48029254\C,0,-0.50594283,-0.50321378,-0.98010415\H,0,0.9
 991733,-1.1776117,1.27179831\H,0,-2.43911923,0.78949495,-0.82011973\H,
 0,-0.43687691,0.9760008,1.44798124\H,0,-0.21869277,2.14827852,0.088526

 Normal termination of Gaussian 16 at Wed Apr  9 03:05:53 2025.
