 Gaussian 16, Revision C.01,

 ----------------------------------------------------------------------
 #t hf aug-cc-pvdz symm=none int=(grid=ultrafine) guess=(read,tcheck) s
 table=(opt,rrhf)
 ----------------------------------------------------------------------
 -----
 title
 -----
 Symbolic Z-matrix:
 Charge =  0 Multiplicity = 1

 SCF Done:  E(RHF) =  -344.910232634     A.U. after   15 cycles

 1\1\GINC-SE038\Stability\RHF\Aug-CC-pVDZ\C5H10O2\OHZDE\09-Apr-2025\0\\
 #t hf aug-cc-pvdz symm=none int=(grid=ultrafine) guess=(read,tcheck) s
 table=(opt,rrhf)\\title\\0,1\C,0,2.06312148,0.09527836,-0.07962906\O,0
 ,0.99338034,0.13670048,0.83632991\C,0,-0.30134397,-0.03814265,0.282456
 55\C,0,-0.62543357,0.95244494,-0.8249297\C,0,-1.26136681,0.10421989,1.
 45948999\C,0,-0.41840495,-1.48255899,-0.20170168\O,0,-1.06093685,-1.84
 549318,-1.14560769\H,0,2.01759762,-0.7857811,-0.73282997\H,0,2.9777168
 8,0.04210601,0.50884758\H,0,2.10064909,0.99180206,-0.7063785\H,0,0.005

 Normal termination of Gaussian 16 at Wed Apr  9 03:53:23 2025.
 Gaussian 16:  ES64L-G16RevC.01  3-Jul-2019

 ----------------------------------------------------------------------
 #t hf aug-cc-pvdz iop(5/13=1,5/36=2,99/5=2) pseudo=read geom=check gue
 ss=(read,tcheck) scf=(maxcycle=1)
 ----------------------------------------------------------------------
 -----
 title
 -----
 Structure from the checkpoint file:  "Grambow2020_wb97xd3_008391_forward_mol2.chk"
 Charge =  0 Multiplicity = 1

                         Standard orientation:
 ---------------------------------------------------------------------
 Center     Atomic      Atomic             Coordinates (Angstroms)
 Number     Number       Type             X           Y           Z
 ---------------------------------------------------------------------
      1          6           0       -2.017811   -0.743111   -0.068007
      2          8           0       -1.223113    0.332314   -0.511807
      3          6           0        0.094221    0.384871    0.013098
      4          6           0        0.140818    0.395042    1.533074
      5          6           0        0.707454    1.652269   -0.574240
      6          6           0        0.882452   -0.788495   -0.566863
      7          8           0        1.757363   -1.380522   -0.001563
      8          1           0       -1.503982   -1.708205   -0.165899
      9          1           0       -2.904993   -0.758549   -0.699107
     10          1           0       -2.330171   -0.619043    0.973634
     11          1           0       -0.224197   -0.539555    1.959147
     12          1           0       -0.462840    1.220348    1.913911
     13          1           0        1.168657    0.521837    1.870255
     14          1           0        0.132162    2.516623   -0.240633
     15          1           0        1.743037    1.765244   -0.252009
     16          1           0        0.675495    1.622481   -1.664607
     17          1           0        0.590023   -1.038965   -1.610102
 ---------------------------------------------------------------------

 SCF Done:  E(RHF) =  -345.021162990     A.U. after    2 cycles

 The electronic state is 1-A.
 Alpha  occ. eigenvalues --  -20.58478 -20.58076 -11.34293 -11.31171 -11.29243
 Alpha  occ. eigenvalues --  -11.23918 -11.23333  -1.37484  -1.35143  -1.07687
 Alpha  occ. eigenvalues --   -0.96031  -0.92843  -0.88934  -0.76363  -0.71339
 Alpha  occ. eigenvalues --   -0.68463  -0.66419  -0.64394  -0.62159  -0.58019
 Alpha  occ. eigenvalues --   -0.56057  -0.55227  -0.54309  -0.53480  -0.51666
 Alpha  occ. eigenvalues --   -0.49908  -0.46615  -0.41687
 Alpha virt. eigenvalues --    0.03354   0.04321   0.04519   0.05231   0.06270
 Alpha virt. eigenvalues --    0.06335   0.06792   0.07261   0.08907   0.09615
 Alpha virt. eigenvalues --    0.10834   0.11185   0.12267   0.13491   0.14235

 Mulliken charges:
               1
     1  C    0.875699
     2  O   -0.611616
     3  C   -1.893629
     4  C    1.095663
     5  C    0.653125
     6  C    0.901772
     7  O   -0.464394
     8  H   -0.090311
     9  H   -0.261857
    10  H   -0.144644
    11  H   -0.059375
    12  H    0.055028
    13  H    0.014308
    14  H    0.013089
    15  H    0.054397
    16  H   -0.028404
    17  H   -0.108852
 Sum of Mulliken charges =  -0.00000

 Dipole moment (field-independent basis, Debye):
    X=             -1.8760    Y=              0.9670    Z=             -0.0368  Tot=              2.1109

 Test job not archived.
 1\1\GINC-SE038\SP\RHF\Aug-CC-pVDZ\C5H10O2\OHZDE\09-Apr-2025\0\\#t hf a
 ug-cc-pvdz iop(5/13=1,5/36=2,99/5=2) pseudo=read geom=check guess=(rea
 d,tcheck) scf=(maxcycle=1)\\title\\0,1\C,0,2.06312148,0.09527836,-0.07
 962906\O,0,0.99338034,0.13670048,0.83632991\C,0,-0.30134397,-0.0381426
 5,0.28245655\C,0,-0.62543357,0.95244494,-0.8249297\C,0,-1.26136681,0.1
 0421989,1.45948999\C,0,-0.41840495,-1.48255899,-0.20170168\O,0,-1.0609
 3685,-1.84549318,-1.14560769\H,0,2.01759762,-0.7857811,-0.73282997\H,0
 ,2.97771688,0.04210601,0.50884758\H,0,2.10064909,0.99180206,-0.7063785

 Normal termination of Gaussian 16 at Wed Apr  9 03:53:29 2025.
