 Gaussian 16, Revision C.01,

 ----------------------------------------------------------------------
 #t hf aug-cc-pvdz symm=none int=(grid=ultrafine) guess=(read,tcheck) s
 table=(opt,rrhf)
 ----------------------------------------------------------------------
 -----
 title
 -----
 Symbolic Z-matrix:
 Charge =  0 Multiplicity = 1

 SCF Done:  E(RHF) =  -344.685777469     A.U. after   15 cycles

 1\1\GINC-SE113\Stability\RHF\Aug-CC-pVDZ\C5H10O2\OHZDE\09-Apr-2025\0\\
 #t hf aug-cc-pvdz symm=none int=(grid=ultrafine) guess=(read,tcheck) s
 table=(opt,rrhf)\\title\\0,1\C,0,2.25830107,1.01195985,-0.64441386\O,0
 ,0.99231214,1.05795355,-0.01768738\C,0,0.26976198,-0.11677961,-0.18762
 255\C,0,0.46257358,-1.21907388,0.88092454\O,0,-0.88469223,-0.87073032,
 1.39663814\C,0,-1.09219896,-0.0302972,0.44721058\C,0,-2.30682438,0.614
 16944,0.12362533\H,0,2.89759117,0.23996697,-0.20082183\H,0,2.1552634,0
 .81649613,-1.71690443\H,0,2.722083,1.98462837,-0.49570067\H,0,0.209278

 Normal termination of Gaussian 16 at Wed Apr  9 15:03:10 2025.
 Gaussian 16:  ES64L-G16RevC.01  3-Jul-2019

 ----------------------------------------------------------------------
 #t hf aug-cc-pvdz iop(5/13=1,5/36=2,99/5=2) pseudo=read geom=check gue
 ss=(read,tcheck) scf=(maxcycle=1)
 ----------------------------------------------------------------------
 -----
 title
 -----
 Structure from the checkpoint file:  "Grambow2020_wb97xd3_006665_reverse_mol1.chk"
 Charge =  0 Multiplicity = 1

                         Standard orientation:
 ---------------------------------------------------------------------
 Center     Atomic      Atomic             Coordinates (Angstroms)
 Number     Number       Type             X           Y           Z
 ---------------------------------------------------------------------
      1          6           0        2.595463   -0.379179    0.038074
      2          8           0        1.271802   -0.563176   -0.422031
      3          6           0        0.331186    0.041357    0.403036
      4          6           0       -0.044062    1.507572    0.081438
      5          8           0       -1.336419    0.998900   -0.441530
      6          6           0       -1.073311   -0.205214   -0.078648
      7          6           0       -1.955951   -1.307981   -0.064135
      8          1           0        2.878376    0.679768    0.032653
      9          1           0        2.713931   -0.774610    1.052302
     10          1           0        3.246914   -0.923516   -0.642075
     11          1           0        0.430691   -0.173264    1.469989
     12          1           0        0.509120    1.992265   -0.718974
     13          1           0       -0.245650    2.139677    0.941324
     14          1           0       -1.683070    0.085966    2.161128
     15          1           0       -1.468780   -2.273127   -0.155632
     16          1           0       -2.098000   -1.004922    1.092888
     17          1           0       -2.886553   -1.173362   -0.603708
 ---------------------------------------------------------------------

 SCF Done:  E(RHF) =  -344.799263716     A.U. after    2 cycles

 The electronic state is 1-A.
 Alpha  occ. eigenvalues --  -20.68253 -20.62054 -11.42654 -11.34445 -11.34359
 Alpha  occ. eigenvalues --  -11.31672 -11.25590  -1.49181  -1.38868  -1.09166
 Alpha  occ. eigenvalues --   -1.07094  -0.96818  -0.92093  -0.80360  -0.75915
 Alpha  occ. eigenvalues --   -0.75391  -0.71447  -0.68376  -0.66969  -0.65200
 Alpha  occ. eigenvalues --   -0.61346  -0.58716  -0.57209  -0.55017  -0.53637
 Alpha  occ. eigenvalues --   -0.51533  -0.47851  -0.23707
 Alpha virt. eigenvalues --    0.02465   0.03709   0.04012   0.04800   0.05810
 Alpha virt. eigenvalues --    0.06260   0.06582   0.06824   0.08894   0.09424
 Alpha virt. eigenvalues --    0.10702   0.11453   0.12001   0.12520   0.13307

 Mulliken charges:
               1
     1  C    0.652694
     2  O   -0.673983
     3  C    0.249167
     4  C    1.000721
     5  O   -0.576791
     6  C   -0.099730
     7  C    0.666328
     8  H   -0.056780
     9  H   -0.048231
    10  H   -0.241553
    11  H   -0.092575
    12  H   -0.198008
    13  H   -0.122459
    14  H   -0.491556
    15  H   -0.042542
    16  H    0.171084
    17  H   -0.095786
 Sum of Mulliken charges =  -0.00000

 Dipole moment (field-independent basis, Debye):
    X=              4.8670    Y=             -0.0872    Z=             -4.6672  Tot=              6.7437

 Test job not archived.
 1\1\GINC-SE113\SP\RHF\Aug-CC-pVDZ\C5H10O2\OHZDE\09-Apr-2025\0\\#t hf a
 ug-cc-pvdz iop(5/13=1,5/36=2,99/5=2) pseudo=read geom=check guess=(rea
 d,tcheck) scf=(maxcycle=1)\\title\\0,1\C,0,2.25830107,1.01195985,-0.64
 441386\O,0,0.99231214,1.05795355,-0.01768738\C,0,0.26976198,-0.1167796
 1,-0.18762255\C,0,0.46257358,-1.21907388,0.88092454\O,0,-0.88469223,-0
 .87073032,1.39663814\C,0,-1.09219896,-0.0302972,0.44721058\C,0,-2.3068
 2438,0.61416944,0.12362533\H,0,2.89759117,0.23996697,-0.20082183\H,0,2
 .1552634,0.81649613,-1.71690443\H,0,2.722083,1.98462837,-0.49570067\H,

 Normal termination of Gaussian 16 at Wed Apr  9 15:03:16 2025.
