 Gaussian 16, Revision C.01,

 ----------------------------------------------------------------------
 #t hf aug-cc-pvdz symm=none int=(grid=ultrafine) guess=(read,tcheck) s
 table=(opt,rrhf)
 ----------------------------------------------------------------------
 -----
 title
 -----
 Symbolic Z-matrix:
 Charge =  0 Multiplicity = 1

 SCF Done:  E(RHF) =  -301.630338282     A.U. after   14 cycles
 Normal termination of Gaussian 16 at Wed Apr  9 16:46:03 2025.
 Gaussian 16:  ES64L-G16RevC.01  3-Jul-2019

 ----------------------------------------------------------------------
 #t hf aug-cc-pvdz iop(5/13=1,5/36=2,99/5=2) pseudo=read geom=check gue
 ss=(read,tcheck) scf=(maxcycle=1)
 ----------------------------------------------------------------------
 -----
 title
 -----
 Structure from the checkpoint file:  "Grambow2020_wb97xd3_008859_reverse_mol2.chk"
 Charge =  0 Multiplicity = 1

                         Standard orientation:
 ---------------------------------------------------------------------
 Center     Atomic      Atomic             Coordinates (Angstroms)
 Number     Number       Type             X           Y           Z
 ---------------------------------------------------------------------
      1          7           0       -1.619830   -0.223844   -0.912778
      2          6           0       -1.930496    0.552244    0.009458
      3          6           0       -1.079983   -0.516850    0.478698
      4          6           0        0.388058   -0.309037    0.727495
      5          6           0        1.392719   -0.889020   -0.310949
      6          6           0        1.724824    0.565359   -0.431215
      7          7           0        0.886860    1.055125    0.399117
      8          1           0       -1.521632   -1.378504    0.973407
      9          1           0        0.624521   -0.568413    1.762409
     10          1           0        2.176348   -1.546422    0.067852
     11          1           0        0.926983   -1.331935   -1.192102
     12          1           0        2.445698    1.127804   -1.022002
     13          1           0       -2.491850    1.462325    0.165147
 ---------------------------------------------------------------------

 SCF Done:  E(RHF) =  -301.715622640     A.U. after    2 cycles

 The electronic state is 1-A.
 Alpha  occ. eigenvalues --  -15.65127 -15.62499 -11.30556 -11.29132 -11.28512
 Alpha  occ. eigenvalues --  -11.27655 -11.24697  -1.29555  -1.25123  -0.98246
 Alpha  occ. eigenvalues --   -0.94057  -0.82616  -0.79559  -0.72001  -0.67608
 Alpha  occ. eigenvalues --   -0.65990  -0.65539  -0.57765  -0.55832  -0.52746
 Alpha  occ. eigenvalues --   -0.49116  -0.43225  -0.41574  -0.40629  -0.38641
 Alpha virt. eigenvalues --    0.03259   0.03578   0.04049   0.05155   0.06001
 Alpha virt. eigenvalues --    0.07085   0.09497   0.09794   0.10552   0.11504
 Alpha virt. eigenvalues --    0.12029   0.13242   0.13626   0.13989   0.14960

 Mulliken charges:
               1
     1  N   -0.602993
     2  C    0.497365
     3  C    0.755973
     4  C    0.339562
     5  C    0.407960
     6  C    0.408134
     7  N   -0.657802
     8  H   -0.267428
     9  H   -0.249422
    10  H   -0.112409
    11  H   -0.141895
    12  H   -0.224210
    13  H   -0.152834
 Sum of Mulliken charges =  -0.00000

 Dipole moment (field-independent basis, Debye):
    X=              0.5376    Y=             -0.9531    Z=              0.9887  Tot=              1.4748

 Test job not archived.
 1\1\GINC-SE162\SP\RHF\Aug-CC-pVDZ\C5H6N2\OHZDE\09-Apr-2025\0\\#t hf au
 g-cc-pvdz iop(5/13=1,5/36=2,99/5=2) pseudo=read geom=check guess=(read
 ,tcheck) scf=(maxcycle=1)\\title\\0,1\N,0,1.4306819,0.00489512,1.44898
 111\C,0,1.72626986,1.06824408,0.87342765\C,0,1.36614237,0.0357194,-0.0
 7035315\C,0,0.01234365,-0.00267057,-0.72302833\C,0,-1.01021302,-1.0629
 9969,-0.21887491\C,0,-1.76603691,0.18590545,0.11119164\N,0,-0.92388463
 ,1.06518862,-0.27500252\H,0,2.14672522,-0.52641557,-0.57723919\H,0,0.1
 2879034,0.01609794,-1.80945665\H,0,-1.44980136,-1.72529517,-0.96577981

 Normal termination of Gaussian 16 at Wed Apr  9 16:46:07 2025.
