 Gaussian 16, Revision C.01,

 ----------------------------------------------------------------------
 #t hf aug-cc-pvdz symm=none int=(grid=ultrafine) guess=(read,tcheck) s
 table=(opt,rrhf)
 ----------------------------------------------------------------------
 -----
 title
 -----
 Symbolic Z-matrix:
 Charge =  0 Multiplicity = 1

 SCF Done:  E(RHF) =  -283.526407169     A.U. after   15 cycles
 Normal termination of Gaussian 16 at Wed Apr  9 14:24:09 2025.
 Gaussian 16:  ES64L-G16RevC.01  3-Jul-2019

 ----------------------------------------------------------------------
 #t hf aug-cc-pvdz iop(5/13=1,5/36=2,99/5=2) pseudo=read geom=check gue
 ss=(read,tcheck) scf=(maxcycle=1)
 ----------------------------------------------------------------------
 -----
 title
 -----
 Structure from the checkpoint file:  "Grambow2020_wb97xd3_006229_forward_mol1.chk"
 Charge =  0 Multiplicity = 1

                         Standard orientation:
 ---------------------------------------------------------------------
 Center     Atomic      Atomic             Coordinates (Angstroms)
 Number     Number       Type             X           Y           Z
 ---------------------------------------------------------------------
      1          8           0       -2.141858   -0.233856   -0.000143
      2          6           0       -0.977770    0.162005   -0.000201
      3          6           0        0.052887   -1.101578    0.000262
      4          6           0        1.357611   -0.507260   -0.000327
      5          6           0        2.163080    0.420468   -0.000382
      6          7           0       -0.369709    1.305777    0.000023
      7          1           0       -0.131752   -1.699118   -0.890576
      8          1           0       -0.131360   -1.695637    0.893583
      9          1           0        2.521167   -0.923952   -0.000430
     10          1           0        2.943364    1.153087    0.001882
     11          1           0       -1.053441    2.054220    0.000412
 ---------------------------------------------------------------------

 SCF Done:  E(RHF) =  -283.615091755     A.U. after    2 cycles

 The electronic state is 1-A.
 Alpha  occ. eigenvalues --  -20.47268 -15.53861 -11.40067 -11.38752 -11.31464
 Alpha  occ. eigenvalues --  -11.27964  -1.28076  -1.21444  -1.09274  -1.02313
 Alpha  occ. eigenvalues --   -0.84460  -0.73240  -0.69632  -0.65676  -0.64894
 Alpha  occ. eigenvalues --   -0.59146  -0.55719  -0.51953  -0.49394  -0.40195
 Alpha  occ. eigenvalues --   -0.36701  -0.32291
 Alpha virt. eigenvalues --    0.00445   0.02397   0.03724   0.04834   0.05473
 Alpha virt. eigenvalues --    0.07158   0.07192   0.09466   0.10838   0.11203
 Alpha virt. eigenvalues --    0.11919   0.11937   0.13777   0.14029   0.14871

 Mulliken charges:
               1
     1  O   -0.612148
     2  C    0.376473
     3  C   -0.086818
     4  C    0.205953
     5  C    0.642834
     6  N   -0.363005
     7  H    0.094975
     8  H    0.096678
     9  H    0.066784
    10  H   -0.374830
    11  H   -0.046895
 Sum of Mulliken charges =  -0.00000

 Dipole moment (field-independent basis, Debye):
    X=             10.4765    Y=             -1.7206    Z=              0.0038  Tot=             10.6168

 Test job not archived.
 1\1\GINC-SE220\SP\RHF\Aug-CC-pVDZ\C4H5N1O1\OHZDE\09-Apr-2025\0\\#t hf
 aug-cc-pvdz iop(5/13=1,5/36=2,99/5=2) pseudo=read geom=check guess=(re
 ad,tcheck) scf=(maxcycle=1)\\title\\0,1\O,0,-1.64850219,1.91797912,0.0
 9171395\C,0,-0.63027813,1.2295892,0.12556308\C,0,-0.98357693,-0.325878
 57,-0.21295701\C,0,0.27483838,-1.00906643,-0.14109167\C,0,1.48764338,-
 1.10222533,0.03178438\N,0,0.62994536,1.41906992,0.3576976\H,0,-1.42514
 067,-0.37210661,-1.20674859\H,0,-1.69385163,-0.6867425,0.52877194\H,0,
 0.66108827,-2.17320821,-0.29301632\H,0,2.5330508,-1.29022244,0.1635366

 Normal termination of Gaussian 16 at Wed Apr  9 14:24:13 2025.
