 Gaussian 16, Revision C.01,

 ----------------------------------------------------------------------
 #t hf aug-cc-pvdz symm=none int=(grid=ultrafine) guess=(read,tcheck) s
 table=(opt,rrhf)
 ----------------------------------------------------------------------
 -----
 title
 -----
 Symbolic Z-matrix:
 Charge =  0 Multiplicity = 1

 SCF Done:  E(RHF) =  -287.939106224     A.U. after   16 cycles

 1\1\GINC-SE095\Stability\RHF\Aug-CC-pVDZ\C6H11N1\OHZDE\09-Apr-2025\0\\
 #t hf aug-cc-pvdz symm=none int=(grid=ultrafine) guess=(read,tcheck) s
 table=(opt,rrhf)\\title\\0,1\C,0,2.09646699,-0.56117847,-0.12913617\C,
 0,0.73742564,-0.04473101,0.38852138\C,0,0.55724272,1.43102975,0.040349
 31\C,0,-0.23523347,-1.03033554,-0.18669644\C,0,-2.27114268,-0.23064955
 ,0.70010478\C,0,-0.60321437,-0.83582868,-1.54063246\N,0,-0.86749224,-0
 .78624283,-2.66562018\H,0,2.25704806,-1.60559901,0.13621795\H,0,2.8921
 9467,0.03943151,0.31353475\H,0,2.16420418,-0.46456482,-1.2147272\H,0,0

 Normal termination of Gaussian 16 at Wed Apr  9 03:45:52 2025.
 Gaussian 16:  ES64L-G16RevC.01  3-Jul-2019

 ----------------------------------------------------------------------
 #t hf aug-cc-pvdz iop(5/13=1,5/36=2,99/5=2) pseudo=read geom=check gue
 ss=(read,tcheck) scf=(maxcycle=1)
 ----------------------------------------------------------------------
 -----
 title
 -----
 Structure from the checkpoint file:  "Grambow2020_wb97xd3_007881_reverse_mol1.chk"
 Charge =  0 Multiplicity = 1

                         Standard orientation:
 ---------------------------------------------------------------------
 Center     Atomic      Atomic             Coordinates (Angstroms)
 Number     Number       Type             X           Y           Z
 ---------------------------------------------------------------------
      1          6           0        2.078059    0.430615   -0.609818
      2          6           0        0.939096   -0.546683   -0.250189
      3          6           0        0.964876   -0.873981    1.241042
      4          6           0       -0.275151    0.138134   -0.802446
      5          6           0       -1.957882   -1.435054   -0.288307
      6          6           0       -0.827753    1.175627   -0.012114
      7          7           0       -1.266402    2.092302    0.540328
      8          1           0        2.095091    0.653009   -1.676244
      9          1           0        3.030495   -0.021996   -0.330745
     10          1           0        1.976308    1.369255   -0.061154
     11          1           0        1.101135   -1.457767   -0.832678
     12          1           0        1.934075   -1.290227    1.523129
     13          1           0        0.201843   -1.606863    1.506279
     14          1           0        0.794132    0.024350    1.838993
     15          1           0       -1.317627   -0.774710   -1.031717
     16          1           0       -2.933936   -1.358563   -0.765320
     17          1           0       -1.545339   -2.438811   -0.354350
     18          1           0       -1.998825   -1.075742    0.732505
 ---------------------------------------------------------------------

 SCF Done:  E(RHF) =  -288.028080684     A.U. after    2 cycles

 The electronic state is 1-A.
 Alpha  occ. eigenvalues --  -15.64058 -11.30979 -11.28451 -11.27251 -11.27072
 Alpha  occ. eigenvalues --  -11.24517 -11.23880  -1.19519  -1.11238  -1.00312
 Alpha  occ. eigenvalues --   -0.95102  -0.93719  -0.82199  -0.66407  -0.65546
 Alpha  occ. eigenvalues --   -0.62246  -0.60202  -0.59852  -0.57380  -0.55923
 Alpha  occ. eigenvalues --   -0.55038  -0.52516  -0.51320  -0.49986  -0.48273
 Alpha  occ. eigenvalues --   -0.46410  -0.34761
 Alpha virt. eigenvalues --    0.02753   0.03376   0.04272   0.05029   0.05463
 Alpha virt. eigenvalues --    0.06072   0.06426   0.06862   0.07300   0.08449
 Alpha virt. eigenvalues --    0.08764   0.09644   0.10660   0.12832   0.13345

 Mulliken charges:
               1
     1  C    0.797337
     2  C   -0.919453
     3  C    0.770807
     4  C   -0.003202
     5  C    0.543173
     6  C   -0.169127
     7  N   -0.301701
     8  H   -0.031486
     9  H   -0.049770
    10  H   -0.058192
    11  H   -0.190391
    12  H   -0.034654
    13  H   -0.098293
    14  H   -0.016493
    15  H   -0.021362
    16  H   -0.086425
    17  H   -0.043220
    18  H   -0.087548
 Sum of Mulliken charges =  -0.00000

 Dipole moment (field-independent basis, Debye):
    X=              1.3585    Y=             -4.1223    Z=             -0.1727  Tot=              4.3438

 Test job not archived.
 1\1\GINC-SE095\SP\RHF\Aug-CC-pVDZ\C6H11N1\OHZDE\09-Apr-2025\0\\#t hf a
 ug-cc-pvdz iop(5/13=1,5/36=2,99/5=2) pseudo=read geom=check guess=(rea
 d,tcheck) scf=(maxcycle=1)\\title\\0,1\C,0,2.09646699,-0.56117847,-0.1
 2913617\C,0,0.73742564,-0.04473101,0.38852138\C,0,0.55724272,1.4310297
 5,0.04034931\C,0,-0.23523347,-1.03033554,-0.18669644\C,0,-2.27114268,-
 0.23064955,0.70010478\C,0,-0.60321437,-0.83582868,-1.54063246\N,0,-0.8
 6749224,-0.78624283,-2.66562018\H,0,2.25704806,-1.60559901,0.13621795\
 H,0,2.89219467,0.03943151,0.31353475\H,0,2.16420418,-0.46456482,-1.214

 Normal termination of Gaussian 16 at Wed Apr  9 03:45:59 2025.
