 Gaussian 16, Revision C.01,

 ----------------------------------------------------------------------
 #t hf aug-cc-pvdz symm=none int=(grid=ultrafine) guess=(read,tcheck) s
 table=(opt,rrhf)
 ----------------------------------------------------------------------
 -----
 title
 -----
 Symbolic Z-matrix:
 Charge =  0 Multiplicity = 1

 SCF Done:  E(RHF) =  -336.213657931     A.U. after   18 cycles
 Normal termination of Gaussian 16 at Wed Apr  9 03:45:28 2025.
 Gaussian 16:  ES64L-G16RevC.01  3-Jul-2019

 ----------------------------------------------------------------------
 #t hf aug-cc-pvdz iop(5/13=1,5/36=2,99/5=2) pseudo=read geom=check gue
 ss=(read,tcheck) scf=(maxcycle=1)
 ----------------------------------------------------------------------
 -----
 title
 -----
 Structure from the checkpoint file:  "Grambow2020_wb97xd3_007919_forward_mol1.chk"
 Charge =  0 Multiplicity = 1

                         Standard orientation:
 ---------------------------------------------------------------------
 Center     Atomic      Atomic             Coordinates (Angstroms)
 Number     Number       Type             X           Y           Z
 ---------------------------------------------------------------------
      1          7           0       -1.310315    1.192493   -0.172775
      2          6           0       -1.012266   -0.106552    0.024949
      3          8           0       -1.798342   -1.015964    0.067721
      4          6           0        0.453579   -0.395237    0.193156
      5          6           0        1.287394   -1.377527   -0.109501
      6          6           0        1.986380    0.208921   -0.409145
      7          7           0        1.453003    0.921385    0.400794
      8          1           0       -0.623288    1.915048   -0.061428
      9          1           0       -2.279311    1.437890   -0.273231
 ---------------------------------------------------------------------

 SCF Done:  E(RHF) =  -336.309104455     A.U. after    2 cycles

 The electronic state is 1-A.
 Alpha  occ. eigenvalues --  -20.57521 -15.74130 -15.68490 -11.42498 -11.36907
 Alpha  occ. eigenvalues --  -11.35769 -11.35170  -1.39853  -1.35134  -1.22300
 Alpha  occ. eigenvalues --   -1.08243  -0.92475  -0.80839  -0.73231  -0.71371
 Alpha  occ. eigenvalues --   -0.67000  -0.63778  -0.63144  -0.58884  -0.57162
 Alpha  occ. eigenvalues --   -0.48861  -0.47057  -0.45525  -0.41473
 Alpha virt. eigenvalues --    0.00092   0.02522   0.04933   0.06273   0.07496
 Alpha virt. eigenvalues --    0.08283   0.09148   0.09794   0.10759   0.11340
 Alpha virt. eigenvalues --    0.12627   0.13334   0.13819   0.15021   0.16073

 Mulliken charges:
               1
     1  N   -0.130487
     2  C    0.527119
     3  O   -0.433102
     4  C    0.461960
     5  C   -0.063662
     6  C   -0.001328
     7  N   -0.415181
     8  H    0.034579
     9  H    0.020101
 Sum of Mulliken charges =   0.00000

 Dipole moment (field-independent basis, Debye):
    X=             -0.1711    Y=              4.5144    Z=             -0.2722  Tot=              4.5259

 Test job not archived.
 1\1\GINC-SE009\SP\RHF\Aug-CC-pVDZ\C4H2N2O1\OHZDE\09-Apr-2025\0\\#t hf
 aug-cc-pvdz iop(5/13=1,5/36=2,99/5=2) pseudo=read geom=check guess=(re
 ad,tcheck) scf=(maxcycle=1)\\title\\0,1\N,0,-1.18103974,0.60232988,0.3
 1025378\C,0,-0.62275829,-0.55882747,0.70456485\O,0,-1.19766209,-1.6026
 311,0.86807481\C,0,0.86063975,-0.49341607,0.94033469\C,0,1.89902428,-1
 .30241764,0.80243556\C,0,2.25723746,0.33971785,0.28256943\N,0,1.544234
 93,1.02560008,0.96761811\H,0,-0.6705804,1.46586812,0.32515596\H,0,-2.1
 7382589,0.61328835,0.15688982\\Version=ES64L-G16RevC.01\State=1-A\HF=-

 Normal termination of Gaussian 16 at Wed Apr  9 03:45:31 2025.
