 Gaussian 16, Revision C.01,

 ----------------------------------------------------------------------
 #t hf aug-cc-pvdz symm=none int=(grid=ultrafine) guess=(read,tcheck) s
 table=(opt,rrhf)
 ----------------------------------------------------------------------
 -----
 title
 -----
 Symbolic Z-matrix:
 Charge =  0 Multiplicity = 1

 SCF Done:  E(RHF) =  -262.598999160     A.U. after   16 cycles
 Normal termination of Gaussian 16 at Wed Apr  9 14:16:01 2025.
 Gaussian 16:  ES64L-G16RevC.01  3-Jul-2019

 ----------------------------------------------------------------------
 #t hf aug-cc-pvdz iop(5/13=1,5/36=2,99/5=2) pseudo=read geom=check gue
 ss=(read,tcheck) scf=(maxcycle=1)
 ----------------------------------------------------------------------
 -----
 title
 -----
 Structure from the checkpoint file:  "Grambow2020_b97d3_006914_reverse_mol2.chk"
 Charge =  0 Multiplicity = 1

                         Standard orientation:
 ---------------------------------------------------------------------
 Center     Atomic      Atomic             Coordinates (Angstroms)
 Number     Number       Type             X           Y           Z
 ---------------------------------------------------------------------
      1          6           0       -1.148101    0.813971    0.000791
      2          6           0       -1.182370   -0.577804   -0.001760
      3          7           0       -0.006249   -1.248230    0.000314
      4          7           0        1.205824   -0.690810    0.001562
      5          6           0        1.189665    0.652251   -0.001813
      6          6           0        0.069971    1.555956    0.000337
      7          1           0       -2.115026    1.329114    0.004838
      8          1           0       -2.078482   -1.201273   -0.003309
      9          1           0        2.211896    1.045008   -0.001842
     10          1           0        0.009592   -2.265814    0.001857
 ---------------------------------------------------------------------

 SCF Done:  E(RHF) =  -262.671810069     A.U. after    2 cycles

 The electronic state is 1-A.
 Alpha  occ. eigenvalues --  -15.75910 -15.71083 -11.34157 -11.28903 -11.25968
 Alpha  occ. eigenvalues --  -11.22197  -1.35881  -1.13455  -1.08025  -0.89619
 Alpha  occ. eigenvalues --   -0.88998  -0.79250  -0.69599  -0.66321  -0.62804
 Alpha  occ. eigenvalues --   -0.61372  -0.56267  -0.46991  -0.40765  -0.37987
 Alpha  occ. eigenvalues --   -0.32734
 Alpha virt. eigenvalues --    0.01654   0.03819   0.04881   0.06026   0.06328
 Alpha virt. eigenvalues --    0.08195   0.09598   0.10929   0.11789   0.12079
 Alpha virt. eigenvalues --    0.13322   0.13796   0.14457   0.15691   0.16766

 Mulliken charges:
               1
     1  C    0.605930
     2  C    0.694748
     3  N   -0.104487
     4  N   -0.424047
     5  C    0.727449
     6  C   -0.644855
     7  H   -0.320436
     8  H   -0.329525
     9  H   -0.251676
    10  H    0.046899
 Sum of Mulliken charges =  -0.00000

 Dipole moment (field-independent basis, Debye):
    X=             -2.2708    Y=             -5.3299    Z=             -0.0027  Tot=              5.7935

 Test job not archived.
 1\1\GINC-SE036\SP\RHF\Aug-CC-pVDZ\C4H4N2\OHZDE\09-Apr-2025\0\\#t hf au
 g-cc-pvdz iop(5/13=1,5/36=2,99/5=2) pseudo=read geom=check guess=(read
 ,tcheck) scf=(maxcycle=1)\\title\\0,1\C,0,0.66734329,0.99927786,0.4671
 417\C,0,1.04674881,0.00841054,-0.43421918\N,0,0.14378831,-0.94866754,-
 0.75265262\N,0,-1.09806833,-1.03562924,-0.27299709\C,0,-1.41748257,-0.
 06284998,0.59634871\C,0,-0.62547114,1.04197961,1.06801473\H,0,1.416775
 89,1.76338462,0.70128477\H,0,2.01784427,-0.08000753,-0.92502441\H,0,-2
 .44516407,-0.19256343,0.95167835\H,0,0.38286055,-1.68772791,-1.4101979

 Normal termination of Gaussian 16 at Wed Apr  9 14:16:04 2025.
