 Gaussian 16, Revision C.01,

 ----------------------------------------------------------------------
 #t hf aug-cc-pvdz symm=none int=(grid=ultrafine) guess=(read,tcheck) s
 table=(opt,rrhf)
 ----------------------------------------------------------------------
 -----
 title
 -----
 Symbolic Z-matrix:
 Charge =  0 Multiplicity = 1

 SCF Done:  E(RHF) =  -306.657412726     A.U. after   12 cycles
 Normal termination of Gaussian 16 at Wed Apr  9 15:04:57 2025.
 Gaussian 16:  ES64L-G16RevC.01  3-Jul-2019

 ----------------------------------------------------------------------
 #t hf aug-cc-pvdz iop(5/13=1,5/36=2,99/5=2) pseudo=read geom=check gue
 ss=(read,tcheck) scf=(maxcycle=1)
 ----------------------------------------------------------------------
 -----
 title
 -----
 Structure from the checkpoint file:  "Grambow2020_wb97xd3_006669_forward_mol2.chk"
 Charge =  0 Multiplicity = 1

                         Standard orientation:
 ---------------------------------------------------------------------
 Center     Atomic      Atomic             Coordinates (Angstroms)
 Number     Number       Type             X           Y           Z
 ---------------------------------------------------------------------
      1          6           0       -2.207281    0.000671   -0.271785
      2          6           0       -0.735679    0.000905   -0.618589
      3          6           0        0.174058    0.960967    0.207328
      4          8           0        0.115412   -0.003041    1.295394
      5          6           0        0.174691   -0.962171    0.203104
      6          6           0        1.549406   -0.662916   -0.394656
      7          6           0        1.548593    0.665320   -0.392193
      8          1           0       -2.700722    0.881895   -0.687839
      9          1           0       -2.355145   -0.001739    0.807982
     10          1           0       -2.701421   -0.879026   -0.690392
     11          1           0       -0.565472    0.003387   -1.695926
     12          1           0       -0.105151    1.976399    0.480040
     13          1           0       -0.104080   -1.978687    0.472298
     14          1           0        2.294497   -1.369702   -0.726300
     15          1           0        2.291475    1.375148   -0.722263
 ---------------------------------------------------------------------

 SCF Done:  E(RHF) =  -306.750432474     A.U. after    2 cycles

 The electronic state is 1-A.
 Alpha  occ. eigenvalues --  -20.56051 -11.29991 -11.29983 -11.24893 -11.24195
 Alpha  occ. eigenvalues --  -11.24024 -11.22393  -1.36183  -1.08951  -1.02119
 Alpha  occ. eigenvalues --   -0.94002  -0.89196  -0.74825  -0.74556  -0.71926
 Alpha  occ. eigenvalues --   -0.67599  -0.59332  -0.58513  -0.55876  -0.55119
 Alpha  occ. eigenvalues --   -0.54059  -0.50995  -0.47962  -0.44297  -0.43247
 Alpha  occ. eigenvalues --   -0.35650
 Alpha virt. eigenvalues --    0.03363   0.04050   0.04200   0.05097   0.05693
 Alpha virt. eigenvalues --    0.06226   0.07252   0.07687   0.10243   0.10810
 Alpha virt. eigenvalues --    0.12238   0.12439   0.13649   0.14649   0.14947

 Mulliken charges:
               1
     1  C    0.560094
     2  C   -0.588138
     3  C    0.821512
     4  O   -0.848936
     5  C    0.822269
     6  C    0.512518
     7  C    0.513123
     8  H    0.004576
     9  H   -0.006751
    10  H    0.004177
    11  H   -0.436866
    12  H   -0.362823
    13  H   -0.362718
    14  H   -0.315781
    15  H   -0.316258
 Sum of Mulliken charges =   0.00000

 Dipole moment (field-independent basis, Debye):
    X=             -0.1600    Y=              0.0061    Z=             -2.2748  Tot=              2.2804

 Test job not archived.
 1\1\GINC-SE226\SP\RHF\Aug-CC-pVDZ\C6H8O1\OHZDE\09-Apr-2025\0\\#t hf au
 g-cc-pvdz iop(5/13=1,5/36=2,99/5=2) pseudo=read geom=check guess=(read
 ,tcheck) scf=(maxcycle=1)\\title\\0,1\C,0,1.93620882,0.39271858,-0.216
 94699\C,0,0.55016907,-0.19969582,-0.33452797\C,0,-0.22536947,-0.426636
 77,0.99908192\O,0,-0.50286276,1.00135961,1.02057051\C,0,-0.63533024,0.
 81000739,-0.41552828\C,0,-1.83394549,-0.13572703,-0.49048723\C,0,-1.55
 038407,-0.99007235,0.48619223\H,0,2.65185489,-0.36478348,0.11043851\H,
 0,1.95115321,1.21529855,0.49782982\H,0,2.27755896,0.76880305,-1.184063

 Normal termination of Gaussian 16 at Wed Apr  9 15:05:03 2025.
