 Gaussian 16, Revision C.01,

 ----------------------------------------------------------------------
 #t hf aug-cc-pvdz symm=none int=(grid=ultrafine) guess=(read,tcheck) s
 table=(opt,rrhf)
 ----------------------------------------------------------------------
 -----
 title
 -----
 Symbolic Z-matrix:
 Charge =  0 Multiplicity = 1

 SCF Done:  E(RHF) =  -299.684468627     A.U. after   15 cycles
 Normal termination of Gaussian 16 at Wed Apr  9 14:20:03 2025.
 Gaussian 16:  ES64L-G16RevC.01  3-Jul-2019

 ----------------------------------------------------------------------
 #t hf aug-cc-pvdz iop(5/13=1,5/36=2,99/5=2) pseudo=read geom=check gue
 ss=(read,tcheck) scf=(maxcycle=1)
 ----------------------------------------------------------------------
 -----
 title
 -----
 Structure from the checkpoint file:  "Grambow2020_b97d3_007178_forward_mol2.chk"
 Charge =  0 Multiplicity = 1

                         Standard orientation:
 ---------------------------------------------------------------------
 Center     Atomic      Atomic             Coordinates (Angstroms)
 Number     Number       Type             X           Y           Z
 ---------------------------------------------------------------------
      1          6           0        2.099082    0.041930   -0.000090
      2          6           0        0.601678    0.007083    0.000265
      3          7           0       -0.065751   -1.130211   -0.000289
      4          8           0       -1.419297   -0.703646    0.000314
      5          6           0       -1.378554    0.643589   -0.000245
      6          7           0       -0.177607    1.149153    0.000044
      7          1           0        2.509812   -0.974153   -0.019819
      8          1           0        2.470362    0.592516   -0.875444
      9          1           0        2.472739    0.558339    0.895141
     10          1           0       -2.328268    1.164259   -0.000255
 ---------------------------------------------------------------------

 SCF Done:  E(RHF) =  -299.772899941     A.U. after    2 cycles

 The electronic state is 1-A.
 Alpha  occ. eigenvalues --  -20.67746 -15.69783 -15.65224 -11.38418 -11.33858
 Alpha  occ. eigenvalues --  -11.26094  -1.47115  -1.23132  -1.14357  -0.99622
 Alpha  occ. eigenvalues --   -0.87253  -0.81575  -0.73901  -0.69050  -0.63650
 Alpha  occ. eigenvalues --   -0.59348  -0.57711  -0.56075  -0.52527  -0.47218
 Alpha  occ. eigenvalues --   -0.46771  -0.40388
 Alpha virt. eigenvalues --    0.03286   0.03605   0.05358   0.06154   0.08519
 Alpha virt. eigenvalues --    0.08884   0.09403   0.12136   0.13434   0.13627
 Alpha virt. eigenvalues --    0.14031   0.15161   0.15550   0.16467   0.16917

 Mulliken charges:
               1
     1  C    0.389187
     2  C    0.135767
     3  N   -0.168893
     4  O   -0.592508
     5  C    0.882582
     6  N   -0.585613
     7  H   -0.011902
     8  H    0.047729
     9  H    0.050470
    10  H   -0.146818
 Sum of Mulliken charges =  -0.00000

 Dipole moment (field-independent basis, Debye):
    X=              0.3441    Y=              1.5862    Z=              0.0002  Tot=              1.6231

 Test job not archived.
 1\1\GINC-SE018\SP\RHF\Aug-CC-pVDZ\C3H4N2O1\OHZDE\09-Apr-2025\0\\#t hf
 aug-cc-pvdz iop(5/13=1,5/36=2,99/5=2) pseudo=read geom=check guess=(re
 ad,tcheck) scf=(maxcycle=1)\\title\\0,1\C,0,-1.62230992,0.05742017,-0.
 00145296\C,0,-0.13216776,-0.05106393,-0.10700674\N,0,0.45029724,-0.617
 598,-1.1455995\O,0,1.83065101,-0.50407237,-0.83611676\C,0,1.88814667,0
 .11953087,0.35741335\N,0,0.72782996,0.42740407,0.86411638\H,0,-2.10637
 569,-0.40339966,-0.87026794\H,0,-1.98012603,-0.44029091,0.91040676\H,0
 ,-1.92872638,1.1111327,0.0580055\H,0,2.87278091,0.30093705,0.77050192\

 Normal termination of Gaussian 16 at Wed Apr  9 14:20:07 2025.
