 Gaussian 16, Revision C.01,

 ----------------------------------------------------------------------
 #t hf aug-cc-pvdz symm=none int=(grid=ultrafine) guess=(read,tcheck) s
 table=(opt,rrhf)
 ----------------------------------------------------------------------
 -----
 title
 -----
 Symbolic Z-matrix:
 Charge =  0 Multiplicity = 1

 SCF Done:  E(RHF) =  -308.868846493     A.U. after   17 cycles

 1\1\GINC-SE141\Stability\RHF\Aug-CC-pVDZ\C6H12O1\OHZDE\09-Apr-2025\0\\
 #t hf aug-cc-pvdz symm=none int=(grid=ultrafine) guess=(read,tcheck) s
 table=(opt,rrhf)\\title\\0,1\C,0,2.21842219,0.01437575,-0.26432174\C,0
 ,1.1457757,-0.41190835,0.59377216\O,0,1.39850872,-0.27382731,1.9708215
 1\C,0,-0.12109411,0.64959994,0.23032035\C,0,0.026307,0.91339175,-1.242
 09197\C,0,-1.46628221,0.2857636,0.42605487\C,0,-2.11502929,-0.92415279
 ,-0.15641129\H,0,1.31558062,0.7641925,-1.18170837\H,0,2.64447266,-0.68
 505669,-0.97266456\H,0,2.9035198,0.75435008,0.13715856\H,0,0.7818923,-

 Normal termination of Gaussian 16 at Wed Apr  9 15:54:34 2025.
 Gaussian 16:  ES64L-G16RevC.01  3-Jul-2019

 ----------------------------------------------------------------------
 #t hf aug-cc-pvdz iop(5/13=1,5/36=2,99/5=2) pseudo=read geom=check gue
 ss=(read,tcheck) scf=(maxcycle=1)
 ----------------------------------------------------------------------
 -----
 title
 -----
 Structure from the checkpoint file:  "Grambow2020_wb97xd3_007568_forward_mol1.chk"
 Charge =  0 Multiplicity = 1

                         Standard orientation:
 ---------------------------------------------------------------------
 Center     Atomic      Atomic             Coordinates (Angstroms)
 Number     Number       Type             X           Y           Z
 ---------------------------------------------------------------------
      1          6           0       -1.921967    0.787561    0.459661
      2          6           0       -1.034244   -0.341569    0.384652
      3          8           0       -1.583513   -1.487600   -0.218773
      4          6           0        0.215362    0.181711   -0.629506
      5          6           0        0.370901    1.641001   -0.304557
      6          6           0        1.506796   -0.372027   -0.553384
      7          6           0        2.336185   -0.432624    0.684550
      8          1           0       -0.890179    1.752696   -0.012434
      9          1           0       -2.144075    1.227893    1.423638
     10          1           0       -2.720022    0.833986   -0.274546
     11          1           0       -0.567679   -0.579509    1.346710
     12          1           0       -0.852050   -2.047053   -0.500181
     13          1           0       -0.219038    0.065840   -1.624177
     14          1           0        0.871883    1.865904    0.637082
     15          1           0        0.732952    2.278504   -1.110142
     16          1           0        1.916881   -0.887441   -1.418975
     17          1           0        1.845979    0.031810    1.540653
     18          1           0        3.308035    0.051281    0.552953
     19          1           0        2.547219   -1.477422    0.941095
 ---------------------------------------------------------------------

 SCF Done:  E(RHF) =  -308.965205951     A.U. after    2 cycles

 The electronic state is 1-A.
 Alpha  occ. eigenvalues --  -20.56829 -11.28620 -11.27786 -11.24814 -11.24633
 Alpha  occ. eigenvalues --  -11.24569 -11.21803  -1.32284  -1.10839  -1.01925
 Alpha  occ. eigenvalues --   -0.96269  -0.88686  -0.80597  -0.75288  -0.71004
 Alpha  occ. eigenvalues --   -0.66938  -0.63074  -0.60878  -0.58266  -0.57216
 Alpha  occ. eigenvalues --   -0.56816  -0.54212  -0.53841  -0.50281  -0.48855
 Alpha  occ. eigenvalues --   -0.47321  -0.40152  -0.23757
 Alpha virt. eigenvalues --    0.02856   0.03300   0.04152   0.04474   0.04908
 Alpha virt. eigenvalues --    0.06097   0.06541   0.06690   0.06993   0.07432
 Alpha virt. eigenvalues --    0.08593   0.09356   0.09531   0.12858   0.13662

 Mulliken charges:
               1
     1  C    0.259521
     2  C    0.834480
     3  O   -0.596077
     4  C   -0.297341
     5  C    0.400040
     6  C    0.284128
     7  C    0.357278
     8  H    0.320833
     9  H   -0.154662
    10  H   -0.190462
    11  H   -0.225799
    12  H    0.159020
    13  H   -0.279339
    14  H   -0.100531
    15  H   -0.163722
    16  H   -0.387143
    17  H   -0.261695
    18  H    0.022030
    19  H    0.019441
 Sum of Mulliken charges =  -0.00000

 Dipole moment (field-independent basis, Debye):
    X=              3.2582    Y=              0.0272    Z=              0.0909  Tot=              3.2595

 Test job not archived.
 1\1\GINC-SE141\SP\RHF\Aug-CC-pVDZ\C6H12O1\OHZDE\09-Apr-2025\0\\#t hf a
 ug-cc-pvdz iop(5/13=1,5/36=2,99/5=2) pseudo=read geom=check guess=(rea
 d,tcheck) scf=(maxcycle=1)\\title\\0,1\C,0,2.21842219,0.01437575,-0.26
 432174\C,0,1.1457757,-0.41190835,0.59377216\O,0,1.39850872,-0.27382731
 ,1.97082151\C,0,-0.12109411,0.64959994,0.23032035\C,0,0.026307,0.91339
 175,-1.24209197\C,0,-1.46628221,0.2857636,0.42605487\C,0,-2.11502929,-
 0.92415279,-0.15641129\H,0,1.31558062,0.7641925,-1.18170837\H,0,2.6444
 7266,-0.68505669,-0.97266456\H,0,2.9035198,0.75435008,0.13715856\H,0,0

 Normal termination of Gaussian 16 at Wed Apr  9 15:54:42 2025.
