 Gaussian 16, Revision C.01,

 ----------------------------------------------------------------------
 #t hf aug-cc-pvdz symm=none int=(grid=ultrafine) guess=(read,tcheck) s
 table=(opt,rrhf)
 ----------------------------------------------------------------------
 -----
 title
 -----
 Symbolic Z-matrix:
 Charge =  0 Multiplicity = 1

 SCF Done:  E(RHF) =  -193.924969559     A.U. after   10 cycles
 Normal termination of Gaussian 16 at Wed Apr  9 03:05:18 2025.
 Gaussian 16:  ES64L-G16RevC.01  3-Jul-2019

 ----------------------------------------------------------------------
 #t hf aug-cc-pvdz iop(5/13=1,5/36=2,99/5=2) pseudo=read geom=check gue
 ss=(read,tcheck) scf=(maxcycle=1)
 ----------------------------------------------------------------------
 -----
 title
 -----
 Structure from the checkpoint file:  "Grambow2020_b97d3_006546_forward_mol2.chk"
 Charge =  0 Multiplicity = 1

                         Standard orientation:
 ---------------------------------------------------------------------
 Center     Atomic      Atomic             Coordinates (Angstroms)
 Number     Number       Type             X           Y           Z
 ---------------------------------------------------------------------
      1          6           0       -1.164469   -0.435067   -0.000190
      2          6           0       -0.000186   -0.000051    0.939770
      3          6           0        0.959013   -0.790861    0.000109
      4          6           0        0.000082   -0.000015   -0.939789
      5          6           0        0.205493    1.225936   -0.000055
      6          1           0       -2.061122    0.200514    0.000433
      7          1           0       -1.424487   -1.502949   -0.000769
      8          1           0       -0.000639    0.000426    2.037573
      9          1           0        0.857076   -1.885218    0.000239
     10          1           0        2.013870   -0.482268    0.000695
     11          1           0        0.000429    0.000559   -2.037471
     12          1           0        1.204557    1.684106    0.000074
     13          1           0       -0.589284    1.985181    0.000158
 ---------------------------------------------------------------------

 SCF Done:  E(RHF) =  -193.982871984     A.U. after    2 cycles

 The electronic state is 1-A.
 Alpha  occ. eigenvalues --  -11.24997 -11.24995 -11.23575 -11.23573 -11.23559
 Alpha  occ. eigenvalues --   -1.19251  -0.89708  -0.89704  -0.84515  -0.72717
 Alpha  occ. eigenvalues --   -0.67066  -0.61267  -0.61263  -0.49787  -0.45562
 Alpha  occ. eigenvalues --   -0.45559  -0.44885  -0.44878  -0.43388
 Alpha virt. eigenvalues --    0.03476   0.04296   0.04666   0.04667   0.06597
 Alpha virt. eigenvalues --    0.07021   0.07021   0.09160   0.12318   0.12557
 Alpha virt. eigenvalues --    0.12557   0.13163   0.13523   0.13524   0.15951

 Mulliken charges:
               1
     1  C    0.522603
     2  C    0.386666
     3  C    0.522571
     4  C    0.387281
     5  C    0.522034
     6  H   -0.271806
     7  H   -0.271642
     8  H   -0.355221
     9  H   -0.271751
    10  H   -0.271848
    11  H   -0.355476
    12  H   -0.271692
    13  H   -0.271721
 Sum of Mulliken charges =  -0.00000

 Dipole moment (field-independent basis, Debye):
    X=              0.0000    Y=              0.0000    Z=              0.0003  Tot=              0.0003

 Test job not archived.
 1\1\GINC-SE458\SP\RHF\Aug-CC-pVDZ\C5H8\OHZDE\09-Apr-2025\0\\#t hf aug-
 cc-pvdz iop(5/13=1,5/36=2,99/5=2) pseudo=read geom=check guess=(read,t
 check) scf=(maxcycle=1)\\title\\0,1\C,0,-0.65765995,1.04799015,-0.1206
 2281\C,0,-0.13316651,0.02350799,0.92992967\C,0,-0.57187119,-1.10235473
 ,-0.05413245\C,0,0.13304699,-0.02338273,-0.93008968\C,0,1.22951061,0.0
 543828,0.17443247\H,0,-0.22372264,2.05707387,-0.08320727\H,0,-1.745011
 33,1.07983593,-0.27757837\H,0,-0.28823341,0.05128818,2.01637132\H,0,-1
 .65292204,-1.23057,-0.20545705\H,0,-0.05905683,-2.06947912,0.04407852\

 Normal termination of Gaussian 16 at Wed Apr  9 03:05:22 2025.
