 Gaussian 16, Revision C.01,

 ----------------------------------------------------------------------
 #t hf aug-cc-pvdz symm=none int=(grid=ultrafine) guess=(read,tcheck) s
 table=(opt,rrhf)
 ----------------------------------------------------------------------
 -----
 title
 -----
 Symbolic Z-matrix:
 Charge =  0 Multiplicity = 1

 SCF Done:  E(RHF) =  -306.894781785     A.U. after   14 cycles

 1\1\GINC-SE054\Stability\RHF\Aug-CC-pVDZ\C4H10O2\OHZDE\09-Apr-2025\0\\
 #t hf aug-cc-pvdz symm=none int=(grid=ultrafine) guess=(read,tcheck) s
 table=(opt,rrhf)\\title\\0,1\C,0,2.01565167,0.35520987,0.00521831\O,0,
 1.17934675,-0.5055205,-0.76274226\C,0,-0.26333113,-1.32757312,0.439499
 24\C,0,-1.43892636,-0.5448748,0.49019392\C,0,-1.24337497,1.07406923,-0
 .59492536\O,0,-0.66712246,0.78233853,-1.70986112\H,0,1.44157663,1.0346
 9959,0.65433091\H,0,2.67042694,-0.26301557,0.63543046\H,0,2.64287036,0
 .96070617,-0.66764378\H,0,0.4275127,-1.36004415,1.28065466\H,0,-0.2109

 Normal termination of Gaussian 16 at Wed Apr  9 14:04:14 2025.
 Gaussian 16:  ES64L-G16RevC.01  3-Jul-2019

 ----------------------------------------------------------------------
 #t hf aug-cc-pvdz iop(5/13=1,5/36=2,99/5=2) pseudo=read geom=check gue
 ss=(read,tcheck) scf=(maxcycle=1)
 ----------------------------------------------------------------------
 -----
 title
 -----
 Structure from the checkpoint file:  "Grambow2020_b97d3_006768_reverse_mol1.chk"
 Charge =  0 Multiplicity = 1

                         Standard orientation:
 ---------------------------------------------------------------------
 Center     Atomic      Atomic             Coordinates (Angstroms)
 Number     Number       Type             X           Y           Z
 ---------------------------------------------------------------------
      1          6           0       -2.001629   -0.289632    0.545536
      2          8           0       -1.222012   -0.038244   -0.620238
      3          6           0        0.061230    1.522788   -0.275357
      4          6           0        1.308643    1.097895    0.235170
      5          6           0        1.341886   -0.847786    0.458611
      6          8           0        0.796910   -1.411502   -0.563877
      7          1           0       -1.393618   -0.319535    1.463165
      8          1           0       -2.749944    0.509167    0.645773
      9          1           0       -2.525518   -1.252670    0.441275
     10          1           0       -0.672048    2.010521    0.365175
     11          1           0       -0.046755    1.736772   -1.336975
     12          1           0        2.132655    1.165833   -0.478779
     13          1           0        1.559789    1.413327    1.248429
     14          1           0        2.437393   -0.947828    0.569964
     15          1           0        0.815293   -0.843358    1.431161
     16          1           0       -0.417211   -0.773857   -0.660034
 ---------------------------------------------------------------------

 SCF Done:  E(RHF) =  -306.992781229     A.U. after    2 cycles

 The electronic state is 1-A.
 Alpha  occ. eigenvalues --  -20.56369 -20.51057 -11.33975 -11.33493 -11.28637
 Alpha  occ. eigenvalues --  -11.23326  -1.31126  -1.27376  -1.05090  -0.92071
 Alpha  occ. eigenvalues --   -0.87416  -0.81389  -0.71590  -0.67801  -0.63190
 Alpha  occ. eigenvalues --   -0.62512  -0.61487  -0.59416  -0.58364  -0.54805
 Alpha  occ. eigenvalues --   -0.52366  -0.50346  -0.46158  -0.40801  -0.34329
 Alpha virt. eigenvalues --    0.03030   0.03725   0.04491   0.04923   0.06140
 Alpha virt. eigenvalues --    0.06284   0.06695   0.07212   0.07815   0.09270
 Alpha virt. eigenvalues --    0.09942   0.12787   0.13157   0.13628   0.14713

 Mulliken charges:
               1
     1  C    0.796789
     2  O   -0.801049
     3  C    0.652139
     4  C    0.157668
     5  C    0.740224
     6  O   -0.774658
     7  H   -0.154187
     8  H   -0.161933
     9  H   -0.186951
    10  H   -0.174042
    11  H   -0.197160
    12  H   -0.112224
    13  H   -0.134897
    14  H   -0.170177
    15  H   -0.077999
    16  H    0.598459
 Sum of Mulliken charges =  -0.00000

 Dipole moment (field-independent basis, Debye):
    X=             -0.1775    Y=              3.4670    Z=              2.8393  Tot=              4.4848

 Test job not archived.
 1\1\GINC-SE054\SP\RHF\Aug-CC-pVDZ\C4H10O2\OHZDE\09-Apr-2025\0\\#t hf a
 ug-cc-pvdz iop(5/13=1,5/36=2,99/5=2) pseudo=read geom=check guess=(rea
 d,tcheck) scf=(maxcycle=1)\\title\\0,1\C,0,2.01565167,0.35520987,0.005
 21831\O,0,1.17934675,-0.5055205,-0.76274226\C,0,-0.26333113,-1.3275731
 2,0.43949924\C,0,-1.43892636,-0.5448748,0.49019392\C,0,-1.24337497,1.0
 7406923,-0.59492536\O,0,-0.66712246,0.78233853,-1.70986112\H,0,1.44157
 663,1.03469959,0.65433091\H,0,2.67042694,-0.26301557,0.63543046\H,0,2.
 64287036,0.96070617,-0.66764378\H,0,0.4275127,-1.36004415,1.28065466\H

 Normal termination of Gaussian 16 at Wed Apr  9 14:04:19 2025.
