 Gaussian 16, Revision C.01,

 ----------------------------------------------------------------------
 #t hf aug-cc-pvdz symm=none int=(grid=ultrafine) guess=(read,tcheck) s
 table=(opt,rrhf)
 ----------------------------------------------------------------------
 -----
 title
 -----
 Symbolic Z-matrix:
 Charge =  0 Multiplicity = 1

 SCF Done:  E(RHF) =  -354.528863251     A.U. after   17 cycles
 Normal termination of Gaussian 16 at Wed Apr  9 15:44:45 2025.
 Gaussian 16:  ES64L-G16RevC.01  3-Jul-2019

 ----------------------------------------------------------------------
 #t hf aug-cc-pvdz iop(5/13=1,5/36=2,99/5=2) pseudo=read geom=check gue
 ss=(read,tcheck) scf=(maxcycle=1)
 ----------------------------------------------------------------------
 -----
 title
 -----
 Structure from the checkpoint file:  "Grambow2020_wb97xd3_007316_reverse_mol1.chk"
 Charge =  0 Multiplicity = 1

                         Standard orientation:
 ---------------------------------------------------------------------
 Center     Atomic      Atomic             Coordinates (Angstroms)
 Number     Number       Type             X           Y           Z
 ---------------------------------------------------------------------
      1          8           0       -2.454206   -0.312280    0.116754
      2          6           0       -1.504267    0.594681    0.073835
      3          6           0       -0.200491    0.306043   -0.280391
      4          7           0        0.193334   -0.986226   -0.339122
      5          7           0        1.423501   -0.885743    0.061651
      6          6           0        1.827584    0.433255    0.102273
      7          7           0        0.839751    1.205110   -0.179165
      8          1           0       -2.056255   -1.185379   -0.019172
      9          1           0        0.742145   -0.264328    2.116900
     10          1           0       -1.824880    1.606884    0.279346
     11          1           0        1.994545   -1.706716    0.184459
     12          1           0        2.845038    0.711914    0.326586
 ---------------------------------------------------------------------

 SCF Done:  E(RHF) =  -354.634190179     A.U. after    2 cycles

 The electronic state is 1-A.
 Alpha  occ. eigenvalues --  -20.67462 -15.78296 -15.72005 -15.65190 -11.40855
 Alpha  occ. eigenvalues --  -11.35813 -11.33179  -1.45346  -1.43003  -1.21808
 Alpha  occ. eigenvalues --   -1.13903  -1.00827  -0.89124  -0.88646  -0.81041
 Alpha  occ. eigenvalues --   -0.75133  -0.72595  -0.68338  -0.65623  -0.64978
 Alpha  occ. eigenvalues --   -0.60616  -0.54294  -0.48714  -0.45145  -0.39823
 Alpha  occ. eigenvalues --   -0.23556
 Alpha virt. eigenvalues --   -0.00664   0.02557   0.03591   0.04017   0.05822
 Alpha virt. eigenvalues --    0.07272   0.09625   0.10966   0.11443   0.11745
 Alpha virt. eigenvalues --    0.12187   0.13016   0.13853   0.15037   0.15939

 Mulliken charges:
               1
     1  O   -0.416838
     2  C    0.754929
     3  C    0.526744
     4  N   -0.373353
     5  N   -0.164096
     6  C    0.648272
     7  N   -0.506983
     8  H    0.218705
     9  H   -0.347140
    10  H   -0.175958
    11  H    0.038413
    12  H   -0.202696
 Sum of Mulliken charges =   0.00000

 Dipole moment (field-independent basis, Debye):
    X=              0.7576    Y=             -1.5063    Z=             -4.5483  Tot=              4.8507

 Test job not archived.
 1\1\GINC-SE113\SP\RHF\Aug-CC-pVDZ\C3H5N3O1\OHZDE\09-Apr-2025\0\\#t hf
 aug-cc-pvdz iop(5/13=1,5/36=2,99/5=2) pseudo=read geom=check guess=(re
 ad,tcheck) scf=(maxcycle=1)\\title\\0,1\O,0,-2.42635121,0.93243727,-0.
 41149197\C,0,-1.70147434,0.09933922,0.30076208\C,0,-0.32609415,0.18739
 045,0.39665589\N,0,0.34234055,0.98770151,-0.46427663\N,0,1.43863713,0.
 31230246,-0.62550823\C,0,1.53527173,-0.70786127,0.2989476\N,0,0.463723
 96,-0.76447267,1.00560249\H,0,-1.83202093,1.50432726,-0.92027044\H,0,0
 .31083779,-1.34340575,-1.65562889\H,0,-2.26292166,-0.63467455,0.862529

 Normal termination of Gaussian 16 at Wed Apr  9 15:44:49 2025.
