 Gaussian 16, Revision C.01,

 ----------------------------------------------------------------------
 #t hf aug-cc-pvdz symm=none int=(grid=ultrafine) guess=(read,tcheck) s
 table=(opt,rrhf)
 ----------------------------------------------------------------------
 -----
 title
 -----
 Symbolic Z-matrix:
 Charge =  0 Multiplicity = 1

 SCF Done:  E(RHF) =  -337.367011727     A.U. after   16 cycles
 Normal termination of Gaussian 16 at Wed Apr  9 17:16:12 2025.
 Gaussian 16:  ES64L-G16RevC.01  3-Jul-2019

 ----------------------------------------------------------------------
 #t hf aug-cc-pvdz iop(5/13=1,5/36=2,99/5=2) pseudo=read geom=check gue
 ss=(read,tcheck) scf=(maxcycle=1)
 ----------------------------------------------------------------------
 -----
 title
 -----
 Structure from the checkpoint file:  "Grambow2020_wb97xd3_009446_reverse_mol1.chk"
 Charge =  0 Multiplicity = 1

                         Standard orientation:
 ---------------------------------------------------------------------
 Center     Atomic      Atomic             Coordinates (Angstroms)
 Number     Number       Type             X           Y           Z
 ---------------------------------------------------------------------
      1          7           0        1.131046   -0.416137    1.144456
      2          6           0        0.697675   -0.796084    0.051338
      3          6           0       -0.723898   -1.180314   -0.319529
      4          8           0       -1.462627   -0.000687    0.000585
      5          6           0       -0.725143    1.180290    0.318224
      6          6           0        0.697277    0.796138   -0.050854
      7          7           0        1.131850    0.416762   -1.143671
      8          1           0       -1.060270   -1.995830    0.319525
      9          1           0       -0.845615   -1.429112   -1.372742
     10          1           0       -1.060572    1.994741   -0.322843
     11          1           0       -0.848258    1.431141    1.370813
 ---------------------------------------------------------------------

 SCF Done:  E(RHF) =  -337.463550748     A.U. after    2 cycles

 The electronic state is 1-A.
 Alpha  occ. eigenvalues --  -20.61725 -15.67036 -15.67030 -11.37089 -11.37043
 Alpha  occ. eigenvalues --  -11.34636 -11.34609  -1.40284  -1.32106  -1.16235
 Alpha  occ. eigenvalues --   -1.04777  -0.94586  -0.78362  -0.77258  -0.71860
 Alpha  occ. eigenvalues --   -0.67622  -0.64490  -0.63399  -0.56271  -0.56181
 Alpha  occ. eigenvalues --   -0.55475  -0.50102  -0.49265  -0.46905  -0.35305
 Alpha virt. eigenvalues --    0.03120   0.03971   0.04840   0.05918   0.06494
 Alpha virt. eigenvalues --    0.07411   0.08055   0.10409   0.10902   0.11327
 Alpha virt. eigenvalues --    0.12430   0.13605   0.13638   0.14494   0.15776

 Mulliken charges:
               1
     1  N   -0.569387
     2  C    0.029307
     3  C    1.031183
     4  O   -0.698584
     5  C    1.030588
     6  C    0.028639
     7  N   -0.569194
     8  H   -0.058676
     9  H   -0.082730
    10  H   -0.058154
    11  H   -0.082992
 Sum of Mulliken charges =   0.00000

 Dipole moment (field-independent basis, Debye):
    X=             -1.9596    Y=             -0.0006    Z=             -0.0038  Tot=              1.9596

 Test job not archived.
 1\1\GINC-SE220\SP\RHF\Aug-CC-pVDZ\C4H4N2O1\OHZDE\09-Apr-2025\0\\#t hf
 aug-cc-pvdz iop(5/13=1,5/36=2,99/5=2) pseudo=read geom=check guess=(re
 ad,tcheck) scf=(maxcycle=1)\\title\\0,1\N,0,0.95407135,-0.22720125,1.5
 6651375\C,0,0.90849535,0.5751964,0.62781319\C,0,0.94064799,0.28793816,
 -0.86298962\O,0,-0.17998486,-0.57940231,-1.04079336\C,0,-1.08004346,-0
 .73678472,0.05675266\C,0,-0.61855245,0.33864099,1.02502742\N,0,-0.5336
 9107,1.5570072,0.83684883\H,0,1.85295461,-0.25315762,-1.11101134\H,0,0
 .83119415,1.17911677,-1.47926471\H,0,-2.09327442,-0.51600897,-0.277059

 Normal termination of Gaussian 16 at Wed Apr  9 17:16:16 2025.
