 Gaussian 16, Revision C.01,

 ----------------------------------------------------------------------
 #t hf aug-cc-pvdz symm=none int=(grid=ultrafine) guess=(read,tcheck) s
 table=(opt,rrhf)
 ----------------------------------------------------------------------
 -----
 title
 -----
 Symbolic Z-matrix:
 Charge =  0 Multiplicity = 1

 SCF Done:  E(RHF) =  -353.442968076     A.U. after   15 cycles
 Normal termination of Gaussian 16 at Wed Apr  9 16:06:43 2025.
 Gaussian 16:  ES64L-G16RevC.01  3-Jul-2019

 ----------------------------------------------------------------------
 #t hf aug-cc-pvdz iop(5/13=1,5/36=2,99/5=2) pseudo=read geom=check gue
 ss=(read,tcheck) scf=(maxcycle=1)
 ----------------------------------------------------------------------
 -----
 title
 -----
 Structure from the checkpoint file:  "Grambow2020_wb97xd3_007767_reverse_mol2.chk"
 Charge =  0 Multiplicity = 1

                         Standard orientation:
 ---------------------------------------------------------------------
 Center     Atomic      Atomic             Coordinates (Angstroms)
 Number     Number       Type             X           Y           Z
 ---------------------------------------------------------------------
      1          8           0        2.485848   -0.430570   -0.032666
      2          6           0        1.666907    0.436268   -0.098993
      3          7           0        0.319967    0.197814   -0.437617
      4          6           0       -0.464889   -0.669307    0.357147
      5          7           0       -1.790567   -0.831784   -0.265165
      6          6           0       -1.900049    0.431165   -0.140642
      7          7           0       -0.651169    0.772720    0.545100
      8          1           0        1.879669    1.510286    0.014187
      9          1           0       -0.043765   -1.342826    1.091348
     10          1           0       -2.682112    1.117098   -0.445499
 ---------------------------------------------------------------------

 SCF Done:  E(RHF) =  -353.543286327     A.U. after    2 cycles

 The electronic state is 1-A.
 Alpha  occ. eigenvalues --  -20.59574 -15.71785 -15.70849 -15.66555 -11.39708
 Alpha  occ. eigenvalues --  -11.38249 -11.36243  -1.44200  -1.39372  -1.22280
 Alpha  occ. eigenvalues --   -1.04552  -0.95823  -0.83516  -0.79706  -0.73330
 Alpha  occ. eigenvalues --   -0.71488  -0.69837  -0.64373  -0.58893  -0.56402
 Alpha  occ. eigenvalues --   -0.51802  -0.51177  -0.45547  -0.44595  -0.42275
 Alpha virt. eigenvalues --    0.02823   0.03860   0.04066   0.06621   0.08133
 Alpha virt. eigenvalues --    0.09319   0.10119   0.10296   0.11356   0.11745
 Alpha virt. eigenvalues --    0.13613   0.14116   0.14529   0.15818   0.16371

 Mulliken charges:
               1
     1  O   -0.431290
     2  C    0.797394
     3  N   -0.494744
     4  C    1.256639
     5  N   -0.617135
     6  C    0.778551
     7  N   -0.826722
     8  H   -0.140576
     9  H   -0.186132
    10  H   -0.135985
 Sum of Mulliken charges =  -0.00000

 Dipole moment (field-independent basis, Debye):
    X=             -1.8168    Y=              2.4677    Z=              0.7712  Tot=              3.1599

 Test job not archived.
 1\1\GINC-SE037\SP\RHF\Aug-CC-pVDZ\C3H3N3O1\OHZDE\09-Apr-2025\0\\#t hf
 aug-cc-pvdz iop(5/13=1,5/36=2,99/5=2) pseudo=read geom=check guess=(re
 ad,tcheck) scf=(maxcycle=1)\\title\\0,1\O,0,2.55583353,0.55358498,0.48
 5865\C,0,1.73947905,-0.31607193,0.42475616\N,0,0.35576819,-0.08278654,
 0.5539708\C,0,-0.30151046,0.78355829,-0.3498982\N,0,-1.70728978,0.9402
 9525,0.06278911\C,0,-1.7919406,-0.32272027,-0.07919121\N,0,-0.4517238,
 -0.65864172,-0.56661003\H,0,1.97087636,-1.38913115,0.34355974\H,0,0.22
 445598,1.46010655,-1.00994828\H,0,-2.60894847,-1.01189147,0.10137691\\

 Normal termination of Gaussian 16 at Wed Apr  9 16:06:47 2025.
