 Gaussian 16, Revision C.01,

 ----------------------------------------------------------------------
 #t hf aug-cc-pvdz symm=none int=(grid=ultrafine) guess=(read,tcheck) s
 table=(opt,rrhf)
 ----------------------------------------------------------------------
 -----
 title
 -----
 Symbolic Z-matrix:
 Charge =  0 Multiplicity = 1

 SCF Done:  E(RHF) =  -359.694338964     A.U. after   15 cycles
 Normal termination of Gaussian 16 at Wed Apr  9 04:04:46 2025.
 Gaussian 16:  ES64L-G16RevC.01  3-Jul-2019

 ----------------------------------------------------------------------
 #t hf aug-cc-pvdz iop(5/13=1,5/36=2,99/5=2) pseudo=read geom=check gue
 ss=(read,tcheck) scf=(maxcycle=1)
 ----------------------------------------------------------------------
 -----
 title
 -----
 Structure from the checkpoint file:  "Grambow2020_wb97xd3_009254_reverse_mol1.chk"
 Charge =  0 Multiplicity = 1

                         Standard orientation:
 ---------------------------------------------------------------------
 Center     Atomic      Atomic             Coordinates (Angstroms)
 Number     Number       Type             X           Y           Z
 ---------------------------------------------------------------------
      1          6           0        0.269715    1.899172    0.436426
      2          6           0        0.296674    0.607061   -0.393194
      3          6           0        1.641284   -0.068469   -0.244223
      4          8           0        1.841314   -1.196474    0.110009
      5          6           0       -0.897558   -0.248901   -0.097705
      6          8           0       -2.090780    0.213099   -0.231235
      7          7           0       -0.991463   -1.475702    0.305012
      8          1           0        0.317162    1.675724    1.503142
      9          1           0        1.117179    2.536917    0.179224
     10          1           0       -0.650602    2.445193    0.240294
     11          1           0        0.218818    0.893352   -1.450001
     12          1           0        2.493719    0.597450   -0.493552
     13          1           0       -0.191915   -2.066373    0.477435
     14          1           0       -2.229083   -1.018528    0.170365
 ---------------------------------------------------------------------

 SCF Done:  E(RHF) =  -359.806463483     A.U. after    2 cycles

 The electronic state is 1-A.
 Alpha  occ. eigenvalues --  -20.60082 -20.56055 -15.61938 -11.37258 -11.37164
 Alpha  occ. eigenvalues --  -11.29279 -11.26443  -1.39462  -1.38010  -1.14947
 Alpha  occ. eigenvalues --   -1.10207  -0.93089  -0.86698  -0.78375  -0.73385
 Alpha  occ. eigenvalues --   -0.71598  -0.67355  -0.63339  -0.62781  -0.59035
 Alpha  occ. eigenvalues --   -0.58576  -0.56516  -0.52833  -0.51508  -0.46267
 Alpha  occ. eigenvalues --   -0.45426  -0.40234
 Alpha virt. eigenvalues --    0.02695   0.04253   0.04605   0.04841   0.06524
 Alpha virt. eigenvalues --    0.06966   0.07486   0.08980   0.10355   0.11878
 Alpha virt. eigenvalues --    0.12526   0.13620   0.14052   0.14514   0.14870

 Mulliken charges:
               1
     1  C    0.541682
     2  C   -0.673539
     3  C    0.840363
     4  O   -0.425156
     5  C    0.589361
     6  O   -0.732840
     7  N   -0.419274
     8  H   -0.025794
     9  H   -0.092419
    10  H   -0.031555
    11  H    0.137720
    12  H   -0.152980
    13  H   -0.011182
    14  H    0.455612
 Sum of Mulliken charges =  -0.00000

 Dipole moment (field-independent basis, Debye):
    X=              2.4547    Y=              2.3580    Z=             -0.5481  Tot=              3.4477

 Test job not archived.
 1\1\GINC-SE338\SP\RHF\Aug-CC-pVDZ\C4H7N1O2\OHZDE\09-Apr-2025\0\\#t hf
 aug-cc-pvdz iop(5/13=1,5/36=2,99/5=2) pseudo=read geom=check guess=(re
 ad,tcheck) scf=(maxcycle=1)\\title\\0,1\C,0,-1.16360301,-1.10383847,-0
 .35974242\C,0,-0.44568115,0.25200762,-0.2903556\C,0,-0.96970958,1.0487
 8424,0.88312349\O,0,-0.32206876,1.52246253,1.77423455\C,0,1.0418987,0.
 07836955,-0.34629493\O,0,1.597599,-0.5481992,-1.32285128\N,0,1.9783372
 6,0.46205317,0.46111502\H,0,-0.90152881,-1.72530534,0.497672\H,0,-2.24
 59344,-0.96392012,-0.36679697\H,0,-0.87340887,-1.62971849,-1.26684103\

 Normal termination of Gaussian 16 at Wed Apr  9 04:04:50 2025.
