 Gaussian 16, Revision C.01,

 ----------------------------------------------------------------------
 #t hf aug-cc-pvdz symm=none int=(grid=ultrafine) guess=(read,tcheck) s
 table=(opt,rrhf)
 ----------------------------------------------------------------------
 -----
 title
 -----
 Symbolic Z-matrix:
 Charge =  0 Multiplicity = 1

 SCF Done:  E(RHF) =  -338.504187963     A.U. after   18 cycles
 Normal termination of Gaussian 16 at Wed Apr  9 16:33:04 2025.
 Gaussian 16:  ES64L-G16RevC.01  3-Jul-2019

 ----------------------------------------------------------------------
 #t hf aug-cc-pvdz iop(5/13=1,5/36=2,99/5=2) pseudo=read geom=check gue
 ss=(read,tcheck) scf=(maxcycle=1)
 ----------------------------------------------------------------------
 -----
 title
 -----
 Structure from the checkpoint file:  "Grambow2020_wb97xd3_008561_forward_mol1.chk"
 Charge =  0 Multiplicity = 1

                         Standard orientation:
 ---------------------------------------------------------------------
 Center     Atomic      Atomic             Coordinates (Angstroms)
 Number     Number       Type             X           Y           Z
 ---------------------------------------------------------------------
      1          7           0       -2.277851   -0.190892    0.159304
      2          6           0       -0.936837   -0.016317    0.057578
      3          8           0       -0.264490   -1.120411   -0.264153
      4          6           0        1.165233   -1.058885   -0.141692
      5          6           0        1.656248    0.251526    0.460606
      6          6           0        0.948326    1.335521   -0.308154
      7          7           0       -0.297017    1.263322   -0.305860
      8          1           0       -2.685608    0.739758    0.262928
      9          1           0       -1.286626    0.134206    1.198846
     10          1           0        1.568509   -1.210156   -1.144395
     11          1           0        1.458403   -1.900751    0.485706
     12          1           0        1.344909    0.323254    1.510649
     13          1           0        2.742590    0.298891    0.415366
 ---------------------------------------------------------------------

 SCF Done:  E(RHF) =  -338.603647208     A.U. after    2 cycles

 The electronic state is 1-A.
 Alpha  occ. eigenvalues --  -20.63526 -15.72584 -15.63970 -11.42930 -11.32288
 Alpha  occ. eigenvalues --  -11.25570 -11.24833  -1.43525  -1.25802  -1.19931
 Alpha  occ. eigenvalues --   -1.05200  -0.92419  -0.86382  -0.76941  -0.74976
 Alpha  occ. eigenvalues --   -0.71299  -0.69535  -0.62755  -0.58542  -0.58064
 Alpha  occ. eigenvalues --   -0.54641  -0.53672  -0.50093  -0.45997  -0.43676
 Alpha  occ. eigenvalues --   -0.27207
 Alpha virt. eigenvalues --    0.00152   0.02929   0.03477   0.04659   0.05417
 Alpha virt. eigenvalues --    0.06299   0.07512   0.09308   0.09570   0.11463
 Alpha virt. eigenvalues --    0.12803   0.13070   0.13335   0.14430   0.15051

 Mulliken charges:
               1
     1  N   -0.487307
     2  C    1.078234
     3  O   -0.622768
     4  C    0.770795
     5  C    0.065278
     6  C   -0.200998
     7  N   -0.395567
     8  H    0.060608
     9  H    0.120586
    10  H   -0.189345
    11  H   -0.134288
    12  H   -0.009753
    13  H   -0.055474
 Sum of Mulliken charges =  -0.00000

 Dipole moment (field-independent basis, Debye):
    X=             -0.4702    Y=             -2.1854    Z=              2.9095  Tot=              3.6691

 Test job not archived.
 1\1\GINC-SE229\SP\RHF\Aug-CC-pVDZ\C4H6N2O1\OHZDE\09-Apr-2025\0\\#t hf
 aug-cc-pvdz iop(5/13=1,5/36=2,99/5=2) pseudo=read geom=check guess=(re
 ad,tcheck) scf=(maxcycle=1)\\title\\0,1\N,0,-2.14453969,0.86527238,-0.
 78378279\C,0,-0.87976869,0.49214535,-0.46712269\O,0,-0.61379407,-0.792
 09438,-0.70072794\C,0,0.61466811,-1.301318,-0.15808412\C,0,1.35085425,
 -0.28570973,0.70655725\C,0,1.38906121,0.9802849,-0.10768327\N,0,0.2776
 9715,1.40814997,-0.47903018\H,0,-2.17779203,1.88255824,-0.69929854\H,0
 ,-1.48548688,0.78364161,0.53069451\H,0,1.22306891,-1.61295576,-1.00876

 Normal termination of Gaussian 16 at Wed Apr  9 16:33:10 2025.
