 Gaussian 16, Revision C.01,

 ----------------------------------------------------------------------
 #t hf aug-cc-pvdz symm=none int=(grid=ultrafine) guess=(read,tcheck) s
 table=(opt,rrhf)
 ----------------------------------------------------------------------
 -----
 title
 -----
 Symbolic Z-matrix:
 Charge =  0 Multiplicity = 1

 SCF Done:  E(RHF) =  -374.397622053     A.U. after   17 cycles
 Normal termination of Gaussian 16 at Wed Apr  9 15:45:43 2025.
 Gaussian 16:  ES64L-G16RevC.01  3-Jul-2019

 ----------------------------------------------------------------------
 #t hf aug-cc-pvdz iop(5/13=1,5/36=2,99/5=2) pseudo=read geom=check gue
 ss=(read,tcheck) scf=(maxcycle=1)
 ----------------------------------------------------------------------
 -----
 title
 -----
 Structure from the checkpoint file:  "Grambow2020_wb97xd3_007334_forward_mol1.chk"
 Charge =  0 Multiplicity = 1

                         Standard orientation:
 ---------------------------------------------------------------------
 Center     Atomic      Atomic             Coordinates (Angstroms)
 Number     Number       Type             X           Y           Z
 ---------------------------------------------------------------------
      1          7           0        2.281446   -0.811000    0.461547
      2          6           0        1.640000    0.224509   -0.090282
      3          6           0        1.259271    1.251324   -0.619761
      4          8           0       -1.550161    0.983196    0.853078
      5          6           0       -1.396341    0.034632    0.148131
      6          8           0       -2.033637   -0.950919   -0.305702
      7          7           0       -0.222898   -0.480700   -0.517656
      8          1           0        1.686151   -1.581458    0.721978
      9          1           0        2.995414   -0.577287    1.131819
     10          1           0        0.853361    2.178472   -0.950929
     11          1           0       -0.291952   -0.298830   -1.517638
 ---------------------------------------------------------------------

 SCF Done:  E(RHF) =  -374.515100656     A.U. after    2 cycles

 The electronic state is 1-A.
 Alpha  occ. eigenvalues --  -20.57702 -20.55649 -15.77482 -15.69470 -11.42041
 Alpha  occ. eigenvalues --  -11.35375 -11.29532  -1.42011  -1.32860  -1.25105
 Alpha  occ. eigenvalues --   -1.15704  -1.05250  -0.80933  -0.80549  -0.75514
 Alpha  occ. eigenvalues --   -0.73810  -0.70984  -0.67048  -0.65941  -0.58197
 Alpha  occ. eigenvalues --   -0.55170  -0.52502  -0.47271  -0.46681  -0.41503
 Alpha  occ. eigenvalues --   -0.39311
 Alpha virt. eigenvalues --    0.01950   0.03049   0.03410   0.05494   0.06055
 Alpha virt. eigenvalues --    0.09645   0.10142   0.11129   0.11266   0.12016
 Alpha virt. eigenvalues --    0.12416   0.13271   0.14488   0.14856   0.16056

 Mulliken charges:
               1
     1  N   -0.168068
     2  C   -0.091823
     3  C    0.912994
     4  O   -0.388031
     5  C    0.612539
     6  O   -0.539667
     7  N   -0.326974
     8  H    0.106881
     9  H    0.004988
    10  H   -0.300109
    11  H    0.177272
 Sum of Mulliken charges =  -0.00000

 Dipole moment (field-independent basis, Debye):
    X=              6.2841    Y=              0.1219    Z=             -1.2423  Tot=              6.4069

 Test job not archived.
 1\1\GINC-SE097\SP\RHF\Aug-CC-pVDZ\C3H4N2O2\OHZDE\09-Apr-2025\0\\#t hf
 aug-cc-pvdz iop(5/13=1,5/36=2,99/5=2) pseudo=read geom=check guess=(re
 ad,tcheck) scf=(maxcycle=1)\\title\\0,1\N,0,-1.93864734,-0.54010862,-0
 .37214492\C,0,-1.11764521,0.33411099,0.21941331\C,0,-0.55734586,1.2286
 9643,0.82392533\O,0,1.99901803,0.90719555,-1.04575277\C,0,1.82320982,-
 0.11562717,-0.45982776\O,0,2.39186771,-1.21533274,-0.23466477\N,0,0.68
 837128,-0.60617308,0.28670682\H,0,-1.47403304,-1.31816031,-0.81325267\
 H,0,-2.69733983,-0.14065328,-0.89983631\H,0,-0.00825311,2.0521204,1.21

 Normal termination of Gaussian 16 at Wed Apr  9 15:45:47 2025.
