 Gaussian 16, Revision C.01,

 ----------------------------------------------------------------------
 #t hf aug-cc-pvdz symm=none int=(grid=ultrafine) guess=(read,tcheck) s
 table=(opt,rrhf)
 ----------------------------------------------------------------------
 -----
 title
 -----
 Symbolic Z-matrix:
 Charge =  0 Multiplicity = 1

 SCF Done:  E(RHF) =  -269.997646927     A.U. after   12 cycles

 1\1\GINC-SE070\Stability\RHF\Aug-CC-pVDZ\C5H10O1\OHZDE\09-Apr-2025\0\\
 #t hf aug-cc-pvdz symm=none int=(grid=ultrafine) guess=(read,tcheck) s
 table=(opt,rrhf)\\title\\0,1\O,0,1.92131828,0.0500147,-0.44147888\C,0,
 1.47140512,-0.96726874,0.42957733\C,0,0.23453958,-1.64781335,-0.075374
 99\C,0,-0.87460527,-1.8056131,0.63046195\C,0,-0.95234704,1.8252922,-1.
 02677523\C,0,-0.74270562,2.07361266,0.25646474\H,0,1.22811503,0.715426
 29,-0.50587111\H,0,2.29137396,-1.68732267,0.49203009\H,0,1.29766394,-0
 .58228917,1.44332582\H,0,0.2902638,-2.018359,-1.09617049\H,0,-0.951522

 Normal termination of Gaussian 16 at Wed Apr  9 03:21:10 2025.
 Gaussian 16:  ES64L-G16RevC.01  3-Jul-2019

 ----------------------------------------------------------------------
 #t hf aug-cc-pvdz iop(5/13=1,5/36=2,99/5=2) pseudo=read geom=check gue
 ss=(read,tcheck) scf=(maxcycle=1)
 ----------------------------------------------------------------------
 -----
 title
 -----
 Structure from the checkpoint file:  "Grambow2020_wb97xd3_006151_reverse_mol2.chk"
 Charge =  0 Multiplicity = 1

                         Standard orientation:
 ---------------------------------------------------------------------
 Center     Atomic      Atomic             Coordinates (Angstroms)
 Number     Number       Type             X           Y           Z
 ---------------------------------------------------------------------
      1          8           0       -0.437628   -1.713490   -0.200764
      2          6           0       -1.378317   -0.818954    0.356853
      3          6           0       -1.476311    0.463064   -0.414369
      4          6           0       -1.366774    1.669240    0.120841
      5          6           0        2.305352    0.296862   -0.632833
      6          6           0        2.218731    0.244732    0.687053
      7          1           0        0.427328   -1.290846   -0.174826
      8          1           0       -2.337322   -1.342637    0.328720
      9          1           0       -1.154954   -0.604108    1.410433
     10          1           0       -1.643900    0.352367   -1.483056
     11          1           0       -1.194731    1.800524    1.184951
     12          1           0       -1.453949    2.569319   -0.475499
     13          1           0        3.073988   -0.242573   -1.174474
     14          1           0        1.607794    0.883382   -1.220488
     15          1           0        1.449163    0.790849    1.221792
     16          1           0        2.911520   -0.338019    1.283286
 ---------------------------------------------------------------------

 SCF Done:  E(RHF) =  -270.086641572     A.U. after    2 cycles

 The electronic state is 1-A.
 Alpha  occ. eigenvalues --  -20.56258 -11.28763 -11.25179 -11.25003 -11.24596
 Alpha  occ. eigenvalues --  -11.24053  -1.31764  -1.05864  -1.04314  -0.91871
 Alpha  occ. eigenvalues --   -0.80196  -0.77684  -0.70986  -0.65824  -0.62849
 Alpha  occ. eigenvalues --   -0.61967  -0.61287  -0.60315  -0.53444  -0.51666
 Alpha  occ. eigenvalues --   -0.49957  -0.45733  -0.39746  -0.37750
 Alpha virt. eigenvalues --    0.03533   0.04288   0.04529   0.05046   0.06016
 Alpha virt. eigenvalues --    0.06747   0.06888   0.07315   0.08355   0.08858
 Alpha virt. eigenvalues --    0.10379   0.11875   0.12703   0.13691   0.14764

 Mulliken charges:
               1
     1  O   -0.484504
     2  C    0.698778
     3  C    0.489093
     4  C    0.545501
     5  C    0.540355
     6  C    0.617370
     7  H    0.161197
     8  H   -0.110290
     9  H   -0.242975
    10  H   -0.384302
    11  H   -0.330216
    12  H   -0.316380
    13  H   -0.296302
    14  H   -0.272254
    15  H   -0.326816
    16  H   -0.288255
 Sum of Mulliken charges =  -0.00000

 Dipole moment (field-independent basis, Debye):
    X=              0.6123    Y=              1.7116    Z=              0.5206  Tot=              1.8909

 Test job not archived.
 1\1\GINC-SE070\SP\RHF\Aug-CC-pVDZ\C5H10O1\OHZDE\09-Apr-2025\0\\#t hf a
 ug-cc-pvdz iop(5/13=1,5/36=2,99/5=2) pseudo=read geom=check guess=(rea
 d,tcheck) scf=(maxcycle=1)\\title\\0,1\O,0,1.92131828,0.0500147,-0.441
 47888\C,0,1.47140512,-0.96726874,0.42957733\C,0,0.23453958,-1.64781335
 ,-0.07537499\C,0,-0.87460527,-1.8056131,0.63046195\C,0,-0.95234704,1.8
 252922,-1.02677523\C,0,-0.74270562,2.07361266,0.25646474\H,0,1.2281150
 3,0.71542629,-0.50587111\H,0,2.29137396,-1.68732267,0.49203009\H,0,1.2
 9766394,-0.58228917,1.44332582\H,0,0.2902638,-2.018359,-1.09617049\H,0

 Normal termination of Gaussian 16 at Wed Apr  9 03:21:15 2025.
