 Gaussian 16, Revision C.01,

 ----------------------------------------------------------------------
 #t hf aug-cc-pvdz symm=none int=(grid=ultrafine) guess=(read,tcheck) s
 table=(opt,rrhf)
 ----------------------------------------------------------------------
 -----
 title
 -----
 Symbolic Z-matrix:
 Charge =  0 Multiplicity = 1

 SCF Done:  E(RHF) =  -358.374528526     A.U. after   21 cycles
 Normal termination of Gaussian 16 at Wed Apr  9 03:28:06 2025.
 Gaussian 16:  ES64L-G16RevC.01  3-Jul-2019

 ----------------------------------------------------------------------
 #t hf aug-cc-pvdz iop(5/13=1,5/36=2,99/5=2) pseudo=read geom=check gue
 ss=(read,tcheck) scf=(maxcycle=1)
 ----------------------------------------------------------------------
 -----
 title
 -----
 Structure from the checkpoint file:  "Grambow2020_wb97xd3_006753_reverse_mol1.chk"
 Charge =  0 Multiplicity = 1

                         Standard orientation:
 ---------------------------------------------------------------------
 Center     Atomic      Atomic             Coordinates (Angstroms)
 Number     Number       Type             X           Y           Z
 ---------------------------------------------------------------------
      1          8           0        1.908515   -0.952281   -0.009327
      2          6           0        1.493168    0.163635   -0.128073
      3          6           0        0.029409    0.572626    0.069621
      4          8           0       -0.270832    1.814446    0.126992
      5          7           0       -0.914327    0.099619   -0.985694
      6          6           0       -1.382207   -1.044422   -0.259628
      7          6           0       -0.800649   -0.443898    1.002172
      8          1           0        2.138037    1.030966   -0.375799
      9          1           0       -0.789376   -1.908607   -0.599240
     10          1           0       -2.445561   -1.265672   -0.343999
     11          1           0       -1.498118    0.143693    1.586284
     12          1           0       -0.144482   -1.082676    1.586740
 ---------------------------------------------------------------------

 SCF Done:  E(RHF) =  -358.480249711     A.U. after    2 cycles

 The electronic state is 1-A.
 Alpha  occ. eigenvalues --  -20.60593 -20.54183 -15.77732 -11.36554 -11.36234
 Alpha  occ. eigenvalues --  -11.32105 -11.28327  -1.39916  -1.35059  -1.23713
 Alpha  occ. eigenvalues --   -0.98592  -0.96067  -0.88198  -0.76486  -0.70190
 Alpha  occ. eigenvalues --   -0.68801  -0.68688  -0.67384  -0.62911  -0.58370
 Alpha  occ. eigenvalues --   -0.56996  -0.55373  -0.51285  -0.47710  -0.41008
 Alpha  occ. eigenvalues --   -0.40206
 Alpha virt. eigenvalues --   -0.02883   0.02758   0.04417   0.04442   0.05306
 Alpha virt. eigenvalues --    0.06970   0.07770   0.08694   0.10206   0.11383
 Alpha virt. eigenvalues --    0.11758   0.12323   0.14451   0.14694   0.14925

 Mulliken charges:
               1
     1  O   -0.430332
     2  C    0.587221
     3  C    0.224574
     4  O   -0.733299
     5  N   -0.493822
     6  C    0.754160
     7  C    0.541491
     8  H   -0.028425
     9  H   -0.066271
    10  H   -0.151794
    11  H   -0.099695
    12  H   -0.103808
 Sum of Mulliken charges =  -0.00000

 Dipole moment (field-independent basis, Debye):
    X=             -1.7401    Y=             -3.6718    Z=             -0.0113  Tot=              4.0633

 Test job not archived.
 1\1\GINC-SE247\SP\RHF\Aug-CC-pVDZ\C4H5N1O2\OHZDE\09-Apr-2025\0\\#t hf
 aug-cc-pvdz iop(5/13=1,5/36=2,99/5=2) pseudo=read geom=check guess=(re
 ad,tcheck) scf=(maxcycle=1)\\title\\0,1\O,0,0.95981584,1.01562812,1.76
 492052\C,0,1.49826184,0.44198806,0.8633127\C,0,0.77050476,-0.15335921,
 -0.34700864\O,0,1.45254958,-0.55659223,-1.35088677\N,0,-0.05980733,-1.
 36081732,-0.06294729\C,0,-1.30518635,-0.65883967,0.0427379\C,0,-0.6585
 5237,0.52936303,-0.6362434\H,0,2.59610451,0.29956021,0.8005262\H,0,-1.
 47624445,-0.4614397,1.11295924\H,0,-2.17445948,-1.15404187,-0.38846038

 Normal termination of Gaussian 16 at Wed Apr  9 03:28:10 2025.
