 Gaussian 16, Revision C.01,

 ----------------------------------------------------------------------
 #t hf aug-cc-pvdz symm=none int=(grid=ultrafine) guess=(read,tcheck) s
 table=(opt,rrhf)
 ----------------------------------------------------------------------
 -----
 title
 -----
 Symbolic Z-matrix:
 Charge =  0 Multiplicity = 1

 SCF Done:  E(RHF) =  -338.628103496     A.U. after   16 cycles
 Normal termination of Gaussian 16 at Wed Apr  9 15:19:53 2025.
 Gaussian 16:  ES64L-G16RevC.01  3-Jul-2019

 ----------------------------------------------------------------------
 #t hf aug-cc-pvdz iop(5/13=1,5/36=2,99/5=2) pseudo=read geom=check gue
 ss=(read,tcheck) scf=(maxcycle=1)
 ----------------------------------------------------------------------
 -----
 title
 -----
 Structure from the checkpoint file:  "Grambow2020_wb97xd3_006848_reverse_mol2.chk"
 Charge =  0 Multiplicity = 1

                         Standard orientation:
 ---------------------------------------------------------------------
 Center     Atomic      Atomic             Coordinates (Angstroms)
 Number     Number       Type             X           Y           Z
 ---------------------------------------------------------------------
      1          7           0       -2.433339   -0.407496   -0.253508
      2          6           0       -1.117242   -0.156068    0.296027
      3          6           0       -0.595043    1.216576    0.045036
      4          7           0        0.687911    1.096987   -0.057332
      5          6           0        1.072093   -0.276724    0.009414
      6          8           0        2.419262   -0.438277   -0.123112
      7          6           0        0.040058   -1.117601    0.150559
      8          1           0       -2.332995   -0.618805   -1.239103
      9          1           0       -2.789912   -1.257452    0.165099
     10          1           0       -1.105818    2.169237    0.018234
     11          1           0        1.338023    1.867400   -0.145708
     12          1           0        2.572827   -1.383998   -0.046183
     13          1           0       -1.217436   -0.093703    1.402218
 ---------------------------------------------------------------------

 SCF Done:  E(RHF) =  -338.729130060     A.U. after    2 cycles

 The electronic state is 1-A.
 Alpha  occ. eigenvalues --  -20.58874 -15.74041 -15.61576 -11.35134 -11.30000
 Alpha  occ. eigenvalues --  -11.28311 -11.16619  -1.36675  -1.30456  -1.16417
 Alpha  occ. eigenvalues --   -1.01950  -0.98255  -0.82430  -0.79974  -0.77174
 Alpha  occ. eigenvalues --   -0.68744  -0.66033  -0.64289  -0.62926  -0.58511
 Alpha  occ. eigenvalues --   -0.55365  -0.54659  -0.50080  -0.40120  -0.31274
 Alpha  occ. eigenvalues --   -0.29611
 Alpha virt. eigenvalues --    0.01908   0.03962   0.04285   0.04617   0.06197
 Alpha virt. eigenvalues --    0.06797   0.08055   0.09869   0.10642   0.12346
 Alpha virt. eigenvalues --    0.12953   0.13604   0.13933   0.15379   0.15966

 Mulliken charges:
               1
     1  N   -0.460423
     2  C    0.417643
     3  C    0.502520
     4  N   -0.428004
     5  C    1.015835
     6  O   -0.560957
     7  C   -0.565643
     8  H    0.015216
     9  H    0.057001
    10  H   -0.235101
    11  H   -0.063653
    12  H    0.145886
    13  H    0.159680
 Sum of Mulliken charges =   0.00000

 Dipole moment (field-independent basis, Debye):
    X=             -0.2946    Y=              4.7916    Z=             -0.2537  Tot=              4.8073

 Test job not archived.
 1\1\GINC-SE113\SP\RHF\Aug-CC-pVDZ\C4H6N2O1\OHZDE\09-Apr-2025\0\\#t hf
 aug-cc-pvdz iop(5/13=1,5/36=2,99/5=2) pseudo=read geom=check guess=(re
 ad,tcheck) scf=(maxcycle=1)\\title\\0,1\N,0,-2.16796359,0.55913473,-0.
 01949958\C,0,-0.76567509,0.39380217,-0.34131899\C,0,-0.3540613,-1.0138
 277,-0.60397914\N,0,0.87002124,-1.10888343,-0.19982888\C,0,1.29433031,
 0.11017793,0.4108958\O,0,2.574634,0.03251487,0.87275937\C,0,0.34785686
 ,1.05653675,0.43706381\H,0,-2.30035492,0.33101545,0.95853516\H,0,-2.39
 22689,1.54339935,-0.09507952\H,0,-0.88086717,-1.82058607,-1.09468205\H

 Normal termination of Gaussian 16 at Wed Apr  9 15:19:57 2025.
