 Gaussian 16, Revision C.01,

 ----------------------------------------------------------------------
 #t hf aug-cc-pvdz symm=none int=(grid=ultrafine) guess=(read,tcheck) s
 table=(opt,rrhf)
 ----------------------------------------------------------------------
 -----
 title
 -----
 Symbolic Z-matrix:
 Charge =  0 Multiplicity = 1

 SCF Done:  E(RHF) =  -360.774355741     A.U. after   16 cycles
 Normal termination of Gaussian 16 at Wed Apr  9 03:58:55 2025.
 Gaussian 16:  ES64L-G16RevC.01  3-Jul-2019

 ----------------------------------------------------------------------
 #t hf aug-cc-pvdz iop(5/13=1,5/36=2,99/5=2) pseudo=read geom=check gue
 ss=(read,tcheck) scf=(maxcycle=1)
 ----------------------------------------------------------------------
 -----
 title
 -----
 Structure from the checkpoint file:  "Grambow2020_wb97xd3_008734_reverse_mol1.chk"
 Charge =  0 Multiplicity = 1

                         Standard orientation:
 ---------------------------------------------------------------------
 Center     Atomic      Atomic             Coordinates (Angstroms)
 Number     Number       Type             X           Y           Z
 ---------------------------------------------------------------------
      1          6           0        2.428532   -0.441866    0.386829
      2          6           0        1.027248    0.151849    0.254398
      3          8           0        1.035494    1.286311   -0.581660
      4          6           0        0.115294   -0.916489   -0.330288
      5          6           0       -1.494566    0.034553   -0.403954
      6          8           0       -1.623201   -1.209942   -0.069213
      7          7           0       -2.055438    0.901028    0.449313
      8          1           0        2.806211   -0.752117   -0.589482
      9          1           0        2.434789   -1.302178    1.057785
     10          1           0        3.115835    0.301791    0.796943
     11          1           0        0.653236    0.412738    1.253587
     12          1           0        1.694783    1.898369   -0.250401
     13          1           0        0.262540   -1.068511   -1.391205
     14          1           0        0.282225   -1.827384    0.250369
     15          1           0       -2.578595    0.569191    1.251448
     16          1           0       -2.040351    1.881662    0.240845
 ---------------------------------------------------------------------

 SCF Done:  E(RHF) =  -360.887400955     A.U. after    2 cycles

 The electronic state is 1-A.
 Alpha  occ. eigenvalues --  -20.57939 -20.57359 -15.62380 -11.32797 -11.31274
 Alpha  occ. eigenvalues --  -11.29158 -11.24753  -1.34887  -1.33658  -1.15195
 Alpha  occ. eigenvalues --   -1.06053  -0.94592  -0.82897  -0.79197  -0.72953
 Alpha  occ. eigenvalues --   -0.70118  -0.66886  -0.65332  -0.62941  -0.59422
 Alpha  occ. eigenvalues --   -0.56798  -0.56052  -0.53730  -0.53220  -0.50039
 Alpha  occ. eigenvalues --   -0.46573  -0.41303  -0.31354
 Alpha virt. eigenvalues --    0.02774   0.04017   0.04503   0.04910   0.06175
 Alpha virt. eigenvalues --    0.06522   0.07052   0.07595   0.08997   0.10721
 Alpha virt. eigenvalues --    0.12358   0.12631   0.12933   0.14770   0.15454

 Mulliken charges:
               1
     1  C    0.470576
     2  C    0.205119
     3  O   -0.582942
     4  C    0.623814
     5  C    0.197656
     6  O   -0.705099
     7  N   -0.056461
     8  H    0.037374
     9  H   -0.018114
    10  H   -0.087349
    11  H   -0.109385
    12  H    0.148206
    13  H   -0.026964
    14  H   -0.132157
    15  H   -0.001290
    16  H    0.037019
 Sum of Mulliken charges =  -0.00000

 Dipole moment (field-independent basis, Debye):
    X=              3.1393    Y=              1.6185    Z=              2.6362  Tot=              4.4073

 Test job not archived.
 1\1\GINC-SE102\SP\RHF\Aug-CC-pVDZ\C4H9N1O2\OHZDE\09-Apr-2025\0\\#t hf
 aug-cc-pvdz iop(5/13=1,5/36=2,99/5=2) pseudo=read geom=check guess=(re
 ad,tcheck) scf=(maxcycle=1)\\title\\0,1\C,0,-2.01201227,-0.11811932,-1
 .03306047\C,0,-0.61497455,0.29493603,-0.57338351\O,0,-0.65185485,1.523
 87706,0.11539081\C,0,-0.07714538,-0.79585946,0.34082135\C,0,1.59293413
 ,-0.06808079,0.76829122\O,0,1.59562408,-1.35257273,0.6026471\N,0,2.492
 34681,0.59047202,0.02614046\H,0,-2.67678238,-0.23846005,-0.17534289\H,
 0,-1.98633502,-1.05345478,-1.59417175\H,0,-2.43551573,0.64777895,-1.68

 Normal termination of Gaussian 16 at Wed Apr  9 03:59:01 2025.
