 Gaussian 16, Revision C.01,

 ----------------------------------------------------------------------
 #t hf aug-cc-pvdz symm=none int=(grid=ultrafine) guess=(read,tcheck) s
 table=(opt,rrhf)
 ----------------------------------------------------------------------
 -----
 title
 -----
 Symbolic Z-matrix:
 Charge =  0 Multiplicity = 1

 SCF Done:  E(RHF) =  -307.755699987     A.U. after   14 cycles

 1\1\GINC-SE163\Stability\RHF\Aug-CC-pVDZ\C6H10O1\OHZDE\09-Apr-2025\0\\
 #t hf aug-cc-pvdz symm=none int=(grid=ultrafine) guess=(read,tcheck) s
 table=(opt,rrhf)\\title\\0,1\C,0,2.30892389,0.03631319,0.09772674\C,0,
 0.82472809,-0.12695242,0.06172097\C,0,0.11130511,-1.13884401,0.5281508
 2\C,0,-1.38216381,-1.01631313,0.42253514\C,0,-1.6626783,0.22284388,-0.
 40785677\C,0,0.06206036,1.04005485,-0.50304586\O,0,0.01381571,2.169196
 27,0.19721742\H,0,2.56594632,0.94003798,0.65408495\H,0,2.71791527,0.14
 647884,-0.91037297\H,0,2.78719545,-0.81995626,0.57204864\H,0,0.5622328

 Normal termination of Gaussian 16 at Wed Apr  9 16:04:48 2025.
 Gaussian 16:  ES64L-G16RevC.01  3-Jul-2019

 ----------------------------------------------------------------------
 #t hf aug-cc-pvdz iop(5/13=1,5/36=2,99/5=2) pseudo=read geom=check gue
 ss=(read,tcheck) scf=(maxcycle=1)
 ----------------------------------------------------------------------
 -----
 title
 -----
 Structure from the checkpoint file:  "Grambow2020_wb97xd3_007732_forward_mol1.chk"
 Charge =  0 Multiplicity = 1

                         Standard orientation:
 ---------------------------------------------------------------------
 Center     Atomic      Atomic             Coordinates (Angstroms)
 Number     Number       Type             X           Y           Z
 ---------------------------------------------------------------------
      1          6           0       -2.213422   -0.572770    0.105062
      2          6           0       -0.724754   -0.452375    0.092289
      3          6           0        0.159942   -1.394103   -0.192164
      4          6           0        1.604737   -0.982810   -0.196898
      5          6           0        1.658501    0.435510    0.340899
      6          6           0       -0.187989    0.927203    0.359083
      7          8           0       -0.364759    1.869312   -0.562242
      8          1           0       -2.645108    0.128491   -0.612011
      9          1           0       -2.620484   -0.324931    1.089212
     10          1           0       -2.528329   -1.583112   -0.153711
     11          1           0       -0.125650   -2.409946   -0.442947
     12          1           0        2.013106   -1.044039   -1.209811
     13          1           0        2.210067   -1.654794    0.417163
     14          1           0        1.852308    0.515811    1.406535
     15          1           0        2.399401    1.074127   -0.165326
     16          1           0       -0.284440    1.243056    1.412144
     17          1           0        0.865110    1.336908   -0.292942
 ---------------------------------------------------------------------

 SCF Done:  E(RHF) =  -307.849727924     A.U. after    2 cycles

 The electronic state is 1-A.
 Alpha  occ. eigenvalues --  -20.50278 -11.35551 -11.26667 -11.25569 -11.25096
 Alpha  occ. eigenvalues --  -11.24384 -11.23727  -1.29962  -1.12390  -1.03504
 Alpha  occ. eigenvalues --   -0.95009  -0.91314  -0.82363  -0.73711  -0.70082
 Alpha  occ. eigenvalues --   -0.65708  -0.62338  -0.60822  -0.58591  -0.56289
 Alpha  occ. eigenvalues --   -0.54488  -0.53887  -0.53227  -0.51170  -0.40735
 Alpha  occ. eigenvalues --   -0.37470  -0.36165
 Alpha virt. eigenvalues --    0.02950   0.03980   0.04105   0.04981   0.06008
 Alpha virt. eigenvalues --    0.06079   0.06902   0.07533   0.08724   0.09141
 Alpha virt. eigenvalues --    0.10882   0.12478   0.12603   0.13648   0.14075

 Mulliken charges:
               1
     1  C    0.370363
     2  C   -0.462531
     3  C    0.266029
     4  C    0.237371
     5  C    0.213301
     6  C    0.474266
     7  O   -0.954968
     8  H    0.099636
     9  H    0.061890
    10  H   -0.124855
    11  H   -0.423578
    12  H    0.035836
    13  H    0.024061
    14  H   -0.119087
    15  H   -0.028181
    16  H   -0.010971
    17  H    0.341421
 Sum of Mulliken charges =  -0.00000

 Dipole moment (field-independent basis, Debye):
    X=              2.0295    Y=             -3.1509    Z=              2.0734  Tot=              4.2832

 Test job not archived.
 1\1\GINC-SE163\SP\RHF\Aug-CC-pVDZ\C6H10O1\OHZDE\09-Apr-2025\0\\#t hf a
 ug-cc-pvdz iop(5/13=1,5/36=2,99/5=2) pseudo=read geom=check guess=(rea
 d,tcheck) scf=(maxcycle=1)\\title\\0,1\C,0,2.30892389,0.03631319,0.097
 72674\C,0,0.82472809,-0.12695242,0.06172097\C,0,0.11130511,-1.13884401
 ,0.52815082\C,0,-1.38216381,-1.01631313,0.42253514\C,0,-1.6626783,0.22
 284388,-0.40785677\C,0,0.06206036,1.04005485,-0.50304586\O,0,0.0138157
 1,2.16919627,0.19721742\H,0,2.56594632,0.94003798,0.65408495\H,0,2.717
 91527,0.14647884,-0.91037297\H,0,2.78719545,-0.81995626,0.57204864\H,0

 Normal termination of Gaussian 16 at Wed Apr  9 16:04:55 2025.
