 Gaussian 16, Revision C.01,

 ----------------------------------------------------------------------
 #t hf aug-cc-pvdz symm=none int=(grid=ultrafine) guess=(read,tcheck) s
 table=(opt,rrhf)
 ----------------------------------------------------------------------
 -----
 title
 -----
 Symbolic Z-matrix:
 Charge =  0 Multiplicity = 1

 SCF Done:  E(RHF) =  -263.791690877     A.U. after   15 cycles
 Normal termination of Gaussian 16 at Wed Apr  9 14:15:05 2025.
 Gaussian 16:  ES64L-G16RevC.01  3-Jul-2019

 ----------------------------------------------------------------------
 #t hf aug-cc-pvdz iop(5/13=1,5/36=2,99/5=2) pseudo=read geom=check gue
 ss=(read,tcheck) scf=(maxcycle=1)
 ----------------------------------------------------------------------
 -----
 title
 -----
 Structure from the checkpoint file:  "Grambow2020_b97d3_006868_reverse_mol2.chk"
 Charge =  0 Multiplicity = 1

                         Standard orientation:
 ---------------------------------------------------------------------
 Center     Atomic      Atomic             Coordinates (Angstroms)
 Number     Number       Type             X           Y           Z
 ---------------------------------------------------------------------
      1          6           0        2.202801   -0.029794   -0.001764
      2          6           0        0.698586   -0.039134   -0.013888
      3          6           0       -0.120523    1.071432    0.004671
      4          7           0       -1.435735    0.673425    0.091606
      5          7           0       -1.354929   -0.740947   -0.036544
      6          6           0       -0.113682   -1.245945   -0.004138
      7          1           0        2.598852   -0.725707   -0.754449
      8          1           0        2.608164    0.971304   -0.208392
      9          1           0        2.596243   -0.355697    0.973143
     10          1           0        0.115067    2.132010   -0.009170
     11          1           0       -2.168550    1.158338   -0.429974
     12          1           0       -2.218225   -1.246950    0.134130
 ---------------------------------------------------------------------

 SCF Done:  E(RHF) =  -263.868926630     A.U. after    2 cycles

 The electronic state is 1-A.
 Alpha  occ. eigenvalues --  -15.70061 -15.69929 -11.29747 -11.23959 -11.23088
 Alpha  occ. eigenvalues --  -11.22690  -1.32480  -1.10100  -1.05578  -0.93501
 Alpha  occ. eigenvalues --   -0.82510  -0.76127  -0.74477  -0.64327  -0.60691
 Alpha  occ. eigenvalues --   -0.59483  -0.55286  -0.53422  -0.51408  -0.40444
 Alpha  occ. eigenvalues --   -0.34750  -0.33559
 Alpha virt. eigenvalues --    0.02458   0.03547   0.04636   0.05735   0.06748
 Alpha virt. eigenvalues --    0.07542   0.09567   0.10395   0.11183   0.11798
 Alpha virt. eigenvalues --    0.13466   0.14277   0.15584   0.16244   0.16370

 Mulliken charges:
               1
     1  C    0.381284
     2  C   -0.220388
     3  C    0.866642
     4  N   -0.339423
     5  N   -0.141419
     6  C   -0.238393
     7  H    0.006750
     8  H   -0.078741
     9  H    0.064520
    10  H   -0.334150
    11  H    0.029943
    12  H    0.003373
 Sum of Mulliken charges =   0.00000

 Dipole moment (field-independent basis, Debye):
    X=             -2.5391    Y=              3.5577    Z=             -0.5837  Tot=              4.4096

 Test job not archived.
 1\1\GINC-SE159\SP\RHF\Aug-CC-pVDZ\C4H6N2\OHZDE\09-Apr-2025\0\\#t hf au
 g-cc-pvdz iop(5/13=1,5/36=2,99/5=2) pseudo=read geom=check guess=(read
 ,tcheck) scf=(maxcycle=1)\\title\\0,1\C,0,-1.83519915,-0.53632255,-0.0
 2194176\C,0,-0.43354552,0.00831636,0.01846729\C,0,0.72739467,-0.727314
 14,-0.10685499\N,0,1.81647865,0.0929641,0.08494913\N,0,1.2345576,1.387
 89558,0.17394445\C,0,-0.10401366,1.40752345,0.241843\H,0,-2.47064231,0
 .08204351,-0.67118881\H,0,-1.86245491,-1.57068008,-0.39419577\H,0,-2.2
 9576037,-0.5279568,0.97769107\H,0,0.88446119,-1.78632684,-0.29217361\H

 Normal termination of Gaussian 16 at Wed Apr  9 14:15:09 2025.
