 Gaussian 16, Revision C.01,

 ----------------------------------------------------------------------
 #t hf aug-cc-pvdz symm=none int=(grid=ultrafine) guess=(read,tcheck) s
 table=(opt,rrhf)
 ----------------------------------------------------------------------
 -----
 title
 -----
 Symbolic Z-matrix:
 Charge =  0 Multiplicity = 1

 SCF Done:  E(RHF) =  -269.894720065     A.U. after   16 cycles

 1\1\GINC-SE177\Stability\RHF\Aug-CC-pVDZ\C5H10O1\OHZDE\09-Apr-2025\0\\
 #t hf aug-cc-pvdz symm=none int=(grid=ultrafine) guess=(read,tcheck) s
 table=(opt,rrhf)\\title\\0,1\C,0,2.2679351,0.64040012,-0.7912697\C,0,0
 .79671264,0.37902347,-0.55332191\C,0,0.34903179,-0.66867797,0.28568338
 \O,0,-0.66250844,0.45749303,1.5761141\C,0,-1.0758103,-0.62000978,0.742
 05811\C,0,-2.19758525,-0.34115599,-0.25630324\H,0,2.86954828,0.3611143
 4,0.08433637\H,0,2.45556078,1.70140603,-1.00776477\H,0,2.63943327,0.06
 1354,-1.65254186\H,0,0.1568896,0.97503601,0.50182837\H,0,0.1344605,0.6

 Normal termination of Gaussian 16 at Wed Apr  9 03:07:34 2025.
 Gaussian 16:  ES64L-G16RevC.01  3-Jul-2019

 ----------------------------------------------------------------------
 #t hf aug-cc-pvdz iop(5/13=1,5/36=2,99/5=2) pseudo=read geom=check gue
 ss=(read,tcheck) scf=(maxcycle=1)
 ----------------------------------------------------------------------
 -----
 title
 -----
 Structure from the checkpoint file:  "Grambow2020_b97d3_006621_forward_mol1.chk"
 Charge =  0 Multiplicity = 1

                         Standard orientation:
 ---------------------------------------------------------------------
 Center     Atomic      Atomic             Coordinates (Angstroms)
 Number     Number       Type             X           Y           Z
 ---------------------------------------------------------------------
      1          6           0       -2.596996    0.198138   -0.082043
      2          6           0       -1.098736    0.396444   -0.155008
      3          6           0       -0.214566   -0.243435    0.745451
      4          8           0        0.852188   -1.233393   -0.610538
      5          6           0        1.235119   -0.278625    0.373973
      6          6           0        1.938245    0.986197   -0.114599
      7          1           0       -2.849196   -0.801581    0.296880
      8          1           0       -3.064252    0.314695   -1.069916
      9          1           0       -3.062942    0.938798    0.588339
     10          1           0       -0.330799   -0.454557   -0.906019
     11          1           0       -0.772000    1.379834   -0.514075
     12          1           0       -0.562974   -1.010711    1.438675
     13          1           0        1.850826   -0.751217    1.158663
     14          1           0        1.362043    1.521352   -0.879403
     15          1           0        2.902423    0.705305   -0.559194
     16          1           0        2.130972    1.672921    0.723707
 ---------------------------------------------------------------------

 SCF Done:  E(RHF) =  -269.977343436     A.U. after    2 cycles

 The electronic state is 1-A.
 Alpha  occ. eigenvalues --  -20.50796 -11.33794 -11.29477 -11.24986 -11.24592
 Alpha  occ. eigenvalues --  -11.23147  -1.26428  -1.07916  -0.99600  -0.94703
 Alpha  occ. eigenvalues --   -0.85270  -0.76030  -0.68466  -0.63578  -0.60263
 Alpha  occ. eigenvalues --   -0.58820  -0.55810  -0.55594  -0.54128  -0.52194
 Alpha  occ. eigenvalues --   -0.50574  -0.48375  -0.40483  -0.35184
 Alpha virt. eigenvalues --    0.02874   0.04040   0.04299   0.05064   0.06113
 Alpha virt. eigenvalues --    0.06247   0.06564   0.06937   0.08753   0.08947
 Alpha virt. eigenvalues --    0.09583   0.12414   0.12830   0.13588   0.14031

 Mulliken charges:
               1
     1  C    0.396910
     2  C   -0.218705
     3  C    0.175377
     4  O   -1.007376
     5  C    0.540617
     6  C    0.236565
     7  H   -0.038989
     8  H    0.017821
     9  H    0.047023
    10  H    0.754905
    11  H   -0.305289
    12  H   -0.336096
    13  H   -0.223851
    14  H   -0.067578
    15  H    0.021245
    16  H    0.007422
 Sum of Mulliken charges =  -0.00000

 Dipole moment (field-independent basis, Debye):
    X=             -1.8552    Y=              2.6328    Z=              2.5492  Tot=              4.1076

 Test job not archived.
 1\1\GINC-SE177\SP\RHF\Aug-CC-pVDZ\C5H10O1\OHZDE\09-Apr-2025\0\\#t hf a
 ug-cc-pvdz iop(5/13=1,5/36=2,99/5=2) pseudo=read geom=check guess=(rea
 d,tcheck) scf=(maxcycle=1)\\title\\0,1\C,0,2.2679351,0.64040012,-0.791
 2697\C,0,0.79671264,0.37902347,-0.55332191\C,0,0.34903179,-0.66867797,
 0.28568338\O,0,-0.66250844,0.45749303,1.5761141\C,0,-1.0758103,-0.6200
 0978,0.74205811\C,0,-2.19758525,-0.34115599,-0.25630324\H,0,2.86954828
 ,0.36111434,0.08433637\H,0,2.45556078,1.70140603,-1.00776477\H,0,2.639
 43327,0.061354,-1.65254186\H,0,0.1568896,0.97503601,0.50182837\H,0,0.1

 Normal termination of Gaussian 16 at Wed Apr  9 03:07:40 2025.
