 Gaussian 16, Revision C.01,

 ----------------------------------------------------------------------
 #t hf aug-cc-pvdz symm=none int=(grid=ultrafine) guess=(read,tcheck) s
 table=(opt,rrhf)
 ----------------------------------------------------------------------
 -----
 title
 -----
 Symbolic Z-matrix:
 Charge =  0 Multiplicity = 1

 SCF Done:  E(RHF) =  -358.442567400     A.U. after   16 cycles
 Normal termination of Gaussian 16 at Wed Apr  9 16:26:53 2025.
 Gaussian 16:  ES64L-G16RevC.01  3-Jul-2019

 ----------------------------------------------------------------------
 #t hf aug-cc-pvdz iop(5/13=1,5/36=2,99/5=2) pseudo=read geom=check gue
 ss=(read,tcheck) scf=(maxcycle=1)
 ----------------------------------------------------------------------
 -----
 title
 -----
 Structure from the checkpoint file:  "Grambow2020_wb97xd3_008316_forward_mol1.chk"
 Charge =  0 Multiplicity = 1

                         Standard orientation:
 ---------------------------------------------------------------------
 Center     Atomic      Atomic             Coordinates (Angstroms)
 Number     Number       Type             X           Y           Z
 ---------------------------------------------------------------------
      1          6           0        1.910933    0.885185    0.123613
      2          6           0        0.678696    0.111648   -0.119559
      3          6           0       -0.673433    0.384303   -0.148860
      4          8           0       -1.203710    1.584944    0.022747
      5          7           0       -1.455723   -0.761950   -0.125306
      6          6           0       -0.351426   -1.316638    0.395586
      7          8           0        0.773355   -1.339331   -0.354410
      8          1           0        2.468762    0.511962    0.985055
      9          1           0        2.570905    0.847389   -0.747399
     10          1           0        1.645027    1.926060    0.308891
     11          1           0       -2.158000    1.460567    0.087290
     12          1           0       -0.282402   -1.764221    1.391931
 ---------------------------------------------------------------------

 SCF Done:  E(RHF) =  -358.552500714     A.U. after    2 cycles

 The electronic state is 1-A.
 Alpha  occ. eigenvalues --  -20.63806 -20.62413 -15.59415 -11.43039 -11.38775
 Alpha  occ. eigenvalues --  -11.30448 -11.25391  -1.44954  -1.41111  -1.22108
 Alpha  occ. eigenvalues --   -1.05034  -0.94407  -0.87111  -0.82296  -0.74293
 Alpha  occ. eigenvalues --   -0.72958  -0.65420  -0.64455  -0.61815  -0.61395
 Alpha  occ. eigenvalues --   -0.58168  -0.56041  -0.52851  -0.49584  -0.42470
 Alpha  occ. eigenvalues --   -0.29675
 Alpha virt. eigenvalues --    0.03196   0.04054   0.04283   0.06064   0.06619
 Alpha virt. eigenvalues --    0.08120   0.09534   0.10345   0.11311   0.11947
 Alpha virt. eigenvalues --    0.13595   0.14578   0.14752   0.15145   0.15970

 Mulliken charges:
               1
     1  C    0.187693
     2  C   -0.045653
     3  C    0.817910
     4  O   -0.497038
     5  N   -0.791644
     6  C    0.910059
     7  O   -0.786386
     8  H    0.100993
     9  H    0.071937
    10  H    0.052022
    11  H    0.163287
    12  H   -0.183181
 Sum of Mulliken charges =   0.00000

 Dipole moment (field-independent basis, Debye):
    X=              0.6494    Y=              0.8655    Z=              2.1930  Tot=              2.4454

 Test job not archived.
 1\1\GINC-SE041\SP\RHF\Aug-CC-pVDZ\C4H5N1O2\OHZDE\09-Apr-2025\0\\#t hf
 aug-cc-pvdz iop(5/13=1,5/36=2,99/5=2) pseudo=read geom=check guess=(re
 ad,tcheck) scf=(maxcycle=1)\\title\\0,1\C,0,-1.58651393,-0.66777126,0.
 05548733\C,0,-0.1860552,-0.30487896,0.34345222\C,0,0.55723268,0.857435
 09,0.34213386\O,0,0.07270527,2.06118444,0.08059535\N,0,1.92438157,0.62
 377916,0.39444442\C,0,1.57825228,-0.5832957,-0.07634582\O,0,0.77801875
 ,-1.36557712,0.68247124\H,0,-1.66719194,-1.37531116,-0.77241941\H,0,-2
 .05826782,-1.11975487,0.93230691\H,0,-2.13965504,0.23448743,-0.2060833

 Normal termination of Gaussian 16 at Wed Apr  9 16:26:57 2025.
