 Gaussian 16, Revision C.01,

 ----------------------------------------------------------------------
 #t hf aug-cc-pvdz symm=none int=(grid=ultrafine) guess=(read,tcheck) s
 table=(opt,rrhf)
 ----------------------------------------------------------------------
 -----
 title
 -----
 Symbolic Z-matrix:
 Charge =  0 Multiplicity = 1

 SCF Done:  E(RHF) =  -358.422521709     A.U. after   17 cycles
 Normal termination of Gaussian 16 at Wed Apr  9 03:28:03 2025.
 Gaussian 16:  ES64L-G16RevC.01  3-Jul-2019

 ----------------------------------------------------------------------
 #t hf aug-cc-pvdz iop(5/13=1,5/36=2,99/5=2) pseudo=read geom=check gue
 ss=(read,tcheck) scf=(maxcycle=1)
 ----------------------------------------------------------------------
 -----
 title
 -----
 Structure from the checkpoint file:  "Grambow2020_wb97xd3_006782_forward_mol1.chk"
 Charge =  0 Multiplicity = 1

                         Standard orientation:
 ---------------------------------------------------------------------
 Center     Atomic      Atomic             Coordinates (Angstroms)
 Number     Number       Type             X           Y           Z
 ---------------------------------------------------------------------
      1          8           0        1.860412   -0.736128   -0.424760
      2          6           0        0.941250   -0.652363    0.334330
      3          6           0       -0.590621   -0.744441   -0.398700
      4          6           0       -1.619658   -0.967705    0.508167
      5          7           0       -0.942401    0.619870   -0.847693
      6          6           0       -0.228770    1.466582   -0.150676
      7          8           0        0.579768    1.114296    0.754615
      8          1           0        0.950903   -0.993980    1.376285
      9          1           0       -0.483213   -1.453898   -1.212981
     10          1           0       -1.765823   -0.249483    1.308115
     11          1           0       -2.308709   -1.806423    0.456699
     12          1           0       -0.331001    2.526907   -0.391841
 ---------------------------------------------------------------------

 SCF Done:  E(RHF) =  -358.531437119     A.U. after    2 cycles

 The electronic state is 1-A.
 Alpha  occ. eigenvalues --  -20.56754 -20.53505 -15.62914 -11.39959 -11.37658
 Alpha  occ. eigenvalues --  -11.35013 -11.30140  -1.37475  -1.33337  -1.20162
 Alpha  occ. eigenvalues --   -1.07238  -0.91260  -0.82895  -0.78997  -0.73015
 Alpha  occ. eigenvalues --   -0.70459  -0.66462  -0.64931  -0.63348  -0.59675
 Alpha  occ. eigenvalues --   -0.55930  -0.53361  -0.46431  -0.43310  -0.39772
 Alpha  occ. eigenvalues --   -0.37201
 Alpha virt. eigenvalues --   -0.03565   0.01532   0.03571   0.04775   0.05025
 Alpha virt. eigenvalues --    0.06265   0.09701   0.09871   0.10544   0.10628
 Alpha virt. eigenvalues --    0.12476   0.13138   0.14104   0.14470   0.15120

 Mulliken charges:
               1
     1  O   -0.575752
     2  C    1.051455
     3  C    0.428771
     4  C    0.699553
     5  N   -0.648394
     6  C    0.629894
     7  O   -0.588744
     8  H   -0.195675
     9  H   -0.273087
    10  H   -0.175340
    11  H   -0.128574
    12  H   -0.224109
 Sum of Mulliken charges =  -0.00000

 Dipole moment (field-independent basis, Debye):
    X=             -6.3052    Y=             -2.7596    Z=              2.8058  Tot=              7.4326

 Test job not archived.
 1\1\GINC-SE457\SP\RHF\Aug-CC-pVDZ\C4H5N1O2\OHZDE\09-Apr-2025\0\\#t hf
 aug-cc-pvdz iop(5/13=1,5/36=2,99/5=2) pseudo=read geom=check guess=(re
 ad,tcheck) scf=(maxcycle=1)\\title\\0,1\O,0,2.04049207,-0.99890136,-0.
 3738768\C,0,1.0928009,-0.3615451,-0.7256592\C,0,0.34960507,0.53967868,
 0.51042175\C,0,-0.5286403,1.50491431,0.03274099\N,0,-0.60876858,-0.358
 54614,1.18968687\C,0,-0.89812968,-1.33194211,0.36458446\O,0,-0.4285410
 8,-1.41390559,-0.80595362\H,0,0.95857133,0.06943206,-1.7250123\H,0,1.1
 5692523,0.87667256,1.15275195\H,0,-1.36329657,1.182964,-0.58111546\H,0

 Normal termination of Gaussian 16 at Wed Apr  9 03:28:07 2025.
