 Gaussian 16, Revision C.01,

 ----------------------------------------------------------------------
 #t hf aug-cc-pvdz symm=none int=(grid=ultrafine) guess=(read,tcheck) s
 table=(opt,rrhf)
 ----------------------------------------------------------------------
 -----
 title
 -----
 Symbolic Z-matrix:
 Charge =  0 Multiplicity = 1

 SCF Done:  E(RHF) =  -323.878420421     A.U. after   14 cycles
 Normal termination of Gaussian 16 at Wed Apr  9 15:58:08 2025.
 Gaussian 16:  ES64L-G16RevC.01  3-Jul-2019

 ----------------------------------------------------------------------
 #t hf aug-cc-pvdz iop(5/13=1,5/36=2,99/5=2) pseudo=read geom=check gue
 ss=(read,tcheck) scf=(maxcycle=1)
 ----------------------------------------------------------------------
 -----
 title
 -----
 Structure from the checkpoint file:  "Grambow2020_wb97xd3_007608_reverse_mol2.chk"
 Charge =  0 Multiplicity = 1

                         Standard orientation:
 ---------------------------------------------------------------------
 Center     Atomic      Atomic             Coordinates (Angstroms)
 Number     Number       Type             X           Y           Z
 ---------------------------------------------------------------------
      1          6           0        0.614675    1.412014    0.893089
      2          6           0        0.423849    0.707218   -0.436204
      3          7           0        2.101554   -0.939049    0.156349
      4          6           0        1.109941   -0.633414   -0.559781
      5          6           0       -1.585748   -1.037955    0.797448
      6          6           0       -1.799331   -0.197237   -0.207868
      7          8           0       -0.938981    0.622852   -0.848589
      8          1           0        0.179839    0.855457    1.720730
      9          1           0        1.680437    1.523562    1.087680
     10          1           0        0.152009    2.398012    0.850542
     11          1           0        0.867234    1.331459   -1.219864
     12          1           0        2.471788   -1.850485   -0.101970
     13          1           0        0.703748   -1.275783   -1.350103
     14          1           0       -0.630421   -1.176617    1.282158
     15          1           0       -2.421049   -1.620445    1.158848
     16          1           0       -2.782927   -0.098397   -0.653855
 ---------------------------------------------------------------------

 SCF Done:  E(RHF) =  -323.980429003     A.U. after    2 cycles

 The electronic state is 1-A.
 Alpha  occ. eigenvalues --  -20.60372 -15.62509 -11.31017 -11.30908 -11.30154
 Alpha  occ. eigenvalues --  -11.22707 -11.22379  -1.37830  -1.19474  -1.05423
 Alpha  occ. eigenvalues --   -1.00890  -0.90986  -0.82906  -0.74907  -0.70745
 Alpha  occ. eigenvalues --   -0.69843  -0.66011  -0.63519  -0.60871  -0.56355
 Alpha  occ. eigenvalues --   -0.55371  -0.52902  -0.51337  -0.50310  -0.43772
 Alpha  occ. eigenvalues --   -0.42268  -0.35411
 Alpha virt. eigenvalues --    0.03336   0.04134   0.04319   0.04705   0.06062
 Alpha virt. eigenvalues --    0.06596   0.07226   0.07659   0.08553   0.11475
 Alpha virt. eigenvalues --    0.12315   0.12761   0.13411   0.13961   0.14584

 Mulliken charges:
               1
     1  C    0.557862
     2  C    0.048478
     3  N   -0.398660
     4  C    0.766059
     5  C    0.698206
     6  C    0.595752
     7  O   -0.611208
     8  H   -0.093788
     9  H   -0.013043
    10  H   -0.037808
    11  H   -0.197468
    12  H    0.001323
    13  H   -0.236131
    14  H   -0.378732
    15  H   -0.302814
    16  H   -0.398030
 Sum of Mulliken charges =  -0.00000

 Dipole moment (field-independent basis, Debye):
    X=             -0.2139    Y=             -0.7548    Z=             -0.7820  Tot=              1.1077

 Test job not archived.
 1\1\GINC-SE129\SP\RHF\Aug-CC-pVDZ\C5H9N1O1\OHZDE\09-Apr-2025\0\\#t hf
 aug-cc-pvdz iop(5/13=1,5/36=2,99/5=2) pseudo=read geom=check guess=(re
 ad,tcheck) scf=(maxcycle=1)\\title\\0,1\C,0,-1.04403775,-0.32438354,1.
 28453651\C,0,-0.69974835,-0.70766389,-0.14190412\N,0,-1.42490547,1.464
 31318,-0.93730881\C,0,-0.74248226,0.42416654,-1.14211358\C,0,1.9814765
 3,0.42671791,0.21895244\C,0,1.70591108,-0.84263948,-0.05651318\O,0,0.5
 1499443,-1.44608741,-0.25859868\H,0,-0.32980543,0.38009006,1.70574705\
 H,0,-2.02664411,0.14507941,1.30025751\H,0,-1.06349969,-1.21961688,1.90

 Normal termination of Gaussian 16 at Wed Apr  9 15:58:14 2025.
