 Gaussian 16, Revision C.01,

 ----------------------------------------------------------------------
 #t hf aug-cc-pvdz symm=none int=(grid=ultrafine) guess=(read,tcheck) s
 table=(opt,rrhf)
 ----------------------------------------------------------------------
 -----
 title
 -----
 Symbolic Z-matrix:
 Charge =  0 Multiplicity = 1

 SCF Done:  E(RHF) =  -342.407274436     A.U. after   16 cycles
 Normal termination of Gaussian 16 at Wed Apr  9 16:50:09 2025.
 Gaussian 16:  ES64L-G16RevC.01  3-Jul-2019

 ----------------------------------------------------------------------
 #t hf aug-cc-pvdz iop(5/13=1,5/36=2,99/5=2) pseudo=read geom=check gue
 ss=(read,tcheck) scf=(maxcycle=1)
 ----------------------------------------------------------------------
 -----
 title
 -----
 Structure from the checkpoint file:  "Grambow2020_wb97xd3_008953_forward_mol1.chk"
 Charge =  0 Multiplicity = 1

                         Standard orientation:
 ---------------------------------------------------------------------
 Center     Atomic      Atomic             Coordinates (Angstroms)
 Number     Number       Type             X           Y           Z
 ---------------------------------------------------------------------
      1          8           0       -2.587620   -0.166430    0.212149
      2          6           0       -1.415106   -0.068947    0.010314
      3          6           0       -0.305818   -0.973809   -0.352175
      4          6           0        0.590562    0.159828   -0.437238
      5          6           0        2.036909    0.088992   -0.406878
      6          8           0        1.705717   -0.238370    0.938940
      7          6           0       -0.461552    1.167362   -0.060129
      8          1           0       -0.288112   -1.918856   -0.879621
      9          1           0        0.600962   -0.971499    0.674321
     10          1           0        2.506428   -0.710385   -0.982070
     11          1           0        2.584277    1.027399   -0.479407
     12          1           0       -0.287748    1.760235    0.835532
     13          1           0       -0.730555    1.810948   -0.900833
 ---------------------------------------------------------------------

 SCF Done:  E(RHF) =  -342.510449749     A.U. after    2 cycles

 The electronic state is 1-A.
 Alpha  occ. eigenvalues --  -20.56660 -20.56655 -11.37096 -11.35867 -11.32375
 Alpha  occ. eigenvalues --  -11.28313 -11.25378  -1.36610  -1.33879  -1.17304
 Alpha  occ. eigenvalues --   -0.96879  -0.96243  -0.82812  -0.74193  -0.70975
 Alpha  occ. eigenvalues --   -0.69924  -0.66689  -0.63185  -0.61956  -0.58398
 Alpha  occ. eigenvalues --   -0.55579  -0.54396  -0.52894  -0.46561  -0.42808
 Alpha  occ. eigenvalues --   -0.37513
 Alpha virt. eigenvalues --    0.02529   0.03933   0.04437   0.05131   0.06220
 Alpha virt. eigenvalues --    0.07255   0.07511   0.08745   0.10183   0.11013
 Alpha virt. eigenvalues --    0.12355   0.13245   0.13539   0.13993   0.14848

 Mulliken charges:
               1
     1  O   -0.423437
     2  C    0.297063
     3  C    0.007857
     4  C   -0.678462
     5  C    1.235553
     6  O   -0.934743
     7  C    0.243372
     8  H   -0.236013
     9  H    0.771099
    10  H   -0.161008
    11  H   -0.195574
    12  H   -0.037364
    13  H    0.111655
 Sum of Mulliken charges =   0.00000

 Dipole moment (field-independent basis, Debye):
    X=              3.0938    Y=              1.3108    Z=             -3.3735  Tot=              4.7613

 Test job not archived.
 1\1\GINC-SE131\SP\RHF\Aug-CC-pVDZ\C5H6O2\OHZDE\09-Apr-2025\0\\#t hf au
 g-cc-pvdz iop(5/13=1,5/36=2,99/5=2) pseudo=read geom=check guess=(read
 ,tcheck) scf=(maxcycle=1)\\title\\0,1\O,0,-2.88478347,-0.38635417,-0.1
 7030387\C,0,-1.70695793,-0.23875145,-0.04393501\C,0,-0.79667472,0.8436
 2882,0.38095354\C,0,0.32956995,-0.05858772,0.26500334\C,0,1.71827083,0
 .34196073,0.1705085\O,0,1.21647723,0.74605421,-1.09952657\C,0,-0.50385
 6,-1.22542992,-0.19124342\H,0,-0.94350605,1.69700211,1.03043134\H,0,0.
 0031845,1.17159473,-0.68140873\H,0,2.04650141,1.15138063,0.82426789\H,

 Normal termination of Gaussian 16 at Wed Apr  9 16:50:13 2025.
