 Gaussian 16, Revision C.01,

 ----------------------------------------------------------------------
 #t hf aug-cc-pvdz symm=none int=(grid=ultrafine) guess=(read,tcheck) s
 table=(opt,rrhf)
 ----------------------------------------------------------------------
 -----
 title
 -----
 Symbolic Z-matrix:
 Charge =  0 Multiplicity = 1

 SCF Done:  E(RHF) =  -345.934152033     A.U. after   14 cycles

 1\1\GINC-SE125\Stability\RHF\Aug-CC-pVDZ\C5H12O2\OHZDE\09-Apr-2025\0\\
 #t hf aug-cc-pvdz symm=none int=(grid=ultrafine) guess=(read,tcheck) s
 table=(opt,rrhf)\\title\\0,1\C,0,-1.69872177,-0.66756172,1.24078796\O,
 0,-0.38617385,-0.14922258,1.14835164\C,0,-0.14234066,0.58820123,-0.045
 27671\C,0,-0.42548587,2.06577988,0.13432022\C,0,1.3185996,0.32168918,-
 0.36615083\C,0,0.82590547,-1.933378,-1.46662971\O,0,1.57950049,-1.0854
 5294,-0.23997466\H,0,-2.4414886,0.13589766,1.28392317\H,0,-1.75098913,
 -1.24025404,2.1655236\H,0,-1.91326767,-1.32179969,0.39004832\H,0,-0.73

 Normal termination of Gaussian 16 at Wed Apr  9 16:15:30 2025.
 Gaussian 16:  ES64L-G16RevC.01  3-Jul-2019

 ----------------------------------------------------------------------
 #t hf aug-cc-pvdz iop(5/13=1,5/36=2,99/5=2) pseudo=read geom=check gue
 ss=(read,tcheck) scf=(maxcycle=1)
 ----------------------------------------------------------------------
 -----
 title
 -----
 Structure from the checkpoint file:  "Grambow2020_wb97xd3_008011_reverse_mol2.chk"
 Charge =  0 Multiplicity = 1

                         Standard orientation:
 ---------------------------------------------------------------------
 Center     Atomic      Atomic             Coordinates (Angstroms)
 Number     Number       Type             X           Y           Z
 ---------------------------------------------------------------------
      1          6           0       -1.360830    1.780362    0.095850
      2          8           0       -0.813476    0.664773   -0.579327
      3          6           0       -0.563907   -0.453232    0.266709
      4          6           0       -1.745070   -1.400924    0.315698
      5          6           0        0.671419   -1.110650   -0.324990
      6          6           0        2.275545    0.525987    0.809615
      7          8           0        1.652630   -0.100288   -0.608596
      8          1           0       -2.348706    1.550140    0.508416
      9          1           0       -1.467234    2.577039   -0.638880
     10          1           0       -0.693542    2.107386    0.899341
     11          1           0       -0.295747   -0.086381    1.261517
     12          1           0       -2.011662   -1.737563   -0.688021
     13          1           0       -2.615460   -0.912850    0.755562
     14          1           0       -1.511256   -2.274206    0.928512
     15          1           0        0.442981   -1.608613   -1.270632
     16          1           0        1.126652   -1.814759    0.367857
     17          1           0        2.907967    1.290013    0.327680
     18          1           0        2.983292   -0.297079    1.003665
     19          1           0        1.106537    0.641741   -0.928923
 ---------------------------------------------------------------------

 SCF Done:  E(RHF) =  -346.046126881     A.U. after    2 cycles

 The electronic state is 1-A.
 Alpha  occ. eigenvalues --  -20.64279 -20.58944 -11.30894 -11.29999 -11.28988
 Alpha  occ. eigenvalues --  -11.24057 -11.21223  -1.39986  -1.34848  -1.06591
 Alpha  occ. eigenvalues --   -0.95509  -0.93593  -0.86631  -0.82787  -0.74827
 Alpha  occ. eigenvalues --   -0.70422  -0.67869  -0.65487  -0.63163  -0.61682
 Alpha  occ. eigenvalues --   -0.58453  -0.56759  -0.54029  -0.53404  -0.51278
 Alpha  occ. eigenvalues --   -0.49116  -0.48672  -0.45427  -0.30204
 Alpha virt. eigenvalues --    0.03203   0.04215   0.04444   0.05088   0.06176
 Alpha virt. eigenvalues --    0.06290   0.06762   0.07201   0.07775   0.09123
 Alpha virt. eigenvalues --    0.09225   0.10083   0.12166   0.13175   0.13651

 Mulliken charges:
               1
     1  C    0.729366
     2  O   -0.800350
     3  C   -0.320086
     4  C    0.478461
     5  C    1.132219
     6  C    0.217962
     7  O   -0.590808
     8  H   -0.076092
     9  H   -0.248549
    10  H   -0.059410
    11  H   -0.071957
    12  H    0.041559
    13  H   -0.086086
    14  H    0.036035
    15  H   -0.163124
    16  H   -0.100277
    17  H   -0.239069
    18  H   -0.236723
    19  H    0.356929
 Sum of Mulliken charges =  -0.00000

 Dipole moment (field-independent basis, Debye):
    X=             -2.8129    Y=             -1.2256    Z=             -1.1091  Tot=              3.2626

 Test job not archived.
 1\1\GINC-SE125\SP\RHF\Aug-CC-pVDZ\C5H12O2\OHZDE\09-Apr-2025\0\\#t hf a
 ug-cc-pvdz iop(5/13=1,5/36=2,99/5=2) pseudo=read geom=check guess=(rea
 d,tcheck) scf=(maxcycle=1)\\title\\0,1\C,0,-1.69872177,-0.66756172,1.2
 4078796\O,0,-0.38617385,-0.14922258,1.14835164\C,0,-0.14234066,0.58820
 123,-0.04527671\C,0,-0.42548587,2.06577988,0.13432022\C,0,1.3185996,0.
 32168918,-0.36615083\C,0,0.82590547,-1.933378,-1.46662971\O,0,1.579500
 49,-1.08545294,-0.23997466\H,0,-2.4414886,0.13589766,1.28392317\H,0,-1
 .75098913,-1.24025404,2.1655236\H,0,-1.91326767,-1.32179969,0.39004832

 Normal termination of Gaussian 16 at Wed Apr  9 16:15:57 2025.
