 Gaussian 16, Revision C.01,

 ----------------------------------------------------------------------
 #t hf aug-cc-pvdz symm=none int=(grid=ultrafine) guess=(read,tcheck) s
 table=(opt,rrhf)
 ----------------------------------------------------------------------
 -----
 title
 -----
 Symbolic Z-matrix:
 Charge =  0 Multiplicity = 1

 SCF Done:  E(RHF) =  -322.665922644     A.U. after   13 cycles
 Normal termination of Gaussian 16 at Wed Apr  9 14:49:45 2025.
 Gaussian 16:  ES64L-G16RevC.01  3-Jul-2019

 ----------------------------------------------------------------------
 #t hf aug-cc-pvdz iop(5/13=1,5/36=2,99/5=2) pseudo=read geom=check gue
 ss=(read,tcheck) scf=(maxcycle=1)
 ----------------------------------------------------------------------
 -----
 title
 -----
 Structure from the checkpoint file:  "Grambow2020_wb97xd3_006622_reverse_mol2.chk"
 Charge =  0 Multiplicity = 1

                         Standard orientation:
 ---------------------------------------------------------------------
 Center     Atomic      Atomic             Coordinates (Angstroms)
 Number     Number       Type             X           Y           Z
 ---------------------------------------------------------------------
      1          8           0        0.777859    0.873483   -0.829175
      2          6           0        1.248294   -0.364286   -0.328248
      3          6           0        0.683071   -0.191202    1.012023
      4          6           0        0.002650    1.042843    0.396539
      5          6           0       -1.409204    0.600038    0.088032
      6          6           0       -1.161251   -0.854481   -0.369216
      7          7           0        0.177864   -1.230376    0.120094
      8          1           0        2.159178   -0.772753   -0.744110
      9          1           0        1.011595   -0.391074    2.021423
     10          1           0        0.151665    2.026839    0.835544
     11          1           0       -1.862653    1.213202   -0.691347
     12          1           0       -2.035671    0.650293    0.982321
     13          1           0       -1.186457   -0.947844   -1.454892
     14          1           0       -1.886936   -1.551368    0.049025
 ---------------------------------------------------------------------

 SCF Done:  E(RHF) =  -322.762326405     A.U. after    2 cycles

 The electronic state is 1-A.
 Alpha  occ. eigenvalues --  -20.57561 -15.62902 -11.32684 -11.30403 -11.27062
 Alpha  occ. eigenvalues --  -11.26229 -11.23828  -1.39433  -1.22235  -1.05569
 Alpha  occ. eigenvalues --   -0.97911  -0.85680  -0.80209  -0.75858  -0.73660
 Alpha  occ. eigenvalues --   -0.68264  -0.65177  -0.60400  -0.57488  -0.55318
 Alpha  occ. eigenvalues --   -0.52923  -0.49963  -0.47772  -0.44054  -0.42916
 Alpha  occ. eigenvalues --   -0.38465
 Alpha virt. eigenvalues --    0.03166   0.04193   0.04397   0.04595   0.06395
 Alpha virt. eigenvalues --    0.06579   0.07439   0.10165   0.10536   0.11791
 Alpha virt. eigenvalues --    0.12842   0.13148   0.13822   0.14561   0.14734

 Mulliken charges:
               1
     1  O   -0.849289
     2  C    1.052112
     3  C    0.562051
     4  C    0.621649
     5  C    0.199582
     6  C    0.669440
     7  N   -0.850570
     8  H   -0.287896
     9  H   -0.392346
    10  H   -0.259280
    11  H   -0.063995
    12  H   -0.059261
    13  H   -0.129984
    14  H   -0.212214
 Sum of Mulliken charges =  -0.00000

 Dipole moment (field-independent basis, Debye):
    X=             -0.8514    Y=              0.5477    Z=              1.5166  Tot=              1.8234

 Test job not archived.
 1\1\GINC-SE114\SP\RHF\Aug-CC-pVDZ\C5H7N1O1\OHZDE\09-Apr-2025\0\\#t hf
 aug-cc-pvdz iop(5/13=1,5/36=2,99/5=2) pseudo=read geom=check guess=(re
 ad,tcheck) scf=(maxcycle=1)\\title\\0,1\O,0,1.52126469,0.13370264,0.51
 853259\C,0,0.84354394,1.33280832,0.19119538\C,0,0.21668632,0.80638427,
 -1.02358476\C,0,0.78282936,-0.54095026,-0.54521708\C,0,-0.38274927,-1.
 24690328,0.10872559\C,0,-1.09573372,-0.05676416,0.78799241\N,0,-0.5938
 947,1.16658356,0.13566899\H,0,1.28510371,2.27126175,0.49750539\H,0,0.0
 2109664,1.18139437,-2.01750381\H,0,1.44145456,-1.11858309,-1.1899903\H

 Normal termination of Gaussian 16 at Wed Apr  9 14:49:50 2025.
