 Gaussian 16, Revision C.01,

 ----------------------------------------------------------------------
 #t hf aug-cc-pvdz symm=none int=(grid=ultrafine) guess=(read,tcheck) s
 table=(opt,rrhf)
 ----------------------------------------------------------------------
 -----
 title
 -----
 Symbolic Z-matrix:
 Charge =  0 Multiplicity = 1

 SCF Done:  E(RHF) =  -346.056749872     A.U. after   13 cycles

 1\1\GINC-SE229\Stability\RHF\Aug-CC-pVDZ\C5H12O2\OHZDE\09-Apr-2025\0\\
 #t hf aug-cc-pvdz symm=none int=(grid=ultrafine) guess=(read,tcheck) s
 table=(opt,rrhf)\\title\\0,1\C,0,2.37611457,-0.26325405,1.10847603\C,0
 ,1.1791962,0.57392038,0.68131357\C,0,0.33336733,-0.1146294,-0.38959374
 \O,0,-0.16629354,-1.36554418,0.04316906\C,0,-1.91583624,1.02836856,0.0
 6687896\C,0,-0.79979267,0.77430179,-0.90544949\O,0,-2.0537285,0.472636
 78,1.1266549\H,0,2.05313643,-1.23135978,1.49210153\H,0,3.04881045,-0.4
 4738264,0.26712188\H,0,2.94790064,0.24011614,1.88959769\H,0,0.54779458

 Normal termination of Gaussian 16 at Wed Apr  9 16:20:20 2025.
 Gaussian 16:  ES64L-G16RevC.01  3-Jul-2019

 ----------------------------------------------------------------------
 #t hf aug-cc-pvdz iop(5/13=1,5/36=2,99/5=2) pseudo=read geom=check gue
 ss=(read,tcheck) scf=(maxcycle=1)
 ----------------------------------------------------------------------
 -----
 title
 -----
 Structure from the checkpoint file:  "Grambow2020_wb97xd3_008082_reverse_mol2.chk"
 Charge =  0 Multiplicity = 1

                         Standard orientation:
 ---------------------------------------------------------------------
 Center     Atomic      Atomic             Coordinates (Angstroms)
 Number     Number       Type             X           Y           Z
 ---------------------------------------------------------------------
      1          6           0        2.706242   -0.166205   -0.254287
      2          6           0        1.342564   -0.695350    0.165631
      3          6           0        0.373007    0.421421    0.551832
      4          8           0        0.157475    1.335070   -0.506716
      5          6           0       -1.843048   -0.775604    0.072287
      6          6           0       -0.956471   -0.113229    1.087553
      7          8           0       -1.658521   -0.772934   -1.118057
      8          1           0        2.612052    0.517533   -1.098291
      9          1           0        3.186138    0.378855    0.562358
     10          1           0        3.369745   -0.981243   -0.547456
     11          1           0        0.903073   -1.285167   -0.644237
     12          1           0        1.452828   -1.369544    1.021643
     13          1           0        0.836669    1.014379    1.346639
     14          1           0       -0.295139    0.847727   -1.204944
     15          1           0       -2.740395   -1.278580    0.486501
     16          1           0       -1.549772    0.707684    1.508898
     17          1           0       -2.699708    2.979622    0.031293
     18          1           0       -0.800912   -0.817109    1.912041
     19          1           0       -1.999973    2.762560   -0.114358
 ---------------------------------------------------------------------

 SCF Done:  E(RHF) =  -346.170027057     A.U. after    2 cycles

 The electronic state is 1-A.
 Alpha  occ. eigenvalues --  -20.58766 -20.56276 -11.35970 -11.29610 -11.25778
 Alpha  occ. eigenvalues --  -11.23102 -11.21996  -1.38043  -1.32184  -1.07118
 Alpha  occ. eigenvalues --   -1.01850  -0.90609  -0.82626  -0.79809  -0.71123
 Alpha  occ. eigenvalues --   -0.66819  -0.66189  -0.63712  -0.62358  -0.61170
 Alpha  occ. eigenvalues --   -0.58373  -0.56552  -0.53901  -0.53709  -0.51488
 Alpha  occ. eigenvalues --   -0.49217  -0.48672  -0.44451  -0.43559
 Alpha virt. eigenvalues --    0.02997   0.04061   0.04483   0.05089   0.06128
 Alpha virt. eigenvalues --    0.06406   0.06852   0.07179   0.08824   0.08958
 Alpha virt. eigenvalues --    0.09300   0.09761   0.11041   0.12079   0.13189

 Mulliken charges:
               1
     1  C    0.447799
     2  C    0.202317
     3  C    0.542704
     4  O   -0.645982
     5  C    0.562623
     6  C    0.091110
     7  O   -0.483063
     8  H   -0.030160
     9  H   -0.082598
    10  H   -0.046911
    11  H   -0.180531
    12  H   -0.115396
    13  H   -0.293863
    14  H    0.213262
    15  H   -0.178563
    16  H    0.018693
    17  H    0.020760
    18  H   -0.037317
    19  H   -0.004884
 Sum of Mulliken charges =  -0.00000

 Dipole moment (field-independent basis, Debye):
    X=             -0.5258    Y=             -1.6645    Z=              3.2104  Tot=              3.6543

 Test job not archived.
 1\1\GINC-SE229\SP\RHF\Aug-CC-pVDZ\C5H12O2\OHZDE\09-Apr-2025\0\\#t hf a
 ug-cc-pvdz iop(5/13=1,5/36=2,99/5=2) pseudo=read geom=check guess=(rea
 d,tcheck) scf=(maxcycle=1)\\title\\0,1\C,0,2.37611457,-0.26325405,1.10
 847603\C,0,1.1791962,0.57392038,0.68131357\C,0,0.33336733,-0.1146294,-
 0.38959374\O,0,-0.16629354,-1.36554418,0.04316906\C,0,-1.91583624,1.02
 836856,0.06687896\C,0,-0.79979267,0.77430179,-0.90544949\O,0,-2.053728
 5,0.47263678,1.1266549\H,0,2.05313643,-1.23135978,1.49210153\H,0,3.048
 81045,-0.44738264,0.26712188\H,0,2.94790064,0.24011614,1.88959769\H,0,

 Normal termination of Gaussian 16 at Wed Apr  9 16:20:27 2025.
