 Gaussian 16, Revision C.01,

 ----------------------------------------------------------------------
 #t hf aug-cc-pvdz symm=none int=(grid=ultrafine) guess=(read,tcheck) s
 table=(opt,rrhf)
 ----------------------------------------------------------------------
 -----
 title
 -----
 Symbolic Z-matrix:
 Charge =  0 Multiplicity = 1

 SCF Done:  E(RHF) =  -306.585578304     A.U. after   17 cycles
 Normal termination of Gaussian 16 at Wed Apr  9 03:59:23 2025.
 Gaussian 16:  ES64L-G16RevC.01  3-Jul-2019

 ----------------------------------------------------------------------
 #t hf aug-cc-pvdz iop(5/13=1,5/36=2,99/5=2) pseudo=read geom=check gue
 ss=(read,tcheck) scf=(maxcycle=1)
 ----------------------------------------------------------------------
 -----
 title
 -----
 Structure from the checkpoint file:  "Grambow2020_wb97xd3_008790_reverse_mol1.chk"
 Charge =  0 Multiplicity = 1

                         Standard orientation:
 ---------------------------------------------------------------------
 Center     Atomic      Atomic             Coordinates (Angstroms)
 Number     Number       Type             X           Y           Z
 ---------------------------------------------------------------------
      1          8           0       -2.369209   -0.059156    0.013834
      2          6           0       -1.143230   -0.009620   -0.027463
      3          6           0       -0.288662   -1.181823    0.074328
      4          6           0        1.126131   -1.123898   -0.323138
      5          6           0        1.753731    0.143131    0.075880
      6          6           0        0.967616    1.302610   -0.008383
      7          6           0       -0.393860    1.235746   -0.127354
      8          1           0        0.385041   -0.753404    1.656344
      9          1           0       -0.799231   -2.140378    0.076471
     10          1           0        1.689932   -2.001660   -0.009507
     11          1           0        1.133337   -1.122173   -1.430182
     12          1           0        1.112459   -0.345513    1.701022
     13          1           0        2.834158    0.225898    0.075803
     14          1           0        1.450192    2.271573    0.052355
     15          1           0       -0.982572    2.142032   -0.216200
 ---------------------------------------------------------------------

 SCF Done:  E(RHF) =  -306.679574046     A.U. after    2 cycles

 The electronic state is 1-A.
 Alpha  occ. eigenvalues --  -20.49922 -11.32016 -11.30682 -11.29251 -11.27967
 Alpha  occ. eigenvalues --  -11.27940 -11.27126  -1.30193  -1.16423  -1.05007
 Alpha  occ. eigenvalues --   -1.00047  -0.87054  -0.82726  -0.72535  -0.70660
 Alpha  occ. eigenvalues --   -0.66330  -0.65577  -0.61381  -0.60392  -0.55096
 Alpha  occ. eigenvalues --   -0.53969  -0.53319  -0.51748  -0.42432  -0.40636
 Alpha  occ. eigenvalues --   -0.29672
 Alpha virt. eigenvalues --    0.00779   0.02432   0.03466   0.04293   0.04764
 Alpha virt. eigenvalues --    0.06060   0.06837   0.07397   0.08442   0.10323
 Alpha virt. eigenvalues --    0.11328   0.11938   0.12539   0.12935   0.13363

 Mulliken charges:
               1
     1  O   -0.618125
     2  C    0.120667
     3  C    0.145236
     4  C    0.477586
     5  C   -0.068629
     6  C    0.534603
     7  C    0.482215
     8  H    0.158949
     9  H   -0.352041
    10  H   -0.061577
    11  H    0.122024
    12  H    0.258043
    13  H   -0.359112
    14  H   -0.397613
    15  H   -0.442225
 Sum of Mulliken charges =  -0.00000

 Dipole moment (field-independent basis, Debye):
    X=              6.5181    Y=             -0.1792    Z=             -0.8458  Tot=              6.5751

 Test job not archived.
 1\1\GINC-SE143\SP\RHF\Aug-CC-pVDZ\C6H8O1\OHZDE\09-Apr-2025\0\\#t hf au
 g-cc-pvdz iop(5/13=1,5/36=2,99/5=2) pseudo=read geom=check guess=(read
 ,tcheck) scf=(maxcycle=1)\\title\\0,1\O,0,0.6945542,-2.67717138,0.4575
 0966\C,0,0.45167195,-1.4798289,0.33683062\C,0,-0.88499132,-0.94986365,
 0.11963251\C,0,-1.17657446,0.47663625,0.32711719\C,0,-0.08067433,1.332
 38198,-0.14739437\C,0,1.22806875,0.86304625,0.04335836\C,0,1.48061315,
 -0.44845418,0.34073063\H,0,-0.57365906,-0.40061961,-1.53614392\H,0,-1.
 69517635,-1.67043753,0.18198155\H,0,-2.15134353,0.76995754,-0.0608127\

 Normal termination of Gaussian 16 at Wed Apr  9 03:59:28 2025.
