 Gaussian 16, Revision C.01,

 ----------------------------------------------------------------------
 #t hf aug-cc-pvdz symm=none int=(grid=ultrafine) guess=(read,tcheck) s
 table=(opt,rrhf)
 ----------------------------------------------------------------------
 -----
 title
 -----
 Symbolic Z-matrix:
 Charge =  0 Multiplicity = 1

 SCF Done:  E(RHF) =  -323.714829897     A.U. after   15 cycles
 Normal termination of Gaussian 16 at Wed Apr  9 03:52:22 2025.
 Gaussian 16:  ES64L-G16RevC.01  3-Jul-2019

 ----------------------------------------------------------------------
 #t hf aug-cc-pvdz iop(5/13=1,5/36=2,99/5=2) pseudo=read geom=check gue
 ss=(read,tcheck) scf=(maxcycle=1)
 ----------------------------------------------------------------------
 -----
 title
 -----
 Structure from the checkpoint file:  "Grambow2020_wb97xd3_008324_reverse_mol1.chk"
 Charge =  0 Multiplicity = 1

                         Standard orientation:
 ---------------------------------------------------------------------
 Center     Atomic      Atomic             Coordinates (Angstroms)
 Number     Number       Type             X           Y           Z
 ---------------------------------------------------------------------
      1          7           0        1.916461   -0.740531   -0.489014
      2          6           0        0.794171   -0.234621   -0.014855
      3          6           0        0.947596    1.087512    0.765075
      4          6           0       -0.088314    0.916585   -0.634659
      5          6           0       -1.530676    0.671524   -0.300804
      6          6           0       -1.500582   -0.820933    0.067091
      7          8           0       -0.227297   -1.070166    0.605088
      8          1           0        1.702350   -1.568590   -1.034867
      9          1           0        0.451736    1.123580    1.727260
     10          1           0        1.927256    1.522867    0.620828
     11          1           0        0.288220    1.382898   -1.534070
     12          1           0        0.270123    1.914201    0.165581
     13          1           0       -1.889548    1.282144    0.531819
     14          1           0       -2.160270    0.886551   -1.164408
     15          1           0       -1.665607   -1.433010   -0.829992
     16          1           0       -2.254273   -1.086007    0.809155
 ---------------------------------------------------------------------

 SCF Done:  E(RHF) =  -323.812472060     A.U. after    2 cycles

 The electronic state is 1-A.
 Alpha  occ. eigenvalues --  -20.56805 -15.49315 -11.34604 -11.33042 -11.31399
 Alpha  occ. eigenvalues --  -11.30015 -11.28047  -1.35099  -1.17693  -1.08690
 Alpha  occ. eigenvalues --   -1.01587  -0.90881  -0.84546  -0.80717  -0.70500
 Alpha  occ. eigenvalues --   -0.69417  -0.66138  -0.63486  -0.60983  -0.57983
 Alpha  occ. eigenvalues --   -0.57858  -0.53803  -0.51548  -0.50087  -0.43593
 Alpha  occ. eigenvalues --   -0.34792  -0.26733
 Alpha virt. eigenvalues --    0.01841   0.03360   0.03628   0.04837   0.05941
 Alpha virt. eigenvalues --    0.06152   0.06357   0.07209   0.08514   0.10403
 Alpha virt. eigenvalues --    0.11266   0.12424   0.12908   0.13635   0.14042

 Mulliken charges:
               1
     1  N   -0.726600
     2  C    1.194213
     3  C    0.407599
     4  C   -0.254667
     5  C    0.196954
     6  C    0.896525
     7  O   -0.808252
     8  H   -0.074377
     9  H   -0.031843
    10  H   -0.073536
    11  H   -0.281094
    12  H    0.005931
    13  H   -0.065646
    14  H   -0.050868
    15  H   -0.138627
    16  H   -0.195712
 Sum of Mulliken charges =  -0.00000

 Dipole moment (field-independent basis, Debye):
    X=             -5.6874    Y=              5.4941    Z=             -0.0224  Tot=              7.9077

 Test job not archived.
 1\1\GINC-SE273\SP\RHF\Aug-CC-pVDZ\C5H9N1O1\OHZDE\09-Apr-2025\0\\#t hf
 aug-cc-pvdz iop(5/13=1,5/36=2,99/5=2) pseudo=read geom=check guess=(re
 ad,tcheck) scf=(maxcycle=1)\\title\\0,1\N,0,2.17941723,0.31211034,0.78
 327453\C,0,1.04528847,0.14460088,0.13058758\C,0,0.89491527,-1.21249866
 ,-0.58741974\C,0,-0.24265063,-0.63090193,0.60810177\C,0,-1.46104625,0.
 02267188,0.0247711\C,0,-0.90252671,1.40279737,-0.35862016\O,0,0.452745
 73,1.20801863,-0.67184504\H,0,2.15408522,1.20257169,1.26898817\H,0,0.5
 7286741,-1.16241566,-1.62025839\H,0,1.65057311,-1.91736944,-0.26771423

 Normal termination of Gaussian 16 at Wed Apr  9 03:52:28 2025.
