 Gaussian 16, Revision C.01,

 ----------------------------------------------------------------------
 #t hf aug-cc-pvdz symm=none int=(grid=ultrafine) guess=(read,tcheck) s
 table=(opt,rrhf)
 ----------------------------------------------------------------------
 -----
 title
 -----
 Symbolic Z-matrix:
 Charge =  0 Multiplicity = 1

 SCF Done:  E(RHF) =  -305.454828773     A.U. after   15 cycles
 Normal termination of Gaussian 16 at Wed Apr  9 16:14:59 2025.
 Gaussian 16:  ES64L-G16RevC.01  3-Jul-2019

 ----------------------------------------------------------------------
 #t hf aug-cc-pvdz iop(5/13=1,5/36=2,99/5=2) pseudo=read geom=check gue
 ss=(read,tcheck) scf=(maxcycle=1)
 ----------------------------------------------------------------------
 -----
 title
 -----
 Structure from the checkpoint file:  "Grambow2020_wb97xd3_008023_reverse_mol2.chk"
 Charge =  0 Multiplicity = 1

                         Standard orientation:
 ---------------------------------------------------------------------
 Center     Atomic      Atomic             Coordinates (Angstroms)
 Number     Number       Type             X           Y           Z
 ---------------------------------------------------------------------
      1          8           0       -2.713922   -0.424320   -0.350186
      2          6           0        0.051988    1.439626   -0.385027
      3          6           0        0.847121    0.546233    0.581583
      4          6           0       -0.538416    0.245224    0.193142
      5          6           0       -1.531166   -0.604440    0.299781
      6          6           0        1.938634   -0.251998    0.080042
      7          6           0        2.847464   -0.913973   -0.333939
      8          1           0       -3.297834   -1.158309   -0.158446
      9          1           0        0.348344    1.416517   -1.427296
     10          1           0       -0.248707    2.412383   -0.012686
     11          1           0        1.007038    0.955078    1.574440
     12          1           0       -1.444331   -1.493663    0.917141
     13          1           0        3.653112   -1.501476   -0.705161
 ---------------------------------------------------------------------

 SCF Done:  E(RHF) =  -305.552666692     A.U. after    2 cycles

 The electronic state is 1-A.
 Alpha  occ. eigenvalues --  -20.60548 -11.31194 -11.27533 -11.25533 -11.24559
 Alpha  occ. eigenvalues --  -11.24533 -11.23112  -1.36764  -1.16374  -1.02272
 Alpha  occ. eigenvalues --   -0.97844  -0.86851  -0.77362  -0.74568  -0.72148
 Alpha  occ. eigenvalues --   -0.68655  -0.67520  -0.59677  -0.57208  -0.55447
 Alpha  occ. eigenvalues --   -0.49452  -0.46959  -0.38753  -0.37345  -0.34807
 Alpha virt. eigenvalues --    0.02995   0.03952   0.04306   0.04929   0.06283
 Alpha virt. eigenvalues --    0.06895   0.09625   0.09881   0.10734   0.11896
 Alpha virt. eigenvalues --    0.12049   0.12878   0.13512   0.14398   0.14686

 Mulliken charges:
               1
     1  O   -0.632784
     2  C    0.470966
     3  C    0.578189
     4  C   -0.982577
     5  C    1.333655
     6  C   -0.775748
     7  C    1.183943
     8  H    0.205798
     9  H   -0.129733
    10  H   -0.086363
    11  H   -0.257926
    12  H   -0.360692
    13  H   -0.546729
 Sum of Mulliken charges =   0.00000

 Dipole moment (field-independent basis, Debye):
    X=             -0.9254    Y=             -1.1036    Z=              0.8713  Tot=              1.6833

 Test job not archived.
 1\1\GINC-SE113\SP\RHF\Aug-CC-pVDZ\C6H6O1\OHZDE\09-Apr-2025\0\\#t hf au
 g-cc-pvdz iop(5/13=1,5/36=2,99/5=2) pseudo=read geom=check guess=(read
 ,tcheck) scf=(maxcycle=1)\\title\\0,1\O,0,0.22711168,-2.7719396,0.8477
 0932\C,0,1.42788851,0.27914184,0.23550106\C,0,0.17955425,0.78563859,-0
 .50601333\C,0,0.27697697,-0.58153702,0.02553562\C,0,-0.34821953,-1.720
 32389,0.2020245\C,0,-0.67899294,1.75770168,0.12494445\C,0,-1.39222088,
 2.56717587,0.64611674\H,0,-0.39414373,-3.49913755,0.88873376\H,0,1.600
 9547,0.6767777,1.22878906\H,0,2.31970302,0.12579009,-0.36154329\H,0,0.

 Normal termination of Gaussian 16 at Wed Apr  9 16:15:29 2025.
