 Gaussian 16, Revision C.01,

 ----------------------------------------------------------------------
 #t hf aug-cc-pvdz symm=none int=(grid=ultrafine) guess=(read,tcheck) s
 table=(opt,rrhf)
 ----------------------------------------------------------------------
 -----
 title
 -----
 Symbolic Z-matrix:
 Charge =  0 Multiplicity = 1

 SCF Done:  E(RHF) =  -322.711473514     A.U. after   15 cycles
 Normal termination of Gaussian 16 at Wed Apr  9 03:34:27 2025.
 Gaussian 16:  ES64L-G16RevC.01  3-Jul-2019

 ----------------------------------------------------------------------
 #t hf aug-cc-pvdz iop(5/13=1,5/36=2,99/5=2) pseudo=read geom=check gue
 ss=(read,tcheck) scf=(maxcycle=1)
 ----------------------------------------------------------------------
 -----
 title
 -----
 Structure from the checkpoint file:  "Grambow2020_wb97xd3_007131_reverse_mol2.chk"
 Charge =  0 Multiplicity = 1

                         Standard orientation:
 ---------------------------------------------------------------------
 Center     Atomic      Atomic             Coordinates (Angstroms)
 Number     Number       Type             X           Y           Z
 ---------------------------------------------------------------------
      1          7           0        1.717589    1.640427   -0.279455
      2          6           0        1.623996    0.505224   -0.103251
      3          8           0        1.547305   -0.758969    0.096739
      4          6           0        0.225061   -1.226496    0.543773
      5          6           0       -0.806923   -1.023257   -0.508968
      6          6           0       -1.929450    1.026347    0.491254
      7          6           0       -1.718453   -0.055353   -0.515941
      8          1           0       -1.804684    1.999529    0.011789
      9          1           0       -0.004874   -0.712602    1.476152
     10          1           0        0.398782   -2.280199    0.748992
     11          1           0       -0.773107   -1.716634   -1.342510
     12          1           0       -1.235374    0.984700    1.328664
     13          1           0       -2.949171    0.986695    0.881603
     14          1           0       -2.398522   -0.031517   -1.363628
 ---------------------------------------------------------------------

 SCF Done:  E(RHF) =  -322.814231964     A.U. after    2 cycles

 The electronic state is 1-A.
 Alpha  occ. eigenvalues --  -20.66282 -15.62470 -11.34069 -11.33834 -11.27343
 Alpha  occ. eigenvalues --  -11.25590 -11.24806  -1.43785  -1.18268  -1.10662
 Alpha  occ. eigenvalues --   -1.01495  -0.93768  -0.81084  -0.76486  -0.70883
 Alpha  occ. eigenvalues --   -0.68725  -0.67056  -0.59526  -0.58742  -0.57287
 Alpha  occ. eigenvalues --   -0.54589  -0.54148  -0.51034  -0.45204  -0.43377
 Alpha  occ. eigenvalues --   -0.38939
 Alpha virt. eigenvalues --    0.02728   0.03854   0.04118   0.05983   0.06124
 Alpha virt. eigenvalues --    0.06366   0.07870   0.08910   0.10540   0.11575
 Alpha virt. eigenvalues --    0.11758   0.13319   0.13543   0.14057   0.14161

 Mulliken charges:
               1
     1  N   -0.126562
     2  C   -0.108227
     3  O   -0.418359
     4  C    0.890821
     5  C    0.497149
     6  C    0.272847
     7  C    0.094444
     8  H    0.122846
     9  H   -0.141903
    10  H   -0.139590
    11  H   -0.391797
    12  H   -0.205524
    13  H    0.054539
    14  H   -0.400684
 Sum of Mulliken charges =  -0.00000

 Dipole moment (field-independent basis, Debye):
    X=             -3.3549    Y=             -2.9802    Z=              1.0737  Tot=              4.6141

 Test job not archived.
 1\1\GINC-SE229\SP\RHF\Aug-CC-pVDZ\C5H7N1O1\OHZDE\09-Apr-2025\0\\#t hf
 aug-cc-pvdz iop(5/13=1,5/36=2,99/5=2) pseudo=read geom=check guess=(re
 ad,tcheck) scf=(maxcycle=1)\\title\\0,1\N,0,2.644295,-1.06187886,-0.18
 016716\C,0,2.24699646,0.02008245,-0.18276884\O,0,1.83116574,1.2329853,
 -0.18612556\C,0,0.46471484,1.40768822,-0.7048189\C,0,-0.53795827,0.746
 19942,0.17361107\C,0,-0.96611858,-1.30494949,-1.26543533\C,0,-1.138107
 2,-0.41260701,-0.08087537\H,0,-0.60545827,-2.28166981,-0.93607507\H,0,
 0.45346932,1.03365139,-1.72768567\H,0,0.34819796,2.48881969,-0.7175068

 Normal termination of Gaussian 16 at Wed Apr  9 03:34:32 2025.
