 Gaussian 16, Revision C.01,

 ----------------------------------------------------------------------
 #t hf aug-cc-pvdz symm=none int=(grid=ultrafine) guess=(read,tcheck) s
 table=(opt,rrhf)
 ----------------------------------------------------------------------
 -----
 title
 -----
 Symbolic Z-matrix:
 Charge =  0 Multiplicity = 1

 SCF Done:  E(RHF) =  -379.448143522     A.U. after   15 cycles
 Normal termination of Gaussian 16 at Wed Apr  9 16:31:59 2025.
 Gaussian 16:  ES64L-G16RevC.01  3-Jul-2019

 ----------------------------------------------------------------------
 #t hf aug-cc-pvdz iop(5/13=1,5/36=2,99/5=2) pseudo=read geom=check gue
 ss=(read,tcheck) scf=(maxcycle=1)
 ----------------------------------------------------------------------
 -----
 title
 -----
 Structure from the checkpoint file:  "Grambow2020_wb97xd3_008535_reverse_mol1.chk"
 Charge =  0 Multiplicity = 1

                         Standard orientation:
 ---------------------------------------------------------------------
 Center     Atomic      Atomic             Coordinates (Angstroms)
 Number     Number       Type             X           Y           Z
 ---------------------------------------------------------------------
      1          8           0       -0.775031    1.212309   -0.691168
      2          6           0       -0.004671    0.289024   -0.089191
      3          6           0        1.278730    0.617262    0.704350
      4          8           0        1.950426   -0.520761    0.147396
      5          6           0        0.929562   -0.698325   -0.841319
      6          6           0       -1.105865   -0.289532    0.709800
      7          8           0       -2.199639   -0.581876    0.125320
      8          1           0       -2.066909   -0.109618   -0.753172
      9          1           0        1.245610    0.585056    1.798233
     10          1           0        1.713572    1.563329    0.369724
     11          1           0        1.209542   -0.279069   -1.814018
     12          1           0        0.630919   -1.744961   -0.950736
     13          1           0       -1.125321   -0.402691    1.795730
 ---------------------------------------------------------------------

 SCF Done:  E(RHF) =  -379.566143014     A.U. after    2 cycles

 The electronic state is 1-A.
 Alpha  occ. eigenvalues --  -20.69538 -20.57541 -20.49095 -11.43977 -11.31085
 Alpha  occ. eigenvalues --  -11.29583 -11.29344  -1.48812  -1.36116  -1.25419
 Alpha  occ. eigenvalues --   -1.01930  -0.95069  -0.93964  -0.84616  -0.76491
 Alpha  occ. eigenvalues --   -0.73547  -0.69364  -0.66774  -0.65414  -0.63051
 Alpha  occ. eigenvalues --   -0.57233  -0.56683  -0.53651  -0.50972  -0.44512
 Alpha  occ. eigenvalues --   -0.40008  -0.38168
 Alpha virt. eigenvalues --    0.02397   0.02974   0.04127   0.04868   0.05733
 Alpha virt. eigenvalues --    0.06499   0.07176   0.09692   0.10381   0.11167
 Alpha virt. eigenvalues --    0.12287   0.13546   0.14019   0.14543   0.15591

 Mulliken charges:
               1
     1  O   -0.993089
     2  C    0.066720
     3  C    0.901494
     4  O   -0.740620
     5  C    0.725684
     6  C    0.816557
     7  O   -0.430489
     8  H    0.328048
     9  H   -0.160360
    10  H   -0.092459
    11  H   -0.086955
    12  H   -0.181693
    13  H   -0.152839
 Sum of Mulliken charges =  -0.00000

 Dipole moment (field-independent basis, Debye):
    X=             -1.4921    Y=             -2.7050    Z=              2.4687  Tot=              3.9545

 Test job not archived.
 1\1\GINC-SE162\SP\RHF\Aug-CC-pVDZ\C4H6O3\OHZDE\09-Apr-2025\0\\#t hf au
 g-cc-pvdz iop(5/13=1,5/36=2,99/5=2) pseudo=read geom=check guess=(read
 ,tcheck) scf=(maxcycle=1)\\title\\0,1\O,0,1.01127124,0.23567618,-1.344
 65989\C,0,0.15985572,0.00627578,-0.32939914\C,0,-1.12481279,-0.8416838
 9,-0.45251218\O,0,-1.85262716,0.08788132,0.36152905\C,0,-0.81281668,1.
 06705561,0.2554086\C,0,1.19119604,-0.54465881,0.57533824\O,0,2.2820432
 8,0.09663005,0.72441353\H,0,2.21188513,0.75174782,-0.03604174\H,0,-1.1
 3152599,-1.85336584,-0.03398256\H,0,-1.48274583,-0.86059866,-1.4857747

 Normal termination of Gaussian 16 at Wed Apr  9 16:32:03 2025.
