 Gaussian 16, Revision C.01,

 ----------------------------------------------------------------------
 #t hf aug-cc-pvdz symm=none int=(grid=ultrafine) guess=(read,tcheck) s
 table=(opt,rrhf)
 ----------------------------------------------------------------------
 -----
 title
 -----
 Symbolic Z-matrix:
 Charge =  0 Multiplicity = 1

 SCF Done:  E(RHF) =  -286.090752077     A.U. after   13 cycles
 Normal termination of Gaussian 16 at Wed Apr  9 14:22:20 2025.
 Gaussian 16:  ES64L-G16RevC.01  3-Jul-2019

 ----------------------------------------------------------------------
 #t hf aug-cc-pvdz iop(5/13=1,5/36=2,99/5=2) pseudo=read geom=check gue
 ss=(read,tcheck) scf=(maxcycle=1)
 ----------------------------------------------------------------------
 -----
 title
 -----
 Structure from the checkpoint file:  "Grambow2020_wb97xd3_006063_forward_mol2.chk"
 Charge =  0 Multiplicity = 1

                         Standard orientation:
 ---------------------------------------------------------------------
 Center     Atomic      Atomic             Coordinates (Angstroms)
 Number     Number       Type             X           Y           Z
 ---------------------------------------------------------------------
      1          6           0        2.720012   -0.198487    0.029818
      2          6           0        1.341940    0.372238   -0.273134
      3          6           0        0.218895   -0.518335    0.240399
      4          6           0       -1.153392    0.104800    0.056590
      5          8           0       -1.343010    1.300985    0.110050
      6          7           0       -2.169914   -0.775466   -0.146382
      7          1           0        3.508864    0.447180   -0.359184
      8          1           0        2.851927   -1.187077   -0.418130
      9          1           0        2.877871   -0.301405    1.106467
     10          1           0        1.229580    1.361819    0.172546
     11          1           0        1.222558    0.511182   -1.351399
     12          1           0        0.257834   -1.503053   -0.235571
     13          1           0        0.343783   -0.688314    1.315868
     14          1           0       -3.104948   -0.416530   -0.220874
     15          1           0       -2.018721   -1.764711   -0.187483
 ---------------------------------------------------------------------

 SCF Done:  E(RHF) =  -286.182517947     A.U. after    2 cycles

 The electronic state is 1-A.
 Alpha  occ. eigenvalues --  -20.53062 -15.64794 -11.36092 -11.24757 -11.23110
 Alpha  occ. eigenvalues --  -11.22624  -1.34725  -1.17847  -1.06627  -0.95974
 Alpha  occ. eigenvalues --   -0.83484  -0.78130  -0.72426  -0.67837  -0.64483
 Alpha  occ. eigenvalues --   -0.61122  -0.59150  -0.56910  -0.53023  -0.50906
 Alpha  occ. eigenvalues --   -0.48764  -0.47764  -0.43323  -0.41759
 Alpha virt. eigenvalues --    0.02743   0.03941   0.04786   0.04897   0.06353
 Alpha virt. eigenvalues --    0.06617   0.07511   0.08156   0.09352   0.11785
 Alpha virt. eigenvalues --    0.12147   0.13623   0.14503   0.14815   0.15524

 Mulliken charges:
               1
     1  C    0.474595
     2  C    0.099280
     3  C    0.157691
     4  C    0.544558
     5  O   -0.527648
     6  N   -0.105416
     7  H   -0.054207
     8  H   -0.073928
     9  H   -0.065732
    10  H   -0.090151
    11  H   -0.136199
    12  H   -0.170398
    13  H    0.004644
    14  H   -0.030830
    15  H   -0.026260
 Sum of Mulliken charges =  -0.00000

 Dipole moment (field-independent basis, Debye):
    X=              0.1241    Y=             -4.0970    Z=             -0.2238  Tot=              4.1050

 Test job not archived.
 1\1\GINC-SE009\SP\RHF\Aug-CC-pVDZ\C4H9N1O1\OHZDE\09-Apr-2025\0\\#t hf
 aug-cc-pvdz iop(5/13=1,5/36=2,99/5=2) pseudo=read geom=check guess=(re
 ad,tcheck) scf=(maxcycle=1)\\title\\0,1\C,0,2.23697135,-0.0389046,-0.3
 732508\C,0,0.79632578,0.3518492,-0.6706421\C,0,-0.16939812,-0.12931897
 ,0.40356439\C,0,-1.58732024,0.36578679,0.18080366\O,0,-1.83534758,1.43
 669067,-0.33039118\N,0,-2.56984909,-0.46513145,0.62079716\H,0,2.909355
 99,0.30250966,-1.16181311\H,0,2.34937185,-1.12327915,-0.29039004\H,0,2
 .58017303,0.4002422,0.5669874\H,0,0.70272398,1.43531349,-0.75936067\H,

 Normal termination of Gaussian 16 at Wed Apr  9 14:22:25 2025.
