 Gaussian 16, Revision C.01,

 ----------------------------------------------------------------------
 #t hf aug-cc-pvdz symm=none int=(grid=ultrafine) guess=(read,tcheck) s
 table=(opt,rrhf)
 ----------------------------------------------------------------------
 -----
 title
 -----
 Symbolic Z-matrix:
 Charge =  0 Multiplicity = 1

 SCF Done:  E(RHF) =  -266.695176056     A.U. after   15 cycles
 Normal termination of Gaussian 16 at Wed Apr  9 03:02:36 2025.
 Gaussian 16:  ES64L-G16RevC.01  3-Jul-2019

 ----------------------------------------------------------------------
 #t hf aug-cc-pvdz iop(5/13=1,5/36=2,99/5=2) pseudo=read geom=check gue
 ss=(read,tcheck) scf=(maxcycle=1)
 ----------------------------------------------------------------------
 -----
 title
 -----
 Structure from the checkpoint file:  "Grambow2020_b97d3_006471_forward_mol1.chk"
 Charge =  0 Multiplicity = 1

                         Standard orientation:
 ---------------------------------------------------------------------
 Center     Atomic      Atomic             Coordinates (Angstroms)
 Number     Number       Type             X           Y           Z
 ---------------------------------------------------------------------
      1          8           0       -1.260848   -0.857425    0.252942
      2          6           0       -1.195856    0.419410   -0.102799
      3          6           0        0.144436    1.026093   -0.161310
      4          6           0        1.224942    0.237026    0.473716
      5          8           0        1.093212   -0.811911   -0.495417
      6          1           0        0.103395   -1.165548   -0.227438
      7          1           0       -1.832433    0.735815   -0.963998
      8          1           0       -1.535925    1.169022    0.714274
      9          1           0        0.344054    1.920119   -0.758192
     10          1           0        0.996974   -0.080903    1.503498
     11          1           0        2.223894    0.681016    0.414017
 ---------------------------------------------------------------------

 SCF Done:  E(RHF) =  -266.776366080     A.U. after    2 cycles

 The electronic state is 1-A.
 Alpha  occ. eigenvalues --  -20.58239 -20.48351 -11.39183 -11.33127 -11.31562
 Alpha  occ. eigenvalues --   -1.33736  -1.24734  -1.07381  -0.93723  -0.81415
 Alpha  occ. eigenvalues --   -0.75270  -0.68584  -0.63798  -0.61178  -0.59766
 Alpha  occ. eigenvalues --   -0.56528  -0.53864  -0.47705  -0.40628  -0.39113
 Alpha virt. eigenvalues --    0.00994   0.02075   0.03903   0.04418   0.05700
 Alpha virt. eigenvalues --    0.06619   0.08782   0.10425   0.11438   0.12380
 Alpha virt. eigenvalues --    0.12872   0.13635   0.14748   0.15489   0.16268

 Mulliken charges:
               1
     1  O   -0.884264
     2  C    0.628495
     3  C   -0.057174
     4  C    0.907588
     5  O   -0.721202
     6  H    0.465251
     7  H   -0.075230
     8  H    0.194886
     9  H   -0.224122
    10  H   -0.045879
    11  H   -0.188349
 Sum of Mulliken charges =  -0.00000

 Dipole moment (field-independent basis, Debye):
    X=              2.0268    Y=              6.1823    Z=              0.2714  Tot=              6.5117

 Test job not archived.
 1\1\GINC-SE041\SP\RHF\Aug-CC-pVDZ\C3H6O2\OHZDE\09-Apr-2025\0\\#t hf au
 g-cc-pvdz iop(5/13=1,5/36=2,99/5=2) pseudo=read geom=check guess=(read
 ,tcheck) scf=(maxcycle=1)\\title\\0,1\O,0,-1.63914384,-0.31011682,-0.4
 853035\C,0,-0.97946004,0.75542356,-0.04881193\C,0,0.45457249,0.5796355
 8,0.23494776\C,0,0.92092753,-0.82479956,0.29370408\O,0,0.64475396,-1.0
 245733,-1.09937074\H,0,-0.43632948,-0.9406873,-1.07052436\H,0,-1.18412
 379,1.72265995,-0.56801531\H,0,-1.19642803,1.04285047,1.05367848\H,0,1
 .14406035,1.42796505,0.25341202\H,0,0.32104431,-1.4649867,0.95988783\H

 Normal termination of Gaussian 16 at Wed Apr  9 03:02:39 2025.
