 Gaussian 16, Revision C.01,

 ----------------------------------------------------------------------
 #t hf aug-cc-pvdz symm=none int=(grid=ultrafine) guess=(read,tcheck) s
 table=(opt,rrhf)
 ----------------------------------------------------------------------
 -----
 title
 -----
 Symbolic Z-matrix:
 Charge =  0 Multiplicity = 1

 SCF Done:  E(RHF) =  -301.563537468     A.U. after   16 cycles
 Normal termination of Gaussian 16 at Wed Apr  9 16:46:05 2025.
 Gaussian 16:  ES64L-G16RevC.01  3-Jul-2019

 ----------------------------------------------------------------------
 #t hf aug-cc-pvdz iop(5/13=1,5/36=2,99/5=2) pseudo=read geom=check gue
 ss=(read,tcheck) scf=(maxcycle=1)
 ----------------------------------------------------------------------
 -----
 title
 -----
 Structure from the checkpoint file:  "Grambow2020_wb97xd3_008865_forward_mol1.chk"
 Charge =  0 Multiplicity = 1

                         Standard orientation:
 ---------------------------------------------------------------------
 Center     Atomic      Atomic             Coordinates (Angstroms)
 Number     Number       Type             X           Y           Z
 ---------------------------------------------------------------------
      1          7           0        2.406148   -0.614897    0.064179
      2          6           0        1.499789    0.083102   -0.020078
      3          6           0        0.370396    0.976804   -0.155038
      4          6           0       -0.823552    0.596760   -0.976915
      5          6           0       -1.048194   -0.902166   -0.702489
      6          6           0       -1.045395   -0.686719    0.810882
      7          7           0       -0.731557    0.788527    0.795027
      8          1           0        0.679172    2.015466   -0.213189
      9          1           0       -1.537963    1.200415   -0.021349
     10          1           0       -1.998030   -1.254934   -1.096631
     11          1           0       -0.251331   -1.538873   -1.090534
     12          1           0       -2.024208   -0.814089    1.267171
     13          1           0       -0.308041   -1.230085    1.401918
 ---------------------------------------------------------------------

 SCF Done:  E(RHF) =  -301.647364669     A.U. after    2 cycles

 The electronic state is 1-A.
 Alpha  occ. eigenvalues --  -15.70434 -15.65623 -11.33723 -11.30308 -11.30252
 Alpha  occ. eigenvalues --  -11.29551 -11.26112  -1.31353  -1.20998  -1.04648
 Alpha  occ. eigenvalues --   -0.98733  -0.92059  -0.77253  -0.74442  -0.70379
 Alpha  occ. eigenvalues --   -0.62001  -0.60255  -0.58825  -0.57522  -0.55640
 Alpha  occ. eigenvalues --   -0.52155  -0.48615  -0.48418  -0.42160  -0.36229
 Alpha virt. eigenvalues --    0.03020   0.03719   0.04443   0.04773   0.07096
 Alpha virt. eigenvalues --    0.07265   0.08259   0.09070   0.10338   0.11768
 Alpha virt. eigenvalues --    0.12722   0.13124   0.13784   0.14215   0.14673

 Mulliken charges:
               1
     1  N   -0.159485
     2  C   -0.682076
     3  C    1.517579
     4  C   -0.588181
     5  C    0.653217
     6  C    0.841202
     7  N   -0.993462
     8  H   -0.298232
     9  H    0.480829
    10  H   -0.150081
    11  H   -0.166589
    12  H   -0.195021
    13  H   -0.259700
 Sum of Mulliken charges =  -0.00000

 Dipole moment (field-independent basis, Debye):
    X=             -2.6866    Y=             -0.0699    Z=              0.6145  Tot=              2.7568

 Test job not archived.
 1\1\GINC-SE114\SP\RHF\Aug-CC-pVDZ\C5H6N2\OHZDE\09-Apr-2025\0\\#t hf au
 g-cc-pvdz iop(5/13=1,5/36=2,99/5=2) pseudo=read geom=check guess=(read
 ,tcheck) scf=(maxcycle=1)\\title\\0,1\N,0,2.20660575,0.1897623,1.73125
 601\C,0,1.71347789,0.24620169,0.69712383\C,0,1.11603223,0.29634779,-0.
 61930666\C,0,0.10953408,-0.72597376,-1.05202895\C,0,-0.76553723,-0.988
 32489,0.18812249\C,0,-1.04262233,0.50243816,0.38194907\N,0,-0.16143082
 ,1.0088303,-0.73257534\H,0,1.82516119,0.61807081,-1.37506681\H,0,-0.50
 5426,0.2945762,-1.65881561\H,0,-1.64982698,-1.57478003,-0.04869628\H,0

 Normal termination of Gaussian 16 at Wed Apr  9 16:46:10 2025.
