 Gaussian 16, Revision C.01,

 ----------------------------------------------------------------------
 #t hf aug-cc-pvdz symm=none int=(grid=ultrafine) guess=(read,tcheck) s
 table=(opt,rrhf)
 ----------------------------------------------------------------------
 -----
 title
 -----
 Symbolic Z-matrix:
 Charge =  0 Multiplicity = 1

 SCF Done:  E(RHF) =  -360.813482536     A.U. after   15 cycles
 Normal termination of Gaussian 16 at Wed Apr  9 16:37:13 2025.
 Gaussian 16:  ES64L-G16RevC.01  3-Jul-2019

 ----------------------------------------------------------------------
 #t hf aug-cc-pvdz iop(5/13=1,5/36=2,99/5=2) pseudo=read geom=check gue
 ss=(read,tcheck) scf=(maxcycle=1)
 ----------------------------------------------------------------------
 -----
 title
 -----
 Structure from the checkpoint file:  "Grambow2020_wb97xd3_008681_reverse_mol1.chk"
 Charge =  0 Multiplicity = 1

                         Standard orientation:
 ---------------------------------------------------------------------
 Center     Atomic      Atomic             Coordinates (Angstroms)
 Number     Number       Type             X           Y           Z
 ---------------------------------------------------------------------
      1          6           0       -2.966979   -0.165608    0.473854
      2          7           0       -1.859462    0.284413   -0.343339
      3          6           0       -0.640638   -0.660797   -0.416525
      4          6           0        0.558832    0.055031   -0.113990
      5          8           0        0.619449    1.272257   -0.009011
      6          8           0        1.638119   -0.739550    0.009673
      7          6           0        2.871141   -0.066416    0.227195
      8          1           0       -3.333489   -1.119132    0.092816
      9          1           0       -3.780338    0.558022    0.428464
     10          1           0       -2.649621   -0.304485    1.512204
     11          1           0       -1.477442    1.204645   -0.135319
     12          1           0       -1.475602   -0.189600   -1.346729
     13          1           0       -0.829241   -1.647710   -0.022064
     14          1           0        3.628565   -0.845365    0.278176
     15          1           0        2.848490    0.498809    1.159769
     16          1           0        3.090227    0.619005   -0.592447
 ---------------------------------------------------------------------

 SCF Done:  E(RHF) =  -360.930290598     A.U. after    2 cycles

 The electronic state is 1-A.
 Alpha  occ. eigenvalues --  -20.59696 -20.53045 -15.67990 -11.37055 -11.29098
 Alpha  occ. eigenvalues --  -11.28190 -11.23921  -1.40098  -1.30183  -1.23142
 Alpha  occ. eigenvalues --   -1.01191  -0.96150  -0.87849  -0.78096  -0.74870
 Alpha  occ. eigenvalues --   -0.69147  -0.67178  -0.65908  -0.64632  -0.61544
 Alpha  occ. eigenvalues --   -0.58062  -0.56783  -0.54158  -0.52107  -0.48114
 Alpha  occ. eigenvalues --   -0.46389  -0.45651  -0.31232
 Alpha virt. eigenvalues --    0.02930   0.04216   0.04517   0.04707   0.06126
 Alpha virt. eigenvalues --    0.06685   0.07185   0.07875   0.08659   0.10825
 Alpha virt. eigenvalues --    0.11731   0.11776   0.14495   0.15262   0.15634

 Mulliken charges:
               1
     1  C    0.776817
     2  N   -0.642346
     3  C    0.501427
     4  C    0.406537
     5  O   -0.568925
     6  O   -0.535660
     7  C    0.765133
     8  H   -0.176988
     9  H   -0.182387
    10  H   -0.076751
    11  H    0.061684
    12  H    0.453747
    13  H   -0.382428
    14  H   -0.261012
    15  H   -0.075661
    16  H   -0.063188
 Sum of Mulliken charges =  -0.00000

 Dipole moment (field-independent basis, Debye):
    X=             -2.6734    Y=             -0.9100    Z=              0.7940  Tot=              2.9335

 Test job not archived.
 1\1\GINC-SE087\SP\RHF\Aug-CC-pVDZ\C4H9N1O2\OHZDE\09-Apr-2025\0\\#t hf
 aug-cc-pvdz iop(5/13=1,5/36=2,99/5=2) pseudo=read geom=check guess=(re
 ad,tcheck) scf=(maxcycle=1)\\title\\0,1\C,0,-2.75256263,0.31895894,0.1
 2152278\N,0,-1.62407715,-0.58079677,0.23932371\C,0,-0.36774018,-0.0085
 0193,0.93099236\C,0,0.7869354,-0.22649874,0.11743978\O,0,0.79551425,-0
 .93441788,-0.88011318\O,0,1.88849105,0.39633583,0.57587554\C,0,3.08249
 555,0.14168394,-0.15232223\H,0,-3.06290522,0.64185082,1.115583\H,0,-3.
 58986001,-0.19488403,-0.34980819\H,0,-2.48185029,1.20382606,-0.4631971

 Normal termination of Gaussian 16 at Wed Apr  9 16:37:19 2025.
