 Gaussian 16, Revision C.01,

 ----------------------------------------------------------------------
 #t hf aug-cc-pvdz symm=none int=(grid=ultrafine) guess=(read,tcheck) s
 table=(opt,rrhf)
 ----------------------------------------------------------------------
 -----
 title
 -----
 Symbolic Z-matrix:
 Charge =  0 Multiplicity = 1

 SCF Done:  E(RHF) =  -322.521017433     A.U. after   18 cycles
 Normal termination of Gaussian 16 at Wed Apr  9 15:47:05 2025.
 Gaussian 16:  ES64L-G16RevC.01  3-Jul-2019

 ----------------------------------------------------------------------
 #t hf aug-cc-pvdz iop(5/13=1,5/36=2,99/5=2) pseudo=read geom=check gue
 ss=(read,tcheck) scf=(maxcycle=1)
 ----------------------------------------------------------------------
 -----
 title
 -----
 Structure from the checkpoint file:  "Grambow2020_wb97xd3_007381_reverse_mol1.chk"
 Charge =  0 Multiplicity = 1

                         Standard orientation:
 ---------------------------------------------------------------------
 Center     Atomic      Atomic             Coordinates (Angstroms)
 Number     Number       Type             X           Y           Z
 ---------------------------------------------------------------------
      1          6           0       -1.872333   -0.019652    0.742501
      2          6           0       -0.377545    1.134282   -0.472771
      3          6           0        0.914794    1.184254    0.136631
      4          8           0        1.620415    0.071361    0.314727
      5          6           0        1.011831   -1.145053    0.038679
      6          7           0       -0.160324   -1.333341   -0.365897
      7          6           0       -1.092005   -0.208934   -0.453180
      8          1           0       -1.362890    0.036282    1.695865
      9          1           0       -2.950752   -0.078885    0.731704
     10          1           0       -0.953219    2.048186   -0.534642
     11          1           0        1.364875    2.066440    0.573895
     12          1           0        0.543419    1.306635   -1.269161
     13          1           0        1.716026   -1.943605    0.235484
     14          1           0       -1.706964   -0.341929   -1.340842
 ---------------------------------------------------------------------

 SCF Done:  E(RHF) =  -322.619000074     A.U. after    2 cycles

 The electronic state is 1-A.
 Alpha  occ. eigenvalues --  -20.67593 -15.63345 -11.40449 -11.35326 -11.30933
 Alpha  occ. eigenvalues --  -11.28460 -11.16279  -1.46277  -1.21463  -1.13728
 Alpha  occ. eigenvalues --   -0.99102  -0.95003  -0.82398  -0.77656  -0.73698
 Alpha  occ. eigenvalues --   -0.71602  -0.69779  -0.64788  -0.62911  -0.58675
 Alpha  occ. eigenvalues --   -0.54830  -0.53004  -0.48543  -0.42842  -0.40942
 Alpha  occ. eigenvalues --   -0.21288
 Alpha virt. eigenvalues --    0.02134   0.03652   0.04037   0.05074   0.05454
 Alpha virt. eigenvalues --    0.06093   0.06827   0.07824   0.09455   0.10519
 Alpha virt. eigenvalues --    0.12199   0.12834   0.13230   0.13819   0.14165

 Mulliken charges:
               1
     1  C    0.601095
     2  C    0.064575
     3  C    0.358499
     4  O   -0.431447
     5  C    0.548567
     6  N   -0.330473
     7  C    0.874830
     8  H   -0.438319
     9  H   -0.395877
    10  H   -0.307355
    11  H   -0.278781
    12  H    0.315799
    13  H   -0.356171
    14  H   -0.224943
 Sum of Mulliken charges =  -0.00000

 Dipole moment (field-independent basis, Debye):
    X=              3.8444    Y=              3.5036    Z=             -1.6335  Tot=              5.4519

 Test job not archived.
 1\1\GINC-SE232\SP\RHF\Aug-CC-pVDZ\C5H7N1O1\OHZDE\09-Apr-2025\0\\#t hf
 aug-cc-pvdz iop(5/13=1,5/36=2,99/5=2) pseudo=read geom=check guess=(re
 ad,tcheck) scf=(maxcycle=1)\\title\\0,1\C,0,-1.58411522,-0.79560497,0.
 39141106\C,0,-0.33745684,0.71808876,-0.70285278\C,0,0.60116161,1.38356
 051,0.14576344\O,0,1.58273021,0.70328639,0.73048581\C,0,1.58039107,-0.
 68030842,0.62140428\N,0,0.73831844,-1.39374809,0.02558723\C,0,-0.47335
 241,-0.78693768,-0.52538913\H,0,-1.43851255,-0.41132792,1.3927582\H,0,
 -2.50808691,-1.30427867,0.15872949\H,0,-1.165152,1.28889654,-1.1022888

 Normal termination of Gaussian 16 at Wed Apr  9 15:47:09 2025.
