 Gaussian 16, Revision C.01,

 ----------------------------------------------------------------------
 #t hf aug-cc-pvdz symm=none int=(grid=ultrafine) guess=(read,tcheck) s
 table=(opt,rrhf)
 ----------------------------------------------------------------------
 -----
 title
 -----
 Symbolic Z-matrix:
 Charge =  0 Multiplicity = 1

 SCF Done:  E(RHF) =  -286.766922523     A.U. after   16 cycles
 Normal termination of Gaussian 16 at Wed Apr  9 15:36:12 2025.
 Gaussian 16:  ES64L-G16RevC.01  3-Jul-2019

 ----------------------------------------------------------------------
 #t hf aug-cc-pvdz iop(5/13=1,5/36=2,99/5=2) pseudo=read geom=check gue
 ss=(read,tcheck) scf=(maxcycle=1)
 ----------------------------------------------------------------------
 -----
 title
 -----
 Structure from the checkpoint file:  "Grambow2020_wb97xd3_007182_forward_mol1.chk"
 Charge =  0 Multiplicity = 1

                         Standard orientation:
 ---------------------------------------------------------------------
 Center     Atomic      Atomic             Coordinates (Angstroms)
 Number     Number       Type             X           Y           Z
 ---------------------------------------------------------------------
      1          6           0       -2.419086   -0.781652    0.074237
      2          6           0       -1.153232    0.007334   -0.044629
      3          6           0       -1.054481    1.341944   -0.049202
      4          6           0        1.205802    1.393905    0.106323
      5          6           0        1.181574    0.057442   -0.001400
      6          6           0        2.495426   -0.666090    0.025539
      7          7           0        0.022944   -0.689414   -0.071724
      8          1           0       -2.404884   -1.413741    0.964784
      9          1           0       -3.279034   -0.118464    0.134229
     10          1           0       -2.552978   -1.429117   -0.796214
     11          1           0       -1.878411    2.019510    0.119645
     12          1           0       -0.123199    1.866265   -0.411543
     13          1           0        2.650354   -1.221110   -0.902860
     14          1           0        3.311693    0.045567    0.135975
     15          1           0        2.530270   -1.366382    0.863508
     16          1           0        0.049558   -1.673934   -0.270663
 ---------------------------------------------------------------------

 SCF Done:  E(RHF) =  -286.852972411     A.U. after    2 cycles

 The electronic state is 1-A.
 Alpha  occ. eigenvalues --  -15.66680 -11.30026 -11.27917 -11.25579 -11.25437
 Alpha  occ. eigenvalues --  -11.25157 -11.22978  -1.26109  -1.07731  -1.01971
 Alpha  occ. eigenvalues --   -0.97322  -0.90901  -0.79990  -0.75179  -0.69065
 Alpha  occ. eigenvalues --   -0.62538  -0.60281  -0.59204  -0.58471  -0.57314
 Alpha  occ. eigenvalues --   -0.54575  -0.53573  -0.52032  -0.39961  -0.34990
 Alpha  occ. eigenvalues --   -0.31633
 Alpha virt. eigenvalues --    0.02516   0.03508   0.04519   0.04651   0.05943
 Alpha virt. eigenvalues --    0.06677   0.06908   0.08147   0.08866   0.10038
 Alpha virt. eigenvalues --    0.11232   0.11687   0.12654   0.13624   0.14147

 Mulliken charges:
               1
     1  C    0.555814
     2  C   -0.071798
     3  C    0.743228
     4  C   -0.578277
     5  C    0.037943
     6  C    0.683762
     7  N   -0.679114
     8  H    0.039752
     9  H   -0.086633
    10  H    0.012458
    11  H   -0.453214
    12  H   -0.040783
    13  H    0.011482
    14  H   -0.086430
    15  H    0.034066
    16  H   -0.122256
 Sum of Mulliken charges =  -0.00000

 Dipole moment (field-independent basis, Debye):
    X=             -1.6389    Y=             -4.3745    Z=             -0.5287  Tot=              4.7013

 Test job not archived.
 1\1\GINC-SE162\SP\RHF\Aug-CC-pVDZ\C6H9N1\OHZDE\09-Apr-2025\0\\#t hf au
 g-cc-pvdz iop(5/13=1,5/36=2,99/5=2) pseudo=read geom=check guess=(read
 ,tcheck) scf=(maxcycle=1)\\title\\0,1\C,0,-2.3971097,-0.31828576,0.123
 48811\C,0,-1.042505,0.30984483,0.0259708\C,0,-0.76879751,1.61437106,0.
 14535995\C,0,1.48229241,1.36017344,0.20657943\C,0,1.27873616,0.0556018
 ,-0.02790133\C,0,2.48589775,-0.82938589,-0.12784834\N,0,0.03012563,-0.
 52561285,-0.1191397\H,0,-2.43910594,-1.03361975,0.94771366\H,0,-3.1598
 4088,0.44020102,0.28431694\H,0,-2.64183149,-0.85204246,-0.79848625\H,0

 Normal termination of Gaussian 16 at Wed Apr  9 15:36:19 2025.
