 Gaussian 16, Revision C.01,

 ----------------------------------------------------------------------
 #t hf aug-cc-pvdz symm=none int=(grid=ultrafine) guess=(read,tcheck) s
 table=(opt,rrhf)
 ----------------------------------------------------------------------
 -----
 title
 -----
 Symbolic Z-matrix:
 Charge =  0 Multiplicity = 1

 SCF Done:  E(RHF) =  -284.713109963     A.U. after   15 cycles
 Normal termination of Gaussian 16 at Wed Apr  9 03:05:26 2025.
 Gaussian 16:  ES64L-G16RevC.01  3-Jul-2019

 ----------------------------------------------------------------------
 #t hf aug-cc-pvdz iop(5/13=1,5/36=2,99/5=2) pseudo=read geom=check gue
 ss=(read,tcheck) scf=(maxcycle=1)
 ----------------------------------------------------------------------
 -----
 title
 -----
 Structure from the checkpoint file:  "Grambow2020_b97d3_006536_reverse_mol1.chk"
 Charge =  0 Multiplicity = 1

                         Standard orientation:
 ---------------------------------------------------------------------
 Center     Atomic      Atomic             Coordinates (Angstroms)
 Number     Number       Type             X           Y           Z
 ---------------------------------------------------------------------
      1          6           0        1.484801    0.984438   -0.597018
      2          6           0       -1.105131    1.225257    0.255037
      3          8           0       -1.552184   -0.058560   -0.184011
      4          6           0       -0.705851   -1.130155   -0.145547
      5          7           0        0.536314   -1.265579    0.098770
      6          6           0        1.443081   -0.166193    0.301475
      7          1           0       -0.277576    1.583770   -0.414234
      8          1           0        2.152101    1.720264   -0.080235
      9          1           0       -0.755370    1.190430    1.295551
     10          1           0       -1.966999    1.895126    0.166501
     11          1           0       -1.303865   -2.021653   -0.355439
     12          1           0        2.470241   -0.465960   -0.101325
     13          1           0        1.643338   -0.054528    1.386205
 ---------------------------------------------------------------------

 SCF Done:  E(RHF) =  -284.800070949     A.U. after    2 cycles

 The electronic state is 1-A.
 Alpha  occ. eigenvalues --  -20.61873 -15.61966 -11.35972 -11.31026 -11.29471
 Alpha  occ. eigenvalues --  -11.28501  -1.38459  -1.19473  -1.04435  -0.96948
 Alpha  occ. eigenvalues --   -0.85380  -0.76038  -0.72156  -0.67971  -0.64815
 Alpha  occ. eigenvalues --   -0.62731  -0.58674  -0.57091  -0.54082  -0.51948
 Alpha  occ. eigenvalues --   -0.41094  -0.39813  -0.37173
 Alpha virt. eigenvalues --    0.02998   0.04112   0.04625   0.04935   0.06333
 Alpha virt. eigenvalues --    0.07346   0.07542   0.08318   0.10528   0.10673
 Alpha virt. eigenvalues --    0.12157   0.13300   0.13433   0.14672   0.15597

 Mulliken charges:
               1
     1  C   -0.240409
     2  C    0.832908
     3  O   -0.508671
     4  C    0.581154
     5  N   -0.387343
     6  C    0.481890
     7  H   -0.019742
     8  H   -0.079849
     9  H   -0.061386
    10  H   -0.251527
    11  H   -0.308624
    12  H    0.089046
    13  H   -0.127449
 Sum of Mulliken charges =  -0.00000

 Dipole moment (field-independent basis, Debye):
    X=              0.3053    Y=              1.6227    Z=              2.1899  Tot=              2.7426

 Test job not archived.
 1\1\GINC-SE113\SP\RHF\Aug-CC-pVDZ\C4H7N1O1\OHZDE\09-Apr-2025\0\\#t hf
 aug-cc-pvdz iop(5/13=1,5/36=2,99/5=2) pseudo=read geom=check guess=(re
 ad,tcheck) scf=(maxcycle=1)\\title\\0,1\C,0,1.30874285,-0.43801333,0.8
 8650146\C,0,-1.21402703,-1.0598235,0.02584938\O,0,-1.76515193,0.253084
 24,0.14134809\C,0,-0.98950385,1.34801494,-0.11472354\N,0,0.25189707,1.
 51682939,-0.34150183\C,0,1.23732431,0.47123196,-0.25418071\H,0,-0.3994
 9678,-1.19344779,0.78741786\H,0,2.04759816,-1.22013819,0.57639389\H,0,
 -0.8155367,-1.23686932,-0.98215606\H,0,-2.03381781,-1.75450648,0.23736

 Normal termination of Gaussian 16 at Wed Apr  9 03:05:30 2025.
