 Gaussian 16, Revision C.01,

 ----------------------------------------------------------------------
 #t hf aug-cc-pvdz symm=none int=(grid=ultrafine) guess=(read,tcheck) s
 table=(opt,rrhf)
 ----------------------------------------------------------------------
 -----
 title
 -----
 Symbolic Z-matrix:
 Charge =  0 Multiplicity = 1

 SCF Done:  E(RHF) =  -322.769988224     A.U. after   14 cycles
 Normal termination of Gaussian 16 at Wed Apr  9 16:08:04 2025.
 Gaussian 16:  ES64L-G16RevC.01  3-Jul-2019

 ----------------------------------------------------------------------
 #t hf aug-cc-pvdz iop(5/13=1,5/36=2,99/5=2) pseudo=read geom=check gue
 ss=(read,tcheck) scf=(maxcycle=1)
 ----------------------------------------------------------------------
 -----
 title
 -----
 Structure from the checkpoint file:  "Grambow2020_wb97xd3_007795_reverse_mol2.chk"
 Charge =  0 Multiplicity = 1

                         Standard orientation:
 ---------------------------------------------------------------------
 Center     Atomic      Atomic             Coordinates (Angstroms)
 Number     Number       Type             X           Y           Z
 ---------------------------------------------------------------------
      1          6           0       -2.444096   -0.493949   -0.080139
      2          6           0       -1.168887   -0.162025    0.021131
      3          6           0       -0.649368    1.264075    0.063945
      4          7           0        0.781486    1.091952   -0.044064
      5          6           0        1.229973   -0.191740   -0.013096
      6          8           0        2.386816   -0.537454   -0.053317
      7          6           0        0.010371   -1.094622    0.089005
      8          1           0       -2.758973   -1.529969   -0.110207
      9          1           0       -3.222193    0.258855   -0.137426
     10          1           0       -0.926016    1.756389    1.002514
     11          1           0       -1.050632    1.858405   -0.761123
     12          1           0        1.435299    1.854347   -0.062863
     13          1           0        0.062040   -1.641170    1.033508
     14          1           0        0.027578   -1.831325   -0.714496
 ---------------------------------------------------------------------

 SCF Done:  E(RHF) =  -322.868978041     A.U. after    2 cycles

 The electronic state is 1-A.
 Alpha  occ. eigenvalues --  -20.53287 -15.65222 -11.36184 -11.29476 -11.26912
 Alpha  occ. eigenvalues --  -11.25565 -11.24269  -1.35017  -1.23083  -1.08484
 Alpha  occ. eigenvalues --   -0.99616  -0.93780  -0.80440  -0.75534  -0.69889
 Alpha  occ. eigenvalues --   -0.66844  -0.63945  -0.62809  -0.59769  -0.59314
 Alpha  occ. eigenvalues --   -0.57953  -0.53915  -0.50269  -0.43226  -0.40425
 Alpha  occ. eigenvalues --   -0.37017
 Alpha virt. eigenvalues --    0.02837   0.03713   0.04308   0.04656   0.06142
 Alpha virt. eigenvalues --    0.06797   0.07016   0.09222   0.10043   0.11408
 Alpha virt. eigenvalues --    0.12254   0.13549   0.13868   0.14306   0.15294

 Mulliken charges:
               1
     1  C    1.183235
     2  C   -0.520248
     3  C    0.897968
     4  N   -0.362332
     5  C    0.533994
     6  O   -0.513081
     7  C   -0.354087
     8  H   -0.387602
     9  H   -0.398172
    10  H   -0.011462
    11  H   -0.072421
    12  H   -0.117706
    13  H    0.098196
    14  H    0.023718
 Sum of Mulliken charges =  -0.00000

 Dipole moment (field-independent basis, Debye):
    X=             -3.9401    Y=              1.9814    Z=              0.2626  Tot=              4.4181

 Test job not archived.
 1\1\GINC-SE141\SP\RHF\Aug-CC-pVDZ\C5H7N1O1\OHZDE\09-Apr-2025\0\\#t hf
 aug-cc-pvdz iop(5/13=1,5/36=2,99/5=2) pseudo=read geom=check guess=(re
 ad,tcheck) scf=(maxcycle=1)\\title\\0,1\C,0,-1.84587947,0.52344615,-0.
 74551502\C,0,-0.67773586,0.16839885,-0.23958069\C,0,0.19948449,1.06396
 269,0.61712442\N,0,1.42734363,0.30933131,0.724495\C,0,1.40395502,-0.94
 292218,0.19413902\O,0,2.31393992,-1.73717728,0.21667505\C,0,0.02664831
 ,-1.14970965,-0.41685571\H,0,-2.42939664,-0.15622275,-1.35456876\H,0,-
 2.26295534,1.50865935,-0.56992317\H,0,-0.25393966,1.23709237,1.5990873

 Normal termination of Gaussian 16 at Wed Apr  9 16:08:08 2025.
