 Gaussian 16, Revision C.01,

 ----------------------------------------------------------------------
 #t hf aug-cc-pvdz symm=none int=(grid=ultrafine) guess=(read,tcheck) s
 table=(opt,rrhf)
 ----------------------------------------------------------------------
 -----
 title
 -----
 Symbolic Z-matrix:
 Charge =  0 Multiplicity = 1

 SCF Done:  E(RHF) =  -322.501025971     A.U. after   15 cycles
 Normal termination of Gaussian 16 at Wed Apr  9 03:34:25 2025.
 Gaussian 16:  ES64L-G16RevC.01  3-Jul-2019

 ----------------------------------------------------------------------
 #t hf aug-cc-pvdz iop(5/13=1,5/36=2,99/5=2) pseudo=read geom=check gue
 ss=(read,tcheck) scf=(maxcycle=1)
 ----------------------------------------------------------------------
 -----
 title
 -----
 Structure from the checkpoint file:  "Grambow2020_wb97xd3_007141_forward_mol1.chk"
 Charge =  0 Multiplicity = 1

                         Standard orientation:
 ---------------------------------------------------------------------
 Center     Atomic      Atomic             Coordinates (Angstroms)
 Number     Number       Type             X           Y           Z
 ---------------------------------------------------------------------
      1          7           0       -2.257524   -0.402848   -0.004381
      2          6           0       -1.040913   -0.134476   -0.032642
      3          8           0       -0.548770    1.175779    0.247154
      4          6           0        0.734442    1.230502   -0.075109
      5          6           0        1.306999   -0.009832   -0.409651
      6          6           0        1.196774   -1.133429    0.568369
      7          6           0        0.099308   -0.975774   -0.444822
      8          1           0       -2.827419    0.400949    0.245200
      9          1           0        2.861756    1.220547    0.201414
     10          1           0        1.163732    2.205483   -0.231118
     11          1           0        2.436296    0.342984   -0.629966
     12          1           0        1.000356   -0.903162    1.609459
     13          1           0        1.860398   -1.972684    0.404660
     14          1           0       -0.081954   -1.742360   -1.183084
 ---------------------------------------------------------------------

 SCF Done:  E(RHF) =  -322.600526168     A.U. after    2 cycles

 The electronic state is 1-A.
 Alpha  occ. eigenvalues --  -20.68882 -15.64350 -11.40551 -11.39441 -11.28923
 Alpha  occ. eigenvalues --  -11.28611 -11.28029  -1.47893  -1.22451  -1.19464
 Alpha  occ. eigenvalues --   -1.01408  -0.92963  -0.87902  -0.78596  -0.77574
 Alpha  occ. eigenvalues --   -0.71433  -0.69928  -0.66946  -0.63720  -0.60033
 Alpha  occ. eigenvalues --   -0.55504  -0.51627  -0.47708  -0.46347  -0.43367
 Alpha  occ. eigenvalues --   -0.27619
 Alpha virt. eigenvalues --    0.02547   0.03209   0.03713   0.04739   0.05246
 Alpha virt. eigenvalues --    0.06198   0.07066   0.09169   0.09330   0.10375
 Alpha virt. eigenvalues --    0.11665   0.12150   0.12788   0.13084   0.14136

 Mulliken charges:
               1
     1  N   -0.381453
     2  C    0.486022
     3  O   -0.585534
     4  C    0.572606
     5  C   -0.137216
     6  C    0.965973
     7  C    0.531793
     8  H    0.016816
     9  H   -0.314224
    10  H   -0.297276
    11  H    0.091851
    12  H   -0.297512
    13  H   -0.244864
    14  H   -0.406983
 Sum of Mulliken charges =  -0.00000

 Dipole moment (field-independent basis, Debye):
    X=             -2.0283    Y=             -0.6226    Z=             -0.5719  Tot=              2.1974

 Test job not archived.
 1\1\GINC-SE273\SP\RHF\Aug-CC-pVDZ\C5H7N1O1\OHZDE\09-Apr-2025\0\\#t hf
 aug-cc-pvdz iop(5/13=1,5/36=2,99/5=2) pseudo=read geom=check guess=(re
 ad,tcheck) scf=(maxcycle=1)\\title\\0,1\N,0,1.80487784,-1.93320039,-0.
 00666689\C,0,1.05232787,-0.96488574,-0.2280271\O,0,1.54403251,0.273684
 55,-0.73932692\C,0,0.58384461,1.18219027,-0.66097407\C,0,-0.67508064,0
 .67276664,-0.29523723\C,0,-1.2557554,-0.44157849,-1.10282304\C,0,-0.38
 469593,-0.80299815,0.06613981\H,0,2.77390565,-1.7339797,-0.24002711\H,
 0,-1.02124314,2.44794602,-1.31180571\H,0,0.87851002,2.21712888,-0.6968

 Normal termination of Gaussian 16 at Wed Apr  9 03:34:30 2025.
