 Gaussian 16, Revision C.01,

 ----------------------------------------------------------------------
 #t hf aug-cc-pvdz symm=none int=(grid=ultrafine) guess=(read,tcheck) s
 table=(opt,rrhf)
 ----------------------------------------------------------------------
 -----
 title
 -----
 Symbolic Z-matrix:
 Charge =  0 Multiplicity = 1

 SCF Done:  E(RHF) =  -344.779695554     A.U. after   15 cycles

 1\1\GINC-SE069\Stability\RHF\Aug-CC-pVDZ\C5H10O2\OHZDE\09-Apr-2025\0\\
 #t hf aug-cc-pvdz symm=none int=(grid=ultrafine) guess=(read,tcheck) s
 table=(opt,rrhf)\\title\\0,1\C,0,2.30697473,0.44378322,-0.62676035\C,0
 ,1.12969961,-0.31870316,-0.10498704\C,0,0.75148996,0.04409865,1.310947
 34\O,0,-0.71985144,-0.00480262,1.26712033\C,0,-1.04720812,0.23158469,0
 .03146315\C,0,-2.46609878,0.40319478,-0.3437679\O,0,-0.10412832,0.2168
 6513,-0.78947945\H,0,2.42730919,0.30729673,-1.70232436\H,0,3.21002703,
 0.04731143,-0.15692738\H,0,2.2739005,1.52981779,-0.4142768\H,0,-0.3603

 Normal termination of Gaussian 16 at Wed Apr  9 03:33:35 2025.
 Gaussian 16:  ES64L-G16RevC.01  3-Jul-2019

 ----------------------------------------------------------------------
 #t hf aug-cc-pvdz iop(5/13=1,5/36=2,99/5=2) pseudo=read geom=check gue
 ss=(read,tcheck) scf=(maxcycle=1)
 ----------------------------------------------------------------------
 -----
 title
 -----
 Structure from the checkpoint file:  "Grambow2020_wb97xd3_007101_reverse_mol2.chk"
 Charge =  0 Multiplicity = 1

                         Standard orientation:
 ---------------------------------------------------------------------
 Center     Atomic      Atomic             Coordinates (Angstroms)
 Number     Number       Type             X           Y           Z
 ---------------------------------------------------------------------
      1          6           0        2.375205   -0.670659   -0.243659
      2          6           0        1.171355   -0.102228    0.439890
      3          6           0        0.756704    1.250304   -0.087614
      4          8           0       -0.713253    1.166224   -0.051367
      5          6           0       -0.999967   -0.098028   -0.148078
      6          6           0       -2.404245   -0.534764   -0.292174
      7          8           0       -0.033168   -0.881896   -0.028016
      8          1           0        2.525446   -1.719222    0.016899
      9          1           0        3.257670   -0.130433    0.106839
     10          1           0        2.352454   -0.585030   -1.347228
     11          1           0       -0.339271   -0.267712    2.548875
     12          1           0        1.017366    1.467129   -1.146665
     13          1           0        1.045186    2.092670    0.536440
     14          1           0       -1.013888   -0.301846    2.882055
     15          1           0       -2.827618   -0.126176   -1.209998
     16          1           0       -2.452926   -1.619943   -0.309151
     17          1           0       -2.987369   -0.151816    0.546808
 ---------------------------------------------------------------------

 SCF Done:  E(RHF) =  -344.893872819     A.U. after    2 cycles

 The electronic state is 1-A.
 Alpha  occ. eigenvalues --  -20.65273 -20.65180 -11.44271 -11.29842 -11.28788
 Alpha  occ. eigenvalues --  -11.21372 -11.20416  -1.50222  -1.37722  -1.09401
 Alpha  occ. eigenvalues --   -1.00631  -0.93688  -0.84829  -0.83302  -0.74070
 Alpha  occ. eigenvalues --   -0.73465  -0.64680  -0.62401  -0.61542  -0.60389
 Alpha  occ. eigenvalues --   -0.59370  -0.57155  -0.56336  -0.55906  -0.52348
 Alpha  occ. eigenvalues --   -0.50419  -0.47811  -0.25864
 Alpha virt. eigenvalues --    0.02719   0.04426   0.04905   0.04943   0.06183
 Alpha virt. eigenvalues --    0.06296   0.07054   0.07884   0.08195   0.09844
 Alpha virt. eigenvalues --    0.10278   0.11125   0.11850   0.12978   0.14039

 Mulliken charges:
               1
     1  C    0.552601
     2  C   -0.790163
     3  C    0.844907
     4  O   -0.610601
     5  C    0.174255
     6  C    0.561869
     7  O   -0.403862
     8  H   -0.094198
     9  H   -0.010616
    10  H   -0.010361
    11  H    0.141991
    12  H   -0.180481
    13  H   -0.202831
    14  H   -0.084863
    15  H    0.073137
    16  H   -0.023008
    17  H    0.062225
 Sum of Mulliken charges =  -0.00000

 Dipole moment (field-independent basis, Debye):
    X=             -3.6855    Y=              0.4856    Z=             -2.3500  Tot=              4.3978

 Test job not archived.
 1\1\GINC-SE069\SP\RHF\Aug-CC-pVDZ\C5H10O2\OHZDE\09-Apr-2025\0\\#t hf a
 ug-cc-pvdz iop(5/13=1,5/36=2,99/5=2) pseudo=read geom=check guess=(rea
 d,tcheck) scf=(maxcycle=1)\\title\\0,1\C,0,2.30697473,0.44378322,-0.62
 676035\C,0,1.12969961,-0.31870316,-0.10498704\C,0,0.75148996,0.0440986
 5,1.31094734\O,0,-0.71985144,-0.00480262,1.26712033\C,0,-1.04720812,0.
 23158469,0.03146315\C,0,-2.46609878,0.40319478,-0.3437679\O,0,-0.10412
 832,0.21686513,-0.78947945\H,0,2.42730919,0.30729673,-1.70232436\H,0,3
 .21002703,0.04731143,-0.15692738\H,0,2.2739005,1.52981779,-0.4142768\H

 Normal termination of Gaussian 16 at Wed Apr  9 03:33:41 2025.
