 Gaussian 16, Revision C.01,

 ----------------------------------------------------------------------
 #t hf aug-cc-pvdz symm=none int=(grid=ultrafine) guess=(read,tcheck) s
 table=(opt,rrhf)
 ----------------------------------------------------------------------
 -----
 title
 -----
 Symbolic Z-matrix:
 Charge =  0 Multiplicity = 1

 SCF Done:  E(RHF) =  -302.866209906     A.U. after   14 cycles
 Normal termination of Gaussian 16 at Wed Apr  9 15:33:00 2025.
 Gaussian 16:  ES64L-G16RevC.01  3-Jul-2019

 ----------------------------------------------------------------------
 #t hf aug-cc-pvdz iop(5/13=1,5/36=2,99/5=2) pseudo=read geom=check gue
 ss=(read,tcheck) scf=(maxcycle=1)
 ----------------------------------------------------------------------
 -----
 title
 -----
 Structure from the checkpoint file:  "Grambow2020_wb97xd3_006957_reverse_mol2.chk"
 Charge =  0 Multiplicity = 1

                         Standard orientation:
 ---------------------------------------------------------------------
 Center     Atomic      Atomic             Coordinates (Angstroms)
 Number     Number       Type             X           Y           Z
 ---------------------------------------------------------------------
      1          6           0       -1.985034   -1.266682    0.169964
      2          6           0       -1.301363   -0.000367   -0.324503
      3          6           0       -1.985676    1.267382    0.165446
      4          7           0        0.100421    0.001596    0.106757
      5          6           0        1.097392   -0.006869   -0.719409
      6          6           0        2.370600   -0.000942   -0.066057
      7          7           0        3.447071    0.003028    0.348373
      8          1           0       -3.021742   -1.289887   -0.167535
      9          1           0       -1.991222   -1.310747    1.262764
     10          1           0       -1.478274   -2.154861   -0.208730
     11          1           0       -1.990360    1.315886    1.258099
     12          1           0       -1.480412    2.154597   -0.217540
     13          1           0       -3.022974    1.288556   -0.170301
     14          1           0        0.228127    0.011420    1.118390
     15          1           0       -1.251094   -0.002461   -1.413702
 ---------------------------------------------------------------------

 SCF Done:  E(RHF) =  -302.958037162     A.U. after    2 cycles

 The electronic state is 1-A.
 Alpha  occ. eigenvalues --  -15.71287 -15.64548 -11.30806 -11.30365 -11.28367
 Alpha  occ. eigenvalues --  -11.25354 -11.25339  -1.27926  -1.19321  -1.08656
 Alpha  occ. eigenvalues --   -0.96381  -0.92984  -0.83997  -0.77120  -0.67316
 Alpha  occ. eigenvalues --   -0.63792  -0.62598  -0.57257  -0.56492  -0.55386
 Alpha  occ. eigenvalues --   -0.54084  -0.51685  -0.50838  -0.49299  -0.44170
 Alpha  occ. eigenvalues --   -0.37603
 Alpha virt. eigenvalues --    0.02443   0.03530   0.03873   0.05012   0.06329
 Alpha virt. eigenvalues --    0.06676   0.06900   0.07146   0.07983   0.09468
 Alpha virt. eigenvalues --    0.11456   0.11995   0.12030   0.13524   0.14293

 Mulliken charges:
               1
     1  C    0.745780
     2  C   -0.692579
     3  C    0.746754
     4  N    0.072833
     5  C    0.095460
     6  C   -0.305046
     7  N   -0.136688
     8  H   -0.021085
     9  H   -0.036251
    10  H   -0.061394
    11  H   -0.037601
    12  H   -0.060367
    13  H   -0.022237
    14  H   -0.078621
    15  H   -0.208959
 Sum of Mulliken charges =  -0.00000

 Dipole moment (field-independent basis, Debye):
    X=             -5.8814    Y=              0.0178    Z=              1.4594  Tot=              6.0598

 Test job not archived.
 1\1\GINC-SE057\SP\RHF\Aug-CC-pVDZ\C5H8N2\OHZDE\09-Apr-2025\0\\#t hf au
 g-cc-pvdz iop(5/13=1,5/36=2,99/5=2) pseudo=read geom=check guess=(read
 ,tcheck) scf=(maxcycle=1)\\title\\0,1\C,0,-1.17029533,1.27726267,0.247
 28214\C,0,-0.37093653,0.01448546,0.53342621\C,0,-1.17231047,-1.2564058
 5,0.29226783\N,0,0.83621598,-0.0020991,-0.29933711\C,0,2.03552544,0.01
 285515,0.18852311\C,0,3.05324985,-0.01025264,-0.81729203\N,0,3.9552147
 9,-0.02669243,-1.53614324\H,0,-2.0574563,1.311555,0.88050928\H,0,-1.50
 484334,1.30506667,-0.79362871\H,0,-0.57212965,2.1680118,0.44180996\H,0

 Normal termination of Gaussian 16 at Wed Apr  9 15:33:06 2025.
