 Gaussian 16, Revision C.01,

 ----------------------------------------------------------------------
 #t hf aug-cc-pvdz symm=none int=(grid=ultrafine) guess=(read,tcheck) s
 table=(opt,rrhf)
 ----------------------------------------------------------------------
 -----
 title
 -----
 Symbolic Z-matrix:
 Charge =  0 Multiplicity = 1

 SCF Done:  E(RHF) =  -284.857440750     A.U. after   15 cycles
 Normal termination of Gaussian 16 at Wed Apr  9 03:05:49 2025.
 Gaussian 16:  ES64L-G16RevC.01  3-Jul-2019

 ----------------------------------------------------------------------
 #t hf aug-cc-pvdz iop(5/13=1,5/36=2,99/5=2) pseudo=read geom=check gue
 ss=(read,tcheck) scf=(maxcycle=1)
 ----------------------------------------------------------------------
 -----
 title
 -----
 Structure from the checkpoint file:  "Grambow2020_b97d3_006565_reverse_mol2.chk"
 Charge =  0 Multiplicity = 1

                         Standard orientation:
 ---------------------------------------------------------------------
 Center     Atomic      Atomic             Coordinates (Angstroms)
 Number     Number       Type             X           Y           Z
 ---------------------------------------------------------------------
      1          8           0        2.483026   -0.676499    0.243951
      2          6           0        1.395409   -0.430413   -0.246239
      3          6           0       -2.231159   -0.852964    0.117232
      4          7           0       -1.592187    0.101935   -0.434001
      5          6           0       -0.684172    0.882475    0.398331
      6          6           0        0.727773    0.928774   -0.229013
      7          1           0        1.366010    1.636072    0.315283
      8          1           0        0.799345   -1.223898   -0.759388
      9          1           0       -2.136286   -1.132890    1.183206
     10          1           0       -2.922587   -1.447062   -0.491215
     11          1           0       -0.624247    0.516484    1.442058
     12          1           0       -1.070453    1.912645    0.426651
     13          1           0        0.622208    1.269861   -1.272064
 ---------------------------------------------------------------------

 SCF Done:  E(RHF) =  -284.944445535     A.U. after    2 cycles

 The electronic state is 1-A.
 Alpha  occ. eigenvalues --  -20.57463 -15.64982 -11.34649 -11.30639 -11.28911
 Alpha  occ. eigenvalues --  -11.25695  -1.35160  -1.21530  -1.05252  -0.92113
 Alpha  occ. eigenvalues --   -0.81716  -0.78235  -0.68970  -0.67100  -0.65658
 Alpha  occ. eigenvalues --   -0.63212  -0.59614  -0.55830  -0.53591  -0.50708
 Alpha  occ. eigenvalues --   -0.45289  -0.42229  -0.41668
 Alpha virt. eigenvalues --    0.03159   0.03719   0.04318   0.05251   0.06526
 Alpha virt. eigenvalues --    0.06899   0.07710   0.08535   0.10773   0.11616
 Alpha virt. eigenvalues --    0.12102   0.13547   0.14267   0.14851   0.15195

 Mulliken charges:
               1
     1  O   -0.483970
     2  C    0.601904
     3  C    0.563677
     4  N   -0.519629
     5  C    0.473459
     6  C    0.072093
     7  H   -0.068453
     8  H   -0.069189
     9  H   -0.177189
    10  H   -0.227755
    11  H   -0.099036
    12  H   -0.115656
    13  H    0.049743
 Sum of Mulliken charges =  -0.00000

 Dipole moment (field-independent basis, Debye):
    X=             -3.3691    Y=              0.5243    Z=              0.4077  Tot=              3.4340

 Test job not archived.
 1\1\GINC-SE188\SP\RHF\Aug-CC-pVDZ\C4H7N1O1\OHZDE\09-Apr-2025\0\\#t hf
 aug-cc-pvdz iop(5/13=1,5/36=2,99/5=2) pseudo=read geom=check guess=(re
 ad,tcheck) scf=(maxcycle=1)\\title\\0,1\O,0,-2.29607759,-1.67663407,0.
 55060132\C,0,-1.55688459,-0.90941486,-0.03992622\C,0,0.56117094,2.0695
 2442,0.28010506\N,0,0.68700229,1.08538294,-0.51964938\C,0,0.89328926,-
 0.23786159,0.05739325\C,0,-0.14890711,-1.24017301,-0.48895214\H,0,0.09
 886692,-2.26121495,-0.17279608\H,0,-1.8850294,0.12712177,-0.29711465\H
 ,0,0.59061656,1.98441391,1.38262455\H,0,0.41120097,3.07257083,-0.13539

 Normal termination of Gaussian 16 at Wed Apr  9 03:05:52 2025.
