 Gaussian 16, Revision C.01,

 ----------------------------------------------------------------------
 #t hf aug-cc-pvdz symm=none int=(grid=ultrafine) guess=(read,tcheck) s
 table=(opt,rrhf)
 ----------------------------------------------------------------------
 -----
 title
 -----
 Symbolic Z-matrix:
 Charge =  0 Multiplicity = 1

 SCF Done:  E(RHF) =  -322.526176862     A.U. after   16 cycles
 Normal termination of Gaussian 16 at Wed Apr  9 14:54:11 2025.
 Gaussian 16:  ES64L-G16RevC.01  3-Jul-2019

 ----------------------------------------------------------------------
 #t hf aug-cc-pvdz iop(5/13=1,5/36=2,99/5=2) pseudo=read geom=check gue
 ss=(read,tcheck) scf=(maxcycle=1)
 ----------------------------------------------------------------------
 -----
 title
 -----
 Structure from the checkpoint file:  "Grambow2020_wb97xd3_006641_forward_mol1.chk"
 Charge =  0 Multiplicity = 1

                         Standard orientation:
 ---------------------------------------------------------------------
 Center     Atomic      Atomic             Coordinates (Angstroms)
 Number     Number       Type             X           Y           Z
 ---------------------------------------------------------------------
      1          8           0       -2.515281    0.052751    0.276011
      2          6           0       -1.413766   -0.577442    0.159870
      3          6           0       -0.528329    0.245862   -0.560515
      4          6           0        0.615106    1.013319   -0.005797
      5          6           0        1.457178    0.225201    0.986926
      6          6           0        1.546293   -0.850529   -0.114804
      7          7           0        0.797774    0.013000   -1.089718
      8          1           0       -1.339798   -1.593323    0.548198
      9          1           0       -1.915703    0.835002   -0.460000
     10          1           0        0.686858    2.080064   -0.182335
     11          1           0        0.997617   -0.028438    1.941759
     12          1           0        2.420971    0.695794    1.178267
     13          1           0        1.070498   -1.814480    0.074793
     14          1           0        2.558493   -1.026091   -0.474818
 ---------------------------------------------------------------------

 SCF Done:  E(RHF) =  -322.622022933     A.U. after    2 cycles

 The electronic state is 1-A.
 Alpha  occ. eigenvalues --  -20.61783 -15.63321 -11.37874 -11.28886 -11.27469
 Alpha  occ. eigenvalues --  -11.24977 -11.24619  -1.40565  -1.28194  -1.01891
 Alpha  occ. eigenvalues --   -0.95243  -0.92555  -0.82925  -0.75681  -0.71616
 Alpha  occ. eigenvalues --   -0.67725  -0.66416  -0.61857  -0.60408  -0.56478
 Alpha  occ. eigenvalues --   -0.54185  -0.50449  -0.46145  -0.44213  -0.39722
 Alpha  occ. eigenvalues --   -0.33021
 Alpha virt. eigenvalues --    0.02980   0.03615   0.04322   0.05106   0.06253
 Alpha virt. eigenvalues --    0.06772   0.06916   0.07658   0.09767   0.10506
 Alpha virt. eigenvalues --    0.12438   0.12703   0.13485   0.13933   0.14636

 Mulliken charges:
               1
     1  O   -0.600480
     2  C    0.760007
     3  C   -0.251289
     4  C    0.502113
     5  C    0.477396
     6  C    0.870170
     7  N   -0.969148
     8  H   -0.183410
     9  H    0.483227
    10  H   -0.324309
    11  H   -0.176150
    12  H   -0.098346
    13  H   -0.218802
    14  H   -0.270980
 Sum of Mulliken charges =  -0.00000

 Dipole moment (field-independent basis, Debye):
    X=              1.7225    Y=             -1.3779    Z=              2.3431  Tot=              3.2180

 Test job not archived.
 1\1\GINC-SE113\SP\RHF\Aug-CC-pVDZ\C5H7N1O1\OHZDE\09-Apr-2025\0\\#t hf
 aug-cc-pvdz iop(5/13=1,5/36=2,99/5=2) pseudo=read geom=check guess=(re
 ad,tcheck) scf=(maxcycle=1)\\title\\0,1\O,0,1.98600063,1.97239424,-0.1
 3058733\C,0,1.04458534,1.3642502,0.47593178\C,0,0.09700363,0.97888482,
 -0.49069322\C,0,-0.11685863,-0.39054106,-1.02274798\C,0,-0.11888187,-1
 .47036857,0.04948597\C,0,-1.180681,-0.6055146,0.75910293\N,0,-1.213514
 42,0.37689342,-0.37677528\H,0,1.07585406,1.28733414,1.56285002\H,0,1.2
 0983271,1.81864813,-1.07241971\H,0,-0.08311714,-0.56683726,-2.09140992

 Normal termination of Gaussian 16 at Wed Apr  9 14:54:15 2025.
