 Gaussian 16, Revision C.01,

 ----------------------------------------------------------------------
 #t hf aug-cc-pvdz symm=none int=(grid=ultrafine) guess=(read,tcheck) s
 table=(opt,rrhf)
 ----------------------------------------------------------------------
 -----
 title
 -----
 Symbolic Z-matrix:
 Charge =  0 Multiplicity = 1

 SCF Done:  E(RHF) =  -301.649079708     A.U. after   16 cycles
 Normal termination of Gaussian 16 at Wed Apr  9 16:46:07 2025.
 Gaussian 16:  ES64L-G16RevC.01  3-Jul-2019

 ----------------------------------------------------------------------
 #t hf aug-cc-pvdz iop(5/13=1,5/36=2,99/5=2) pseudo=read geom=check gue
 ss=(read,tcheck) scf=(maxcycle=1)
 ----------------------------------------------------------------------
 -----
 title
 -----
 Structure from the checkpoint file:  "Grambow2020_wb97xd3_008854_reverse_mol2.chk"
 Charge =  0 Multiplicity = 1

                         Standard orientation:
 ---------------------------------------------------------------------
 Center     Atomic      Atomic             Coordinates (Angstroms)
 Number     Number       Type             X           Y           Z
 ---------------------------------------------------------------------
      1          7           0       -2.980242   -0.565500    0.001554
      2          6           0       -2.043682    0.112397   -0.000029
      3          6           0       -0.874048    0.879891   -0.001417
      4          6           0        0.750908   -0.993911   -0.001381
      5          6           0        2.203909   -0.626319    0.001058
      6          6           0        1.660835    0.823334    0.000819
      7          7           0        0.306094    0.243113   -0.001267
      8          1           0       -0.871810    1.955565    0.000031
      9          1           0        0.155256   -1.893813   -0.003737
     10          1           0        2.773053   -0.899228    0.891609
     11          1           0        2.775412   -0.899395   -0.888008
     12          1           0        1.848193    1.409554    0.898856
     13          1           0        1.851404    1.411671   -0.895061
 ---------------------------------------------------------------------

 SCF Done:  E(RHF) =  -301.739178200     A.U. after    2 cycles

 The electronic state is 1-A.
 Alpha  occ. eigenvalues --  -15.76113 -15.60475 -11.32561 -11.30632 -11.28419
 Alpha  occ. eigenvalues --  -11.26428 -11.26321  -1.34143  -1.16588  -1.09502
 Alpha  occ. eigenvalues --   -0.97918  -0.93316  -0.80053  -0.75688  -0.71344
 Alpha  occ. eigenvalues --   -0.70714  -0.60738  -0.57482  -0.57255  -0.54586
 Alpha  occ. eigenvalues --   -0.52962  -0.51691  -0.45903  -0.44065  -0.26868
 Alpha virt. eigenvalues --    0.02164   0.03372   0.03618   0.04947   0.06206
 Alpha virt. eigenvalues --    0.06362   0.07590   0.08838   0.09565   0.11716
 Alpha virt. eigenvalues --    0.12300   0.12933   0.13098   0.14529   0.15251

 Mulliken charges:
               1
     1  N   -0.209548
     2  C   -0.784123
     3  C    1.090824
     4  C    0.354305
     5  C    0.372459
     6  C    0.857120
     7  N   -0.312866
     8  H   -0.422554
     9  H   -0.358375
    10  H   -0.083086
    11  H   -0.083016
    12  H   -0.210306
    13  H   -0.210834
 Sum of Mulliken charges =  -0.00000

 Dipole moment (field-independent basis, Debye):
    X=              7.3236    Y=              1.4307    Z=             -0.0004  Tot=              7.4621

 Test job not archived.
 1\1\GINC-SE097\SP\RHF\Aug-CC-pVDZ\C5H6N2\OHZDE\09-Apr-2025\0\\#t hf au
 g-cc-pvdz iop(5/13=1,5/36=2,99/5=2) pseudo=read geom=check guess=(read
 ,tcheck) scf=(maxcycle=1)\\title\\0,1\N,0,3.39287916,-0.62671532,-1.06
 772782\C,0,2.50191283,0.05929738,-0.79892066\C,0,1.38950079,0.83698707
 ,-0.46005275\C,0,-0.13907467,-1.0194309,0.1472211\C,0,-1.51883099,-0.6
 3870673,0.59181355\C,0,-1.01279976,0.80422094,0.35032626\N,0,0.2750045
 7,0.21201415,-0.05320351\H,0,1.38051217,1.9114041,-0.51132477\H,0,0.43
 144548,-1.92381,0.00150002\H,0,-2.34108039,-0.94736006,-0.05635645\H,0

 Normal termination of Gaussian 16 at Wed Apr  9 16:46:11 2025.
