 Gaussian 16, Revision C.01,

 ----------------------------------------------------------------------
 #t hf aug-cc-pvdz symm=none int=(grid=ultrafine) guess=(read,tcheck) s
 table=(opt,rrhf)
 ----------------------------------------------------------------------
 -----
 title
 -----
 Symbolic Z-matrix:
 Charge =  0 Multiplicity = 1

 SCF Done:  E(RHF) =  -342.525232655     A.U. after   13 cycles
 Normal termination of Gaussian 16 at Wed Apr  9 16:50:05 2025.
 Gaussian 16:  ES64L-G16RevC.01  3-Jul-2019

 ----------------------------------------------------------------------
 #t hf aug-cc-pvdz iop(5/13=1,5/36=2,99/5=2) pseudo=read geom=check gue
 ss=(read,tcheck) scf=(maxcycle=1)
 ----------------------------------------------------------------------
 -----
 title
 -----
 Structure from the checkpoint file:  "Grambow2020_wb97xd3_008947_forward_mol2.chk"
 Charge =  0 Multiplicity = 1

                         Standard orientation:
 ---------------------------------------------------------------------
 Center     Atomic      Atomic             Coordinates (Angstroms)
 Number     Number       Type             X           Y           Z
 ---------------------------------------------------------------------
      1          8           0       -2.612419   -0.000464   -0.114874
      2          6           0       -1.425777   -0.000082   -0.007690
      3          6           0       -0.372004   -1.108195    0.060693
      4          6           0        0.678431    0.000421   -0.016783
      5          6           0        1.977254   -0.000974   -0.667773
      6          8           0        1.852435    0.000976    0.751675
      7          6           0       -0.372523    1.108611    0.059486
      8          1           0       -0.403539   -1.835214   -0.750932
      9          1           0       -0.375022   -1.631578    1.019257
     10          1           0        2.362628   -0.921656   -1.096852
     11          1           0        2.363784    0.918099   -1.099300
     12          1           0       -0.375578    1.632130    1.018026
     13          1           0       -0.404682    1.835440   -0.752196
 ---------------------------------------------------------------------

 SCF Done:  E(RHF) =  -342.631419470     A.U. after    2 cycles

 The electronic state is 1-A.
 Alpha  occ. eigenvalues --  -20.60023 -20.57875 -11.35491 -11.32150 -11.30898
 Alpha  occ. eigenvalues --  -11.26000 -11.25991  -1.40405  -1.37376  -1.13541
 Alpha  occ. eigenvalues --   -0.95361  -0.93141  -0.82140  -0.74437  -0.70900
 Alpha  occ. eigenvalues --   -0.70611  -0.66457  -0.63515  -0.63347  -0.58390
 Alpha  occ. eigenvalues --   -0.55620  -0.53031  -0.52241  -0.46511  -0.45643
 Alpha  occ. eigenvalues --   -0.41985
 Alpha virt. eigenvalues --    0.03029   0.04331   0.04657   0.04980   0.06261
 Alpha virt. eigenvalues --    0.06896   0.08263   0.09413   0.10490   0.11001
 Alpha virt. eigenvalues --    0.12920   0.13575   0.14355   0.14702   0.14844

 Mulliken charges:
               1
     1  O   -0.447532
     2  C    0.437300
     3  C   -0.038865
     4  C    0.104317
     5  C    1.048481
     6  O   -0.721159
     7  C   -0.038174
     8  H   -0.042167
     9  H    0.098128
    10  H   -0.228472
    11  H   -0.228355
    12  H    0.099207
    13  H   -0.042708
 Sum of Mulliken charges =  -0.00000

 Dipole moment (field-independent basis, Debye):
    X=              2.4739    Y=             -0.0012    Z=             -1.6734  Tot=              2.9867

 Test job not archived.
 1\1\GINC-SE105\SP\RHF\Aug-CC-pVDZ\C5H6O2\OHZDE\09-Apr-2025\0\\#t hf au
 g-cc-pvdz iop(5/13=1,5/36=2,99/5=2) pseudo=read geom=check guess=(read
 ,tcheck) scf=(maxcycle=1)\\title\\0,1\O,0,-2.77548285,-0.51860329,0.25
 45392\C,0,-1.62658178,-0.28794524,0.03905878\C,0,-0.79061597,0.9943024
 5,0.03369878\C,0,0.43390177,0.09629181,-0.14679915\C,0,1.7807254,0.254
 2873,0.37458041\O,0,1.49333157,0.40729231,-1.01265106\C,0,-0.41616439,
 -1.16739608,-0.2842285\H,0,-0.84973396,1.59572423,0.94093796\H,0,-0.99
 387007,1.62412909,-0.83508768\H,0,2.05226034,1.16890433,0.89421669\H,0

 Normal termination of Gaussian 16 at Wed Apr  9 16:50:09 2025.
