 Gaussian 16, Revision C.01,

 ----------------------------------------------------------------------
 #t hf aug-cc-pvdz symm=none int=(grid=ultrafine) guess=(read,tcheck) s
 table=(opt,rrhf)
 ----------------------------------------------------------------------
 -----
 title
 -----
 Symbolic Z-matrix:
 Charge =  0 Multiplicity = 1

 SCF Done:  E(RHF) =  -323.731701600     A.U. after   16 cycles
 Normal termination of Gaussian 16 at Wed Apr  9 15:33:03 2025.
 Gaussian 16:  ES64L-G16RevC.01  3-Jul-2019

 ----------------------------------------------------------------------
 #t hf aug-cc-pvdz iop(5/13=1,5/36=2,99/5=2) pseudo=read geom=check gue
 ss=(read,tcheck) scf=(maxcycle=1)
 ----------------------------------------------------------------------
 -----
 title
 -----
 Structure from the checkpoint file:  "Grambow2020_wb97xd3_006967_reverse_mol1.chk"
 Charge =  0 Multiplicity = 1

                         Standard orientation:
 ---------------------------------------------------------------------
 Center     Atomic      Atomic             Coordinates (Angstroms)
 Number     Number       Type             X           Y           Z
 ---------------------------------------------------------------------
      1          6           0       -1.506266   -1.723668    0.393620
      2          6           0       -1.484681   -0.898245   -0.702706
      3          6           0       -0.213862    0.964800   -0.307222
      4          8           0       -1.109151    1.879987    0.147971
      5          6           0        0.773386    0.582202    0.579034
      6          6           0        1.914933   -0.095981    0.051449
      7          7           0        2.813473   -0.668957   -0.380161
      8          1           0       -2.311921   -1.648302    1.115302
      9          1           0       -0.997735   -2.680587    0.361573
     10          1           0       -0.467712   -1.203048    1.385824
     11          1           0       -2.299658   -0.204564   -0.862637
     12          1           0       -0.927258   -1.195906   -1.581937
     13          1           0       -0.047736    0.910914   -1.373940
     14          1           0       -1.718219    2.121454   -0.551208
     15          1           0        0.133470   -0.585764    1.411132
     16          1           0        0.914597    1.153959    1.488199
 ---------------------------------------------------------------------

 SCF Done:  E(RHF) =  -323.835680233     A.U. after    2 cycles

 The electronic state is 1-A.
 Alpha  occ. eigenvalues --  -20.62982 -15.62837 -11.35290 -11.28364 -11.28092
 Alpha  occ. eigenvalues --  -11.26778 -11.25023  -1.39497  -1.18989  -1.08032
 Alpha  occ. eigenvalues --   -1.04056  -0.88635  -0.83042  -0.78178  -0.69448
 Alpha  occ. eigenvalues --   -0.67292  -0.65869  -0.65353  -0.60283  -0.59855
 Alpha  occ. eigenvalues --   -0.56649  -0.53914  -0.52461  -0.48685  -0.46040
 Alpha  occ. eigenvalues --   -0.35292  -0.34213
 Alpha virt. eigenvalues --    0.02331   0.03759   0.04586   0.04868   0.05987
 Alpha virt. eigenvalues --    0.06177   0.07644   0.08394   0.09561   0.09970
 Alpha virt. eigenvalues --    0.10778   0.11641   0.12580   0.13313   0.13686

 Mulliken charges:
               1
     1  C    0.110345
     2  C    0.588230
     3  C    0.780441
     4  O   -0.626097
     5  C    0.468903
     6  C   -0.468320
     7  N   -0.196551
     8  H   -0.128895
     9  H   -0.122865
    10  H   -0.220382
    11  H   -0.240186
    12  H   -0.260854
    13  H   -0.285007
    14  H    0.197837
    15  H    0.548449
    16  H   -0.145049
 Sum of Mulliken charges =  -0.00000

 Dipole moment (field-independent basis, Debye):
    X=             -4.5679    Y=              1.6614    Z=             -0.6090  Tot=              4.8987

 Test job not archived.
 1\1\GINC-SE332\SP\RHF\Aug-CC-pVDZ\C5H9N1O1\OHZDE\09-Apr-2025\0\\#t hf
 aug-cc-pvdz iop(5/13=1,5/36=2,99/5=2) pseudo=read geom=check guess=(re
 ad,tcheck) scf=(maxcycle=1)\\title\\0,1\C,0,1.64304342,-0.18803153,0.9
 1142778\C,0,1.32259056,0.69363923,-0.09041244\C,0,-0.69498516,0.168380
 86,-1.0368884\O,0,-0.36568227,-0.63271568,-2.08384292\C,0,-1.45444568,
 -0.4104124,-0.03953777\C,0,-2.10575547,0.45778622,0.88967418\N,0,-2.59
 89608,1.16504633,1.6502621\H,0,2.26402496,-1.0509293,0.69841308\H,0,1.
 64231685,0.14167081,1.94420163\H,0,0.41001068,-1.04814526,1.18334964\H

 Normal termination of Gaussian 16 at Wed Apr  9 15:33:07 2025.
