 Gaussian 16, Revision C.01,

 ----------------------------------------------------------------------
 #t hf aug-cc-pvdz symm=none int=(grid=ultrafine) guess=(read,tcheck) s
 table=(opt,rrhf)
 ----------------------------------------------------------------------
 -----
 title
 -----
 Symbolic Z-matrix:
 Charge =  0 Multiplicity = 1

 SCF Done:  E(RHF) =  -344.845862228     A.U. after   13 cycles

 1\1\GINC-SE070\Stability\RHF\Aug-CC-pVDZ\C5H10O2\OHZDE\09-Apr-2025\0\\
 #t hf aug-cc-pvdz symm=none int=(grid=ultrafine) guess=(read,tcheck) s
 table=(opt,rrhf)\\title\\0,1\O,0,2.1978524,-0.33041028,0.78993923\C,0,
 1.53943035,-1.32923195,0.68239073\C,0,0.15558842,-1.37558321,0.0975771
 8\C,0,-0.36050361,-0.02572859,-0.34689415\C,0,-1.85138409,0.05995683,-
 0.70540665\O,0,-2.10554829,0.98311083,0.35956358\C,0,-0.72734199,0.968
 26869,0.76389567\H,0,2.29591949,2.03863097,-0.36005957\H,0,1.94162504,
 -2.30346386,1.02948441\H,0,2.28126928,2.68746537,-0.72882421\H,0,-0.50

 Normal termination of Gaussian 16 at Wed Apr  9 03:40:37 2025.
 Gaussian 16:  ES64L-G16RevC.01  3-Jul-2019

 ----------------------------------------------------------------------
 #t hf aug-cc-pvdz iop(5/13=1,5/36=2,99/5=2) pseudo=read geom=check gue
 ss=(read,tcheck) scf=(maxcycle=1)
 ----------------------------------------------------------------------
 -----
 title
 -----
 Structure from the checkpoint file:  "Grambow2020_wb97xd3_007550_reverse_mol2.chk"
 Charge =  0 Multiplicity = 1

                         Standard orientation:
 ---------------------------------------------------------------------
 Center     Atomic      Atomic             Coordinates (Angstroms)
 Number     Number       Type             X           Y           Z
 ---------------------------------------------------------------------
      1          8           0       -2.304522    0.609816   -0.107166
      2          6           0       -2.036964   -0.556190   -0.214749
      3          6           0       -0.681842   -1.145642    0.059777
      4          6           0        0.349330   -0.124217    0.483321
      5          6           0        1.810852   -0.594179    0.524386
      6          8           0        2.189830    0.332743   -0.499413
      7          6           0        0.849141    0.837553   -0.603712
      8          1           0       -1.353128    2.685393    1.208623
      9          1           0       -2.813010   -1.279692   -0.539802
     10          1           0       -1.045179    3.232294    1.612672
     11          1           0       -0.366784   -1.676186   -0.848050
     12          1           0       -0.813379   -1.926618    0.819002
     13          1           0        0.023472    0.385805    1.388900
     14          1           0        1.979979   -1.632574    0.218157
     15          1           0        2.343880   -0.408293    1.460964
     16          1           0        0.788515    1.900052   -0.359846
     17          1           0        0.430068    0.675394   -1.602125
 ---------------------------------------------------------------------

 SCF Done:  E(RHF) =  -344.958129537     A.U. after    2 cycles

 The electronic state is 1-A.
 Alpha  occ. eigenvalues --  -20.58522 -20.56348 -11.35588 -11.29215 -11.28722
 Alpha  occ. eigenvalues --  -11.26416 -11.25083  -1.37695  -1.34774  -1.07978
 Alpha  occ. eigenvalues --   -0.96548  -0.94039  -0.81601  -0.76087  -0.71055
 Alpha  occ. eigenvalues --   -0.69875  -0.67150  -0.64653  -0.62537  -0.59942
 Alpha  occ. eigenvalues --   -0.57966  -0.56564  -0.54148  -0.52552  -0.48480
 Alpha  occ. eigenvalues --   -0.46628  -0.44230  -0.42526
 Alpha virt. eigenvalues --    0.02829   0.03979   0.04652   0.05129   0.06380
 Alpha virt. eigenvalues --    0.06534   0.06771   0.07474   0.08905   0.09641
 Alpha virt. eigenvalues --    0.09900   0.11533   0.12568   0.13447   0.13642

 Mulliken charges:
               1
     1  O   -0.380539
     2  C    0.592894
     3  C    0.110404
     4  C   -0.343351
     5  C    1.192746
     6  O   -0.800596
     7  C    1.032527
     8  H    0.004671
     9  H   -0.198210
    10  H    0.011511
    11  H   -0.033151
    12  H   -0.022777
    13  H   -0.328375
    14  H   -0.233372
    15  H   -0.161191
    16  H   -0.188751
    17  H   -0.254440
 Sum of Mulliken charges =   0.00000

 Dipole moment (field-independent basis, Debye):
    X=             -0.8629    Y=             -3.4734    Z=              0.8471  Tot=              3.6779

 Test job not archived.
 1\1\GINC-SE070\SP\RHF\Aug-CC-pVDZ\C5H10O2\OHZDE\09-Apr-2025\0\\#t hf a
 ug-cc-pvdz iop(5/13=1,5/36=2,99/5=2) pseudo=read geom=check guess=(rea
 d,tcheck) scf=(maxcycle=1)\\title\\0,1\O,0,2.1978524,-0.33041028,0.789
 93923\C,0,1.53943035,-1.32923195,0.68239073\C,0,0.15558842,-1.37558321
 ,0.09757718\C,0,-0.36050361,-0.02572859,-0.34689415\C,0,-1.85138409,0.
 05995683,-0.70540665\O,0,-2.10554829,0.98311083,0.35956358\C,0,-0.7273
 4199,0.96826869,0.76389567\H,0,2.29591949,2.03863097,-0.36005957\H,0,1
 .94162504,-2.30346386,1.02948441\H,0,2.28126928,2.68746537,-0.72882421

 Normal termination of Gaussian 16 at Wed Apr  9 03:40:43 2025.
