 Gaussian 16, Revision C.01,

 ----------------------------------------------------------------------
 #t hf aug-cc-pvdz symm=none int=(grid=ultrafine) guess=(read,tcheck) s
 table=(opt,rrhf)
 ----------------------------------------------------------------------
 -----
 title
 -----
 Symbolic Z-matrix:
 Charge =  0 Multiplicity = 1

 SCF Done:  E(RHF) =  -333.537507445     A.U. after   17 cycles
 Normal termination of Gaussian 16 at Wed Apr  9 15:33:40 2025.
 Gaussian 16:  ES64L-G16RevC.01  3-Jul-2019

 ----------------------------------------------------------------------
 #t hf aug-cc-pvdz iop(5/13=1,5/36=2,99/5=2) pseudo=read geom=check gue
 ss=(read,tcheck) scf=(maxcycle=1)
 ----------------------------------------------------------------------
 -----
 title
 -----
 Structure from the checkpoint file:  "Grambow2020_wb97xd3_006996_forward_mol1.chk"
 Charge =  0 Multiplicity = 1

                         Standard orientation:
 ---------------------------------------------------------------------
 Center     Atomic      Atomic             Coordinates (Angstroms)
 Number     Number       Type             X           Y           Z
 ---------------------------------------------------------------------
      1          7           0        1.466925   -0.407386    0.775729
      2          6           0        0.936308   -0.061510   -0.380579
      3          6           0        0.334051    1.256505   -0.560844
      4          7           0       -0.770898    1.231885    0.094480
      5          6           0       -1.154608    0.032772    0.652901
      6          7           0       -1.021796   -1.072405   -0.217527
      7          7           0        0.102449   -1.108497   -0.784368
      8          1           0        1.966953    0.362371    1.211414
      9          1           0        0.250245   -0.381021    1.274364
     10          1           0        0.686226    2.117040   -1.111928
     11          1           0       -2.034692    0.029831    1.279084
 ---------------------------------------------------------------------

 SCF Done:  E(RHF) =  -333.628722094     A.U. after    2 cycles

 The electronic state is 1-A.
 Alpha  occ. eigenvalues --  -15.71687 -15.69828 -15.68593 -15.68023 -11.37984
 Alpha  occ. eigenvalues --  -11.32742 -11.30634  -1.39737  -1.24670  -1.22493
 Alpha  occ. eigenvalues --   -1.05625  -0.91955  -0.88657  -0.75646  -0.75047
 Alpha  occ. eigenvalues --   -0.71062  -0.68800  -0.64019  -0.55050  -0.53843
 Alpha  occ. eigenvalues --   -0.49288  -0.48576  -0.45264  -0.40407  -0.34054
 Alpha virt. eigenvalues --    0.02207   0.03404   0.03871   0.04981   0.07213
 Alpha virt. eigenvalues --    0.07791   0.08636   0.09830   0.10330   0.11148
 Alpha virt. eigenvalues --    0.12009   0.12776   0.13917   0.14509   0.15102

 Mulliken charges:
               1
     1  N   -0.583103
     2  C    0.623499
     3  C    0.497170
     4  N   -0.492873
     5  C    0.559735
     6  N   -0.451116
     7  N   -0.385038
     8  H    0.069380
     9  H    0.602111
    10  H   -0.152357
    11  H   -0.287409
 Sum of Mulliken charges =  -0.00000

 Dipole moment (field-independent basis, Debye):
    X=              1.9802    Y=              3.0266    Z=              0.7584  Tot=              3.6955

 Test job not archived.
 1\1\GINC-SE332\SP\RHF\Aug-CC-pVDZ\C3H4N4\OHZDE\09-Apr-2025\0\\#t hf au
 g-cc-pvdz iop(5/13=1,5/36=2,99/5=2) pseudo=read geom=check guess=(read
 ,tcheck) scf=(maxcycle=1)\\title\\0,1\N,0,1.34790104,-0.68727826,-0.51
 912628\C,0,0.61503405,0.39280061,-0.70505559\C,0,0.23613985,1.2406377,
 0.4218793\N,0,-0.65371009,0.58259473,1.0746544\C,0,-1.09532232,-0.6037
 8098,0.53203977\N,0,-1.38867392,-0.52771671,-0.84812658\N,0,-0.4692096
 9,0.02561077,-1.50763597\H,0,2.07254956,-0.54116915,0.17794784\H,0,0.3
 2162646,-1.20069215,0.12337629\H,0,0.58821899,2.22145082,0.70873794\H,

 Normal termination of Gaussian 16 at Wed Apr  9 15:33:44 2025.
