 Gaussian 16, Revision C.01,

 ----------------------------------------------------------------------
 #t hf aug-cc-pvdz symm=none int=(grid=ultrafine) guess=(read,tcheck) s
 table=(opt,rrhf)
 ----------------------------------------------------------------------
 -----
 title
 -----
 Symbolic Z-matrix:
 Charge =  0 Multiplicity = 1

 SCF Done:  E(RHF) =  -264.868634601     A.U. after   18 cycles
 Normal termination of Gaussian 16 at Wed Apr  9 14:15:17 2025.
 Gaussian 16:  ES64L-G16RevC.01  3-Jul-2019

 ----------------------------------------------------------------------
 #t hf aug-cc-pvdz iop(5/13=1,5/36=2,99/5=2) pseudo=read geom=check gue
 ss=(read,tcheck) scf=(maxcycle=1)
 ----------------------------------------------------------------------
 -----
 title
 -----
 Structure from the checkpoint file:  "Grambow2020_b97d3_006848_forward_mol1.chk"
 Charge =  0 Multiplicity = 1

                         Standard orientation:
 ---------------------------------------------------------------------
 Center     Atomic      Atomic             Coordinates (Angstroms)
 Number     Number       Type             X           Y           Z
 ---------------------------------------------------------------------
      1          6           0       -2.202157   -0.646641    0.177982
      2          7           0       -0.945645   -0.332508   -0.485119
      3          6           0        0.925800   -0.314990    0.490688
      4          6           0        2.195688   -0.746575   -0.160403
      5          6           0        0.098684    0.769642    0.034684
      6          7           0        0.095022    1.993472   -0.006007
      7          1           0       -2.097156   -0.403450    1.244345
      8          1           0       -2.463984   -1.711113    0.079498
      9          1           0       -3.032508   -0.042897   -0.224594
     10          1           0       -0.909411   -0.561518   -1.483462
     11          1           0        0.718236   -0.725239    1.485371
     12          1           0        3.049677   -0.312232    0.391629
     13          1           0        2.320452   -1.838359   -0.113445
     14          1           0        2.260961   -0.400553   -1.199166
 ---------------------------------------------------------------------

 SCF Done:  E(RHF) =  -264.948607375     A.U. after    2 cycles

 The electronic state is 1-A.
 Alpha  occ. eigenvalues --  -15.65112 -15.54628 -11.37844 -11.28975 -11.27620
 Alpha  occ. eigenvalues --  -11.27523  -1.19018  -1.09877  -1.06038  -0.93511
 Alpha  occ. eigenvalues --   -0.88326  -0.74701  -0.68204  -0.62499  -0.62212
 Alpha  occ. eigenvalues --   -0.61053  -0.58703  -0.57220  -0.53135  -0.47430
 Alpha  occ. eigenvalues --   -0.38373  -0.37576  -0.29123
 Alpha virt. eigenvalues --    0.02004   0.03475   0.03536   0.04291   0.05102
 Alpha virt. eigenvalues --    0.06055   0.06536   0.06925   0.08661   0.10906
 Alpha virt. eigenvalues --    0.11798   0.12569   0.12684   0.14081   0.14501

 Mulliken charges:
               1
     1  C    0.754551
     2  N   -0.597404
     3  C    0.367582
     4  C    0.187551
     5  C    0.544216
     6  N   -0.658017
     7  H   -0.170745
     8  H   -0.147274
     9  H   -0.091380
    10  H   -0.070594
    11  H   -0.309737
    12  H    0.140118
    13  H    0.052716
    14  H   -0.001583
 Sum of Mulliken charges =   0.00000

 Dipole moment (field-independent basis, Debye):
    X=              1.6054    Y=             -7.0386    Z=              0.4249  Tot=              7.2319

 Test job not archived.
 1\1\GINC-SE009\SP\RHF\Aug-CC-pVDZ\C4H8N2\OHZDE\09-Apr-2025\0\\#t hf au
 g-cc-pvdz iop(5/13=1,5/36=2,99/5=2) pseudo=read geom=check guess=(read
 ,tcheck) scf=(maxcycle=1)\\title\\0,1\C,0,2.15050644,0.16372674,0.4953
 8379\N,0,0.72044011,0.13946646,0.76282703\C,0,-0.75282427,-0.0412327,-
 0.73772389\C,0,-2.02802078,-0.79071897,-0.55078816\C,0,-0.3488686,1.09
 632566,0.04411219\N,0,-0.62606112,2.28003847,0.19046108\H,0,2.30192249
 ,0.53989338,-0.52582598\H,0,2.60091008,-0.83720965,0.5767193\H,0,2.678
 3778,0.84260574,1.18569662\H,0,0.45341458,-0.2386827,1.6772391\H,0,-0.

 Normal termination of Gaussian 16 at Wed Apr  9 14:15:21 2025.
