 Gaussian 16, Revision C.01,

 ----------------------------------------------------------------------
 #t hf aug-cc-pvdz symm=none int=(grid=ultrafine) guess=(read,tcheck) s
 table=(opt,rrhf)
 ----------------------------------------------------------------------
 -----
 title
 -----
 Symbolic Z-matrix:
 Charge =  0 Multiplicity = 1

 SCF Done:  E(RHF) =  -345.949004906     A.U. after   15 cycles

 1\1\GINC-SE125\Stability\RHF\Aug-CC-pVDZ\C5H12O2\OHZDE\09-Apr-2025\0\\
 #t hf aug-cc-pvdz symm=none int=(grid=ultrafine) guess=(read,tcheck) s
 table=(opt,rrhf)\\title\\0,1\C,0,2.32719616,0.31019097,1.06296925\C,0,
 0.98957383,0.6744897,0.43447823\C,0,0.23403739,-0.57253485,-0.00520605
 \O,0,-0.0418358,-1.47219337,0.98172481\C,0,-1.1166233,-0.33670431,-0.6
 6178314\C,0,-1.51215564,0.77129135,-1.56356491\O,0,-1.77481042,-1.4451
 0127,-0.77422618\H,0,2.172833,-0.39633039,1.87855245\H,0,2.99280345,-0
 .16005571,0.33497511\H,0,2.83016741,1.19451033,1.45666781\H,0,0.373852

 Normal termination of Gaussian 16 at Wed Apr  9 16:20:29 2025.
 Gaussian 16:  ES64L-G16RevC.01  3-Jul-2019

 ----------------------------------------------------------------------
 #t hf aug-cc-pvdz iop(5/13=1,5/36=2,99/5=2) pseudo=read geom=check gue
 ss=(read,tcheck) scf=(maxcycle=1)
 ----------------------------------------------------------------------
 -----
 title
 -----
 Structure from the checkpoint file:  "Grambow2020_wb97xd3_008075_forward_mol1.chk"
 Charge =  0 Multiplicity = 1

                         Standard orientation:
 ---------------------------------------------------------------------
 Center     Atomic      Atomic             Coordinates (Angstroms)
 Number     Number       Type             X           Y           Z
 ---------------------------------------------------------------------
      1          6           0        2.736148    0.273731   -0.164920
      2          6           0        1.333996    0.737754    0.203319
      3          6           0        0.283826   -0.246988   -0.293324
      4          8           0        0.399936   -1.520245    0.180869
      5          6           0       -1.162488    0.114726    0.003884
      6          6           0       -1.781077    1.461681    0.023172
      7          8           0       -1.947218   -0.885405   -0.237639
      8          1           0        2.900700   -0.737893    0.206179
      9          1           0        2.877688    0.259361   -1.248387
     10          1           0        3.493123    0.931379    0.264598
     11          1           0        1.245009    0.816047    1.290783
     12          1           0        1.142454    1.732162   -0.214666
     13          1           0        0.287495   -0.238691   -1.402746
     14          1           0       -0.217436   -0.983315    1.404220
     15          1           0       -0.718512   -0.323130    1.702270
     16          1           0       -1.852799    1.824254   -1.006372
     17          1           0       -2.786227    1.408247    0.437413
     18          1           0       -1.171799    2.160803    0.590716
     19          1           0       -1.283870   -1.649449   -0.202629
 ---------------------------------------------------------------------

 SCF Done:  E(RHF) =  -346.060045181     A.U. after    2 cycles

 The electronic state is 1-A.
 Alpha  occ. eigenvalues --  -20.64275 -20.49881 -11.40553 -11.29272 -11.28009
 Alpha  occ. eigenvalues --  -11.23191 -11.21651  -1.43977  -1.25782  -1.07763
 Alpha  occ. eigenvalues --   -1.02929  -0.93312  -0.85147  -0.81334  -0.76457
 Alpha  occ. eigenvalues --   -0.69333  -0.67185  -0.63572  -0.60443  -0.60265
 Alpha  occ. eigenvalues --   -0.59691  -0.57644  -0.54844  -0.51818  -0.50681
 Alpha  occ. eigenvalues --   -0.48586  -0.47546  -0.41809  -0.38121
 Alpha virt. eigenvalues --    0.02667   0.03851   0.04163   0.04992   0.06152
 Alpha virt. eigenvalues --    0.06453   0.06849   0.07375   0.07403   0.09135
 Alpha virt. eigenvalues --    0.09387   0.09673   0.10424   0.12632   0.13478

 Mulliken charges:
               1
     1  C    0.445150
     2  C    0.201863
     3  C    0.575863
     4  O   -1.071194
     5  C   -0.478651
     6  C    0.561771
     7  O   -0.506903
     8  H   -0.019301
     9  H   -0.048124
    10  H   -0.038942
    11  H   -0.161942
    12  H   -0.124181
    13  H   -0.102292
    14  H    0.209434
    15  H    0.137878
    16  H    0.152207
    17  H   -0.016927
    18  H    0.026247
    19  H    0.258045
 Sum of Mulliken charges =  -0.00000

 Dipole moment (field-independent basis, Debye):
    X=             -1.8679    Y=              4.3438    Z=             -1.0386  Tot=              4.8411

 Test job not archived.
 1\1\GINC-SE125\SP\RHF\Aug-CC-pVDZ\C5H12O2\OHZDE\09-Apr-2025\0\\#t hf a
 ug-cc-pvdz iop(5/13=1,5/36=2,99/5=2) pseudo=read geom=check guess=(rea
 d,tcheck) scf=(maxcycle=1)\\title\\0,1\C,0,2.32719616,0.31019097,1.062
 96925\C,0,0.98957383,0.6744897,0.43447823\C,0,0.23403739,-0.57253485,-
 0.00520605\O,0,-0.0418358,-1.47219337,0.98172481\C,0,-1.1166233,-0.336
 70431,-0.66178314\C,0,-1.51215564,0.77129135,-1.56356491\O,0,-1.774810
 42,-1.44510127,-0.77422618\H,0,2.172833,-0.39633039,1.87855245\H,0,2.9
 9280345,-0.16005571,0.33497511\H,0,2.83016741,1.19451033,1.45666781\H,

 Normal termination of Gaussian 16 at Wed Apr  9 16:20:37 2025.
