 Gaussian 16, Revision C.01,

 ----------------------------------------------------------------------
 #t hf aug-cc-pvdz symm=none int=(grid=ultrafine) guess=(read,tcheck) s
 table=(opt,rrhf)
 ----------------------------------------------------------------------
 -----
 title
 -----
 Symbolic Z-matrix:
 Charge =  0 Multiplicity = 1

 SCF Done:  E(RHF) =  -325.120159577     A.U. after   13 cycles
 Normal termination of Gaussian 16 at Wed Apr  9 16:21:16 2025.
 Gaussian 16:  ES64L-G16RevC.01  3-Jul-2019

 ----------------------------------------------------------------------
 #t hf aug-cc-pvdz iop(5/13=1,5/36=2,99/5=2) pseudo=read geom=check gue
 ss=(read,tcheck) scf=(maxcycle=1)
 ----------------------------------------------------------------------
 -----
 title
 -----
 Structure from the checkpoint file:  "Grambow2020_wb97xd3_008110_forward_mol2.chk"
 Charge =  0 Multiplicity = 1

                         Standard orientation:
 ---------------------------------------------------------------------
 Center     Atomic      Atomic             Coordinates (Angstroms)
 Number     Number       Type             X           Y           Z
 ---------------------------------------------------------------------
      1          6           0       -2.730489    0.012015   -0.163521
      2          7           0       -1.366073    0.053282   -0.634197
      3          6           0       -0.296921   -0.023997    0.198780
      4          8           0       -0.407006   -0.122882    1.405671
      5          6           0        1.066727    0.033176   -0.479312
      6          6           0        1.815011    1.275220    0.000181
      7          6           0        1.843369   -1.243385   -0.165715
      8          1           0       -3.222910   -0.923604   -0.439496
      9          1           0       -3.304289    0.847103   -0.568902
     10          1           0       -2.709669    0.086936    0.921605
     11          1           0       -1.193701    0.111100   -1.620733
     12          1           0        0.924517    0.103469   -1.563457
     13          1           0        1.940359    1.238762    1.083187
     14          1           0        1.273298    2.190245   -0.247654
     15          1           0        2.802314    1.328236   -0.462752
     16          1           0        2.830560   -1.213165   -0.630928
     17          1           0        1.969612   -1.346937    0.912770
     18          1           0        1.322287   -2.130242   -0.532111
 ---------------------------------------------------------------------

 SCF Done:  E(RHF) =  -325.224520123     A.U. after    2 cycles

 The electronic state is 1-A.
 Alpha  occ. eigenvalues --  -20.52416 -15.64763 -11.35117 -11.26726 -11.25031
 Alpha  occ. eigenvalues --  -11.22791 -11.22749  -1.34220  -1.19628  -1.07492
 Alpha  occ. eigenvalues --   -0.95410  -0.93293  -0.83595  -0.77920  -0.69946
 Alpha  occ. eigenvalues --   -0.65346  -0.62917  -0.61842  -0.60117  -0.57751
 Alpha  occ. eigenvalues --   -0.54724  -0.54605  -0.52555  -0.52187  -0.48557
 Alpha  occ. eigenvalues --   -0.48342  -0.42386  -0.39129
 Alpha virt. eigenvalues --    0.02744   0.03924   0.04237   0.04718   0.06131
 Alpha virt. eigenvalues --    0.06330   0.06997   0.07465   0.08438   0.08600
 Alpha virt. eigenvalues --    0.09216   0.11210   0.13097   0.14482   0.14906

 Mulliken charges:
               1
     1  C    0.754997
     2  N   -0.266000
     3  C    0.456062
     4  O   -0.537346
     5  C   -1.063415
     6  C    0.797247
     7  C    0.801594
     8  H   -0.123582
     9  H   -0.156565
    10  H   -0.171168
    11  H   -0.098225
    12  H   -0.160447
    13  H    0.028278
    14  H   -0.079240
    15  H   -0.064437
    16  H   -0.063568
    17  H    0.025824
    18  H   -0.080009
 Sum of Mulliken charges =  -0.00000

 Dipole moment (field-independent basis, Debye):
    X=             -0.3680    Y=              0.3217    Z=             -4.0231  Tot=              4.0527

 Test job not archived.
 1\1\GINC-SE219\SP\RHF\Aug-CC-pVDZ\C5H11N1O1\OHZDE\09-Apr-2025\0\\#t hf
  aug-cc-pvdz iop(5/13=1,5/36=2,99/5=2) pseudo=read geom=check guess=(r
 ead,tcheck) scf=(maxcycle=1)\\title\\0,1\C,0,2.84331395,0.37098013,-0.
 17166227\N,0,1.45811843,0.24063598,-0.5578166\C,0,0.46049111,0.0288859
 3,0.33817948\O,0,0.65892426,-0.07800036,1.53303544\C,0,-0.93944404,-0.
 07950465,-0.2543142\C,0,-1.49767553,-1.47310994,0.0263197\C,0,-1.82843
 088,1.00941106,0.34157886\H,0,3.20040951,1.39628255,-0.29520415\H,0,3.
 47321811,-0.29685384,-0.76172203\H,0,2.92192839,0.09974777,0.87895533\

 Normal termination of Gaussian 16 at Wed Apr  9 16:21:23 2025.
