 Gaussian 16, Revision C.01,

 ----------------------------------------------------------------------
 #t hf aug-cc-pvdz symm=none int=(grid=ultrafine) guess=(read,tcheck) s
 table=(opt,rrhf)
 ----------------------------------------------------------------------
 -----
 title
 -----
 Symbolic Z-matrix:
 Charge =  0 Multiplicity = 1

 SCF Done:  E(RHF) =  -320.262685498     A.U. after   17 cycles
 Normal termination of Gaussian 16 at Wed Apr  9 15:58:44 2025.
 Gaussian 16:  ES64L-G16RevC.01  3-Jul-2019

 ----------------------------------------------------------------------
 #t hf aug-cc-pvdz iop(5/13=1,5/36=2,99/5=2) pseudo=read geom=check gue
 ss=(read,tcheck) scf=(maxcycle=1)
 ----------------------------------------------------------------------
 -----
 title
 -----
 Structure from the checkpoint file:  "Grambow2020_wb97xd3_007648_reverse_mol1.chk"
 Charge =  0 Multiplicity = 1

                         Standard orientation:
 ---------------------------------------------------------------------
 Center     Atomic      Atomic             Coordinates (Angstroms)
 Number     Number       Type             X           Y           Z
 ---------------------------------------------------------------------
      1          7           0       -2.814705    0.183796    0.006053
      2          6           0       -1.667621    0.093828    0.006603
      3          6           0       -0.256007   -0.039801    0.009744
      4          6           0        0.406551   -1.346433   -0.009594
      5          8           0        1.605885   -1.480139    0.013010
      6          6           0        1.694191    1.669777   -0.137224
      7          6           0        0.585124    1.025471    0.026760
      8          1           0       -0.276495   -2.213028   -0.051824
      9          1           0        2.298205    2.198285    0.591719
     10          1           0        0.260718    2.152231   -0.064090
 ---------------------------------------------------------------------

 SCF Done:  E(RHF) =  -320.359092760     A.U. after    2 cycles

 The electronic state is 1-A.
 Alpha  occ. eigenvalues --  -20.57968 -15.64470 -11.37548 -11.36651 -11.35968
 Alpha  occ. eigenvalues --  -11.30065 -11.29859  -1.37421  -1.21080  -1.18156
 Alpha  occ. eigenvalues --   -1.06775  -0.87601  -0.81688  -0.77003  -0.70924
 Alpha  occ. eigenvalues --   -0.66296  -0.61963  -0.59998  -0.55472  -0.53493
 Alpha  occ. eigenvalues --   -0.49704  -0.48956  -0.45582  -0.35345
 Alpha virt. eigenvalues --    0.01741   0.03520   0.03903   0.04534   0.05217
 Alpha virt. eigenvalues --    0.06902   0.08969   0.09301   0.10368   0.10665
 Alpha virt. eigenvalues --    0.12483   0.12846   0.13562   0.14201   0.14821

 Mulliken charges:
               1
     1  N   -0.126105
     2  C   -1.084076
     3  C    1.773561
     4  C    0.610007
     5  O   -0.481174
     6  C   -0.159249
     7  C   -0.162606
     8  H   -0.224501
     9  H   -0.159341
    10  H    0.013483
 Sum of Mulliken charges =  -0.00000

 Dipole moment (field-independent basis, Debye):
    X=              2.3670    Y=              3.4023    Z=              1.0931  Tot=              4.2864

 Test job not archived.
 1\1\GINC-SE087\SP\RHF\Aug-CC-pVDZ\C5H3N1O1\OHZDE\09-Apr-2025\0\\#t hf
 aug-cc-pvdz iop(5/13=1,5/36=2,99/5=2) pseudo=read geom=check guess=(re
 ad,tcheck) scf=(maxcycle=1)\\title\\0,1\N,0,2.903086,-0.7364414,-0.149
 08759\C,0,1.82051107,-0.35546328,-0.06672407\C,0,0.49412214,0.13315975
 ,0.04490264\C,0,0.19648081,1.49025912,0.51002167\O,0,-0.92621365,1.916
 66635,0.63054367\C,0,-1.82373663,-0.84569672,-0.60077162\C,0,-0.595071
 72,-0.61228642,-0.27221107\H,0,1.08282099,2.10682975,0.74145624\H,0,-2
 .5810074,-1.41633006,-0.07500603\H,0,-0.57099263,-1.68069809,-0.763124

 Normal termination of Gaussian 16 at Wed Apr  9 15:58:48 2025.
