 Gaussian 16, Revision C.01,

 ----------------------------------------------------------------------
 #t hf aug-cc-pvdz symm=none int=(grid=ultrafine) guess=(read,tcheck) s
 table=(opt,rrhf)
 ----------------------------------------------------------------------
 -----
 title
 -----
 Symbolic Z-matrix:
 Charge =  0 Multiplicity = 1

 SCF Done:  E(RHF) =  -323.658696005     A.U. after   16 cycles
 Normal termination of Gaussian 16 at Wed Apr  9 15:58:25 2025.
 Gaussian 16:  ES64L-G16RevC.01  3-Jul-2019

 ----------------------------------------------------------------------
 #t hf aug-cc-pvdz iop(5/13=1,5/36=2,99/5=2) pseudo=read geom=check gue
 ss=(read,tcheck) scf=(maxcycle=1)
 ----------------------------------------------------------------------
 -----
 title
 -----
 Structure from the checkpoint file:  "Grambow2020_wb97xd3_007609_reverse_mol1.chk"
 Charge =  0 Multiplicity = 1

                         Standard orientation:
 ---------------------------------------------------------------------
 Center     Atomic      Atomic             Coordinates (Angstroms)
 Number     Number       Type             X           Y           Z
 ---------------------------------------------------------------------
      1          6           0       -1.531282    1.448797   -0.515185
      2          6           0       -1.327226    0.258702    0.196510
      3          7           0       -1.597955   -1.113979   -0.051926
      4          6           0       -0.251945   -0.712250    0.407627
      5          6           0        0.855426   -0.830122   -0.599063
      6          6           0        2.037111    0.044311   -0.284667
      7          8           0        2.107091    0.776528    0.663847
      8          1           0       -0.708012    2.138734   -0.626699
      9          1           0       -2.466611    1.612212   -1.029736
     10          1           0       -1.820550    1.166115    0.955870
     11          1           0       -1.826292    0.342125    1.675654
     12          1           0       -2.130821   -1.552385    0.688531
     13          1           0        0.011590   -0.922380    1.436814
     14          1           0        0.495082   -0.567604   -1.597853
     15          1           0        1.206308   -1.865735   -0.673140
     16          1           0        2.875757   -0.022080   -1.008064
 ---------------------------------------------------------------------

 SCF Done:  E(RHF) =  -323.757877836     A.U. after    2 cycles

 The electronic state is 1-A.
 Alpha  occ. eigenvalues --  -20.58435 -15.65565 -11.36179 -11.35595 -11.30264
 Alpha  occ. eigenvalues --  -11.26648 -11.21172  -1.37639  -1.29032  -1.05316
 Alpha  occ. eigenvalues --   -1.03310  -0.89277  -0.81223  -0.76866  -0.75057
 Alpha  occ. eigenvalues --   -0.69859  -0.66200  -0.63812  -0.61690  -0.59427
 Alpha  occ. eigenvalues --   -0.54853  -0.53704  -0.52724  -0.48909  -0.44555
 Alpha  occ. eigenvalues --   -0.41923  -0.28213
 Alpha virt. eigenvalues --    0.02980   0.03393   0.04423   0.04818   0.05876
 Alpha virt. eigenvalues --    0.06445   0.07196   0.07301   0.09815   0.10213
 Alpha virt. eigenvalues --    0.11083   0.11843   0.12107   0.12986   0.14208

 Mulliken charges:
               1
     1  C    0.275290
     2  C   -0.247807
     3  N   -0.574950
     4  C    1.092420
     5  C   -0.137395
     6  C    0.718814
     7  O   -0.463525
     8  H   -0.216473
     9  H   -0.237354
    10  H   -0.015763
    11  H    0.105075
    12  H    0.046751
    13  H   -0.333647
    14  H    0.054696
    15  H    0.059366
    16  H   -0.125500
 Sum of Mulliken charges =  -0.00000

 Dipole moment (field-independent basis, Debye):
    X=              0.3017    Y=             -2.6056    Z=             -0.9842  Tot=              2.8016

 Test job not archived.
 1\1\GINC-SE131\SP\RHF\Aug-CC-pVDZ\C5H9N1O1\OHZDE\09-Apr-2025\0\\#t hf
 aug-cc-pvdz iop(5/13=1,5/36=2,99/5=2) pseudo=read geom=check guess=(re
 ad,tcheck) scf=(maxcycle=1)\\title\\0,1\C,0,-1.36919046,0.02460237,1.4
 3478566\C,0,-1.10648995,0.18358432,0.06723743\N,0,-0.87724514,1.298052
 95,-0.78404009\C,0,0.04986727,0.14798091,-0.83004687\C,0,1.42736195,0.
 38389819,-0.28192323\C,0,2.12715638,-0.88238838,0.12632202\O,0,1.64990
 777,-1.98035185,0.04014256\H,0,-0.78730628,-0.68887233,1.99922073\H,0,
 -2.067931,0.68484592,1.92687021\H,0,-2.06867471,-0.64257835,0.25445531

 Normal termination of Gaussian 16 at Wed Apr  9 15:58:30 2025.
