 Gaussian 16, Revision C.01,

 ----------------------------------------------------------------------
 #t hf aug-cc-pvdz symm=none int=(grid=ultrafine) guess=(read,tcheck) s
 table=(opt,rrhf)
 ----------------------------------------------------------------------
 -----
 title
 -----
 Symbolic Z-matrix:
 Charge =  0 Multiplicity = 1

 SCF Done:  E(RHF) =  -302.851210670     A.U. after   14 cycles
 Normal termination of Gaussian 16 at Wed Apr  9 03:34:30 2025.
 Gaussian 16:  ES64L-G16RevC.01  3-Jul-2019

 ----------------------------------------------------------------------
 #t hf aug-cc-pvdz iop(5/13=1,5/36=2,99/5=2) pseudo=read geom=check gue
 ss=(read,tcheck) scf=(maxcycle=1)
 ----------------------------------------------------------------------
 -----
 title
 -----
 Structure from the checkpoint file:  "Grambow2020_wb97xd3_007177_reverse_mol2.chk"
 Charge =  0 Multiplicity = 1

                         Standard orientation:
 ---------------------------------------------------------------------
 Center     Atomic      Atomic             Coordinates (Angstroms)
 Number     Number       Type             X           Y           Z
 ---------------------------------------------------------------------
      1          6           0       -1.922663    1.354081   -0.093342
      2          6           0       -1.132656    0.190391    0.430441
      3          6           0       -1.382459   -1.205038    0.001523
      4          7           0       -0.230477   -0.470812   -0.497491
      5          6           0        1.037793   -0.891038    0.041898
      6          6           0        2.718703    1.071603   -0.015121
      7          7           0        1.968935    0.182570    0.002062
      8          1           0       -2.243652    1.163659   -1.117863
      9          1           0       -1.317581    2.262201   -0.089136
     10          1           0       -2.807097    1.528464    0.522636
     11          1           0       -0.758289    0.301680    1.447072
     12          1           0       -1.208662   -1.996838    0.725139
     13          1           0       -2.146781   -1.420229   -0.735911
     14          1           0        0.971444   -1.230020    1.086196
     15          1           0        1.429105   -1.711221   -0.562522
 ---------------------------------------------------------------------

 SCF Done:  E(RHF) =  -302.944083698     A.U. after    2 cycles

 The electronic state is 1-A.
 Alpha  occ. eigenvalues --  -15.65752 -15.64376 -11.34457 -11.28450 -11.28392
 Alpha  occ. eigenvalues --  -11.27997 -11.23537  -1.28853  -1.23017  -1.05236
 Alpha  occ. eigenvalues --   -0.98012  -0.86619  -0.81861  -0.75559  -0.69549
 Alpha  occ. eigenvalues --   -0.67415  -0.62044  -0.58691  -0.57245  -0.52664
 Alpha  occ. eigenvalues --   -0.50678  -0.48610  -0.47381  -0.46302  -0.46085
 Alpha  occ. eigenvalues --   -0.39286
 Alpha virt. eigenvalues --    0.02821   0.03685   0.03984   0.05079   0.06450
 Alpha virt. eigenvalues --    0.06741   0.06996   0.08095   0.09682   0.10952
 Alpha virt. eigenvalues --    0.11248   0.11852   0.13146   0.13604   0.13979

 Mulliken charges:
               1
     1  C    0.285913
     2  C    0.174195
     3  C    1.008130
     4  N   -0.785887
     5  C    1.257942
     6  C   -0.483465
     7  N   -0.106688
     8  H   -0.042883
     9  H    0.037188
    10  H    0.051835
    11  H   -0.378300
    12  H   -0.262417
    13  H   -0.272243
    14  H   -0.264578
    15  H   -0.218742
 Sum of Mulliken charges =  -0.00000

 Dipole moment (field-independent basis, Debye):
    X=             -2.9865    Y=             -2.7846    Z=              1.3742  Tot=              4.3083

 Test job not archived.
 1\1\GINC-SE461\SP\RHF\Aug-CC-pVDZ\C5H8N2\OHZDE\09-Apr-2025\0\\#t hf au
 g-cc-pvdz iop(5/13=1,5/36=2,99/5=2) pseudo=read geom=check guess=(read
 ,tcheck) scf=(maxcycle=1)\\title\\0,1\C,0,-1.78929717,-0.95453446,0.15
 304545\C,0,-0.73333758,0.01182574,-0.29832014\C,0,-0.51875981,1.324926
 11,0.35230964\N,0,0.39801004,0.22112019,0.58961214\C,0,1.68526813,0.35
 380003,-0.0439508\C,0,2.70168365,-1.98184814,-0.48249054\N,0,2.2530521
 8,-0.92862856,-0.27685912\H,0,-1.95369339,-0.86170511,1.22696155\H,0,-
 1.48568621,-1.98130912,-0.05761636\H,0,-2.73276084,-0.76336955,-0.3621

 Normal termination of Gaussian 16 at Wed Apr  9 03:34:34 2025.
