 Gaussian 16, Revision C.01,

 ----------------------------------------------------------------------
 #t hf aug-cc-pvdz symm=none int=(grid=ultrafine) guess=(read,tcheck) s
 table=(opt,rrhf)
 ----------------------------------------------------------------------
 -----
 title
 -----
 Symbolic Z-matrix:
 Charge =  0 Multiplicity = 1

 SCF Done:  E(RHF) =  -379.493661550     A.U. after   14 cycles
 Normal termination of Gaussian 16 at Wed Apr  9 16:31:59 2025.
 Gaussian 16:  ES64L-G16RevC.01  3-Jul-2019

 ----------------------------------------------------------------------
 #t hf aug-cc-pvdz iop(5/13=1,5/36=2,99/5=2) pseudo=read geom=check gue
 ss=(read,tcheck) scf=(maxcycle=1)
 ----------------------------------------------------------------------
 -----
 title
 -----
 Structure from the checkpoint file:  "Grambow2020_wb97xd3_008537_reverse_mol2.chk"
 Charge =  0 Multiplicity = 1

                         Standard orientation:
 ---------------------------------------------------------------------
 Center     Atomic      Atomic             Coordinates (Angstroms)
 Number     Number       Type             X           Y           Z
 ---------------------------------------------------------------------
      1          8           0       -0.216859    1.460684   -0.133306
      2          6           0        0.676087    0.464493   -0.123603
      3          6           0        2.054003    0.395246    0.462289
      4          8           0        2.126862   -0.973534   -0.025295
      5          6           0        0.829322   -0.793636   -0.536126
      6          6           0       -2.542689   -0.576984    0.622106
      7          8           0       -2.563542   -0.017364   -0.441868
      8          1           0       -1.063105    1.120267   -0.470530
      9          1           0        2.126712    0.431515    1.550251
     10          1           0        2.817554    1.019619   -0.002925
     11          1           0        0.314291   -1.570862   -1.079247
     12          1           0       -3.312050   -1.320221    0.890163
     13          1           0       -1.755432   -0.373319    1.368046
 ---------------------------------------------------------------------

 SCF Done:  E(RHF) =  -379.616410456     A.U. after    2 cycles

 The electronic state is 1-A.
 Alpha  occ. eigenvalues --  -20.62036 -20.59971 -20.57536 -11.38019 -11.29998
 Alpha  occ. eigenvalues --  -11.29808 -11.28258  -1.40663  -1.37652  -1.35220
 Alpha  occ. eigenvalues --   -1.00770  -0.93154  -0.89411  -0.79747  -0.73312
 Alpha  occ. eigenvalues --   -0.72678  -0.69809  -0.67545  -0.67520  -0.59468
 Alpha  occ. eigenvalues --   -0.58570  -0.58223  -0.53925  -0.50352  -0.49646
 Alpha  occ. eigenvalues --   -0.48055  -0.32461
 Alpha virt. eigenvalues --    0.02786   0.04371   0.04679   0.05366   0.05955
 Alpha virt. eigenvalues --    0.06889   0.07266   0.09914   0.10823   0.11614
 Alpha virt. eigenvalues --    0.12707   0.12963   0.14204   0.15307   0.15593

 Mulliken charges:
               1
     1  O   -0.497876
     2  C    0.077839
     3  C    0.726892
     4  O   -0.724541
     5  C    0.708516
     6  C    0.689813
     7  O   -0.411348
     8  H    0.186119
     9  H   -0.117827
    10  H   -0.105784
    11  H   -0.247927
    12  H   -0.169469
    13  H   -0.114408
 Sum of Mulliken charges =  -0.00000

 Dipole moment (field-independent basis, Debye):
    X=             -2.5072    Y=             -1.0092    Z=              2.3585  Tot=              3.5871

 Test job not archived.
 1\1\GINC-SE174\SP\RHF\Aug-CC-pVDZ\C4H6O3\OHZDE\09-Apr-2025\0\\#t hf au
 g-cc-pvdz iop(5/13=1,5/36=2,99/5=2) pseudo=read geom=check guess=(read
 ,tcheck) scf=(maxcycle=1)\\title\\0,1\O,0,1.07359634,-0.43075259,-1.04
 605835\C,0,-0.2304365,-0.18533081,-0.87544664\C,0,-1.43417316,-0.97943
 729,-1.28426033\O,0,-2.25093499,0.05869932,-0.67452492\C,0,-1.05387237
 ,0.71802105,-0.34398323\C,0,1.65995994,0.43306452,1.96097039\O,0,2.113
 33467,1.08177881,1.05583336\H,0,1.58476308,0.21689303,-0.5312779\H,0,-
 1.58007984,-1.93972746,-0.78745213\H,0,-1.63119262,-1.05727796,-2.3540

 Normal termination of Gaussian 16 at Wed Apr  9 16:32:03 2025.
