 Gaussian 16, Revision C.01,

 ----------------------------------------------------------------------
 #t hf aug-cc-pvdz symm=none int=(grid=ultrafine) guess=(read,tcheck) s
 table=(opt,rrhf)
 ----------------------------------------------------------------------
 -----
 title
 -----
 Symbolic Z-matrix:
 Charge =  0 Multiplicity = 1

 SCF Done:  E(RHF) =  -270.733781984     A.U. after   15 cycles
 Normal termination of Gaussian 16 at Wed Apr  9 03:52:51 2025.
 Gaussian 16:  ES64L-G16RevC.01  3-Jul-2019

 ----------------------------------------------------------------------
 #t hf aug-cc-pvdz iop(5/13=1,5/36=2,99/5=2) pseudo=read geom=check gue
 ss=(read,tcheck) scf=(maxcycle=1)
 ----------------------------------------------------------------------
 -----
 title
 -----
 Structure from the checkpoint file:  "Grambow2020_wb97xd3_008388_reverse_mol2.chk"
 Charge =  0 Multiplicity = 1

                         Standard orientation:
 ---------------------------------------------------------------------
 Center     Atomic      Atomic             Coordinates (Angstroms)
 Number     Number       Type             X           Y           Z
 ---------------------------------------------------------------------
      1          6           0        1.915927    0.873596    0.063886
      2          6           0        1.077788   -0.370960    0.260777
      3          6           0       -0.249640   -0.336551    1.010038
      4          6           0       -0.933002   -1.046982   -0.068487
      5          6           0        0.322732   -1.033284   -0.931847
      6          6           0       -1.425532    0.401047    0.254720
      7          6           0       -1.155334    1.458047   -0.631728
      8          1           0        1.350091    1.635608   -0.471158
      9          1           0        2.237487    1.280359    1.025900
     10          1           0        2.813479    0.636835   -0.512448
     11          1           0       -0.395007   -0.386446    2.081386
     12          1           0        1.680841   -1.141359    0.751053
     13          1           0       -1.696156   -1.811598   -0.020472
     14          1           0        0.254077   -0.432331   -1.835811
     15          1           0        0.684409   -2.033727   -1.167116
     16          1           0       -2.308256    0.358826    0.893995
     17          1           0       -1.938602    2.224350   -0.489485
 ---------------------------------------------------------------------

 SCF Done:  E(RHF) =  -270.814011980     A.U. after    2 cycles

 The electronic state is 1-A.
 Alpha  occ. eigenvalues --  -11.26772 -11.26232 -11.24511 -11.24345 -11.24327
 Alpha  occ. eigenvalues --  -11.23175 -11.21108  -1.19738  -1.02765  -0.96150
 Alpha  occ. eigenvalues --   -0.90871  -0.85062  -0.73383  -0.71393  -0.70725
 Alpha  occ. eigenvalues --   -0.61304  -0.58880  -0.57966  -0.55336  -0.53983
 Alpha  occ. eigenvalues --   -0.49839  -0.46626  -0.45657  -0.41046  -0.40790
 Alpha  occ. eigenvalues --   -0.33853
 Alpha virt. eigenvalues --    0.03026   0.04063   0.04122   0.04840   0.06250
 Alpha virt. eigenvalues --    0.06332   0.06501   0.06740   0.07396   0.08575
 Alpha virt. eigenvalues --    0.09111   0.11840   0.12380   0.13229   0.13971

 Mulliken charges:
               1
     1  C    0.505898
     2  C   -0.680849
     3  C    0.622184
     4  C    0.275065
     5  C    0.950489
     6  C    0.345980
     7  C   -0.158003
     8  H   -0.011902
     9  H   -0.012084
    10  H   -0.006393
    11  H   -0.418191
    12  H   -0.106307
    13  H   -0.425404
    14  H   -0.150890
    15  H   -0.140593
    16  H   -0.404393
    17  H   -0.184607
 Sum of Mulliken charges =  -0.00000

 Dipole moment (field-independent basis, Debye):
    X=             -0.5118    Y=             -1.7110    Z=              1.6983  Tot=              2.4645

 Test job not archived.
 1\1\GINC-SE462\SP\RHF\Aug-CC-pVDZ\C7H10\OHZDE\09-Apr-2025\0\\#t hf aug
 -cc-pvdz iop(5/13=1,5/36=2,99/5=2) pseudo=read geom=check guess=(read,
 tcheck) scf=(maxcycle=1)\\title\\0,1\C,0,1.9559998,-0.277693,0.1852779
 2\C,0,0.56319154,-0.86950258,0.18839631\C,0,-0.59256325,-0.20243711,0.
 92588912\C,0,-1.45458182,-0.28289487,-0.25112564\C,0,-0.32262246,-0.85
 692687,-1.09468923\C,0,-1.10842679,1.14533767,0.28194377\C,0,-0.231487
 46,1.97812314,-0.43464088\H,0,1.94371436,0.72814949,-0.23333356\H,0,2.
 36117949,-0.23517293,1.19935308\H,0,2.62770619,-0.89671454,-0.41425436

 Normal termination of Gaussian 16 at Wed Apr  9 03:52:57 2025.
