 Gaussian 16, Revision C.01,

 ----------------------------------------------------------------------
 #t hf aug-cc-pvdz symm=none int=(grid=ultrafine) guess=(read,tcheck) s
 table=(opt,rrhf)
 ----------------------------------------------------------------------
 -----
 title
 -----
 Symbolic Z-matrix:
 Charge =  0 Multiplicity = 1

 SCF Done:  E(RHF) =  -307.730018482     A.U. after   15 cycles

 1\1\GINC-SE100\Stability\RHF\Aug-CC-pVDZ\C6H10O1\OHZDE\09-Apr-2025\0\\
 #t hf aug-cc-pvdz symm=none int=(grid=ultrafine) guess=(read,tcheck) s
 table=(opt,rrhf)\\title\\0,1\C,0,1.92914459,0.50563429,-0.39985561\C,0
 ,0.53407783,0.132926,0.02022113\C,0,0.17971851,-1.33064051,0.14247928\
 C,0,-1.32428127,-1.20434055,-0.04642348\C,0,-0.67789098,0.66438379,-0.
 78576046\C,0,-0.93952533,1.4755441,0.46296727\O,0,0.12024621,0.8603994
 2,1.21444339\H,0,2.64154335,0.22619809,0.37944976\H,0,2.1984916,-0.005
 45114,-1.32535652\H,0,2.0058892,1.58144701,-0.56403312\H,0,0.62496466,

 Normal termination of Gaussian 16 at Wed Apr  9 15:36:13 2025.
 Gaussian 16:  ES64L-G16RevC.01  3-Jul-2019

 ----------------------------------------------------------------------
 #t hf aug-cc-pvdz iop(5/13=1,5/36=2,99/5=2) pseudo=read geom=check gue
 ss=(read,tcheck) scf=(maxcycle=1)
 ----------------------------------------------------------------------
 -----
 title
 -----
 Structure from the checkpoint file:  "Grambow2020_wb97xd3_007032_forward_mol1.chk"
 Charge =  0 Multiplicity = 1

                         Standard orientation:
 ---------------------------------------------------------------------
 Center     Atomic      Atomic             Coordinates (Angstroms)
 Number     Number       Type             X           Y           Z
 ---------------------------------------------------------------------
      1          6           0        1.889007   -0.720116   -0.273712
      2          6           0        0.478872   -0.276361    0.002312
      3          6           0       -0.552004   -1.319298    0.365798
      4          6           0       -1.793729   -0.553765   -0.065163
      5          6           0       -0.291207    0.541291   -1.065089
      6          6           0       -0.157968    1.662890   -0.060093
      7          8           0        0.440140    0.832157    0.949058
      8          1           0        2.348714   -1.096542    0.642741
      9          1           0        1.900180   -1.510462   -1.025734
     10          1           0        2.489027    0.114167   -0.639995
     11          1           0       -0.414628   -2.208320   -0.252851
     12          1           0       -0.541271   -1.616775    1.416092
     13          1           0       -2.172957    0.159641    0.659198
     14          1           0       -2.604154   -1.134474   -0.507788
     15          1           0       -1.464373    0.032911   -1.149589
     16          1           0       -1.056235    2.187521    0.275693
     17          1           0        0.556751    2.407233   -0.434543
 ---------------------------------------------------------------------

 SCF Done:  E(RHF) =  -307.822241753     A.U. after    2 cycles

 The electronic state is 1-A.
 Alpha  occ. eigenvalues --  -20.55754 -11.29712 -11.28834 -11.27997 -11.25354
 Alpha  occ. eigenvalues --  -11.24767 -11.22609  -1.34630  -1.10194  -1.00305
 Alpha  occ. eigenvalues --   -0.97105  -0.88048  -0.85100  -0.69464  -0.68583
 Alpha  occ. eigenvalues --   -0.66339  -0.63815  -0.59834  -0.58857  -0.56996
 Alpha  occ. eigenvalues --   -0.55122  -0.53056  -0.50709  -0.50011  -0.44125
 Alpha  occ. eigenvalues --   -0.42845  -0.32600
 Alpha virt. eigenvalues --    0.03316   0.04229   0.04476   0.04980   0.06067
 Alpha virt. eigenvalues --    0.06245   0.06792   0.07334   0.09119   0.09269
 Alpha virt. eigenvalues --    0.09905   0.10344   0.12424   0.13333   0.14061

 Mulliken charges:
               1
     1  C    0.661686
     2  C   -0.686339
     3  C    0.515439
     4  C    0.452792
     5  C   -0.634247
     6  C    1.089887
     7  O   -0.853665
     8  H    0.062477
     9  H    0.077059
    10  H    0.019530
    11  H   -0.035855
    12  H   -0.057332
    13  H   -0.108775
    14  H   -0.193000
    15  H    0.170495
    16  H   -0.269911
    17  H   -0.210242
 Sum of Mulliken charges =  -0.00000

 Dipole moment (field-independent basis, Debye):
    X=             -1.5702    Y=             -1.3321    Z=              0.1860  Tot=              2.0676

 Test job not archived.
 1\1\GINC-SE100\SP\RHF\Aug-CC-pVDZ\C6H10O1\OHZDE\09-Apr-2025\0\\#t hf a
 ug-cc-pvdz iop(5/13=1,5/36=2,99/5=2) pseudo=read geom=check guess=(rea
 d,tcheck) scf=(maxcycle=1)\\title\\0,1\C,0,1.92914459,0.50563429,-0.39
 985561\C,0,0.53407783,0.132926,0.02022113\C,0,0.17971851,-1.33064051,0
 .14247928\C,0,-1.32428127,-1.20434055,-0.04642348\C,0,-0.67789098,0.66
 438379,-0.78576046\C,0,-0.93952533,1.4755441,0.46296727\O,0,0.12024621
 ,0.86039942,1.21444339\H,0,2.64154335,0.22619809,0.37944976\H,0,2.1984
 916,-0.00545114,-1.32535652\H,0,2.0058892,1.58144701,-0.56403312\H,0,0

 Normal termination of Gaussian 16 at Wed Apr  9 15:36:19 2025.
