 Gaussian 16, Revision C.01,

 ----------------------------------------------------------------------
 #t hf aug-cc-pvdz symm=none int=(grid=ultrafine) guess=(read,tcheck) s
 table=(opt,rrhf)
 ----------------------------------------------------------------------
 -----
 title
 -----
 Symbolic Z-matrix:
 Charge =  0 Multiplicity = 1

 SCF Done:  E(RHF) =  -302.700240492     A.U. after   15 cycles
 Normal termination of Gaussian 16 at Wed Apr  9 03:59:44 2025.
 Gaussian 16:  ES64L-G16RevC.01  3-Jul-2019

 ----------------------------------------------------------------------
 #t hf aug-cc-pvdz iop(5/13=1,5/36=2,99/5=2) pseudo=read geom=check gue
 ss=(read,tcheck) scf=(maxcycle=1)
 ----------------------------------------------------------------------
 -----
 title
 -----
 Structure from the checkpoint file:  "Grambow2020_wb97xd3_008852_reverse_mol1.chk"
 Charge =  0 Multiplicity = 1

                         Standard orientation:
 ---------------------------------------------------------------------
 Center     Atomic      Atomic             Coordinates (Angstroms)
 Number     Number       Type             X           Y           Z
 ---------------------------------------------------------------------
      1          6           0        1.673921    1.255520   -0.401588
      2          6           0        1.255181    0.174367    0.564057
      3          6           0       -0.610177    0.191383    0.835098
      4          6           0       -1.896453    0.181162    0.095035
      5          7           0       -2.878778    0.195257   -0.499365
      6          6           0        0.177992   -1.003424   -0.380514
      7          7           0        1.516877   -1.165267    0.066960
      8          1           0        1.225187    2.219674   -0.159638
      9          1           0        2.752922    1.353032   -0.243507
     10          1           0        1.517432    1.046189   -1.469454
     11          1           0       -0.480658    1.241817    1.091516
     12          1           0       -0.728973   -0.366124    1.759078
     13          1           0        0.009768   -0.570296   -1.360969
     14          1           0       -0.493949   -1.813270   -0.117858
     15          1           0        2.128799   -1.114997   -0.744862
 ---------------------------------------------------------------------

 SCF Done:  E(RHF) =  -302.787250941     A.U. after    2 cycles

 The electronic state is 1-A.
 Alpha  occ. eigenvalues --  -15.65002 -15.63939 -11.34407 -11.33187 -11.29825
 Alpha  occ. eigenvalues --  -11.28788 -11.25245  -1.26616  -1.19947  -1.04408
 Alpha  occ. eigenvalues --   -1.00618  -0.89773  -0.80809  -0.71915  -0.69065
 Alpha  occ. eigenvalues --   -0.65611  -0.63629  -0.58402  -0.57427  -0.56248
 Alpha  occ. eigenvalues --   -0.54866  -0.52161  -0.46614  -0.45624  -0.44415
 Alpha  occ. eigenvalues --   -0.31903
 Alpha virt. eigenvalues --    0.02922   0.03656   0.04020   0.04948   0.06196
 Alpha virt. eigenvalues --    0.06603   0.07832   0.08530   0.09462   0.09739
 Alpha virt. eigenvalues --    0.11942   0.12591   0.13513   0.13909   0.14262

 Mulliken charges:
               1
     1  C    0.655024
     2  C   -0.576737
     3  C    0.682601
     4  C   -0.365477
     5  N   -0.205187
     6  C    0.997128
     7  N   -0.574299
     8  H   -0.111618
     9  H   -0.016082
    10  H   -0.111640
    11  H   -0.053454
    12  H    0.001351
    13  H   -0.225716
    14  H   -0.211478
    15  H    0.115584
 Sum of Mulliken charges =  -0.00000

 Dipole moment (field-independent basis, Debye):
    X=              2.8374    Y=              0.3270    Z=             -0.8342  Tot=              2.9755

 Test job not archived.
 1\1\GINC-SE456\SP\RHF\Aug-CC-pVDZ\C5H8N2\OHZDE\09-Apr-2025\0\\#t hf au
 g-cc-pvdz iop(5/13=1,5/36=2,99/5=2) pseudo=read geom=check guess=(read
 ,tcheck) scf=(maxcycle=1)\\title\\0,1\C,0,-1.2429078,1.17040435,-0.499
 98402\C,0,-0.56286017,-0.09991295,-0.94779448\C,0,1.24400487,-0.128169
 77,-0.41136756\C,0,2.10923788,0.04423031,0.78192795\N,0,2.75999899,0.2
 039252,1.71438777\C,0,-0.07368273,-1.01863201,0.58726464\N,0,-1.121380
 61,-1.29165652,-0.33296844\H,0,-0.65170625,2.05721193,-0.73138578\H,0,
 -2.14998492,1.21878552,-1.11122226\H,0,-1.55548383,1.21383448,0.553133

 Normal termination of Gaussian 16 at Wed Apr  9 03:59:49 2025.
