 Gaussian 16, Revision C.01,

 ----------------------------------------------------------------------
 #t hf aug-cc-pvdz symm=none int=(grid=ultrafine) guess=(read,tcheck) s
 table=(opt,rrhf)
 ----------------------------------------------------------------------
 -----
 title
 -----
 Symbolic Z-matrix:
 Charge =  0 Multiplicity = 1

 SCF Done:  E(RHF) =  -344.719651762     A.U. after   14 cycles

 1\1\GINC-SE044\Stability\RHF\Aug-CC-pVDZ\C5H10O2\OHZDE\09-Apr-2025\0\\
 #t hf aug-cc-pvdz symm=none int=(grid=ultrafine) guess=(read,tcheck) s
 table=(opt,rrhf)\\title\\0,1\C,0,-2.10927527,-0.39867171,0.65471567\C,
 0,-1.45439864,0.3908496,-0.44060753\O,0,-1.25537598,1.69640359,-0.2616
 6321\C,0,0.35020439,-0.40218606,-0.47133341\C,0,1.66338944,0.37970721,
 -0.70053394\C,0,2.01128369,-0.12145607,0.70463371\O,0,0.75849353,-0.82
 507187,0.81404233\H,0,-3.1408828,-0.04107173,0.70492132\H,0,-2.1148615
 7,-1.47110264,0.45429158\H,0,-1.62536861,-0.20083435,1.60895908\H,0,-1

 Normal termination of Gaussian 16 at Wed Apr  9 03:33:35 2025.
 Gaussian 16:  ES64L-G16RevC.01  3-Jul-2019

 ----------------------------------------------------------------------
 #t hf aug-cc-pvdz iop(5/13=1,5/36=2,99/5=2) pseudo=read geom=check gue
 ss=(read,tcheck) scf=(maxcycle=1)
 ----------------------------------------------------------------------
 -----
 title
 -----
 Structure from the checkpoint file:  "Grambow2020_wb97xd3_007057_forward_mol1.chk"
 Charge =  0 Multiplicity = 1

                         Standard orientation:
 ---------------------------------------------------------------------
 Center     Atomic      Atomic             Coordinates (Angstroms)
 Number     Number       Type             X           Y           Z
 ---------------------------------------------------------------------
      1          6           0        1.978566   -1.028219   -0.060073
      2          6           0        1.473537    0.336043    0.308269
      3          8           0        1.460011    1.289754   -0.622513
      4          6           0       -0.425038   -0.036838    0.686178
      5          6           0       -1.605332    0.891639    0.321236
      6          6           0       -2.058925   -0.297152   -0.531830
      7          8           0       -0.923921   -1.084291   -0.121090
      8          1           0        3.049234   -0.910358   -0.245523
      9          1           0        1.834898   -1.759048    0.737145
     10          1           0        1.503087   -1.376667   -0.974617
     11          1           0        1.737721    0.643955    1.333458
     12          1           0        0.346877    0.809387   -0.065764
     13          1           0       -0.293396   -0.296207    1.735957
     14          1           0       -2.246350    1.159228    1.157407
     15          1           0       -1.338744    1.792179   -0.235840
     16          1           0       -2.062964   -0.132885   -1.610823
     17          1           0       -2.995925   -0.766124   -0.225254
 ---------------------------------------------------------------------

 SCF Done:  E(RHF) =  -344.827732491     A.U. after    2 cycles

 The electronic state is 1-A.
 Alpha  occ. eigenvalues --  -20.58884 -20.50818 -11.35529 -11.32103 -11.30805
 Alpha  occ. eigenvalues --  -11.26445 -11.23451  -1.37720  -1.30098  -1.03501
 Alpha  occ. eigenvalues --   -1.01367  -0.95457  -0.83279  -0.76505  -0.74297
 Alpha  occ. eigenvalues --   -0.70405  -0.65643  -0.65203  -0.61974  -0.58583
 Alpha  occ. eigenvalues --   -0.57270  -0.55022  -0.53841  -0.50691  -0.50192
 Alpha  occ. eigenvalues --   -0.47504  -0.41431  -0.35735
 Alpha virt. eigenvalues --    0.02858   0.03981   0.04465   0.04951   0.05880
 Alpha virt. eigenvalues --    0.06140   0.06799   0.08031   0.08120   0.09920
 Alpha virt. eigenvalues --    0.11389   0.11651   0.12836   0.13679   0.13995

 Mulliken charges:
               1
     1  C    0.379404
     2  C    0.700271
     3  O   -0.944184
     4  C    0.066351
     5  C    0.375132
     6  C    0.919625
     7  O   -0.780977
     8  H   -0.005954
     9  H   -0.033249
    10  H    0.008429
    11  H   -0.097702
    12  H    0.429901
    13  H   -0.322013
    14  H   -0.176231
    15  H   -0.062463
    16  H   -0.230919
    17  H   -0.225421
 Sum of Mulliken charges =  -0.00000

 Dipole moment (field-independent basis, Debye):
    X=             -2.6878    Y=             -1.0772    Z=              2.7765  Tot=              4.0117

 Test job not archived.
 1\1\GINC-SE044\SP\RHF\Aug-CC-pVDZ\C5H10O2\OHZDE\09-Apr-2025\0\\#t hf a
 ug-cc-pvdz iop(5/13=1,5/36=2,99/5=2) pseudo=read geom=check guess=(rea
 d,tcheck) scf=(maxcycle=1)\\title\\0,1\C,0,-2.10927527,-0.39867171,0.6
 5471567\C,0,-1.45439864,0.3908496,-0.44060753\O,0,-1.25537598,1.696403
 59,-0.26166321\C,0,0.35020439,-0.40218606,-0.47133341\C,0,1.66338944,0
 .37970721,-0.70053394\C,0,2.01128369,-0.12145607,0.70463371\O,0,0.7584
 9353,-0.82507187,0.81404233\H,0,-3.1408828,-0.04107173,0.70492132\H,0,
 -2.11486157,-1.47110264,0.45429158\H,0,-1.62536861,-0.20083435,1.60895

 Normal termination of Gaussian 16 at Wed Apr  9 03:33:41 2025.
