 Gaussian 16, Revision C.01,

 ----------------------------------------------------------------------
 #t hf aug-cc-pvdz symm=none int=(grid=ultrafine) guess=(read,tcheck) s
 table=(opt,rrhf)
 ----------------------------------------------------------------------
 -----
 title
 -----
 Symbolic Z-matrix:
 Charge =  0 Multiplicity = 1

 SCF Done:  E(RHF) =  -270.806522622     A.U. after   16 cycles
 Normal termination of Gaussian 16 at Wed Apr  9 03:52:53 2025.
 Gaussian 16:  ES64L-G16RevC.01  3-Jul-2019

 ----------------------------------------------------------------------
 #t hf aug-cc-pvdz iop(5/13=1,5/36=2,99/5=2) pseudo=read geom=check gue
 ss=(read,tcheck) scf=(maxcycle=1)
 ----------------------------------------------------------------------
 -----
 title
 -----
 Structure from the checkpoint file:  "Grambow2020_wb97xd3_008386_reverse_mol2.chk"
 Charge =  0 Multiplicity = 1

                         Standard orientation:
 ---------------------------------------------------------------------
 Center     Atomic      Atomic             Coordinates (Angstroms)
 Number     Number       Type             X           Y           Z
 ---------------------------------------------------------------------
      1          6           0        1.912943   -0.328099   -0.929421
      2          6           0       -1.764058    0.523634   -0.745763
      3          6           0       -0.681258    1.243527   -0.014161
      4          6           0        0.131426    0.253416    0.838002
      5          6           0        1.626965    0.150782    0.488706
      6          6           0       -0.625861   -1.005454    0.594474
      7          6           0       -1.649495   -0.838938   -0.269084
      8          1           0        2.982030   -0.282540   -1.141345
      9          1           0        1.589145   -1.360126   -1.078351
     10          1           0        1.402293    0.283274   -1.676256
     11          1           0       -1.183187    2.004751    0.597204
     12          1           0       -0.079534    1.826732   -0.718122
     13          1           0        0.064384    0.501491    1.904596
     14          1           0        2.112614   -0.520225    1.203440
     15          1           0        2.074364    1.136317    0.645128
     16          1           0       -0.353995   -1.945525    1.069654
     17          1           0       -2.312086   -1.637354   -0.582466
 ---------------------------------------------------------------------

 SCF Done:  E(RHF) =  -270.886095533     A.U. after    2 cycles

 The electronic state is 1-A.
 Alpha  occ. eigenvalues --  -11.28398 -11.25070 -11.24582 -11.24309 -11.23309
 Alpha  occ. eigenvalues --  -11.23084 -11.23076  -1.15480  -1.04505  -0.97132
 Alpha  occ. eigenvalues --   -0.94306  -0.84324  -0.76134  -0.71816  -0.67302
 Alpha  occ. eigenvalues --   -0.64487  -0.61627  -0.55983  -0.55280  -0.52935
 Alpha  occ. eigenvalues --   -0.49725  -0.49342  -0.48659  -0.48095  -0.39401
 Alpha  occ. eigenvalues --   -0.33458
 Alpha virt. eigenvalues --    0.02848   0.03976   0.04191   0.04763   0.05336
 Alpha virt. eigenvalues --    0.06143   0.06344   0.06948   0.07255   0.07472
 Alpha virt. eigenvalues --    0.09691   0.11241   0.12531   0.13475   0.13695

 Mulliken charges:
               1
     1  C    0.476570
     2  C   -0.679949
     3  C    0.536394
     4  C   -0.201334
     5  C    0.380684
     6  C    0.539999
     7  C    0.342594
     8  H   -0.087789
     9  H   -0.069386
    10  H   -0.102211
    11  H   -0.026531
    12  H   -0.142148
    13  H   -0.051980
    14  H   -0.120396
    15  H   -0.112044
    16  H   -0.376701
    17  H   -0.305771
 Sum of Mulliken charges =  -0.00000

 Dipole moment (field-independent basis, Debye):
    X=              2.8012    Y=             -1.2668    Z=              2.4528  Tot=              3.9329

 Test job not archived.
 1\1\GINC-SE459\SP\RHF\Aug-CC-pVDZ\C7H10\OHZDE\09-Apr-2025\0\\#t hf aug
 -cc-pvdz iop(5/13=1,5/36=2,99/5=2) pseudo=read geom=check guess=(read,
 tcheck) scf=(maxcycle=1)\\title\\0,1\C,0,1.5395236,-0.35757482,-1.0626
 6883\C,0,-0.22641393,0.5857199,2.14219809\C,0,-0.50915042,-0.63850537,
 1.33766366\C,0,-0.85218037,-0.25267716,-0.11162037\C,0,0.0919055,-0.81
 664419,-1.18856944\C,0,-0.82638985,1.23306296,-0.01437638\C,0,-0.48289
 97,1.66878729,1.21584522\H,0,2.16902865,-0.86956821,-1.79172395\H,0,1.
 6374878,0.71595814,-1.23597336\H,0,1.94753331,-0.56486818,-0.07127542\

 Normal termination of Gaussian 16 at Wed Apr  9 03:52:59 2025.
