 Gaussian 16, Revision C.01,

 ----------------------------------------------------------------------
 #t hf aug-cc-pvdz symm=none int=(grid=ultrafine) guess=(read,tcheck) s
 table=(opt,rrhf)
 ----------------------------------------------------------------------
 -----
 title
 -----
 Symbolic Z-matrix:
 Charge =  0 Multiplicity = 1

 SCF Done:  E(RHF) =  -344.862330145     A.U. after   13 cycles

 1\1\GINC-SE367\Stability\RHF\Aug-CC-pVDZ\C5H10O2\OHZDE\09-Apr-2025\0\\
 #t hf aug-cc-pvdz symm=none int=(grid=ultrafine) guess=(read,tcheck) s
 table=(opt,rrhf)\\title\\0,1\C,0,-2.37731971,0.20004382,-0.10276094\C,
 0,-1.58598503,-1.06253293,-0.26102646\O,0,-0.26242729,-0.93558056,-0.7
 8734207\C,0,-0.42224359,-1.36294711,0.56578435\C,0,2.77643422,0.393747
 79,0.22026449\C,0,2.03646158,1.49415041,0.14224984\O,0,0.81972844,1.61
 392381,-0.42231397\H,0,-3.23396517,0.02231627,0.55025125\H,0,-1.765108
 64,0.99225183,0.32960669\H,0,-2.75253984,0.54180118,-1.06880882\H,0,-2

 Normal termination of Gaussian 16 at Wed Apr  9 03:33:25 2025.
 Gaussian 16:  ES64L-G16RevC.01  3-Jul-2019

 ----------------------------------------------------------------------
 #t hf aug-cc-pvdz iop(5/13=1,5/36=2,99/5=2) pseudo=read geom=check gue
 ss=(read,tcheck) scf=(maxcycle=1)
 ----------------------------------------------------------------------
 -----
 title
 -----
 Structure from the checkpoint file:  "Grambow2020_wb97xd3_007088_reverse_mol2.chk"
 Charge =  0 Multiplicity = 1

                         Standard orientation:
 ---------------------------------------------------------------------
 Center     Atomic      Atomic             Coordinates (Angstroms)
 Number     Number       Type             X           Y           Z
 ---------------------------------------------------------------------
      1          6           0       -2.211254    1.109750    0.268411
      2          6           0       -2.006985   -0.326096   -0.108388
      3          8           0       -0.777060   -0.656230   -0.758948
      4          6           0       -1.018291   -1.172700    0.550327
      5          6           0        2.591858   -0.783552    0.048048
      6          6           0        2.355597    0.518066    0.168476
      7          8           0        1.260581    1.184327   -0.244506
      8          1           0       -3.028044    1.192523    0.988033
      9          1           0       -1.307909    1.528324    0.713496
     10          1           0       -2.471106    1.703926   -0.609238
     11          1           0       -2.859544   -0.824658   -0.563644
     12          1           0        0.608213    0.558688   -0.609220
     13          1           0       -0.390830   -0.747169    1.328512
     14          1           0       -1.160991   -2.247360    0.593543
     15          1           0        1.889879   -1.451848   -0.436748
     16          1           0        3.515579   -1.196907    0.425922
     17          1           0        3.071041    1.186893    0.635732
 ---------------------------------------------------------------------

 SCF Done:  E(RHF) =  -344.975573931     A.U. after    2 cycles

 The electronic state is 1-A.
 Alpha  occ. eigenvalues --  -20.60251 -20.57890 -11.31283 -11.30456 -11.29646
 Alpha  occ. eigenvalues --  -11.24227 -11.20950  -1.39780  -1.34658  -1.02058
 Alpha  occ. eigenvalues --   -1.00444  -0.92590  -0.84214  -0.81845  -0.72444
 Alpha  occ. eigenvalues --   -0.68200  -0.66609  -0.66190  -0.60768  -0.58020
 Alpha  occ. eigenvalues --   -0.57900  -0.54813  -0.54272  -0.53321  -0.52619
 Alpha  occ. eigenvalues --   -0.48064  -0.45969  -0.34012
 Alpha virt. eigenvalues --    0.03119   0.04381   0.04461   0.04983   0.05717
 Alpha virt. eigenvalues --    0.06211   0.06988   0.07677   0.08371   0.09586
 Alpha virt. eigenvalues --    0.11537   0.12095   0.13532   0.13947   0.14191

 Mulliken charges:
               1
     1  C    0.317305
     2  C    0.270357
     3  O   -0.812538
     4  C    1.038374
     5  C    0.609918
     6  C    0.664584
     7  O   -0.430374
     8  H    0.036502
     9  H   -0.120771
    10  H    0.042871
    11  H   -0.301395
    12  H    0.190425
    13  H   -0.275028
    14  H   -0.245696
    15  H   -0.358009
    16  H   -0.312766
    17  H   -0.313761
 Sum of Mulliken charges =  -0.00000

 Dipole moment (field-independent basis, Debye):
    X=             -2.5958    Y=             -1.1026    Z=              1.7014  Tot=              3.2937

 Test job not archived.
 1\1\GINC-SE367\SP\RHF\Aug-CC-pVDZ\C5H10O2\OHZDE\09-Apr-2025\0\\#t hf a
 ug-cc-pvdz iop(5/13=1,5/36=2,99/5=2) pseudo=read geom=check guess=(rea
 d,tcheck) scf=(maxcycle=1)\\title\\0,1\C,0,-2.37731971,0.20004382,-0.1
 0276094\C,0,-1.58598503,-1.06253293,-0.26102646\O,0,-0.26242729,-0.935
 58056,-0.78734207\C,0,-0.42224359,-1.36294711,0.56578435\C,0,2.7764342
 2,0.39374779,0.22026449\C,0,2.03646158,1.49415041,0.14224984\O,0,0.819
 72844,1.61392381,-0.42231397\H,0,-3.23396517,0.02231627,0.55025125\H,0
 ,-1.76510864,0.99225183,0.32960669\H,0,-2.75253984,0.54180118,-1.06880

 Normal termination of Gaussian 16 at Wed Apr  9 03:33:30 2025.
