 Gaussian 16, Revision C.01,

 ----------------------------------------------------------------------
 #t hf aug-cc-pvdz symm=none int=(grid=ultrafine) guess=(read,tcheck) s
 table=(opt,rrhf)
 ----------------------------------------------------------------------
 -----
 title
 -----
 Symbolic Z-matrix:
 Charge =  0 Multiplicity = 1

 SCF Done:  E(RHF) =  -271.905982899     A.U. after   17 cycles
 Normal termination of Gaussian 16 at Wed Apr  9 15:53:32 2025.
 Gaussian 16:  ES64L-G16RevC.01  3-Jul-2019

 ----------------------------------------------------------------------
 #t hf aug-cc-pvdz iop(5/13=1,5/36=2,99/5=2) pseudo=read geom=check gue
 ss=(read,tcheck) scf=(maxcycle=1)
 ----------------------------------------------------------------------
 -----
 title
 -----
 Structure from the checkpoint file:  "Grambow2020_wb97xd3_007420_reverse_mol1.chk"
 Charge =  0 Multiplicity = 1

                         Standard orientation:
 ---------------------------------------------------------------------
 Center     Atomic      Atomic             Coordinates (Angstroms)
 Number     Number       Type             X           Y           Z
 ---------------------------------------------------------------------
      1          6           0       -2.529362   -0.557620   -0.195576
      2          6           0       -1.201961   -0.061276    0.354920
      3          6           0       -0.002546   -0.968988    0.022301
      4          6           0        1.203356   -0.086343    0.100966
      5          6           0        2.601989   -0.552470   -0.067394
      6          6           0        0.725532    1.230963   -0.106509
      7          6           0       -0.726933    1.280504   -0.163365
      8          1           0       -2.476558   -0.663614   -1.280992
      9          1           0       -2.797814   -1.525504    0.235548
     10          1           0       -3.334252    0.144171    0.032279
     11          1           0       -1.297562   -0.016088    1.459923
     12          1           0        0.041768   -1.891127    0.604093
     13          1           0       -0.101314   -1.249728   -1.049103
     14          1           0        0.496101    1.282804    1.023567
     15          1           0        2.759453   -0.968726   -1.073514
     16          1           0        2.858140   -1.342595    0.642766
     17          1           0        3.315799    0.262925    0.062082
     18          1           0        1.376382    2.058159   -0.371516
     19          1           0       -1.260598    2.200697    0.042808
 ---------------------------------------------------------------------

 SCF Done:  E(RHF) =  -271.988386662     A.U. after    2 cycles

 The electronic state is 1-A.
 Alpha  occ. eigenvalues --  -11.26468 -11.25848 -11.24107 -11.23464 -11.23389
 Alpha  occ. eigenvalues --  -11.21527 -11.21491  -1.15916  -1.02840  -0.99529
 Alpha  occ. eigenvalues --   -0.93242  -0.86427  -0.75313  -0.72428  -0.66061
 Alpha  occ. eigenvalues --   -0.65139  -0.58965  -0.57746  -0.56091  -0.54688
 Alpha  occ. eigenvalues --   -0.53309  -0.52103  -0.50634  -0.47838  -0.46626
 Alpha  occ. eigenvalues --   -0.45478  -0.21118
 Alpha virt. eigenvalues --    0.03279   0.04084   0.04266   0.04770   0.05878
 Alpha virt. eigenvalues --    0.06192   0.06462   0.06919   0.07915   0.08326
 Alpha virt. eigenvalues --    0.08784   0.09069   0.09602   0.11606   0.13452

 Mulliken charges:
               1
     1  C    0.703156
     2  C   -0.627186
     3  C    0.204003
     4  C   -0.915368
     5  C    0.500767
     6  C    0.276908
     7  C    0.319324
     8  H    0.024220
     9  H   -0.027729
    10  H   -0.043519
    11  H   -0.207867
    12  H   -0.169118
    13  H    0.082007
    14  H    0.539093
    15  H    0.096027
    16  H    0.011454
    17  H   -0.065333
    18  H   -0.284758
    19  H   -0.416080
 Sum of Mulliken charges =  -0.00000

 Dipole moment (field-independent basis, Debye):
    X=              1.5506    Y=             -0.1504    Z=              0.9474  Tot=              1.8234

 Test job not archived.
 1\1\GINC-SE026\SP\RHF\Aug-CC-pVDZ\C7H12\OHZDE\09-Apr-2025\0\\#t hf aug
 -cc-pvdz iop(5/13=1,5/36=2,99/5=2) pseudo=read geom=check guess=(read,
 tcheck) scf=(maxcycle=1)\\title\\0,1\C,0,-2.55829793,-0.19885429,0.050
 92361\C,0,-1.16519423,0.40949211,0.02693065\C,0,-0.10437361,-0.4145048
 1,0.78115897\C,0,1.20946065,-0.02427706,0.18031633\C,0,2.5298623,-0.51
 025133,0.65165866\C,0,0.90642002,0.4630305,-1.11481064\C,0,-0.52749064
 ,0.55753473,-1.33910764\H,0,-2.54343633,-1.20322824,-0.37705084\H,0,-2
 .94353503,-0.26171825,1.07189056\H,0,-3.2577791,0.40241661,-0.53343549

 Normal termination of Gaussian 16 at Wed Apr  9 15:53:39 2025.
