 Gaussian 16, Revision C.01,

 ----------------------------------------------------------------------
 #t hf aug-cc-pvdz symm=none int=(grid=ultrafine) guess=(read,tcheck) s
 table=(opt,rrhf)
 ----------------------------------------------------------------------
 -----
 title
 -----
 Symbolic Z-matrix:
 Charge =  0 Multiplicity = 1

 SCF Done:  E(RHF) =  -321.481927259     A.U. after   15 cycles
 Normal termination of Gaussian 16 at Wed Apr  9 16:23:50 2025.
 Gaussian 16:  ES64L-G16RevC.01  3-Jul-2019

 ----------------------------------------------------------------------
 #t hf aug-cc-pvdz iop(5/13=1,5/36=2,99/5=2) pseudo=read geom=check gue
 ss=(read,tcheck) scf=(maxcycle=1)
 ----------------------------------------------------------------------
 -----
 title
 -----
 Structure from the checkpoint file:  "Grambow2020_wb97xd3_008185_reverse_mol2.chk"
 Charge =  0 Multiplicity = 1

                         Standard orientation:
 ---------------------------------------------------------------------
 Center     Atomic      Atomic             Coordinates (Angstroms)
 Number     Number       Type             X           Y           Z
 ---------------------------------------------------------------------
      1          8           0       -3.166886   -0.854545   -0.012062
      2          6           0        2.439275   -1.640129    0.009361
      3          6           0        1.490747   -0.713796   -0.011841
      4          6           0       -2.383568    0.190132   -0.000919
      5          6           0       -1.618362    1.108828    0.001849
      6          6           0        1.787186    0.687863   -0.003418
      7          7           0        1.993792    1.818025    0.002314
      8          1           0       -4.082338   -0.583071    0.104832
      9          1           0        3.489528   -1.378346    0.033516
     10          1           0        2.181177   -2.691094    0.001892
     11          1           0        0.435726   -0.961776   -0.035601
     12          1           0       -0.937217    1.927087    0.005462
 ---------------------------------------------------------------------

 SCF Done:  E(RHF) =  -321.586014363     A.U. after    2 cycles

 The electronic state is 1-A.
 Alpha  occ. eigenvalues --  -20.65750 -15.64112 -11.31543 -11.29512 -11.29152
 Alpha  occ. eigenvalues --  -11.28631 -11.23874  -1.42081  -1.20046  -1.08997
 Alpha  occ. eigenvalues --   -1.02768  -0.87976  -0.84619  -0.72521  -0.71444
 Alpha  occ. eigenvalues --   -0.68611  -0.66092  -0.64852  -0.58029  -0.54506
 Alpha  occ. eigenvalues --   -0.51959  -0.47122  -0.40705  -0.39681  -0.38940
 Alpha virt. eigenvalues --    0.02503   0.03366   0.05250   0.05617   0.06932
 Alpha virt. eigenvalues --    0.07175   0.10299   0.10482   0.11708   0.11753
 Alpha virt. eigenvalues --    0.12283   0.12652   0.13772   0.14262   0.15174

 Mulliken charges:
               1
     1  O   -0.372432
     2  C    0.587466
     3  C    1.102116
     4  C   -0.699809
     5  C    1.244017
     6  C   -0.695366
     7  N   -0.155360
     8  H    0.177406
     9  H   -0.245426
    10  H   -0.204683
    11  H   -0.415264
    12  H   -0.322665
 Sum of Mulliken charges =  -0.00000

 Dipole moment (field-independent basis, Debye):
    X=             -1.9545    Y=             -3.3967    Z=              0.2093  Tot=              3.9245

 Test job not archived.
 1\1\GINC-SE454\SP\RHF\Aug-CC-pVDZ\C5H5N1O1\OHZDE\09-Apr-2025\0\\#t hf
 aug-cc-pvdz iop(5/13=1,5/36=2,99/5=2) pseudo=read geom=check guess=(re
 ad,tcheck) scf=(maxcycle=1)\\title\\0,1\O,0,-1.78167181,2.73765924,-0.
 76422692\C,0,-0.40057484,-2.64487045,0.31632489\C,0,0.08998158,-1.4178
 9797,0.20614212\C,0,-0.5411505,2.45063711,-0.47476585\C,0,0.57965432,2
 .12816777,-0.21140535\C,0,1.47311254,-1.12155952,0.43358084\N,0,2.5763
 9503,-0.85345929,0.60929502\H,0,-1.89929984,3.69144746,-0.80743133\H,0
 ,0.22606023,-3.48600558,0.58458665\H,0,-1.45084801,-2.83482972,0.13732

 Normal termination of Gaussian 16 at Wed Apr  9 16:23:55 2025.
