 Gaussian 16, Revision C.01,

 ----------------------------------------------------------------------
 #t hf aug-cc-pvdz symm=none int=(grid=ultrafine) guess=(read,tcheck) s
 table=(opt,rrhf)
 ----------------------------------------------------------------------
 -----
 title
 -----
 Symbolic Z-matrix:
 Charge =  0 Multiplicity = 1

 SCF Done:  E(RHF) =  -306.563427977     A.U. after   16 cycles
 Normal termination of Gaussian 16 at Wed Apr  9 16:23:08 2025.
 Gaussian 16:  ES64L-G16RevC.01  3-Jul-2019

 ----------------------------------------------------------------------
 #t hf aug-cc-pvdz iop(5/13=1,5/36=2,99/5=2) pseudo=read geom=check gue
 ss=(read,tcheck) scf=(maxcycle=1)
 ----------------------------------------------------------------------
 -----
 title
 -----
 Structure from the checkpoint file:  "Grambow2020_wb97xd3_008162_reverse_mol1.chk"
 Charge =  0 Multiplicity = 1

                         Standard orientation:
 ---------------------------------------------------------------------
 Center     Atomic      Atomic             Coordinates (Angstroms)
 Number     Number       Type             X           Y           Z
 ---------------------------------------------------------------------
      1          8           0        2.176402   -0.136826   -0.134562
      2          6           0        0.841319    0.075641    0.162092
      3          6           0        0.063031    1.305232   -0.266052
      4          6           0       -1.248714    0.647544    0.192135
      5          6           0       -1.367130   -0.551632   -0.774413
      6          6           0       -0.175617   -1.068505    0.018976
      7          6           0       -0.693213   -0.369238    1.258250
      8          1           0        2.237866   -0.806646   -0.818058
      9          1           0        0.102496    1.548024   -1.331399
     10          1           0        0.330601    2.185273    0.319132
     11          1           0       -2.087138    1.294997    0.435871
     12          1           0       -2.253198   -1.155936   -0.579638
     13          1           0       -1.279566   -0.360840   -1.847193
     14          1           0        0.219649   -2.081643    0.023951
     15          1           0        0.800024    0.237128    1.327902
 ---------------------------------------------------------------------

 SCF Done:  E(RHF) =  -306.651834010     A.U. after    2 cycles

 The electronic state is 1-A.
 Alpha  occ. eigenvalues --  -20.59957 -11.32846 -11.27649 -11.25514 -11.25214
 Alpha  occ. eigenvalues --  -11.25002 -11.24934  -1.36064  -1.22017  -0.99630
 Alpha  occ. eigenvalues --   -0.96149  -0.87018  -0.80773  -0.72688  -0.71633
 Alpha  occ. eigenvalues --   -0.67866  -0.63347  -0.61384  -0.58036  -0.55310
 Alpha  occ. eigenvalues --   -0.51742  -0.49432  -0.48649  -0.45900  -0.42515
 Alpha  occ. eigenvalues --   -0.34689
 Alpha virt. eigenvalues --    0.02871   0.03894   0.04457   0.04970   0.06271
 Alpha virt. eigenvalues --    0.06734   0.06960   0.07610   0.10015   0.11634
 Alpha virt. eigenvalues --    0.11759   0.12434   0.13087   0.13764   0.14409

 Mulliken charges:
               1
     1  O   -0.559432
     2  C    0.024086
     3  C    0.546535
     4  C    0.332481
     5  C    0.742745
     6  C    0.435985
     7  C   -0.481303
     8  H    0.139326
     9  H   -0.172670
    10  H   -0.073656
    11  H   -0.357792
    12  H   -0.200266
    13  H   -0.191909
    14  H   -0.387280
    15  H    0.203151
 Sum of Mulliken charges =  -0.00000

 Dipole moment (field-independent basis, Debye):
    X=             -0.5111    Y=             -0.1430    Z=             -3.1237  Tot=              3.1685

 Test job not archived.
 1\1\GINC-SE026\SP\RHF\Aug-CC-pVDZ\C6H8O1\OHZDE\09-Apr-2025\0\\#t hf au
 g-cc-pvdz iop(5/13=1,5/36=2,99/5=2) pseudo=read geom=check guess=(read
 ,tcheck) scf=(maxcycle=1)\\title\\0,1\O,0,2.1684828,0.89323851,-0.1765
 923\C,0,0.94055511,0.28435632,-0.36906889\C,0,0.61825506,-1.13141262,0
 .06985629\C,0,-0.86829048,-0.90294323,-0.24818574\C,0,-1.25688398,0.18
 690974,0.77527688\C,0,-0.35927328,1.05740831,-0.0923956\C,0,-0.7514242
 5,0.25128653,-1.3126687\H,0,2.08570608,1.53915436,0.52735751\H,0,0.828
 80345,-1.36611171,1.11678245\H,0,1.08618519,-1.87743168,-0.57279628\H,

 Normal termination of Gaussian 16 at Wed Apr  9 16:23:13 2025.
