 Gaussian 16, Revision C.01,

 ----------------------------------------------------------------------
 #t hf aug-cc-pvdz symm=none int=(grid=ultrafine) guess=(read,tcheck) s
 table=(opt,rrhf)
 ----------------------------------------------------------------------
 -----
 title
 -----
 Symbolic Z-matrix:
 Charge =  0 Multiplicity = 1

 SCF Done:  E(RHF) =  -302.230213903     A.U. after   16 cycles
 Normal termination of Gaussian 16 at Wed Apr  9 13:51:40 2025.
 Gaussian 16:  ES64L-G16RevC.01  3-Jul-2019

 ----------------------------------------------------------------------
 #t hf aug-cc-pvdz iop(5/13=1,5/36=2,99/5=2) pseudo=read geom=check gue
 ss=(read,tcheck) scf=(maxcycle=1)
 ----------------------------------------------------------------------
 -----
 title
 -----
 Structure from the checkpoint file:  "Grambow2020_b97d3_006710_reverse_mol2.chk"
 Charge =  0 Multiplicity = 1

                         Standard orientation:
 ---------------------------------------------------------------------
 Center     Atomic      Atomic             Coordinates (Angstroms)
 Number     Number       Type             X           Y           Z
 ---------------------------------------------------------------------
      1          8           0        3.112499   -0.673740    0.002556
      2          6           0        2.115809   -0.063429   -0.000289
      3          6           0        1.003636    0.621416   -0.003971
      4          6           0       -0.096264    1.288390   -0.003312
      5          6           0       -2.735542    0.174791    0.006658
      6          8           0       -2.629025   -1.035370   -0.005013
      7          1           0       -2.777549    0.765554    0.951165
      8          1           0       -2.816079    0.780312   -0.926028
 ---------------------------------------------------------------------

 SCF Done:  E(RHF) =  -302.324428688     A.U. after    2 cycles

 The electronic state is 1-A.
 Alpha  occ. eigenvalues --  -20.71628 -20.58184 -11.49037 -11.35711 -11.35008
 Alpha  occ. eigenvalues --  -11.27579  -1.49950  -1.35547  -1.11255  -0.95018
 Alpha  occ. eigenvalues --   -0.85817  -0.80750  -0.70118  -0.70109  -0.68637
 Alpha  occ. eigenvalues --   -0.65474  -0.54822  -0.50082  -0.45156  -0.44923
 Alpha  occ. eigenvalues --   -0.44403
 Alpha virt. eigenvalues --    0.00790   0.00893   0.04027   0.05476   0.05684
 Alpha virt. eigenvalues --    0.07549   0.08741   0.09165   0.09675   0.11691
 Alpha virt. eigenvalues --    0.12433   0.14354   0.14936   0.16173   0.16227

 Mulliken charges:
               1
     1  O   -0.129735
     2  C   -0.274297
     3  C    0.628595
     4  C   -0.247852
     5  C    0.595199
     6  O   -0.425007
     7  H   -0.073188
     8  H   -0.073714
 Sum of Mulliken charges =  -0.00000

 Dipole moment (field-independent basis, Debye):
    X=              1.0978    Y=              2.4746    Z=              0.0304  Tot=              2.7073

 Test job not archived.
 1\1\GINC-SE054\SP\RHF\Aug-CC-pVDZ\C4H2O2\OHZDE\09-Apr-2025\0\\#t hf au
 g-cc-pvdz iop(5/13=1,5/36=2,99/5=2) pseudo=read geom=check guess=(read
 ,tcheck) scf=(maxcycle=1)\\title\\0,1\O,0,-3.38314545,-0.72144137,1.42
 271061\C,0,-2.42989606,-0.16070678,1.04486087\C,0,-1.36565426,0.468738
 21,0.62397703\C,0,-0.31585761,1.0814463,0.20308275\C,0,1.96622056,-0.1
 4355423,-1.02063441\O,0,1.77092362,-1.34211429,-1.05645715\H,0,1.65643
 836,0.54095021,-1.84425321\H,0,2.48450785,0.35600595,-0.1692455\\Versi
 on=ES64L-G16RevC.01\State=1-A\HF=-302.3244287\RMSD=6.694e-03\Dipole=-0

 Normal termination of Gaussian 16 at Wed Apr  9 13:51:43 2025.
