 Gaussian 16, Revision C.01,

 ----------------------------------------------------------------------
 #t hf aug-cc-pvdz symm=none int=(grid=ultrafine) guess=(read,tcheck) s
 table=(opt,rrhf)
 ----------------------------------------------------------------------
 -----
 title
 -----
 Symbolic Z-matrix:
 Charge =  0 Multiplicity = 1

 SCF Done:  E(RHF) =  -343.652465593     A.U. after   15 cycles
 Normal termination of Gaussian 16 at Wed Apr  9 16:25:05 2025.
 Gaussian 16:  ES64L-G16RevC.01  3-Jul-2019

 ----------------------------------------------------------------------
 #t hf aug-cc-pvdz iop(5/13=1,5/36=2,99/5=2) pseudo=read geom=check gue
 ss=(read,tcheck) scf=(maxcycle=1)
 ----------------------------------------------------------------------
 -----
 title
 -----
 Structure from the checkpoint file:  "Grambow2020_wb97xd3_008203_reverse_mol2.chk"
 Charge =  0 Multiplicity = 1

                         Standard orientation:
 ---------------------------------------------------------------------
 Center     Atomic      Atomic             Coordinates (Angstroms)
 Number     Number       Type             X           Y           Z
 ---------------------------------------------------------------------
      1          8           0        1.504981   -0.142992   -1.294263
      2          6           0        1.822412   -0.399714   -0.162796
      3          6           0        1.013547   -0.042179    1.053751
      4          6           0       -0.414681    0.418909    0.746635
      5          8           0       -0.431623    1.547644   -0.094343
      6          6           0       -1.223917   -0.692160    0.216558
      7          6           0       -1.875992   -1.599094   -0.212710
      8          1           0       -0.029663    1.276784   -0.928879
      9          1           0        2.781557   -0.916607    0.039210
     10          1           0       -3.574627    2.121666   -1.273606
     11          1           0        1.552874    0.763946    1.564760
     12          1           0        1.010648   -0.896944    1.735987
     13          1           0       -0.874270    0.742627    1.683752
     14          1           0       -2.920349    1.953941   -0.956310
     15          1           0       -2.461248   -2.397199   -0.604691
 ---------------------------------------------------------------------

 SCF Done:  E(RHF) =  -343.765018683     A.U. after    2 cycles

 The electronic state is 1-A.
 Alpha  occ. eigenvalues --  -20.59280 -20.57926 -11.36474 -11.33468 -11.27172
 Alpha  occ. eigenvalues --  -11.25065 -11.24524  -1.38642  -1.34009  -1.08315
 Alpha  occ. eigenvalues --   -1.02537  -0.92887  -0.81380  -0.76456  -0.71824
 Alpha  occ. eigenvalues --   -0.70122  -0.67135  -0.64642  -0.61994  -0.60889
 Alpha  occ. eigenvalues --   -0.56997  -0.55098  -0.53607  -0.49112  -0.45426
 Alpha  occ. eigenvalues --   -0.40871  -0.39900
 Alpha virt. eigenvalues --    0.02915   0.03793   0.04336   0.05126   0.06312
 Alpha virt. eigenvalues --    0.06824   0.07212   0.09108   0.10399   0.10782
 Alpha virt. eigenvalues --    0.11414   0.11889   0.12907   0.13359   0.13806

 Mulliken charges:
               1
     1  O   -0.464325
     2  C    0.633789
     3  C   -0.054201
     4  C    0.439470
     5  O   -0.573565
     6  C   -0.516912
     7  C    1.088873
     8  H    0.202108
     9  H   -0.139507
    10  H    0.038318
    11  H    0.042659
    12  H   -0.034338
    13  H   -0.085133
    14  H   -0.045300
    15  H   -0.531936
 Sum of Mulliken charges =  -0.00000

 Dipole moment (field-independent basis, Debye):
    X=              1.7197    Y=             -2.0452    Z=              2.8295  Tot=              3.8918

 Test job not archived.
 1\1\GINC-SE226\SP\RHF\Aug-CC-pVDZ\C5H8O2\OHZDE\09-Apr-2025\0\\#t hf au
 g-cc-pvdz iop(5/13=1,5/36=2,99/5=2) pseudo=read geom=check guess=(read
 ,tcheck) scf=(maxcycle=1)\\title\\0,1\O,0,1.27257434,1.85571752,-0.125
 53998\C,0,1.35935382,1.10111611,-1.05824177\C,0,0.9185727,-0.33672433,
 -1.03807504\C,0,0.06174995,-0.71532212,0.17406214\O,0,0.73819163,-0.48
 433914,1.38676404\C,0,-1.24894136,-0.04471239,0.12219337\C,0,-2.312096
 45,0.5024166,0.07366452\H,0,0.90323393,0.46531245,1.43483323\H,0,1.809
 65411,1.44691347,-2.00987024\H,0,-1.40849825,-0.7023834,4.02168697\H,0

 Normal termination of Gaussian 16 at Wed Apr  9 16:25:09 2025.
