 Gaussian 16, Revision C.01,

 ----------------------------------------------------------------------
 #t hf aug-cc-pvdz symm=none int=(grid=ultrafine) guess=(read,tcheck) s
 table=(opt,rrhf)
 ----------------------------------------------------------------------
 -----
 title
 -----
 Symbolic Z-matrix:
 Charge =  0 Multiplicity = 1

 SCF Done:  E(RHF) =  -323.776403804     A.U. after   17 cycles
 Normal termination of Gaussian 16 at Wed Apr  9 15:55:13 2025.
 Gaussian 16:  ES64L-G16RevC.01  3-Jul-2019

 ----------------------------------------------------------------------
 #t hf aug-cc-pvdz iop(5/13=1,5/36=2,99/5=2) pseudo=read geom=check gue
 ss=(read,tcheck) scf=(maxcycle=1)
 ----------------------------------------------------------------------
 -----
 title
 -----
 Structure from the checkpoint file:  "Grambow2020_wb97xd3_007602_reverse_mol1.chk"
 Charge =  0 Multiplicity = 1

                         Standard orientation:
 ---------------------------------------------------------------------
 Center     Atomic      Atomic             Coordinates (Angstroms)
 Number     Number       Type             X           Y           Z
 ---------------------------------------------------------------------
      1          6           0        1.010762    1.495365    0.464131
      2          6           0        1.343580    0.313216   -0.431876
      3          7           0        2.061021   -0.737782    0.007926
      4          6           0        0.357413   -0.965303   -0.378865
      5          6           0       -0.741883   -0.890430    0.656566
      6          6           0       -1.888230    0.012578    0.288989
      7          8           0       -2.001606    0.580536   -0.761816
      8          1           0        0.901736    1.196816    1.506111
      9          1           0        1.850901    2.190492    0.410298
     10          1           0        0.121800    2.027313    0.121974
     11          1           0        1.441528    0.631823   -1.484233
     12          1           0        0.960507   -1.888079   -0.215556
     13          1           0        0.022083   -1.058483   -1.410114
     14          1           0       -0.352982   -0.596763    1.633767
     15          1           0       -1.178544   -1.884124    0.813929
     16          1           0       -2.671184    0.108635    1.069187
 ---------------------------------------------------------------------

 SCF Done:  E(RHF) =  -323.873031668     A.U. after    2 cycles

 The electronic state is 1-A.
 Alpha  occ. eigenvalues --  -20.58675 -15.63148 -11.35833 -11.29060 -11.28746
 Alpha  occ. eigenvalues --  -11.27141 -11.23303  -1.37939  -1.21026  -1.05472
 Alpha  occ. eigenvalues --   -0.97998  -0.89395  -0.79574  -0.77800  -0.70383
 Alpha  occ. eigenvalues --   -0.67518  -0.65669  -0.62122  -0.58344  -0.57057
 Alpha  occ. eigenvalues --   -0.55653  -0.53902  -0.52309  -0.51231  -0.45493
 Alpha  occ. eigenvalues --   -0.44148  -0.34814
 Alpha virt. eigenvalues --    0.02876   0.04001   0.04337   0.04895   0.06441
 Alpha virt. eigenvalues --    0.06550   0.07054   0.07441   0.09207   0.09767
 Alpha virt. eigenvalues --    0.11205   0.11965   0.13162   0.13832   0.14169

 Mulliken charges:
               1
     1  C    0.377329
     2  C    0.438906
     3  N   -0.872426
     4  C    0.193036
     5  C    0.129717
     6  C    0.623681
     7  O   -0.465516
     8  H    0.026577
     9  H   -0.055093
    10  H   -0.026790
    11  H   -0.151973
    12  H    0.097257
    13  H   -0.126254
    14  H   -0.021102
    15  H   -0.022823
    16  H   -0.144526
 Sum of Mulliken charges =  -0.00000

 Dipole moment (field-independent basis, Debye):
    X=             -1.6348    Y=             -0.7202    Z=              1.9013  Tot=              2.6089

 Test job not archived.
 1\1\GINC-SE232\SP\RHF\Aug-CC-pVDZ\C5H9N1O1\OHZDE\09-Apr-2025\0\\#t hf
 aug-cc-pvdz iop(5/13=1,5/36=2,99/5=2) pseudo=read geom=check guess=(re
 ad,tcheck) scf=(maxcycle=1)\\title\\0,1\C,0,-1.25873041,-0.20034763,1.
 2170813\C,0,-1.38920285,0.17283687,-0.2508366\N,0,-1.41843593,1.454220
 58,-0.66308081\C,0,-0.02784975,0.45372848,-1.07410008\C,0,1.24115648,0
 .42548068,-0.25251651\C,0,1.71737918,-0.95329787,0.11738907\O,0,1.2104
 2948,-1.97483154,-0.25556202\H,0,-0.67458037,0.53293117,1.77188806\H,0
 ,-2.26448496,-0.20489331,1.6417799\H,0,-0.84277361,-1.20055523,1.34692

 Normal termination of Gaussian 16 at Wed Apr  9 15:55:19 2025.
