 Gaussian 16, Revision C.01,

 ----------------------------------------------------------------------
 #t hf aug-cc-pvdz symm=none int=(grid=ultrafine) guess=(read,tcheck) s
 table=(opt,rrhf)
 ----------------------------------------------------------------------
 -----
 title
 -----
 Symbolic Z-matrix:
 Charge =  0 Multiplicity = 1

 SCF Done:  E(RHF) =  -333.584753043     A.U. after   16 cycles
 Normal termination of Gaussian 16 at Wed Apr  9 15:33:42 2025.
 Gaussian 16:  ES64L-G16RevC.01  3-Jul-2019

 ----------------------------------------------------------------------
 #t hf aug-cc-pvdz iop(5/13=1,5/36=2,99/5=2) pseudo=read geom=check gue
 ss=(read,tcheck) scf=(maxcycle=1)
 ----------------------------------------------------------------------
 -----
 title
 -----
 Structure from the checkpoint file:  "Grambow2020_wb97xd3_006985_reverse_mol1.chk"
 Charge =  0 Multiplicity = 1

                         Standard orientation:
 ---------------------------------------------------------------------
 Center     Atomic      Atomic             Coordinates (Angstroms)
 Number     Number       Type             X           Y           Z
 ---------------------------------------------------------------------
      1          7           0       -2.079384    0.091114   -0.453284
      2          6           0       -0.826470    0.088860   -0.032956
      3          6           0        0.220266    1.049753    0.325138
      4          7           0        1.460870    0.883997   -0.158101
      5          6           0        1.515158   -0.391770   -0.458433
      6          7           0        0.532539   -1.198337   -0.033355
      7          7           0       -0.292193   -0.570220    1.003862
      8          1           0       -2.338128    0.587661   -1.286853
      9          1           0       -2.711227   -0.604404   -0.088815
     10          1           0       -0.074356    1.918380    0.900149
     11          1           0        2.317159   -0.828570   -1.040820
 ---------------------------------------------------------------------

 SCF Done:  E(RHF) =  -333.676741477     A.U. after    2 cycles

 The electronic state is 1-A.
 Alpha  occ. eigenvalues --  -15.69883 -15.67771 -15.65612 -15.60750 -11.39071
 Alpha  occ. eigenvalues --  -11.34492 -11.31560  -1.37286  -1.24996  -1.17887
 Alpha  occ. eigenvalues --   -1.08300  -0.89125  -0.85737  -0.78788  -0.76524
 Alpha  occ. eigenvalues --   -0.72486  -0.64364  -0.61474  -0.56979  -0.53929
 Alpha  occ. eigenvalues --   -0.50889  -0.45747  -0.42666  -0.37121  -0.32282
 Alpha virt. eigenvalues --    0.01731   0.03834   0.04100   0.04993   0.08814
 Alpha virt. eigenvalues --    0.09823   0.10346   0.10751   0.11831   0.12844
 Alpha virt. eigenvalues --    0.13307   0.13433   0.14415   0.15734   0.16252

 Mulliken charges:
               1
     1  N   -0.196879
     2  C    0.783962
     3  C    0.892273
     4  N   -0.624306
     5  C    0.632859
     6  N   -0.592096
     7  N   -0.628298
     8  H    0.025610
     9  H    0.066501
    10  H   -0.167164
    11  H   -0.192464
 Sum of Mulliken charges =  -0.00000

 Dipole moment (field-independent basis, Debye):
    X=             -4.3776    Y=              1.4812    Z=             -2.1534  Tot=              5.0985

 Test job not archived.
 1\1\GINC-SE232\SP\RHF\Aug-CC-pVDZ\C3H4N4\OHZDE\09-Apr-2025\0\\#t hf au
 g-cc-pvdz iop(5/13=1,5/36=2,99/5=2) pseudo=read geom=check guess=(read
 ,tcheck) scf=(maxcycle=1)\\title\\0,1\N,0,1.7555037,-0.62442959,-0.328
 06967\C,0,0.53892692,-0.11479113,-0.24631792\C,0,-0.13267542,1.0543949
 5,0.32740427\N,0,-1.26683276,0.88731785,1.02444456\C,0,-1.7319359,-0.2
 6346261,0.60004837\N,0,-1.17652908,-0.82549246,-0.48273799\N,0,-0.3393
 9331,0.1179825,-1.23079698\H,0,2.29217129,-0.80224765,0.50181782\H,0,2
 .03602562,-1.06629158,-1.18939093\H,0,0.36837961,2.01023953,0.24221345

 Normal termination of Gaussian 16 at Wed Apr  9 15:33:46 2025.
