 Gaussian 16, Revision C.01,

 ----------------------------------------------------------------------
 #t hf aug-cc-pvdz symm=none int=(grid=ultrafine) guess=(read,tcheck) s
 table=(opt,rrhf)
 ----------------------------------------------------------------------
 -----
 title
 -----
 Symbolic Z-matrix:
 Charge =  0 Multiplicity = 1

 SCF Done:  E(RHF) =  -305.679450452     A.U. after   15 cycles
 Normal termination of Gaussian 16 at Wed Apr  9 14:18:18 2025.
 Gaussian 16:  ES64L-G16RevC.01  3-Jul-2019

 ----------------------------------------------------------------------
 #t hf aug-cc-pvdz iop(5/13=1,5/36=2,99/5=2) pseudo=read geom=check gue
 ss=(read,tcheck) scf=(maxcycle=1)
 ----------------------------------------------------------------------
 -----
 title
 -----
 Structure from the checkpoint file:  "Grambow2020_b97d3_007096_forward_mol1.chk"
 Charge =  0 Multiplicity = 1

                         Standard orientation:
 ---------------------------------------------------------------------
 Center     Atomic      Atomic             Coordinates (Angstroms)
 Number     Number       Type             X           Y           Z
 ---------------------------------------------------------------------
      1          6           0        0.723611    1.445462   -0.256035
      2          6           0        0.788117   -0.020134    0.115562
      3          6           0        2.063294   -0.669075    0.044460
      4          8           0       -0.262144   -0.883841   -0.289863
      5          6           0       -1.585855   -0.551031   -0.142714
      6          8           0       -2.059528    0.473888    0.281577
      7          1           0        1.549907    1.973722    0.234101
      8          1           0        0.866161    1.506031   -1.344299
      9          1           0       -0.226694    1.896684    0.029229
     10          1           0        0.230280    0.166205    1.632422
     11          1           0        2.127392   -1.743957    0.181295
     12          1           0        1.293644   -0.268415    1.267414
     13          1           0        2.959939   -0.059592    0.002113
     14          1           0       -2.162250   -1.422381   -0.503630
 ---------------------------------------------------------------------

 SCF Done:  E(RHF) =  -305.778393923     A.U. after    2 cycles

 The electronic state is 1-A.
 Alpha  occ. eigenvalues --  -20.65220 -20.59373 -11.42304 -11.40667 -11.25529
 Alpha  occ. eigenvalues --  -11.22828  -1.43904  -1.35888  -1.11545  -0.96931
 Alpha  occ. eigenvalues --   -0.91119  -0.77603  -0.75599  -0.72186  -0.69025
 Alpha  occ. eigenvalues --   -0.64006  -0.62139  -0.59514  -0.56363  -0.54918
 Alpha  occ. eigenvalues --   -0.53312  -0.51239  -0.48800  -0.28654
 Alpha virt. eigenvalues --    0.03506   0.04184   0.04414   0.04956   0.06237
 Alpha virt. eigenvalues --    0.07167   0.07986   0.08831   0.09430   0.10965
 Alpha virt. eigenvalues --    0.12383   0.12745   0.13103   0.15129   0.15557

 Mulliken charges:
               1
     1  C    0.634881
     2  C   -0.625408
     3  C    0.522643
     4  O   -0.453999
     5  C    0.744219
     6  O   -0.348156
     7  H    0.036827
     8  H    0.076199
     9  H   -0.072995
    10  H    0.032361
    11  H   -0.337228
    12  H    0.339020
    13  H   -0.352604
    14  H   -0.195762
 Sum of Mulliken charges =   0.00000

 Dipole moment (field-independent basis, Debye):
    X=              0.9813    Y=             -0.6133    Z=             -0.8555  Tot=              1.4391

 Test job not archived.
 1\1\GINC-SE212\SP\RHF\Aug-CC-pVDZ\C4H8O2\OHZDE\09-Apr-2025\0\\#t hf au
 g-cc-pvdz iop(5/13=1,5/36=2,99/5=2) pseudo=read geom=check guess=(read
 ,tcheck) scf=(maxcycle=1)\\title\\0,1\C,0,-0.19492479,1.37028792,0.033
 83646\C,0,-0.33308411,-0.1355594,0.09345612\C,0,-1.54639015,-0.6714863
 2,0.63468187\O,0,0.79269721,-0.92013035,0.45466728\C,0,2.03777798,-0.7
 114094,-0.08462432\O,0,2.38413947,0.13895767,-0.86677342\H,0,-1.120660
 69,1.79703265,-0.36984445\H,0,-0.06977326,1.72114485,1.06802394\H,0,0.
 65323899,1.67772713,-0.57784644\H,0,-0.16182022,-0.38362926,-1.5052613

 Normal termination of Gaussian 16 at Wed Apr  9 14:18:22 2025.
