 Gaussian 16, Revision C.01,

 ----------------------------------------------------------------------
 #t hf aug-cc-pvdz symm=none int=(grid=ultrafine) guess=(read,tcheck) s
 table=(opt,rrhf)
 ----------------------------------------------------------------------
 -----
 title
 -----
 Symbolic Z-matrix:
 Charge =  0 Multiplicity = 1

 SCF Done:  E(RHF) =  -309.050829062     A.U. after   12 cycles

 1\1\GINC-SE292\Stability\RHF\Aug-CC-pVDZ\C6H12O1\OHZDE\09-Apr-2025\0\\
 #t hf aug-cc-pvdz symm=none int=(grid=ultrafine) guess=(read,tcheck) s
 table=(opt,rrhf)\\title\\0,1\C,0,2.54340868,-0.56077795,-0.07331276\O,
 0,1.19442956,-0.93808444,0.00867021\C,0,0.37887184,0.06861538,0.531124
 41\C,0,0.07136613,1.31502107,-0.3242173\C,0,-1.38567067,1.21836439,0.1
 793518\C,0,-1.12657745,-0.25567936,0.57800799\C,0,-1.5818095,-1.258869
 86,-0.46705229\H,0,2.94450822,-0.29234876,0.91337578\H,0,2.68588272,0.
 29214837,-0.74877304\H,0,3.09914184,-1.41316445,-0.46191235\H,0,0.7430

 Normal termination of Gaussian 16 at Wed Apr  9 03:53:26 2025.
 Gaussian 16:  ES64L-G16RevC.01  3-Jul-2019

 ----------------------------------------------------------------------
 #t hf aug-cc-pvdz iop(5/13=1,5/36=2,99/5=2) pseudo=read geom=check gue
 ss=(read,tcheck) scf=(maxcycle=1)
 ----------------------------------------------------------------------
 -----
 title
 -----
 Structure from the checkpoint file:  "Grambow2020_wb97xd3_008396_forward_mol2.chk"
 Charge =  0 Multiplicity = 1

                         Standard orientation:
 ---------------------------------------------------------------------
 Center     Atomic      Atomic             Coordinates (Angstroms)
 Number     Number       Type             X           Y           Z
 ---------------------------------------------------------------------
      1          6           0       -2.540765    0.045195   -0.086833
      2          8           0       -1.280373    0.648307    0.041599
      3          6           0       -0.293511   -0.240790    0.474204
      4          6           0        0.224691   -1.326282   -0.491649
      5          6           0        1.645166   -1.018256    0.031084
      6          6           0        1.130006    0.341679    0.564045
      7          6           0        1.389590    1.503647   -0.378413
      8          1           0       -2.879001   -0.381994    0.866895
      9          1           0       -2.534119   -0.752279   -0.840504
     10          1           0       -3.243266    0.817074   -0.398453
     11          1           0       -0.590015   -0.691279    1.432854
     12          1           0       -0.155517   -2.341490   -0.379165
     13          1           0        0.097132   -1.010030   -1.528324
     14          1           0        2.446503   -0.977844   -0.707373
     15          1           0        1.943737   -1.694265    0.832850
     16          1           0        1.449288    0.607167    1.573731
     17          1           0        2.452074    1.757489   -0.377509
     18          1           0        1.101201    1.263377   -1.403828
     19          1           0        0.823906    2.386461   -0.078601
 ---------------------------------------------------------------------

 SCF Done:  E(RHF) =  -309.149383162     A.U. after    2 cycles

 The electronic state is 1-A.
 Alpha  occ. eigenvalues --  -20.56598 -11.27985 -11.27901 -11.22837 -11.22588
 Alpha  occ. eigenvalues --  -11.22406 -11.21459  -1.33874  -1.12367  -0.97045
 Alpha  occ. eigenvalues --   -0.94507  -0.86077  -0.84969  -0.73847  -0.68746
 Alpha  occ. eigenvalues --   -0.66743  -0.64255  -0.62648  -0.57262  -0.55378
 Alpha  occ. eigenvalues --   -0.54322  -0.52417  -0.51560  -0.48532  -0.46181
 Alpha  occ. eigenvalues --   -0.45064  -0.43182  -0.40750
 Alpha virt. eigenvalues --    0.03469   0.04274   0.04551   0.04708   0.06199
 Alpha virt. eigenvalues --    0.06372   0.06584   0.06774   0.07322   0.08845
 Alpha virt. eigenvalues --    0.09211   0.09738   0.11832   0.13269   0.13572

 Mulliken charges:
               1
     1  C    0.701185
     2  O   -0.680810
     3  C    0.773118
     4  C    0.326833
     5  C    0.743095
     6  C   -0.532453
     7  C    0.634385
     8  H   -0.048845
     9  H   -0.085982
    10  H   -0.256081
    11  H   -0.285466
    12  H   -0.228030
    13  H   -0.231051
    14  H   -0.210057
    15  H   -0.196650
    16  H   -0.261917
    17  H   -0.060489
    18  H   -0.052007
    19  H   -0.048778
 Sum of Mulliken charges =  -0.00000

 Dipole moment (field-independent basis, Debye):
    X=             -0.2722    Y=             -1.2879    Z=              0.2392  Tot=              1.3379

 Test job not archived.
 1\1\GINC-SE292\SP\RHF\Aug-CC-pVDZ\C6H12O1\OHZDE\09-Apr-2025\0\\#t hf a
 ug-cc-pvdz iop(5/13=1,5/36=2,99/5=2) pseudo=read geom=check guess=(rea
 d,tcheck) scf=(maxcycle=1)\\title\\0,1\C,0,2.54340868,-0.56077795,-0.0
 7331276\O,0,1.19442956,-0.93808444,0.00867021\C,0,0.37887184,0.0686153
 8,0.53112441\C,0,0.07136613,1.31502107,-0.3242173\C,0,-1.38567067,1.21
 836439,0.1793518\C,0,-1.12657745,-0.25567936,0.57800799\C,0,-1.5818095
 ,-1.25886986,-0.46705229\H,0,2.94450822,-0.29234876,0.91337578\H,0,2.6
 8588272,0.29214837,-0.74877304\H,0,3.09914184,-1.41316445,-0.46191235\

 Normal termination of Gaussian 16 at Wed Apr  9 03:53:33 2025.
