 Gaussian 16, Revision C.01,

 ----------------------------------------------------------------------
 #t hf aug-cc-pvdz symm=none int=(grid=ultrafine) guess=(read,tcheck) s
 table=(opt,rrhf)
 ----------------------------------------------------------------------
 -----
 title
 -----
 Symbolic Z-matrix:
 Charge =  0 Multiplicity = 1

 SCF Done:  E(RHF) =  -306.601537520     A.U. after   15 cycles
 Normal termination of Gaussian 16 at Wed Apr  9 15:46:02 2025.
 Gaussian 16:  ES64L-G16RevC.01  3-Jul-2019

 ----------------------------------------------------------------------
 #t hf aug-cc-pvdz iop(5/13=1,5/36=2,99/5=2) pseudo=read geom=check gue
 ss=(read,tcheck) scf=(maxcycle=1)
 ----------------------------------------------------------------------
 -----
 title
 -----
 Structure from the checkpoint file:  "Grambow2020_wb97xd3_007355_reverse_mol2.chk"
 Charge =  0 Multiplicity = 1

                         Standard orientation:
 ---------------------------------------------------------------------
 Center     Atomic      Atomic             Coordinates (Angstroms)
 Number     Number       Type             X           Y           Z
 ---------------------------------------------------------------------
      1          6           0       -1.120816   -0.609429   -0.892196
      2          6           0       -1.839056   -0.714476    0.397172
      3          6           0       -0.732436    0.314890    0.332645
      4          6           0        0.592161   -0.010213    1.007221
      5          6           0        1.747823    0.323103    0.092365
      6          8           0        2.308931   -0.512594   -0.565183
      7          6           0       -0.886729    1.528549   -0.370362
      8          1           0       -0.317222   -1.295336   -1.129285
      9          1           0       -1.625683   -0.190809   -1.752047
     10          1           0       -2.854348   -0.341017    0.428358
     11          1           0       -1.647271   -1.584474    1.013097
     12          1           0        0.660552    0.576624    1.926405
     13          1           0        0.653956   -1.069089    1.264243
     14          1           0        2.038818    1.385786    0.031514
     15          1           0       -1.945929    1.624524   -0.661888
 ---------------------------------------------------------------------

 SCF Done:  E(RHF) =  -306.694250449     A.U. after    2 cycles

 The electronic state is 1-A.
 Alpha  occ. eigenvalues --  -20.57078 -11.34008 -11.29081 -11.28176 -11.27292
 Alpha  occ. eigenvalues --  -11.26078 -11.25669  -1.36135  -1.19516  -1.02503
 Alpha  occ. eigenvalues --   -0.93923  -0.86099  -0.81425  -0.74780  -0.68940
 Alpha  occ. eigenvalues --   -0.67285  -0.64780  -0.63566  -0.57598  -0.55473
 Alpha  occ. eigenvalues --   -0.54873  -0.52237  -0.49767  -0.44847  -0.41907
 Alpha  occ. eigenvalues --   -0.35225
 Alpha virt. eigenvalues --    0.02966   0.03983   0.04387   0.04845   0.06151
 Alpha virt. eigenvalues --    0.06658   0.07288   0.07490   0.09290   0.09590
 Alpha virt. eigenvalues --    0.11093   0.11998   0.12782   0.13166   0.13784

 Mulliken charges:
               1
     1  C    0.692087
     2  C    0.907809
     3  C   -0.379705
     4  C    0.202551
     5  C    0.895642
     6  O   -0.519065
     7  C   -0.248163
     8  H   -0.244421
     9  H   -0.295084
    10  H   -0.302865
    11  H   -0.288789
    12  H   -0.005341
    13  H   -0.119668
    14  H   -0.129964
    15  H   -0.165023
 Sum of Mulliken charges =  -0.00000

 Dipole moment (field-independent basis, Debye):
    X=             -3.3684    Y=             -0.9174    Z=              2.1279  Tot=              4.0885

 Test job not archived.
 1\1\GINC-SE219\SP\RHF\Aug-CC-pVDZ\C6H8O1\OHZDE\09-Apr-2025\0\\#t hf au
 g-cc-pvdz iop(5/13=1,5/36=2,99/5=2) pseudo=read geom=check guess=(read
 ,tcheck) scf=(maxcycle=1)\\title\\0,1\C,0,-1.06071448,0.61150265,-0.65
 255096\C,0,-1.63059823,-0.23921796,0.41556906\C,0,-0.1727762,0.1347922
 ,0.56800304\C,0,0.87718902,-0.91813101,0.24515913\C,0,1.96941536,-0.32
 931615,-0.61736945\O,0,1.99733352,-0.47841206,-1.81009331\C,0,0.225020
 36,1.43346682,0.95035767\H,0,-0.71442305,0.16993621,-1.57858798\H,0,-1
 .36725935,1.64550658,-0.73219417\H,0,-2.32988082,0.22698293,1.09742121

 Normal termination of Gaussian 16 at Wed Apr  9 15:46:07 2025.
