 Gaussian 16, Revision C.01,

 ----------------------------------------------------------------------
 #t hf aug-cc-pvdz symm=none int=(grid=ultrafine) guess=(read,tcheck) s
 table=(opt,rrhf)
 ----------------------------------------------------------------------
 -----
 title
 -----
 Symbolic Z-matrix:
 Charge =  0 Multiplicity = 1

 SCF Done:  E(RHF) =  -338.585401989     A.U. after   16 cycles
 Normal termination of Gaussian 16 at Wed Apr  9 03:46:27 2025.
 Gaussian 16:  ES64L-G16RevC.01  3-Jul-2019

 ----------------------------------------------------------------------
 #t hf aug-cc-pvdz iop(5/13=1,5/36=2,99/5=2) pseudo=read geom=check gue
 ss=(read,tcheck) scf=(maxcycle=1)
 ----------------------------------------------------------------------
 -----
 title
 -----
 Structure from the checkpoint file:  "Grambow2020_wb97xd3_007964_forward_mol1.chk"
 Charge =  0 Multiplicity = 1

                         Standard orientation:
 ---------------------------------------------------------------------
 Center     Atomic      Atomic             Coordinates (Angstroms)
 Number     Number       Type             X           Y           Z
 ---------------------------------------------------------------------
      1          7           0       -1.470450   -1.490276   -0.048996
      2          6           0       -0.898229   -0.385561   -0.040469
      3          8           0       -1.380282    0.887811    0.137033
      4          6           0       -0.079392    1.511932    0.011520
      5          6           0        0.543141    0.109053   -0.189116
      6          6           0        1.625091   -0.480286    0.759536
      7          7           0        1.537226   -0.304269   -0.981439
      8          1           0       -2.474504   -1.410235    0.090936
      9          1           0       -0.030000    2.154181   -0.867331
     10          1           0        0.183858    2.059959    0.916336
     11          1           0        1.243272   -1.380105    1.230959
     12          1           0        2.016896    0.307425    1.395510
     13          1           0        2.491635   -0.802725    0.101543
 ---------------------------------------------------------------------

 SCF Done:  E(RHF) =  -338.684437148     A.U. after    2 cycles

 The electronic state is 1-A.
 Alpha  occ. eigenvalues --  -20.61699 -15.66554 -15.61273 -11.35722 -11.32213
 Alpha  occ. eigenvalues --  -11.31739 -11.30408  -1.41255  -1.24049  -1.17955
 Alpha  occ. eigenvalues --   -0.98032  -0.93505  -0.90252  -0.72859  -0.71535
 Alpha  occ. eigenvalues --   -0.69959  -0.68366  -0.64921  -0.58111  -0.55808
 Alpha  occ. eigenvalues --   -0.54534  -0.53740  -0.49537  -0.45066  -0.41335
 Alpha  occ. eigenvalues --   -0.37617
 Alpha virt. eigenvalues --    0.02902   0.04142   0.04587   0.04959   0.06527
 Alpha virt. eigenvalues --    0.06990   0.09233   0.09665   0.10885   0.12351
 Alpha virt. eigenvalues --    0.13078   0.13220   0.14325   0.14794   0.15247

 Mulliken charges:
               1
     1  N   -0.361287
     2  C    0.569222
     3  O   -0.713443
     4  C    0.937736
     5  C    0.068641
     6  C    0.293266
     7  N   -0.821033
     8  H    0.021085
     9  H   -0.090131
    10  H   -0.166997
    11  H    0.025959
    12  H   -0.014000
    13  H    0.250982
 Sum of Mulliken charges =   0.00000

 Dipole moment (field-independent basis, Debye):
    X=              1.4421    Y=              2.0509    Z=              2.3047  Tot=              3.4055

 Test job not archived.
 1\1\GINC-SE455\SP\RHF\Aug-CC-pVDZ\C4H6N2O1\OHZDE\09-Apr-2025\0\\#t hf
 aug-cc-pvdz iop(5/13=1,5/36=2,99/5=2) pseudo=read geom=check guess=(re
 ad,tcheck) scf=(maxcycle=1)\\title\\0,1\N,0,1.70454747,-1.14776194,-1.
 24665108\C,0,1.1589151,-0.28893505,-0.5306856\O,0,1.5455674,0.98014128
 ,-0.17670251\C,0,0.36310794,1.23255813,0.62058596\C,0,-0.14707908,-0.1
 8401596,0.26156355\C,0,-1.48542869,-0.43660938,-0.48869908\N,0,-0.8086
 7822,-1.08875496,0.98995335\H,0,2.59996013,-0.83661337,-1.61480026\H,0
 ,0.61415068,1.36538628,1.67255445\H,0,-0.1959628,2.08626087,0.23723718

 Normal termination of Gaussian 16 at Wed Apr  9 03:46:31 2025.
