 Gaussian 16, Revision C.01,

 ----------------------------------------------------------------------
 #t hf aug-cc-pvdz symm=none int=(grid=ultrafine) guess=(read,tcheck) s
 table=(opt,rrhf)
 ----------------------------------------------------------------------
 -----
 title
 -----
 Symbolic Z-matrix:
 Charge =  0 Multiplicity = 1

 SCF Done:  E(RHF) =  -301.573883354     A.U. after   15 cycles
 Normal termination of Gaussian 16 at Wed Apr  9 16:46:05 2025.
 Gaussian 16:  ES64L-G16RevC.01  3-Jul-2019

 ----------------------------------------------------------------------
 #t hf aug-cc-pvdz iop(5/13=1,5/36=2,99/5=2) pseudo=read geom=check gue
 ss=(read,tcheck) scf=(maxcycle=1)
 ----------------------------------------------------------------------
 -----
 title
 -----
 Structure from the checkpoint file:  "Grambow2020_wb97xd3_008864_forward_mol1.chk"
 Charge =  0 Multiplicity = 1

                         Standard orientation:
 ---------------------------------------------------------------------
 Center     Atomic      Atomic             Coordinates (Angstroms)
 Number     Number       Type             X           Y           Z
 ---------------------------------------------------------------------
      1          7           0        1.704189   -0.679760   -0.455855
      2          6           0        1.770804   -0.269244    0.655228
      3          6           0        0.670194    0.776133   -0.116984
      4          6           0       -0.582981    0.554896   -0.860861
      5          6           0       -1.201633   -0.800497   -0.587676
      6          6           0       -1.121905   -0.416902    0.902675
      7          7           0       -0.582721    0.942682    0.588708
      8          1           0        1.213138    1.691307   -0.291091
      9          1           0       -0.869012    1.244682   -1.646167
     10          1           0       -2.225753   -0.864956   -0.949011
     11          1           0       -0.633764   -1.665693   -0.926862
     12          1           0       -2.087972   -0.312586    1.390153
     13          1           0       -0.453794   -0.999522    1.538722
 ---------------------------------------------------------------------

 SCF Done:  E(RHF) =  -301.657553097     A.U. after    2 cycles

 The electronic state is 1-A.
 Alpha  occ. eigenvalues --  -15.68540 -15.65610 -11.35417 -11.30234 -11.28384
 Alpha  occ. eigenvalues --  -11.28211 -11.25581  -1.32238  -1.24521  -1.03129
 Alpha  occ. eigenvalues --   -0.95304  -0.83434  -0.77467  -0.72156  -0.67046
 Alpha  occ. eigenvalues --   -0.65744  -0.62530  -0.58424  -0.55091  -0.50776
 Alpha  occ. eigenvalues --   -0.50284  -0.48765  -0.46458  -0.44764  -0.38795
 Alpha virt. eigenvalues --    0.02959   0.03696   0.04582   0.05233   0.06472
 Alpha virt. eigenvalues --    0.07436   0.08933   0.09858   0.10138   0.11527
 Alpha virt. eigenvalues --    0.12305   0.12906   0.13725   0.14520   0.14748

 Mulliken charges:
               1
     1  N   -0.326518
     2  C    0.032800
     3  C    0.919822
     4  C    0.409081
     5  C    0.512706
     6  C    0.898875
     7  N   -1.030759
     8  H   -0.430769
     9  H   -0.352291
    10  H   -0.100497
    11  H   -0.125255
    12  H   -0.244637
    13  H   -0.162558
 Sum of Mulliken charges =  -0.00000

 Dipole moment (field-independent basis, Debye):
    X=             -2.1602    Y=             -0.0553    Z=             -1.5483  Tot=              2.6583

 Test job not archived.
 1\1\GINC-SE113\SP\RHF\Aug-CC-pVDZ\C5H6N2\OHZDE\09-Apr-2025\0\\#t hf au
 g-cc-pvdz iop(5/13=1,5/36=2,99/5=2) pseudo=read geom=check guess=(read
 ,tcheck) scf=(maxcycle=1)\\title\\0,1\N,0,1.95692572,-0.34666258,0.880
 09765\C,0,1.87881326,0.83711611,0.88581373\C,0,1.12491847,0.37018506,-
 0.56817499\C,0,0.01465639,-0.54699544,-0.882573\C,0,-0.85356185,-0.858
 51951,0.31892511\C,0,-0.9944662,0.66775458,0.47792069\N,0,-0.19492877,
 0.93361832,-0.75812941\H,0,1.83055296,0.6050226,-1.34892929\H,0,-0.004
 46999,-1.05761239,-1.83820293\H,0,-1.78850218,-1.3379801,0.03688914\H,

 Normal termination of Gaussian 16 at Wed Apr  9 16:46:09 2025.
