 Gaussian 16, Revision C.01,

 ----------------------------------------------------------------------
 #t hf aug-cc-pvdz symm=none int=(grid=ultrafine) guess=(read,tcheck) s
 table=(opt,rrhf)
 ----------------------------------------------------------------------
 -----
 title
 -----
 Symbolic Z-matrix:
 Charge =  0 Multiplicity = 1

 SCF Done:  E(RHF) =  -307.780948626     A.U. after   15 cycles

 1\1\GINC-SE162\Stability\RHF\Aug-CC-pVDZ\C6H10O1\OHZDE\09-Apr-2025\0\\
 #t hf aug-cc-pvdz symm=none int=(grid=ultrafine) guess=(read,tcheck) s
 table=(opt,rrhf)\\title\\0,1\C,0,1.82920976,-0.59204051,0.19742633\C,0
 ,0.61237301,0.19373581,0.66177507\C,0,0.08352059,1.24621903,-0.3299280
 8\C,0,-1.37061203,0.9263185,-0.42091212\C,0,-1.76717111,0.05005855,0.5
 6468026\C,0,-0.61614352,-0.61326598,0.93166685\O,0,-0.82161104,-1.0884
 0454,-1.27682953\H,0,1.59865836,-1.0867407,-0.74494859\H,0,2.68585673,
 0.07095307,0.06113791\H,0,2.10723429,-1.35024218,0.93272804\H,0,0.8684

 Normal termination of Gaussian 16 at Wed Apr  9 16:09:16 2025.
 Gaussian 16:  ES64L-G16RevC.01  3-Jul-2019

 ----------------------------------------------------------------------
 #t hf aug-cc-pvdz iop(5/13=1,5/36=2,99/5=2) pseudo=read geom=check gue
 ss=(read,tcheck) scf=(maxcycle=1)
 ----------------------------------------------------------------------
 -----
 title
 -----
 Structure from the checkpoint file:  "Grambow2020_wb97xd3_007816_reverse_mol1.chk"
 Charge =  0 Multiplicity = 1

                         Standard orientation:
 ---------------------------------------------------------------------
 Center     Atomic      Atomic             Coordinates (Angstroms)
 Number     Number       Type             X           Y           Z
 ---------------------------------------------------------------------
      1          6           0       -2.118393    0.254642   -0.060563
      2          6           0       -0.886413   -0.515855    0.389230
      3          6           0       -0.037259   -1.128155   -0.739888
      4          6           0        1.341222   -0.654416   -0.422906
      5          6           0        1.421561   -0.114505    0.841422
      6          6           0        0.134108    0.275263    1.141570
      7          8           0        0.627390    1.464988   -0.725689
      8          1           0       -1.815728    1.050751   -0.739207
      9          1           0       -2.822615   -0.408226   -0.567176
     10          1           0       -2.633459    0.699050    0.793863
     11          1           0       -1.217818   -1.307270    1.077311
     12          1           0       -0.356116   -0.778223   -1.719200
     13          1           0       -0.064731   -2.223859   -0.753978
     14          1           0        2.191353   -0.859137   -1.061749
     15          1           0        2.315965    0.286191    1.292170
     16          1           0       -0.132772    0.954752    1.942547
     17          1           0        0.387849    2.164216   -1.352263
 ---------------------------------------------------------------------

 SCF Done:  E(RHF) =  -307.873478128     A.U. after    2 cycles

 The electronic state is 1-A.
 Alpha  occ. eigenvalues --  -20.44877 -11.31600 -11.31490 -11.25876 -11.25035
 Alpha  occ. eigenvalues --  -11.23207 -11.22510  -1.18441  -1.11527  -1.02874
 Alpha  occ. eigenvalues --   -0.98440  -0.90383  -0.78627  -0.76026  -0.71360
 Alpha  occ. eigenvalues --   -0.64761  -0.59181  -0.57324  -0.57073  -0.54974
 Alpha  occ. eigenvalues --   -0.53973  -0.51463  -0.49395  -0.48938  -0.38755
 Alpha  occ. eigenvalues --   -0.36475  -0.35929
 Alpha virt. eigenvalues --    0.02966   0.03774   0.04326   0.04907   0.05773
 Alpha virt. eigenvalues --    0.05810   0.06363   0.06945   0.07514   0.08773
 Alpha virt. eigenvalues --    0.09092   0.11603   0.12093   0.12908   0.13984

 Mulliken charges:
               1
     1  C    0.669942
     2  C   -0.986918
     3  C    0.412316
     4  C    0.534360
     5  C    0.409198
     6  C    0.820131
     7  O   -0.689953
     8  H    0.039315
     9  H   -0.022373
    10  H   -0.073464
    11  H   -0.011958
    12  H   -0.050715
    13  H    0.038921
    14  H   -0.362363
    15  H   -0.380841
    16  H   -0.376840
    17  H    0.031242
 Sum of Mulliken charges =  -0.00000

 Dipole moment (field-independent basis, Debye):
    X=             -0.8866    Y=             -3.3044    Z=              1.2877  Tot=              3.6556

 Test job not archived.
 1\1\GINC-SE162\SP\RHF\Aug-CC-pVDZ\C6H10O1\OHZDE\09-Apr-2025\0\\#t hf a
 ug-cc-pvdz iop(5/13=1,5/36=2,99/5=2) pseudo=read geom=check guess=(rea
 d,tcheck) scf=(maxcycle=1)\\title\\0,1\C,0,1.82920976,-0.59204051,0.19
 742633\C,0,0.61237301,0.19373581,0.66177507\C,0,0.08352059,1.24621903,
 -0.32992808\C,0,-1.37061203,0.9263185,-0.42091212\C,0,-1.76717111,0.05
 005855,0.56468026\C,0,-0.61614352,-0.61326598,0.93166685\O,0,-0.821611
 04,-1.08840454,-1.27682953\H,0,1.59865836,-1.0867407,-0.74494859\H,0,2
 .68585673,0.07095307,0.06113791\H,0,2.10723429,-1.35024218,0.93272804\

 Normal termination of Gaussian 16 at Wed Apr  9 16:09:22 2025.
