 Gaussian 16, Revision C.01,

 ----------------------------------------------------------------------
 #t hf aug-cc-pvdz symm=none int=(grid=ultrafine) guess=(read,tcheck) s
 table=(opt,rrhf)
 ----------------------------------------------------------------------
 -----
 title
 -----
 Symbolic Z-matrix:
 Charge =  0 Multiplicity = 1

 SCF Done:  E(RHF) =  -322.699094842     A.U. after   15 cycles
 Normal termination of Gaussian 16 at Wed Apr  9 16:06:02 2025.
 Gaussian 16:  ES64L-G16RevC.01  3-Jul-2019

 ----------------------------------------------------------------------
 #t hf aug-cc-pvdz iop(5/13=1,5/36=2,99/5=2) pseudo=read geom=check gue
 ss=(read,tcheck) scf=(maxcycle=1)
 ----------------------------------------------------------------------
 -----
 title
 -----
 Structure from the checkpoint file:  "Grambow2020_wb97xd3_007752_reverse_mol2.chk"
 Charge =  0 Multiplicity = 1

                         Standard orientation:
 ---------------------------------------------------------------------
 Center     Atomic      Atomic             Coordinates (Angstroms)
 Number     Number       Type             X           Y           Z
 ---------------------------------------------------------------------
      1          6           0       -2.149071   -1.052332    0.211871
      2          6           0       -0.925348   -0.217062   -0.034431
      3          6           0        0.289424   -0.939823   -0.459546
      4          6           0        1.503648   -0.665618   -0.049313
      5          7           0        2.635151   -0.308466    0.235492
      6          8           0        0.034986    1.992306   -0.121341
      7          6           0       -0.964696    1.109906    0.101392
      8          1           0       -3.004485   -0.429582    0.475628
      9          1           0       -2.417784   -1.628227   -0.678918
     10          1           0       -1.985395   -1.767867    1.022096
     11          1           0        0.186605   -1.789849   -1.126771
     12          1           0        3.036330   -0.725772    1.071149
     13          1           0       -1.870545    1.613924    0.416913
     14          1           0        0.805600    1.537754   -0.477648
 ---------------------------------------------------------------------

 SCF Done:  E(RHF) =  -322.799846636     A.U. after    2 cycles

 The electronic state is 1-A.
 Alpha  occ. eigenvalues --  -20.59745 -15.65897 -11.33690 -11.30038 -11.25972
 Alpha  occ. eigenvalues --  -11.24710 -11.23800  -1.36286  -1.22783  -1.09761
 Alpha  occ. eigenvalues --   -1.00393  -0.92877  -0.82140  -0.77533  -0.71585
 Alpha  occ. eigenvalues --   -0.67396  -0.64267  -0.59554  -0.57224  -0.57162
 Alpha  occ. eigenvalues --   -0.56180  -0.54145  -0.53792  -0.46936  -0.39683
 Alpha  occ. eigenvalues --   -0.31045
 Alpha virt. eigenvalues --    0.03052   0.04076   0.04428   0.05095   0.06318
 Alpha virt. eigenvalues --    0.06805   0.07728   0.10267   0.10642   0.11579
 Alpha virt. eigenvalues --    0.12085   0.13388   0.13774   0.14055   0.14676

 Mulliken charges:
               1
     1  C    0.208924
     2  C   -0.203337
     3  C    1.116248
     4  C   -0.810772
     5  N   -0.167308
     6  O   -0.511345
     7  C    0.939817
     8  H   -0.155546
     9  H    0.056385
    10  H    0.069200
    11  H   -0.396276
    12  H    0.079897
    13  H   -0.350633
    14  H    0.124748
 Sum of Mulliken charges =  -0.00000

 Dipole moment (field-independent basis, Debye):
    X=             -0.4824    Y=             -2.4398    Z=              0.6781  Tot=              2.5778

 Test job not archived.
 1\1\GINC-SE113\SP\RHF\Aug-CC-pVDZ\C5H7N1O1\OHZDE\09-Apr-2025\0\\#t hf
 aug-cc-pvdz iop(5/13=1,5/36=2,99/5=2) pseudo=read geom=check guess=(re
 ad,tcheck) scf=(maxcycle=1)\\title\\0,1\C,0,-1.90479384,-0.51909605,-0
 .18862819\C,0,-0.56153471,0.13453755,-0.03287989\C,0,0.54792194,-0.448
 88332,-0.81230573\C,0,1.77222829,-0.60124627,-0.36995161\N,0,2.9321242
 7,-0.60772967,0.00895507\O,0,0.71981577,1.91864444,0.96019822\C,0,-0.4
 0816436,1.20336709,0.75128951\H,0,-2.66768827,0.00658234,0.38650003\H,
 0,-2.22078167,-0.52343691,-1.23624404\H,0,-1.88173349,-1.55954534,0.14

 Normal termination of Gaussian 16 at Wed Apr  9 16:06:08 2025.
