 Gaussian 16, Revision C.01,

 ----------------------------------------------------------------------
 #t hf aug-cc-pvdz symm=none int=(grid=ultrafine) guess=(read,tcheck) s
 table=(opt,rrhf)
 ----------------------------------------------------------------------
 -----
 title
 -----
 Symbolic Z-matrix:
 Charge =  0 Multiplicity = 1

 SCF Done:  E(RHF) =  -302.908416578     A.U. after   14 cycles
 Normal termination of Gaussian 16 at Wed Apr  9 03:34:28 2025.
 Gaussian 16:  ES64L-G16RevC.01  3-Jul-2019

 ----------------------------------------------------------------------
 #t hf aug-cc-pvdz iop(5/13=1,5/36=2,99/5=2) pseudo=read geom=check gue
 ss=(read,tcheck) scf=(maxcycle=1)
 ----------------------------------------------------------------------
 -----
 title
 -----
 Structure from the checkpoint file:  "Grambow2020_wb97xd3_007166_reverse_mol2.chk"
 Charge =  0 Multiplicity = 1

                         Standard orientation:
 ---------------------------------------------------------------------
 Center     Atomic      Atomic             Coordinates (Angstroms)
 Number     Number       Type             X           Y           Z
 ---------------------------------------------------------------------
      1          6           0       -1.994651   -1.069459    0.140696
      2          6           0       -0.699781   -0.282055    0.273597
      3          6           0        0.480973   -1.098147   -0.274924
      4          7           0       -0.799628    0.940218   -0.501334
      5          6           0       -0.569295    2.030858    0.080805
      6          6           0        1.761148   -0.438266   -0.035607
      7          7           0        2.753078    0.096666    0.177939
      8          1           0       -2.196583   -1.293336   -0.908166
      9          1           0       -2.830705   -0.486715    0.527846
     10          1           0       -1.940845   -2.005426    0.699752
     11          1           0       -0.505927   -0.067101    1.335186
     12          1           0        0.353491   -1.239873   -1.350316
     13          1           0        0.508211   -2.083033    0.195684
     14          1           0       -0.625372    2.957244   -0.486793
     15          1           0       -0.306784    2.102469    1.143166
 ---------------------------------------------------------------------

 SCF Done:  E(RHF) =  -302.999921911     A.U. after    2 cycles

 The electronic state is 1-A.
 Alpha  occ. eigenvalues --  -15.64040 -15.63362 -11.29930 -11.29671 -11.29066
 Alpha  occ. eigenvalues --  -11.28378 -11.24373  -1.22920  -1.19239  -1.08256
 Alpha  occ. eigenvalues --   -0.98798  -0.87960  -0.79430  -0.71417  -0.69106
 Alpha  occ. eigenvalues --   -0.65175  -0.62219  -0.60082  -0.56117  -0.55307
 Alpha  occ. eigenvalues --   -0.53483  -0.51445  -0.46048  -0.45847  -0.43527
 Alpha  occ. eigenvalues --   -0.41779
 Alpha virt. eigenvalues --    0.02960   0.03665   0.04117   0.04932   0.06330
 Alpha virt. eigenvalues --    0.06906   0.07226   0.07795   0.08788   0.10791
 Alpha virt. eigenvalues --    0.12141   0.12872   0.13154   0.14037   0.14463

 Mulliken charges:
               1
     1  C    0.697164
     2  C   -0.267664
     3  C    0.689371
     4  N   -0.534722
     5  C    0.593799
     6  C   -0.271296
     7  N   -0.185981
     8  H    0.013579
     9  H   -0.034851
    10  H   -0.013918
    11  H   -0.202457
    12  H   -0.003858
    13  H    0.010571
    14  H   -0.263383
    15  H   -0.226352
 Sum of Mulliken charges =  -0.00000

 Dipole moment (field-independent basis, Debye):
    X=             -3.4729    Y=             -1.0915    Z=              0.9435  Tot=              3.7606

 Test job not archived.
 1\1\GINC-SE344\SP\RHF\Aug-CC-pVDZ\C5H8N2\OHZDE\09-Apr-2025\0\\#t hf au
 g-cc-pvdz iop(5/13=1,5/36=2,99/5=2) pseudo=read geom=check guess=(read
 ,tcheck) scf=(maxcycle=1)\\title\\0,1\C,0,-1.52931104,-0.67239397,0.73
 491582\C,0,-0.18771475,-0.33673071,0.10103433\C,0,-0.38198024,0.615621
 96,-1.08907036\N,0,0.65124843,0.33077116,1.07828533\C,0,1.79464192,-0.
 1436468,1.29967496\C,0,0.86411946,0.84869667,-1.81327702\N,0,1.8547494
 8,1.00276132,-2.37058734\H,0,-2.01255698,0.23433286,1.10278728\H,0,-1.
 3878553,-1.34563994,1.58060553\H,0,-2.18947979,-1.15978192,0.01512174\

 Normal termination of Gaussian 16 at Wed Apr  9 03:34:33 2025.
