 Gaussian 16, Revision C.01,

 ----------------------------------------------------------------------
 #t hf aug-cc-pvdz symm=none int=(grid=ultrafine) guess=(read,tcheck) s
 table=(opt,rrhf)
 ----------------------------------------------------------------------
 -----
 title
 -----
 Symbolic Z-matrix:
 Charge =  0 Multiplicity = 1

 SCF Done:  E(RHF) =  -307.719278684     A.U. after   15 cycles

 1\1\GINC-SE226\Stability\RHF\Aug-CC-pVDZ\C6H10O1\OHZDE\09-Apr-2025\0\\
 #t hf aug-cc-pvdz symm=none int=(grid=ultrafine) guess=(read,tcheck) s
 table=(opt,rrhf)\\title\\0,1\C,0,1.81904832,-0.68663919,-0.14941599\C,
 0,0.93810226,0.09132012,0.76593526\C,0,-0.02508327,1.62577623,-0.41185
 305\C,0,-1.20176077,0.82268525,0.12628798\O,0,-1.75892245,-0.0613354,-
 0.8483859\C,0,-1.20465567,-1.20977067,-0.18040081\C,0,-0.51627764,-0.3
 2949489,0.87501634\H,0,2.05223291,-1.5942937,0.42352336\H,0,2.76648018
 ,-0.18192719,-0.34003469\H,0,1.38849414,-1.02260887,-1.10173683\H,0,0.

 Normal termination of Gaussian 16 at Wed Apr  9 16:31:17 2025.
 Gaussian 16:  ES64L-G16RevC.01  3-Jul-2019

 ----------------------------------------------------------------------
 #t hf aug-cc-pvdz iop(5/13=1,5/36=2,99/5=2) pseudo=read geom=check gue
 ss=(read,tcheck) scf=(maxcycle=1)
 ----------------------------------------------------------------------
 -----
 title
 -----
 Structure from the checkpoint file:  "Grambow2020_wb97xd3_008494_forward_mol1.chk"
 Charge =  0 Multiplicity = 1

                         Standard orientation:
 ---------------------------------------------------------------------
 Center     Atomic      Atomic             Coordinates (Angstroms)
 Number     Number       Type             X           Y           Z
 ---------------------------------------------------------------------
      1          6           0        2.101713   -0.440007   -0.417814
      2          6           0        1.255067    0.163532    0.648997
      3          6           0       -0.014454    1.639013   -0.289479
      4          6           0       -1.016584    0.664258    0.314433
      5          8           0       -1.582739   -0.218090   -0.656567
      6          6           0       -0.822830   -1.329397   -0.146807
      7          6           0       -0.117055   -0.439686    0.889026
      8          1           0        2.505796   -1.346469    0.052841
      9          1           0        2.954471    0.188888   -0.674704
     10          1           0        1.600017   -0.765401   -1.338459
     11          1           0        1.020354    1.438165    0.368107
     12          1           0       -0.126356    2.688911   -0.015061
     13          1           0        0.100749    1.518182   -1.363124
     14          1           0       -1.782305    1.125762    0.941482
     15          1           0       -0.207024   -1.795864   -0.920489
     16          1           0       -1.478782   -2.088401    0.289416
     17          1           0       -0.240153   -0.765329    1.922399
 ---------------------------------------------------------------------

 SCF Done:  E(RHF) =  -307.812136292     A.U. after    2 cycles

 The electronic state is 1-A.
 Alpha  occ. eigenvalues --  -20.56625 -11.30286 -11.28728 -11.26048 -11.26030
 Alpha  occ. eigenvalues --  -11.24210 -11.23530  -1.35389  -1.09559  -1.00037
 Alpha  occ. eigenvalues --   -0.97345  -0.88349  -0.82111  -0.70959  -0.70705
 Alpha  occ. eigenvalues --   -0.67300  -0.63794  -0.60275  -0.58058  -0.57610
 Alpha  occ. eigenvalues --   -0.55960  -0.52473  -0.50278  -0.49233  -0.44411
 Alpha  occ. eigenvalues --   -0.43111  -0.30675
 Alpha virt. eigenvalues --    0.03397   0.04145   0.04244   0.05174   0.06038
 Alpha virt. eigenvalues --    0.06230   0.06673   0.07083   0.08531   0.09697
 Alpha virt. eigenvalues --    0.10231   0.10776   0.12881   0.13032   0.14227

 Mulliken charges:
               1
     1  C    0.581753
     2  C   -0.847708
     3  C    0.449739
     4  C    0.605449
     5  O   -0.847263
     6  C    1.071966
     7  C    0.274083
     8  H    0.019090
     9  H   -0.097666
    10  H   -0.151668
    11  H    0.140115
    12  H   -0.134564
    13  H   -0.079550
    14  H   -0.303975
    15  H   -0.194746
    16  H   -0.207651
    17  H   -0.277406
 Sum of Mulliken charges =  -0.00000

 Dipole moment (field-independent basis, Debye):
    X=              0.5150    Y=             -0.1371    Z=              0.1529  Tot=              0.5545

 Test job not archived.
 1\1\GINC-SE226\SP\RHF\Aug-CC-pVDZ\C6H10O1\OHZDE\09-Apr-2025\0\\#t hf a
 ug-cc-pvdz iop(5/13=1,5/36=2,99/5=2) pseudo=read geom=check guess=(rea
 d,tcheck) scf=(maxcycle=1)\\title\\0,1\C,0,1.81904832,-0.68663919,-0.1
 4941599\C,0,0.93810226,0.09132012,0.76593526\C,0,-0.02508327,1.6257762
 3,-0.41185305\C,0,-1.20176077,0.82268525,0.12628798\O,0,-1.75892245,-0
 .0613354,-0.8483859\C,0,-1.20465567,-1.20977067,-0.18040081\C,0,-0.516
 27764,-0.32949489,0.87501634\H,0,2.05223291,-1.5942937,0.42352336\H,0,
 2.76648018,-0.18192719,-0.34003469\H,0,1.38849414,-1.02260887,-1.10173

 Normal termination of Gaussian 16 at Wed Apr  9 16:31:23 2025.
