 Gaussian 16, Revision C.01,

 ----------------------------------------------------------------------
 #t hf aug-cc-pvdz symm=none int=(grid=ultrafine) guess=(read,tcheck) s
 table=(opt,rrhf)
 ----------------------------------------------------------------------
 -----
 title
 -----
 Symbolic Z-matrix:
 Charge =  0 Multiplicity = 1

 SCF Done:  E(RHF) =  -324.921936397     A.U. after   16 cycles
 Normal termination of Gaussian 16 at Wed Apr  9 16:21:30 2025.
 Gaussian 16:  ES64L-G16RevC.01  3-Jul-2019

 ----------------------------------------------------------------------
 #t hf aug-cc-pvdz iop(5/13=1,5/36=2,99/5=2) pseudo=read geom=check gue
 ss=(read,tcheck) scf=(maxcycle=1)
 ----------------------------------------------------------------------
 -----
 title
 -----
 Structure from the checkpoint file:  "Grambow2020_wb97xd3_008116_reverse_mol1.chk"
 Charge =  0 Multiplicity = 1

                         Standard orientation:
 ---------------------------------------------------------------------
 Center     Atomic      Atomic             Coordinates (Angstroms)
 Number     Number       Type             X           Y           Z
 ---------------------------------------------------------------------
      1          6           0        2.695631    0.064355   -0.094040
      2          7           0        1.474681   -0.651986    0.193866
      3          6           0        0.249908   -0.115111    0.050703
      4          8           0        0.160418    1.030523   -0.492220
      5          6           0       -0.927091   -0.739338    0.532253
      6          6           0       -1.560862    1.507085    0.317503
      7          6           0       -1.998286   -1.165093   -0.441081
      8          1           0        3.024115   -0.081723   -1.125889
      9          1           0        3.485962   -0.266546    0.580937
     10          1           0        2.515321    1.128150    0.052980
     11          1           0        1.528842   -1.623202    0.436765
     12          1           0       -0.781414   -1.437165    1.357701
     13          1           0       -1.532688    2.263891   -0.456898
     14          1           0       -1.195435    1.840974    1.277826
     15          1           0       -2.521566    1.007074    0.363431
     16          1           0       -3.003556   -0.990647   -0.033056
     17          1           0       -1.936718   -0.601904   -1.374906
     18          1           0       -1.944772   -2.230576   -0.690227
 ---------------------------------------------------------------------

 SCF Done:  E(RHF) =  -325.026057952     A.U. after    2 cycles

 The electronic state is 1-A.
 Alpha  occ. eigenvalues --  -20.53845 -15.64246 -11.34057 -11.32493 -11.26506
 Alpha  occ. eigenvalues --  -11.21700 -11.18078  -1.33517  -1.19065  -1.01622
 Alpha  occ. eigenvalues --   -0.95581  -0.92949  -0.84847  -0.77295  -0.67911
 Alpha  occ. eigenvalues --   -0.65236  -0.63220  -0.61312  -0.60785  -0.57720
 Alpha  occ. eigenvalues --   -0.55774  -0.54360  -0.52583  -0.50703  -0.48916
 Alpha  occ. eigenvalues --   -0.44072  -0.39832  -0.26185
 Alpha virt. eigenvalues --    0.03260   0.03758   0.04390   0.04640   0.06226
 Alpha virt. eigenvalues --    0.06315   0.06705   0.07164   0.07936   0.08518
 Alpha virt. eigenvalues --    0.09182   0.10415   0.11956   0.13198   0.14350

 Mulliken charges:
               1
     1  C    0.791687
     2  N   -0.261755
     3  C    0.416570
     4  O   -0.650668
     5  C    0.130564
     6  C    0.760608
     7  C    0.484939
     8  H   -0.101220
     9  H   -0.181832
    10  H   -0.134953
    11  H   -0.108222
    12  H   -0.441524
    13  H   -0.082345
    14  H   -0.048243
    15  H   -0.196774
    16  H   -0.092012
    17  H   -0.140310
    18  H   -0.144512
 Sum of Mulliken charges =  -0.00000

 Dipole moment (field-independent basis, Debye):
    X=              0.6772    Y=             -0.4588    Z=              1.0204  Tot=              1.3078

 Test job not archived.
 1\1\GINC-SE026\SP\RHF\Aug-CC-pVDZ\C5H11N1O1\OHZDE\09-Apr-2025\0\\#t hf
  aug-cc-pvdz iop(5/13=1,5/36=2,99/5=2) pseudo=read geom=check guess=(r
 ead,tcheck) scf=(maxcycle=1)\\title\\0,1\C,0,2.82076809,0.16297588,-0.
 11252552\N,0,1.51444936,0.53160401,-0.60689126\C,0,0.36636116,0.063540
 76,-0.08572913\O,0,0.43265336,-0.62933936,0.97764799\C,0,-0.89501478,0
 .25553331,-0.70131712\C,0,-1.25979042,-1.58224156,0.70712915\C,0,-1.96
 058273,1.05072989,0.01165812\H,0,3.17872663,0.85223409,0.65607254\H,0,
 3.53600347,0.14593256,-0.93584736\H,0,2.75525432,-0.82929179,0.3312067

 Normal termination of Gaussian 16 at Wed Apr  9 16:21:36 2025.
