 Gaussian 16, Revision C.01,

 ----------------------------------------------------------------------
 #t hf aug-cc-pvdz symm=none int=(grid=ultrafine) guess=(read,tcheck) s
 table=(opt,rrhf)
 ----------------------------------------------------------------------
 -----
 title
 -----
 Symbolic Z-matrix:
 Charge =  0 Multiplicity = 1

 SCF Done:  E(RHF) =  -306.614194181     A.U. after   15 cycles
 Normal termination of Gaussian 16 at Wed Apr  9 16:22:11 2025.
 Gaussian 16:  ES64L-G16RevC.01  3-Jul-2019

 ----------------------------------------------------------------------
 #t hf aug-cc-pvdz iop(5/13=1,5/36=2,99/5=2) pseudo=read geom=check gue
 ss=(read,tcheck) scf=(maxcycle=1)
 ----------------------------------------------------------------------
 -----
 title
 -----
 Structure from the checkpoint file:  "Grambow2020_wb97xd3_008154_reverse_mol2.chk"
 Charge =  0 Multiplicity = 1

                         Standard orientation:
 ---------------------------------------------------------------------
 Center     Atomic      Atomic             Coordinates (Angstroms)
 Number     Number       Type             X           Y           Z
 ---------------------------------------------------------------------
      1          8           0       -2.077578    0.131882   -0.008043
      2          6           0       -0.698416    0.108877   -0.006368
      3          6           0        0.088654   -0.769090   -1.045236
      4          6           0        1.203407   -0.677128    0.008032
      5          6           0        1.451780    0.834885   -0.022415
      6          6           0        0.046056    1.364734   -0.005571
      7          6           0        0.099105   -0.719091    1.076594
      8          1           0       -2.339645    1.057104    0.011718
      9          1           0        0.268359   -0.352959   -2.037610
     10          1           0       -0.380761   -1.750225   -1.113085
     11          1           0        2.046427   -1.363285    0.018321
     12          1           0        2.008354    1.237290    0.830592
     13          1           0        1.962086    1.206827   -0.918235
     14          1           0        0.288882   -0.256728    2.046332
     15          1           0       -0.376598   -1.692201    1.196093
 ---------------------------------------------------------------------

 SCF Done:  E(RHF) =  -306.702951308     A.U. after    2 cycles

 The electronic state is 1-A.
 Alpha  occ. eigenvalues --  -20.57659 -11.30412 -11.27034 -11.25396 -11.25337
 Alpha  occ. eigenvalues --  -11.25216 -11.24645  -1.34394  -1.19935  -0.98781
 Alpha  occ. eigenvalues --   -0.93042  -0.91857  -0.78405  -0.75808  -0.68794
 Alpha  occ. eigenvalues --   -0.63823  -0.62548  -0.62033  -0.59822  -0.53508
 Alpha  occ. eigenvalues --   -0.53185  -0.49595  -0.47149  -0.45905  -0.43519
 Alpha  occ. eigenvalues --   -0.35885
 Alpha virt. eigenvalues --    0.03108   0.04276   0.04510   0.04812   0.06447
 Alpha virt. eigenvalues --    0.06655   0.06676   0.07478   0.08795   0.09337
 Alpha virt. eigenvalues --    0.12033   0.12166   0.12856   0.14041   0.14237

 Mulliken charges:
               1
     1  O   -0.694695
     2  C    0.671607
     3  C    0.438997
     4  C    0.536514
     5  C    0.491073
     6  C   -0.547779
     7  C    0.455671
     8  H    0.155818
     9  H   -0.224728
    10  H   -0.204282
    11  H   -0.348161
    12  H   -0.147678
    13  H   -0.129865
    14  H   -0.243032
    15  H   -0.209458
 Sum of Mulliken charges =  -0.00000

 Dipole moment (field-independent basis, Debye):
    X=              2.0873    Y=             -1.1323    Z=              0.0124  Tot=              2.3746

 Test job not archived.
 1\1\GINC-SE105\SP\RHF\Aug-CC-pVDZ\C6H8O1\OHZDE\09-Apr-2025\0\\#t hf au
 g-cc-pvdz iop(5/13=1,5/36=2,99/5=2) pseudo=read geom=check guess=(read
 ,tcheck) scf=(maxcycle=1)\\title\\0,1\O,0,2.09219726,0.87122901,-0.373
 67353\C,0,0.82080299,0.40862661,-0.10501858\C,0,0.55019406,-1.12871696
 ,0.07635317\C,0,-0.8843471,-0.7269836,-0.29941861\C,0,-1.20747934,0.18
 581068,0.88851704\C,0,0.04601303,1.00924524,0.97681946\C,0,-0.2681248,
 0.31644885,-1.24524437\H,0,2.26188702,1.58997031,0.24254237\H,0,0.7319
 415,-1.56991556,1.05746355\H,0,1.07749443,-1.67925215,-0.70239331\H,0,

 Normal termination of Gaussian 16 at Wed Apr  9 16:22:16 2025.
