 Gaussian 16, Revision C.01,

 ----------------------------------------------------------------------
 #t hf aug-cc-pvdz symm=none int=(grid=ultrafine) guess=(read,tcheck) s
 table=(opt,rrhf)
 ----------------------------------------------------------------------
 -----
 title
 -----
 Symbolic Z-matrix:
 Charge =  0 Multiplicity = 1

 SCF Done:  E(RHF) =  -324.886241056     A.U. after   14 cycles
 Normal termination of Gaussian 16 at Wed Apr  9 04:05:02 2025.
 Gaussian 16:  ES64L-G16RevC.01  3-Jul-2019

 ----------------------------------------------------------------------
 #t hf aug-cc-pvdz iop(5/13=1,5/36=2,99/5=2) pseudo=read geom=check gue
 ss=(read,tcheck) scf=(maxcycle=1)
 ----------------------------------------------------------------------
 -----
 title
 -----
 Structure from the checkpoint file:  "Grambow2020_wb97xd3_009229_reverse_mol1.chk"
 Charge =  0 Multiplicity = 1

                         Standard orientation:
 ---------------------------------------------------------------------
 Center     Atomic      Atomic             Coordinates (Angstroms)
 Number     Number       Type             X           Y           Z
 ---------------------------------------------------------------------
      1          6           0       -2.891236   -0.157861   -0.378656
      2          8           0       -1.823263    0.207782    0.459319
      3          6           0       -0.581401    0.062760   -0.140743
      4          6           0        0.519916    1.084536    0.202072
      5          7           0        1.382415   -0.041881   -0.268725
      6          6           0        2.828788   -0.094894   -0.198730
      7          6           0        0.435893   -0.977908    0.405706
      8          1           0       -3.815336    0.050450    0.163086
      9          1           0       -2.859964   -1.224880   -0.630138
     10          1           0       -2.874942    0.414469   -1.312153
     11          1           0        0.605897   -0.092827   -1.183416
     12          1           0        0.623326    2.002885   -0.376719
     13          1           0        0.693416    1.259203    1.272130
     14          1           0        3.181691   -0.002802    0.830095
     15          1           0        3.247279    0.718433   -0.791987
     16          1           0        3.174557   -1.044001   -0.608743
     17          1           0        0.600638   -0.953530    1.490427
     18          1           0        0.460882   -1.996289    0.016041
 ---------------------------------------------------------------------

 SCF Done:  E(RHF) =  -324.988423929     A.U. after    2 cycles

 The electronic state is 1-A.
 Alpha  occ. eigenvalues --  -20.54002 -15.69008 -11.29135 -11.26450 -11.26332
 Alpha  occ. eigenvalues --  -11.25277 -11.22811  -1.31158  -1.27375  -1.04286
 Alpha  occ. eigenvalues --   -0.92369  -0.91672  -0.83821  -0.78022  -0.69674
 Alpha  occ. eigenvalues --   -0.68482  -0.64205  -0.61690  -0.61260  -0.58711
 Alpha  occ. eigenvalues --   -0.55677  -0.53750  -0.50801  -0.48752  -0.48350
 Alpha  occ. eigenvalues --   -0.47334  -0.39188  -0.27576
 Alpha virt. eigenvalues --    0.02779   0.04174   0.04248   0.04704   0.06199
 Alpha virt. eigenvalues --    0.06796   0.06944   0.07496   0.07773   0.08627
 Alpha virt. eigenvalues --    0.09067   0.10678   0.13527   0.13940   0.14236

 Mulliken charges:
               1
     1  C    0.732102
     2  O   -0.625747
     3  C   -0.220094
     4  C    0.802189
     5  N   -0.765444
     6  C    0.821360
     7  C    0.798908
     8  H   -0.244468
     9  H   -0.090692
    10  H   -0.086600
    11  H    0.521829
    12  H   -0.279261
    13  H   -0.299219
    14  H   -0.114660
    15  H   -0.181399
    16  H   -0.179639
    17  H   -0.307506
    18  H   -0.281659
 Sum of Mulliken charges =  -0.00000

 Dipole moment (field-independent basis, Debye):
    X=              4.1264    Y=             -0.4966    Z=             -0.3515  Tot=              4.1710

 Test job not archived.
 1\1\GINC-SE292\SP\RHF\Aug-CC-pVDZ\C5H11N1O1\OHZDE\09-Apr-2025\0\\#t hf
  aug-cc-pvdz iop(5/13=1,5/36=2,99/5=2) pseudo=read geom=check guess=(r
 ead,tcheck) scf=(maxcycle=1)\\title\\0,1\C,0,3.00744497,0.4106654,-0.3
 8542057\O,0,1.80759067,0.92628051,0.13511125\C,0,0.72886153,0.06900197
 ,-0.02218804\C,0,-0.3389144,0.02632961,1.08798325\N,0,-1.155409,-0.508
 00659,-0.04435603\C,0,-2.57896447,-0.77708467,-0.01623237\C,0,-0.46426
 23,0.47046046,-0.93420327\H,0,3.79613324,1.12941816,-0.15694117\H,0,2.
 9518404,0.27830077,-1.47268219\H,0,3.24999837,-0.55744809,0.06532284\H

 Normal termination of Gaussian 16 at Wed Apr  9 04:05:08 2025.
