 Gaussian 16, Revision C.01,

 ----------------------------------------------------------------------
 #t hf aug-cc-pvdz symm=none int=(grid=ultrafine) guess=(read,tcheck) s
 table=(opt,rrhf)
 ----------------------------------------------------------------------
 -----
 title
 -----
 Symbolic Z-matrix:
 Charge =  0 Multiplicity = 1

 SCF Done:  E(RHF) =  -268.655250405     A.U. after   16 cycles
 Normal termination of Gaussian 16 at Wed Apr  9 03:16:39 2025.
 Gaussian 16:  ES64L-G16RevC.01  3-Jul-2019

 ----------------------------------------------------------------------
 #t hf aug-cc-pvdz iop(5/13=1,5/36=2,99/5=2) pseudo=read geom=check gue
 ss=(read,tcheck) scf=(maxcycle=1)
 ----------------------------------------------------------------------
 -----
 title
 -----
 Structure from the checkpoint file:  "Grambow2020_b97d3_007082_forward_mol1.chk"
 Charge =  0 Multiplicity = 1

                         Standard orientation:
 ---------------------------------------------------------------------
 Center     Atomic      Atomic             Coordinates (Angstroms)
 Number     Number       Type             X           Y           Z
 ---------------------------------------------------------------------
      1          6           0        2.022475   -0.585266   -0.210536
      2          6           0        0.690578   -0.351530    0.436320
      3          6           0       -0.638797   -0.298282   -0.368297
      4          8           0       -1.647883   -1.143960    0.158810
      5          6           0       -0.916564    1.172924   -0.565096
      6          6           0        0.038537    1.656801    0.286005
      7          1           0        2.189374   -1.668961   -0.353933
      8          1           0        2.833774   -0.233210    0.444225
      9          1           0        2.110037   -0.084648   -1.182301
     10          1           0        0.199365    1.089012    1.267381
     11          1           0        0.625514   -0.811570    1.436078
     12          1           0       -0.378645   -0.705706   -1.365796
     13          1           0       -2.210900   -0.577571    0.719083
     14          1           0        0.637173    2.576445    0.294413
 ---------------------------------------------------------------------

 SCF Done:  E(RHF) =  -268.734636658     A.U. after    2 cycles

 The electronic state is 1-A.
 Alpha  occ. eigenvalues --  -20.58596 -11.34616 -11.31141 -11.27482 -11.25712
 Alpha  occ. eigenvalues --  -11.21756  -1.33392  -1.11823  -1.02627  -0.91045
 Alpha  occ. eigenvalues --   -0.85200  -0.75081  -0.67959  -0.65730  -0.63787
 Alpha  occ. eigenvalues --   -0.61304  -0.59048  -0.57194  -0.55499  -0.48884
 Alpha  occ. eigenvalues --   -0.47763  -0.37187  -0.31189
 Alpha virt. eigenvalues --    0.02501   0.03899   0.04253   0.04906   0.05937
 Alpha virt. eigenvalues --    0.06376   0.07009   0.07351   0.07609   0.10014
 Alpha virt. eigenvalues --    0.11610   0.12538   0.13648   0.14519   0.14987

 Mulliken charges:
               1
     1  C    0.263877
     2  C   -0.153835
     3  C    0.782242
     4  O   -0.591439
     5  C   -0.573275
     6  C    0.467638
     7  H    0.091814
     8  H   -0.000600
     9  H   -0.029544
    10  H    0.174185
    11  H   -0.227719
    12  H   -0.107602
    13  H    0.182814
    14  H   -0.278556
 Sum of Mulliken charges =  -0.00000

 Dipole moment (field-independent basis, Debye):
    X=              4.2424    Y=             -1.5992    Z=              2.7545  Tot=              5.3049

 Test job not archived.
 1\1\GINC-SE094\SP\RHF\Aug-CC-pVDZ\C5H8O1\OHZDE\09-Apr-2025\0\\#t hf au
 g-cc-pvdz iop(5/13=1,5/36=2,99/5=2) pseudo=read geom=check guess=(read
 ,tcheck) scf=(maxcycle=1)\\title\\0,1\C,0,-1.26797659,1.20602132,-0.14
 800665\C,0,-0.57195337,-0.1210377,-0.10967358\C,0,0.7124167,-0.3745759
 7,0.72913257\O,0,0.62174073,-1.51881838,1.56205043\C,0,1.85143752,-0.2
 4755685,-0.25414235\C,0,1.1042063,-0.21404661,-1.39924122\H,0,-1.94412
 669,1.30478139,0.72140714\H,0,-1.90461338,1.27936954,-1.04253214\H,0,-
 0.56537795,2.048015,-0.14415264\H,0,0.1955172,-0.90905206,-1.4502464\H

 Normal termination of Gaussian 16 at Wed Apr  9 03:16:43 2025.
