 Gaussian 16, Revision C.01,

 ----------------------------------------------------------------------
 #t hf aug-cc-pvdz symm=none int=(grid=ultrafine) guess=(read,tcheck) s
 table=(opt,rrhf)
 ----------------------------------------------------------------------
 -----
 title
 -----
 Symbolic Z-matrix:
 Charge =  0 Multiplicity = 1

 SCF Done:  E(RHF) =  -245.672192637     A.U. after   17 cycles
 Normal termination of Gaussian 16 at Wed Apr  9 14:20:01 2025.
 Gaussian 16:  ES64L-G16RevC.01  3-Jul-2019

 ----------------------------------------------------------------------
 #t hf aug-cc-pvdz iop(5/13=1,5/36=2,99/5=2) pseudo=read geom=check gue
 ss=(read,tcheck) scf=(maxcycle=1)
 ----------------------------------------------------------------------
 -----
 title
 -----
 Structure from the checkpoint file:  "Grambow2020_b97d3_007204_reverse_mol1.chk"
 Charge =  0 Multiplicity = 1

                         Standard orientation:
 ---------------------------------------------------------------------
 Center     Atomic      Atomic             Coordinates (Angstroms)
 Number     Number       Type             X           Y           Z
 ---------------------------------------------------------------------
      1          8           0       -1.296928   -1.011133   -0.038193
      2          6           0       -1.983746    0.055517    0.037966
      3          6           0       -1.147856    1.126209   -0.224814
      4          6           0        2.608976   -0.065910   -0.125584
      5          7           0        1.412333    0.104122    0.278137
      6          1           0       -3.087248    0.072126    0.117285
      7          1           0       -0.454414    1.574448    0.489731
      8          1           0        3.285927    0.797763   -0.155336
      9          1           0        3.038079   -1.027450   -0.454302
     10          1           0        0.842511   -0.751574    0.235802
 ---------------------------------------------------------------------

 SCF Done:  E(RHF) =  -245.747058802     A.U. after    2 cycles

 The electronic state is 1-A.
 Alpha  occ. eigenvalues --  -20.56340 -15.62546 -11.36479 -11.31510 -11.29798
 Alpha  occ. eigenvalues --   -1.33270  -1.17051  -1.00007  -0.83920  -0.79556
 Alpha  occ. eigenvalues --   -0.68234  -0.67804  -0.63397  -0.60257  -0.55888
 Alpha  occ. eigenvalues --   -0.45923  -0.44195  -0.42058  -0.38248
 Alpha virt. eigenvalues --    0.02694   0.03910   0.04054   0.05261   0.06316
 Alpha virt. eigenvalues --    0.08327   0.08765   0.09134   0.10039   0.12205
 Alpha virt. eigenvalues --    0.13012   0.14290   0.15653   0.16045   0.16389

 Mulliken charges:
               1
     1  O   -0.602945
     2  C    0.775729
     3  C   -0.046829
     4  C    0.554610
     5  N   -0.244322
     6  H   -0.055638
     7  H   -0.059281
     8  H   -0.238152
     9  H   -0.157087
    10  H    0.073916
 Sum of Mulliken charges =  -0.00000

 Dipole moment (field-independent basis, Debye):
    X=             -0.1421    Y=              1.6210    Z=              0.8493  Tot=              1.8356

 Test job not archived.
 1\1\GINC-SE048\SP\RHF\Aug-CC-pVDZ\C3H5N1O1\OHZDE\09-Apr-2025\0\\#t hf
 aug-cc-pvdz iop(5/13=1,5/36=2,99/5=2) pseudo=read geom=check guess=(re
 ad,tcheck) scf=(maxcycle=1)\\title\\0,1\O,0,1.43589737,-0.37104476,1.2
 7483033\C,0,2.2675185,-0.11961949,0.34722366\C,0,1.58946715,0.51188633
 ,-0.68019615\C,0,-2.29734172,0.17237764,-0.11253714\N,0,-1.08521182,-0
 .19915781,-0.24122221\H,0,3.36289427,-0.23167722,0.45621577\H,0,0.9727
 5499,0.01124289,-1.42944785\H,0,-2.84535924,0.50988955,-1.00182913\H,0
 ,-2.86116454,0.18385836,0.8354688\H,0,-0.64273596,-0.46187248,0.649788

 Normal termination of Gaussian 16 at Wed Apr  9 14:20:03 2025.
