 Gaussian 16, Revision C.01,

 ----------------------------------------------------------------------
 #t hf aug-cc-pvdz symm=none int=(grid=ultrafine) guess=(read,tcheck) s
 table=(opt,rrhf)
 ----------------------------------------------------------------------
 -----
 title
 -----
 Symbolic Z-matrix:
 Charge =  0 Multiplicity = 1

 SCF Done:  E(RHF) =  -381.914671903     A.U. after   12 cycles

 1\1\GINC-SE229\Stability\RHF\Aug-CC-pVDZ\C4H10O3\OHZDE\09-Apr-2025\0\\
 #t hf aug-cc-pvdz symm=none int=(grid=ultrafine) guess=(read,tcheck) s
 table=(opt,rrhf)\\title\\0,1\C,0,2.64604314,0.49621932,-0.25529554\O,0
 ,1.50917618,-0.02046322,0.38763135\C,0,0.39694705,-0.14769879,-0.46950
 101\C,0,-0.78083115,-0.57792662,0.38387244\O,0,-0.95432355,0.32080022,
 1.46433826\C,0,-2.08809386,-0.58503527,-0.38938832\O,0,-2.4439606,0.70
 320801,-0.83438502\H,0,3.43496623,0.58307418,0.49037769\H,0,2.44653302
 ,1.48671283,-0.68305064\H,0,2.98508377,-0.16939343,-1.0586744\H,0,0.17

 Normal termination of Gaussian 16 at Wed Apr  9 16:48:44 2025.
 Gaussian 16:  ES64L-G16RevC.01  3-Jul-2019

 ----------------------------------------------------------------------
 #t hf aug-cc-pvdz iop(5/13=1,5/36=2,99/5=2) pseudo=read geom=check gue
 ss=(read,tcheck) scf=(maxcycle=1)
 ----------------------------------------------------------------------
 -----
 title
 -----
 Structure from the checkpoint file:  "Grambow2020_wb97xd3_008925_forward_mol2.chk"
 Charge =  0 Multiplicity = 1

                         Standard orientation:
 ---------------------------------------------------------------------
 Center     Atomic      Atomic             Coordinates (Angstroms)
 Number     Number       Type             X           Y           Z
 ---------------------------------------------------------------------
      1          6           0        2.867923   -0.403353   -0.257754
      2          8           0        1.726810    0.305614    0.152133
      3          6           0        0.579519   -0.506343    0.263347
      4          6           0       -0.590029    0.408642    0.572318
      5          8           0       -0.673536    1.437640   -0.396912
      6          6           0       -1.922077   -0.320703    0.547360
      7          8           0       -2.219198   -0.831379   -0.731376
      8          1           0        3.686390    0.310159   -0.341331
      9          1           0        2.710387   -0.883768   -1.231530
     10          1           0        3.139730   -1.175318    0.472724
     11          1           0        0.396694   -1.041895   -0.677020
     12          1           0        0.703904   -1.245470    1.066883
     13          1           0       -0.442606    0.843378    1.570861
     14          1           0        0.226568    1.725836   -0.577169
     15          1           0       -2.702904    0.371833    0.884757
     16          1           0       -1.901212   -1.167015    1.237483
     17          1           0       -2.101575   -0.102196   -1.348046
 ---------------------------------------------------------------------

 SCF Done:  E(RHF) =  -382.037965055     A.U. after    2 cycles

 The electronic state is 1-A.
 Alpha  occ. eigenvalues --  -20.58579 -20.57418 -20.56607 -11.29257 -11.29239
 Alpha  occ. eigenvalues --  -11.29062 -11.28537  -1.36204  -1.33548  -1.31063
 Alpha  occ. eigenvalues --   -1.03877  -0.96249  -0.88739  -0.82108  -0.73364
 Alpha  occ. eigenvalues --   -0.70543  -0.68608  -0.68001  -0.65286  -0.61910
 Alpha  occ. eigenvalues --   -0.60326  -0.59004  -0.55427  -0.53444  -0.51376
 Alpha  occ. eigenvalues --   -0.50527  -0.45932  -0.45513  -0.44624
 Alpha virt. eigenvalues --    0.03269   0.04292   0.04710   0.05005   0.06249
 Alpha virt. eigenvalues --    0.06393   0.06609   0.07921   0.09011   0.09127
 Alpha virt. eigenvalues --    0.11326   0.12458   0.14202   0.14902   0.15097

 Mulliken charges:
               1
     1  C    0.708869
     2  O   -0.664465
     3  C    0.713314
     4  C    0.239552
     5  O   -0.681239
     6  C    0.948179
     7  O   -0.596925
     8  H   -0.264552
     9  H   -0.088128
    10  H   -0.066174
    11  H   -0.099272
    12  H   -0.149944
    13  H   -0.171484
    14  H    0.188591
    15  H   -0.067491
    16  H   -0.142306
    17  H    0.193475
 Sum of Mulliken charges =   0.00000

 Dipole moment (field-independent basis, Debye):
    X=              2.3719    Y=             -0.4861    Z=              0.8225  Tot=              2.5571

 Test job not archived.
 1\1\GINC-SE229\SP\RHF\Aug-CC-pVDZ\C4H10O3\OHZDE\09-Apr-2025\0\\#t hf a
 ug-cc-pvdz iop(5/13=1,5/36=2,99/5=2) pseudo=read geom=check guess=(rea
 d,tcheck) scf=(maxcycle=1)\\title\\0,1\C,0,2.64604314,0.49621932,-0.25
 529554\O,0,1.50917618,-0.02046322,0.38763135\C,0,0.39694705,-0.1476987
 9,-0.46950101\C,0,-0.78083115,-0.57792662,0.38387244\O,0,-0.95432355,0
 .32080022,1.46433826\C,0,-2.08809386,-0.58503527,-0.38938832\O,0,-2.44
 39606,0.70320801,-0.83438502\H,0,3.43496623,0.58307418,0.49037769\H,0,
 2.44653302,1.48671283,-0.68305064\H,0,2.98508377,-0.16939343,-1.058674

 Normal termination of Gaussian 16 at Wed Apr  9 16:48:59 2025.
