 Gaussian 16, Revision C.01,

 ----------------------------------------------------------------------
 #t hf aug-cc-pvdz symm=none int=(grid=ultrafine) guess=(read,tcheck) s
 table=(opt,rrhf)
 ----------------------------------------------------------------------
 -----
 title
 -----
 Symbolic Z-matrix:
 Charge =  0 Multiplicity = 1

 SCF Done:  E(RHF) =  -306.728590513     A.U. after   14 cycles
 Normal termination of Gaussian 16 at Wed Apr  9 03:58:44 2025.
 Gaussian 16:  ES64L-G16RevC.01  3-Jul-2019

 ----------------------------------------------------------------------
 #t hf aug-cc-pvdz iop(5/13=1,5/36=2,99/5=2) pseudo=read geom=check gue
 ss=(read,tcheck) scf=(maxcycle=1)
 ----------------------------------------------------------------------
 -----
 title
 -----
 Structure from the checkpoint file:  "Grambow2020_wb97xd3_008773_reverse_mol2.chk"
 Charge =  0 Multiplicity = 1

                         Standard orientation:
 ---------------------------------------------------------------------
 Center     Atomic      Atomic             Coordinates (Angstroms)
 Number     Number       Type             X           Y           Z
 ---------------------------------------------------------------------
      1          8           0       -0.087495   -0.887738   -0.341483
      2          6           0       -1.157931   -0.118505    0.005708
      3          6           0       -2.381884   -0.611262    0.170779
      4          6           0        2.170590   -0.612223    0.472054
      5          6           0        1.089195   -0.080291   -0.450760
      6          6           0        0.606258    1.300832   -0.121694
      7          6           0       -0.691769    1.261396    0.145297
      8          1           0       -3.190860    0.048910    0.446467
      9          1           0       -2.586650   -1.663806    0.036188
     10          1           0        1.840576   -0.561815    1.510781
     11          1           0        2.396057   -1.650252    0.226879
     12          1           0        3.084096   -0.024224    0.363484
     13          1           0        1.433295   -0.136729   -1.491433
     14          1           0        1.252263    2.167412   -0.111610
     15          1           0       -1.335573    2.082725    0.422810
 ---------------------------------------------------------------------

 SCF Done:  E(RHF) =  -306.825310569     A.U. after    2 cycles

 The electronic state is 1-A.
 Alpha  occ. eigenvalues --  -20.59050 -11.30707 -11.30523 -11.25683 -11.25292
 Alpha  occ. eigenvalues --  -11.23466 -11.21186  -1.37826  -1.08719  -1.06216
 Alpha  occ. eigenvalues --   -0.97811  -0.86702  -0.79959  -0.77129  -0.70293
 Alpha  occ. eigenvalues --   -0.66126  -0.62071  -0.60474  -0.57886  -0.56641
 Alpha  occ. eigenvalues --   -0.53798  -0.51908  -0.51032  -0.49762  -0.42414
 Alpha  occ. eigenvalues --   -0.31247
 Alpha virt. eigenvalues --    0.03170   0.04165   0.04464   0.04995   0.05802
 Alpha virt. eigenvalues --    0.06247   0.07018   0.08146   0.09841   0.10897
 Alpha virt. eigenvalues --    0.11584   0.12272   0.13071   0.13802   0.14200

 Mulliken charges:
               1
     1  O   -0.661674
     2  C   -0.219685
     3  C    1.267887
     4  C    0.449171
     5  C    0.188811
     6  C    0.261013
     7  C    0.357473
     8  H   -0.316500
     9  H   -0.429971
    10  H   -0.020680
    11  H   -0.028010
    12  H    0.012609
    13  H   -0.173612
    14  H   -0.297669
    15  H   -0.389161
 Sum of Mulliken charges =  -0.00000

 Dipole moment (field-independent basis, Debye):
    X=              1.5722    Y=              1.8914    Z=              0.1253  Tot=              2.4627

 Test job not archived.
 1\1\GINC-SE070\SP\RHF\Aug-CC-pVDZ\C6H8O1\OHZDE\09-Apr-2025\0\\#t hf au
 g-cc-pvdz iop(5/13=1,5/36=2,99/5=2) pseudo=read geom=check guess=(read
 ,tcheck) scf=(maxcycle=1)\\title\\0,1\O,0,-0.6589721,-0.46693894,0.655
 00733\C,0,0.08107726,-1.45121023,0.0705163\C,0,-0.25776312,-2.73627048
 ,0.11441855\C,0,-1.01665952,1.74867442,-0.23931612\C,0,-0.04256244,0.8
 077808,0.44610728\C,0,1.18509597,0.48415733,-0.3521013\C,0,1.2392983,-
 0.82315968,-0.56587401\H,0,0.3696031,-3.4709575,-0.36819902\H,0,-1.152
 77882,-3.06421956,0.62362339\H,0,-1.29232756,1.35941675,-1.22058583\H,

 Normal termination of Gaussian 16 at Wed Apr  9 03:58:49 2025.
