 Gaussian 16, Revision C.01,

 ----------------------------------------------------------------------
 #t hf aug-cc-pvdz symm=none int=(grid=ultrafine) guess=(read,tcheck) s
 table=(opt,rrhf)
 ----------------------------------------------------------------------
 -----
 title
 -----
 Symbolic Z-matrix:
 Charge =  0 Multiplicity = 1

 SCF Done:  E(RHF) =  -307.610643762     A.U. after   16 cycles

 1\1\GINC-SE141\Stability\RHF\Aug-CC-pVDZ\C6H10O1\OHZDE\09-Apr-2025\0\\
 #t hf aug-cc-pvdz symm=none int=(grid=ultrafine) guess=(read,tcheck) s
 table=(opt,rrhf)\\title\\0,1\C,0,1.80228382,-0.72874605,0.0699468\C,0,
 0.83247389,0.37038183,0.45370199\C,0,0.11477903,1.04936942,-0.68242772
 \C,0,-1.59635345,0.59566012,0.51215492\O,0,-2.29216185,-0.11404637,-0.
 37119961\C,0,-1.20184061,-0.88350124,-0.83035547\C,0,-0.43063818,0.013
 86724,1.15094611\H,0,2.14043476,-1.28747596,0.94505647\H,0,2.68195499,
 -0.31749814,-0.43075939\H,0,1.31323299,-1.43295381,-0.60885154\H,0,1.3

 Normal termination of Gaussian 16 at Wed Apr  9 16:31:21 2025.
 Gaussian 16:  ES64L-G16RevC.01  3-Jul-2019

 ----------------------------------------------------------------------
 #t hf aug-cc-pvdz iop(5/13=1,5/36=2,99/5=2) pseudo=read geom=check gue
 ss=(read,tcheck) scf=(maxcycle=1)
 ----------------------------------------------------------------------
 -----
 title
 -----
 Structure from the checkpoint file:  "Grambow2020_wb97xd3_008493_forward_mol1.chk"
 Charge =  0 Multiplicity = 1

                         Standard orientation:
 ---------------------------------------------------------------------
 Center     Atomic      Atomic             Coordinates (Angstroms)
 Number     Number       Type             X           Y           Z
 ---------------------------------------------------------------------
      1          6           0        2.182330    0.536618   -0.325776
      2          6           0        1.184830   -0.527892    0.083728
      3          6           0        0.312702   -0.200936    1.266687
      4          6           0       -1.235379   -0.789985   -0.081394
      5          8           0       -1.967591    0.319851   -0.064782
      6          6           0       -0.880069    1.212873   -0.171994
      7          6           0        0.024947   -0.814970   -0.799992
      8          1           0        2.643393    0.303964   -1.287876
      9          1           0        2.977704    0.634289    0.416851
     10          1           0        1.675581    1.500929   -0.421463
     11          1           0        1.739152   -1.465696    0.260649
     12          1           0        0.088704   -1.053113    1.905164
     13          1           0        0.500551    0.687378    1.864091
     14          1           0       -1.883101   -1.674405   -0.007532
     15          1           0       -0.838127    1.904255    0.662059
     16          1           0       -0.838649    1.709788   -1.138532
     17          1           0        0.139352   -1.600454   -1.562703
 ---------------------------------------------------------------------

 SCF Done:  E(RHF) =  -307.705642106     A.U. after    2 cycles

 The electronic state is 1-A.
 Alpha  occ. eigenvalues --  -20.59838 -11.34114 -11.30696 -11.25364 -11.25299
 Alpha  occ. eigenvalues --  -11.24001 -11.22135  -1.39651  -1.10393  -0.97930
 Alpha  occ. eigenvalues --   -0.93218  -0.89114  -0.82677  -0.72329  -0.70734
 Alpha  occ. eigenvalues --   -0.67295  -0.64786  -0.63254  -0.60399  -0.56749
 Alpha  occ. eigenvalues --   -0.54296  -0.50970  -0.49924  -0.47548  -0.46761
 Alpha  occ. eigenvalues --   -0.30429  -0.29338
 Alpha virt. eigenvalues --    0.03297   0.03779   0.04312   0.04572   0.06055
 Alpha virt. eigenvalues --    0.06284   0.06641   0.07005   0.07131   0.08098
 Alpha virt. eigenvalues --    0.09103   0.10479   0.12188   0.13177   0.13586

 Mulliken charges:
               1
     1  C    0.537275
     2  C   -0.418212
     3  C    0.610609
     4  C    0.963008
     5  O   -0.635523
     6  C    0.820090
     7  C    0.233777
     8  H   -0.078023
     9  H   -0.020095
    10  H   -0.013554
    11  H   -0.129939
    12  H   -0.224548
    13  H   -0.392776
    14  H   -0.328774
    15  H   -0.283283
    16  H   -0.354121
    17  H   -0.285912
 Sum of Mulliken charges =   0.00000

 Dipole moment (field-independent basis, Debye):
    X=              1.1422    Y=             -0.6082    Z=              0.1890  Tot=              1.3078

 Test job not archived.
 1\1\GINC-SE141\SP\RHF\Aug-CC-pVDZ\C6H10O1\OHZDE\09-Apr-2025\0\\#t hf a
 ug-cc-pvdz iop(5/13=1,5/36=2,99/5=2) pseudo=read geom=check guess=(rea
 d,tcheck) scf=(maxcycle=1)\\title\\0,1\C,0,1.80228382,-0.72874605,0.06
 99468\C,0,0.83247389,0.37038183,0.45370199\C,0,0.11477903,1.04936942,-
 0.68242772\C,0,-1.59635345,0.59566012,0.51215492\O,0,-2.29216185,-0.11
 404637,-0.37119961\C,0,-1.20184061,-0.88350124,-0.83035547\C,0,-0.4306
 3818,0.01386724,1.15094611\H,0,2.14043476,-1.28747596,0.94505647\H,0,2
 .68195499,-0.31749814,-0.43075939\H,0,1.31323299,-1.43295381,-0.608851

 Normal termination of Gaussian 16 at Wed Apr  9 16:31:27 2025.
