 Gaussian 16, Revision C.01,

 ----------------------------------------------------------------------
 #t hf aug-cc-pvdz symm=none int=(grid=ultrafine) guess=(read,tcheck) s
 table=(opt,rrhf)
 ----------------------------------------------------------------------
 -----
 title
 -----
 Symbolic Z-matrix:
 Charge =  0 Multiplicity = 1

 SCF Done:  E(RHF) =  -373.256823381     A.U. after   15 cycles
 Normal termination of Gaussian 16 at Wed Apr  9 03:26:58 2025.
 Gaussian 16:  ES64L-G16RevC.01  3-Jul-2019

 ----------------------------------------------------------------------
 #t hf aug-cc-pvdz iop(5/13=1,5/36=2,99/5=2) pseudo=read geom=check gue
 ss=(read,tcheck) scf=(maxcycle=1)
 ----------------------------------------------------------------------
 -----
 title
 -----
 Structure from the checkpoint file:  "Grambow2020_wb97xd3_006706_forward_mol1.chk"
 Charge =  0 Multiplicity = 1

                         Standard orientation:
 ---------------------------------------------------------------------
 Center     Atomic      Atomic             Coordinates (Angstroms)
 Number     Number       Type             X           Y           Z
 ---------------------------------------------------------------------
      1          8           0       -2.990846   -0.226975    0.003274
      2          6           0       -1.999588    0.326404   -0.001813
      3          6           0       -0.066947   -0.420928   -0.003103
      4          7           0        0.282266    0.847216   -0.002448
      5          6           0        1.644349    0.855571    0.001380
      6          7           0        2.149689   -0.331374    0.002463
      7          8           0        1.023142   -1.163735   -0.000937
      8          1           0       -1.010711    1.208867   -0.003581
      9          1           0        2.261776    1.739632    0.005989
 ---------------------------------------------------------------------

 SCF Done:  E(RHF) =  -373.370480627     A.U. after    2 cycles

 The electronic state is 1-A.
 Alpha  occ. eigenvalues --  -20.68845 -20.67349 -15.70141 -15.66150 -11.42463
 Alpha  occ. eigenvalues --  -11.34094 -11.33222  -1.49654  -1.48455  -1.24151
 Alpha  occ. eigenvalues --   -1.15406  -0.91177  -0.84995  -0.83601  -0.78615
 Alpha  occ. eigenvalues --   -0.69432  -0.69293  -0.66196  -0.64700  -0.61721
 Alpha  occ. eigenvalues --   -0.54460  -0.50349  -0.49888  -0.41224  -0.40248
 Alpha virt. eigenvalues --    0.02776   0.04205   0.05541   0.07565   0.08309
 Alpha virt. eigenvalues --    0.08588   0.10337   0.11343   0.11451   0.13157
 Alpha virt. eigenvalues --    0.13495   0.13905   0.15341   0.17027   0.17143

 Mulliken charges:
               1
     1  O   -0.211108
     2  C    0.234252
     3  C    0.120891
     4  N   -0.552579
     5  C    0.669233
     6  N   -0.121489
     7  O   -0.563459
     8  H    0.610324
     9  H   -0.186065
 Sum of Mulliken charges =  -0.00000

 Dipole moment (field-independent basis, Debye):
    X=             -0.8373    Y=              3.9007    Z=             -0.0023  Tot=              3.9895

 Test job not archived.
 1\1\GINC-SE128\SP\RHF\Aug-CC-pVDZ\C3H2N2O2\OHZDE\09-Apr-2025\0\\#t hf
 aug-cc-pvdz iop(5/13=1,5/36=2,99/5=2) pseudo=read geom=check guess=(re
 ad,tcheck) scf=(maxcycle=1)\\title\\0,1\O,0,-3.17773079,-0.10153173,-0
 .10337191\C,0,-2.12119138,0.30615055,-0.02358959\C,0,-0.30773316,-0.69
 310259,-0.10402461\N,0,0.20909298,0.50384029,0.07020745\C,0,1.5591761,
 0.3242774,0.08985716\N,0,1.89963535,-0.91066096,-0.0625338\O,0,0.67173
 367,-1.57253006,-0.18954578\H,0,-1.02273984,1.03681458,0.10351997\H,0,
 2.28975807,1.10674152,0.21948111\\Version=ES64L-G16RevC.01\State=1-A\H

 Normal termination of Gaussian 16 at Wed Apr  9 03:27:01 2025.
