 Gaussian 16, Revision C.01,

 ----------------------------------------------------------------------
 #t hf aug-cc-pvdz symm=none int=(grid=ultrafine) guess=(read,tcheck) s
 table=(opt,rrhf)
 ----------------------------------------------------------------------
 -----
 title
 -----
 Symbolic Z-matrix:
 Charge =  0 Multiplicity = 1

 SCF Done:  E(RHF) =  -306.592030861     A.U. after   17 cycles
 Normal termination of Gaussian 16 at Wed Apr  9 16:25:09 2025.
 Gaussian 16:  ES64L-G16RevC.01  3-Jul-2019

 ----------------------------------------------------------------------
 #t hf aug-cc-pvdz iop(5/13=1,5/36=2,99/5=2) pseudo=read geom=check gue
 ss=(read,tcheck) scf=(maxcycle=1)
 ----------------------------------------------------------------------
 -----
 title
 -----
 Structure from the checkpoint file:  "Grambow2020_wb97xd3_008207_reverse_mol1.chk"
 Charge =  0 Multiplicity = 1

                         Standard orientation:
 ---------------------------------------------------------------------
 Center     Atomic      Atomic             Coordinates (Angstroms)
 Number     Number       Type             X           Y           Z
 ---------------------------------------------------------------------
      1          6           0       -1.750242    0.100814    0.206116
      2          8           0       -1.345616   -0.274662   -1.068377
      3          6           0        0.261270   -1.054389    0.384106
      4          6           0        1.546649   -0.837588   -0.067928
      5          6           0        1.686366    0.534624   -0.236206
      6          6           0        0.450628    1.197745    0.008602
      7          6           0       -0.385838    0.211773    0.857160
      8          1           0       -2.323376    1.042130    0.240807
      9          1           0       -2.356100   -0.674642    0.700993
     10          1           0       -0.219659   -2.019037    0.475664
     11          1           0        2.254994   -1.591718   -0.376591
     12          1           0        2.582413    1.021065   -0.605576
     13          1           0        0.433063    2.262788    0.214618
     14          1           0       -0.196752    0.852504   -0.948567
     15          1           0       -0.262653    0.386336    1.934572
 ---------------------------------------------------------------------

 SCF Done:  E(RHF) =  -306.682062962     A.U. after    2 cycles

 The electronic state is 1-A.
 Alpha  occ. eigenvalues --  -20.45854 -11.32856 -11.32676 -11.25963 -11.25663
 Alpha  occ. eigenvalues --  -11.24678 -11.24119  -1.23333  -1.16403  -0.99988
 Alpha  occ. eigenvalues --   -0.99664  -0.85859  -0.78078  -0.77054  -0.72026
 Alpha  occ. eigenvalues --   -0.67369  -0.60972  -0.58542  -0.57522  -0.54030
 Alpha  occ. eigenvalues --   -0.51424  -0.49542  -0.47178  -0.42371  -0.35764
 Alpha  occ. eigenvalues --   -0.34222
 Alpha virt. eigenvalues --    0.02150   0.02704   0.03645   0.03973   0.05435
 Alpha virt. eigenvalues --    0.05651   0.06255   0.08011   0.08701   0.11231
 Alpha virt. eigenvalues --    0.11866   0.12154   0.12416   0.13824   0.14026

 Mulliken charges:
               1
     1  C    1.046222
     2  O   -0.940702
     3  C    0.562535
     4  C    0.250120
     5  C    0.428978
     6  C   -0.084777
     7  C   -0.066326
     8  H   -0.192608
     9  H   -0.215423
    10  H   -0.378429
    11  H   -0.298076
    12  H   -0.281236
    13  H   -0.200115
    14  H    0.540073
    15  H   -0.170235
 Sum of Mulliken charges =  -0.00000

 Dipole moment (field-independent basis, Debye):
    X=              4.8721    Y=              0.5705    Z=              3.3553  Tot=              5.9432

 Test job not archived.
 1\1\GINC-SE232\SP\RHF\Aug-CC-pVDZ\C6H8O1\OHZDE\09-Apr-2025\0\\#t hf au
 g-cc-pvdz iop(5/13=1,5/36=2,99/5=2) pseudo=read geom=check guess=(read
 ,tcheck) scf=(maxcycle=1)\\title\\0,1\C,0,-1.6571058,-0.23608231,-0.61
 325553\O,0,-0.75502634,-0.92839008,-1.41075162\C,0,0.10869083,-0.94915
 288,0.72309985\C,0,1.46342333,-0.69031356,0.75829939\C,0,1.64732366,0.
 56214686,0.18529993\C,0,0.41554255,1.06879703,-0.31742132\C,0,-0.68874
 561,0.285285,0.42992409\H,0,-2.20166651,0.56700165,-1.1369664\H,0,-2.4
 0651012,-0.89887883,-0.15239379\H,0,-0.35740418,-1.89736884,0.9551858\

 Normal termination of Gaussian 16 at Wed Apr  9 16:25:14 2025.
