 Gaussian 16, Revision C.01,

 ----------------------------------------------------------------------
 #t hf aug-cc-pvdz symm=none int=(grid=ultrafine) guess=(read,tcheck) s
 table=(opt,rrhf)
 ----------------------------------------------------------------------
 -----
 title
 -----
 Symbolic Z-matrix:
 Charge =  0 Multiplicity = 1

 SCF Done:  E(RHF) =  -375.764630879     A.U. after   15 cycles
 Normal termination of Gaussian 16 at Wed Apr  9 16:10:58 2025.
 Gaussian 16:  ES64L-G16RevC.01  3-Jul-2019

 ----------------------------------------------------------------------
 #t hf aug-cc-pvdz iop(5/13=1,5/36=2,99/5=2) pseudo=read geom=check gue
 ss=(read,tcheck) scf=(maxcycle=1)
 ----------------------------------------------------------------------
 -----
 title
 -----
 Structure from the checkpoint file:  "Grambow2020_wb97xd3_007909_reverse_mol2.chk"
 Charge =  0 Multiplicity = 1

                         Standard orientation:
 ---------------------------------------------------------------------
 Center     Atomic      Atomic             Coordinates (Angstroms)
 Number     Number       Type             X           Y           Z
 ---------------------------------------------------------------------
      1          6           0       -3.405624    0.658912   -0.040179
      2          8           0        4.153348    0.344969   -0.471930
      3          6           0        3.141711    0.021615    0.011984
      4          7           0        2.164777   -0.390710    0.571929
      5          7           0       -0.638426    0.277896    0.287186
      6          6           0       -1.432273   -0.628673   -0.088338
      7          8           0       -2.751302   -0.577982   -0.278920
      8          1           0       -3.017795    1.439446   -0.699770
      9          1           0       -3.295884    0.963882    1.003651
     10          1           0       -4.456301    0.490689   -0.259128
     11          1           0        1.182679   -0.099809    0.485141
     12          1           0       -1.076822    1.174277    0.472014
     13          1           0       -1.059585   -1.625801   -0.309712
 ---------------------------------------------------------------------

 SCF Done:  E(RHF) =  -375.887520763     A.U. after    2 cycles

 The electronic state is 1-A.
 Alpha  occ. eigenvalues --  -20.64402 -20.60224 -15.63798 -15.61899 -11.39357
 Alpha  occ. eigenvalues --  -11.38235 -11.32714  -1.42665  -1.40814  -1.20217
 Alpha  occ. eigenvalues --   -1.19380  -1.01422  -0.84144  -0.78387  -0.76493
 Alpha  occ. eigenvalues --   -0.71870  -0.70850  -0.70567  -0.63864  -0.62820
 Alpha  occ. eigenvalues --   -0.60897  -0.56091  -0.55848  -0.48367  -0.44681
 Alpha  occ. eigenvalues --   -0.43920  -0.42187
 Alpha virt. eigenvalues --    0.02256   0.03732   0.04593   0.04618   0.06448
 Alpha virt. eigenvalues --    0.07745   0.09018   0.09175   0.10693   0.11113
 Alpha virt. eigenvalues --    0.11771   0.13508   0.14128   0.14438   0.15387

 Mulliken charges:
               1
     1  C    0.775856
     2  O   -0.207791
     3  C   -0.124455
     4  N    0.164542
     5  N   -0.229078
     6  C    0.599986
     7  O   -0.448268
     8  H   -0.075414
     9  H   -0.076492
    10  H   -0.273655
    11  H    0.243655
    12  H   -0.047358
    13  H   -0.301528
 Sum of Mulliken charges =  -0.00000

 Dipole moment (field-independent basis, Debye):
    X=             -6.6795    Y=              1.2959    Z=              0.1290  Tot=              6.8053

 Test job not archived.
 1\1\GINC-SE173\SP\RHF\Aug-CC-pVDZ\C3H6N2O2\OHZDE\09-Apr-2025\0\\#t hf
 aug-cc-pvdz iop(5/13=1,5/36=2,99/5=2) pseudo=read geom=check guess=(re
 ad,tcheck) scf=(maxcycle=1)\\title\\0,1\C,0,-0.96491434,-2.23648129,1.
 35103447\O,0,0.72389874,4.17083873,-2.32553873\C,0,0.93489862,3.385216
 49,-1.48862998\N,0,1.25346433,2.63675444,-0.60756731\N,0,0.00710129,0.
 23039241,0.41324435\C,0,0.64595313,-0.85468358,0.32631503\O,0,0.301256
 75,-2.07850483,0.72902531\H,0,-1.77197639,-1.94965569,0.67200033\H,0,-
 1.02445866,-1.64888234,2.27071506\H,0,-1.05293066,-3.29247875,1.590369

 Normal termination of Gaussian 16 at Wed Apr  9 16:11:03 2025.
