 Gaussian 16, Revision C.01,

 ----------------------------------------------------------------------
 #t hf aug-cc-pvdz symm=none int=(grid=ultrafine) guess=(read,tcheck) s
 table=(opt,rrhf)
 ----------------------------------------------------------------------
 -----
 title
 -----
 Symbolic Z-matrix:
 Charge =  0 Multiplicity = 1

 SCF Done:  E(RHF) =  -307.903644044     A.U. after   14 cycles

 1\1\GINC-SE219\Stability\RHF\Aug-CC-pVDZ\C6H10O1\OHZDE\09-Apr-2025\0\\
 #t hf aug-cc-pvdz symm=none int=(grid=ultrafine) guess=(read,tcheck) s
 table=(opt,rrhf)\\title\\0,1\C,0,2.46459396,-0.03595123,0.28714094\C,0
 ,0.99240404,0.1301652,0.03054014\C,0,0.11194483,-0.80026014,0.42190843
 \C,0,-1.37825052,-0.96141867,0.33518664\C,0,-2.27107389,0.09315091,-0.
 30049113\C,0,0.63186799,1.37863341,-0.67648873\O,0,1.4569442,2.1912831
 2,-1.01926781\H,0,2.84827318,0.79525433,0.88117902\H,0,3.02247451,-0.0
 2803797,-0.65082575\H,0,2.66872146,-0.96889222,0.8117607\H,0,0.5581013

 Normal termination of Gaussian 16 at Wed Apr  9 16:04:46 2025.
 Gaussian 16:  ES64L-G16RevC.01  3-Jul-2019

 ----------------------------------------------------------------------
 #t hf aug-cc-pvdz iop(5/13=1,5/36=2,99/5=2) pseudo=read geom=check gue
 ss=(read,tcheck) scf=(maxcycle=1)
 ----------------------------------------------------------------------
 -----
 title
 -----
 Structure from the checkpoint file:  "Grambow2020_wb97xd3_007732_reverse_mol2.chk"
 Charge =  0 Multiplicity = 1

                         Standard orientation:
 ---------------------------------------------------------------------
 Center     Atomic      Atomic             Coordinates (Angstroms)
 Number     Number       Type             X           Y           Z
 ---------------------------------------------------------------------
      1          6           0        1.922574   -1.233375    0.006797
      2          6           0        0.639675   -0.449203    0.001603
      3          6           0       -0.549123   -1.066301   -0.002753
      4          6           0       -1.982408   -0.619284   -0.009476
      5          6           0       -2.372179    0.850760    0.010152
      6          6           0        0.820377    1.019088   -0.002751
      7          8           0        1.910802    1.538331   -0.005225
      8          1           0        2.526263   -0.978579    0.879512
      9          1           0        2.527076   -0.988963   -0.868368
     10          1           0        1.727293   -2.305335    0.013119
     11          1           0       -0.490670   -2.154357   -0.004688
     12          1           0       -2.455042   -1.120175    0.843807
     13          1           0       -2.440017   -1.094926   -0.885248
     14          1           0       -2.007288    1.385282   -0.868123
     15          1           0       -3.460343    0.934181    0.012663
     16          1           0       -0.082571    1.645838   -0.004430
     17          1           0       -2.004612    1.360269    0.902118
 ---------------------------------------------------------------------

 SCF Done:  E(RHF) =  -308.001263826     A.U. after    2 cycles

 The electronic state is 1-A.
 Alpha  occ. eigenvalues --  -20.56291 -11.33343 -11.26920 -11.25915 -11.25193
 Alpha  occ. eigenvalues --  -11.24248 -11.22856  -1.35233  -1.10865  -1.03932
 Alpha  occ. eigenvalues --   -0.94066  -0.90128  -0.83046  -0.74017  -0.66977
 Alpha  occ. eigenvalues --   -0.65096  -0.63576  -0.61365  -0.58284  -0.56722
 Alpha  occ. eigenvalues --   -0.54309  -0.52971  -0.52074  -0.51625  -0.50356
 Alpha  occ. eigenvalues --   -0.42733  -0.36693
 Alpha virt. eigenvalues --    0.02818   0.03951   0.04531   0.04575   0.06049
 Alpha virt. eigenvalues --    0.06436   0.06802   0.07298   0.08458   0.08808
 Alpha virt. eigenvalues --    0.08852   0.10756   0.13090   0.13253   0.13744

 Mulliken charges:
               1
     1  C    0.420542
     2  C   -0.172209
     3  C    0.050555
     4  C   -0.227991
     5  C    0.656468
     6  C    0.504170
     7  O   -0.556463
     8  H    0.097090
     9  H    0.097700
    10  H   -0.187419
    11  H   -0.507130
    12  H    0.130723
    13  H    0.131149
    14  H    0.080968
    15  H   -0.212246
    16  H   -0.379298
    17  H    0.073392
 Sum of Mulliken charges =  -0.00000

 Dipole moment (field-independent basis, Debye):
    X=             -3.7410    Y=             -2.2866    Z=              0.0005  Tot=              4.3845

 Test job not archived.
 1\1\GINC-SE219\SP\RHF\Aug-CC-pVDZ\C6H10O1\OHZDE\09-Apr-2025\0\\#t hf a
 ug-cc-pvdz iop(5/13=1,5/36=2,99/5=2) pseudo=read geom=check guess=(rea
 d,tcheck) scf=(maxcycle=1)\\title\\0,1\C,0,2.46459396,-0.03595123,0.28
 714094\C,0,0.99240404,0.1301652,0.03054014\C,0,0.11194483,-0.80026014,
 0.42190843\C,0,-1.37825052,-0.96141867,0.33518664\C,0,-2.27107389,0.09
 315091,-0.30049113\C,0,0.63186799,1.37863341,-0.67648873\O,0,1.4569442
 ,2.19128312,-1.01926781\H,0,2.84827318,0.79525433,0.88117902\H,0,3.022
 47451,-0.02803797,-0.65082575\H,0,2.66872146,-0.96889222,0.8117607\H,0

 Normal termination of Gaussian 16 at Wed Apr  9 16:04:53 2025.
