 Gaussian 16, Revision C.01,

 ----------------------------------------------------------------------
 #t hf aug-cc-pvdz symm=none int=(grid=ultrafine) guess=(read,tcheck) s
 table=(opt,rrhf)
 ----------------------------------------------------------------------
 -----
 title
 -----
 Symbolic Z-matrix:
 Charge =  0 Multiplicity = 1

 SCF Done:  E(RHF) =  -305.715423235     A.U. after   15 cycles
 Normal termination of Gaussian 16 at Wed Apr  9 14:26:26 2025.
 Gaussian 16:  ES64L-G16RevC.01  3-Jul-2019

 ----------------------------------------------------------------------
 #t hf aug-cc-pvdz iop(5/13=1,5/36=2,99/5=2) pseudo=read geom=check gue
 ss=(read,tcheck) scf=(maxcycle=1)
 ----------------------------------------------------------------------
 -----
 title
 -----
 Structure from the checkpoint file:  "Grambow2020_wb97xd3_006283_forward_mol1.chk"
 Charge =  0 Multiplicity = 1

                         Standard orientation:
 ---------------------------------------------------------------------
 Center     Atomic      Atomic             Coordinates (Angstroms)
 Number     Number       Type             X           Y           Z
 ---------------------------------------------------------------------
      1          6           0       -2.153923   -0.273529   -0.258119
      2          6           0       -0.712234    0.022291    0.052776
      3          6           0       -0.233127    1.295951    0.451147
      4          8           0        1.587345    0.544625   -0.579062
      5          6           0        1.562134   -0.587490    0.061027
      6          8           0        0.066274   -1.017183    0.361533
      7          1           0       -2.667267    0.606912   -0.645734
      8          1           0       -2.214365   -1.079191   -0.987559
      9          1           0       -2.661209   -0.595225    0.651954
     10          1           0       -0.175755    0.527076   -0.909378
     11          1           0       -0.738696    2.170227    0.055891
     12          1           0        0.553583    1.461784    1.169811
     13          1           0        1.904494   -1.456849   -0.513020
     14          1           0        1.993154   -0.597618    1.077285
 ---------------------------------------------------------------------

 SCF Done:  E(RHF) =  -305.812036054     A.U. after    2 cycles

 The electronic state is 1-A.
 Alpha  occ. eigenvalues --  -20.56322 -20.48476 -11.36107 -11.33419 -11.31044
 Alpha  occ. eigenvalues --  -11.26260  -1.35716  -1.23992  -1.09810  -0.98643
 Alpha  occ. eigenvalues --   -0.86271  -0.79849  -0.71398  -0.69163  -0.65929
 Alpha  occ. eigenvalues --   -0.61393  -0.60373  -0.58112  -0.56378  -0.55301
 Alpha  occ. eigenvalues --   -0.50545  -0.44977  -0.38713  -0.37226
 Alpha virt. eigenvalues --    0.01917   0.04029   0.04195   0.05349   0.06013
 Alpha virt. eigenvalues --    0.06590   0.06665   0.07768   0.08601   0.10568
 Alpha virt. eigenvalues --    0.12240   0.13387   0.14377   0.14736   0.15630

 Mulliken charges:
               1
     1  C    0.636840
     2  C   -0.104890
     3  C    0.490372
     4  O   -0.788952
     5  C    0.964795
     6  O   -0.789266
     7  H    0.001212
     8  H    0.033842
     9  H    0.057075
    10  H    0.439211
    11  H   -0.235208
    12  H   -0.228605
    13  H   -0.269014
    14  H   -0.207413
 Sum of Mulliken charges =   0.00000

 Dipole moment (field-independent basis, Debye):
    X=             -4.2179    Y=              2.0912    Z=              1.4008  Tot=              4.9118

 Test job not archived.
 1\1\GINC-SE226\SP\RHF\Aug-CC-pVDZ\C4H8O2\OHZDE\09-Apr-2025\0\\#t hf au
 g-cc-pvdz iop(5/13=1,5/36=2,99/5=2) pseudo=read geom=check guess=(read
 ,tcheck) scf=(maxcycle=1)\\title\\0,1\C,0,-1.83904655,0.02070732,0.555
 81543\C,0,-0.43734019,-0.01712434,0.0113698\C,0,0.16385209,-1.17268499
 ,-0.54871855\O,0,1.98650107,-0.18355359,0.25097285\C,0,1.68384179,0.95
 941805,-0.29128821\O,0,0.11084339,1.15072733,-0.33145507\H,0,-2.140827
 49,-0.95065849,0.94865123\H,0,-1.90652378,0.76786058,1.3445086\H,0,-2.
 52895348,0.299311,-0.24134713\H,0,0.31777886,-0.47385536,0.84176038\H,

 Normal termination of Gaussian 16 at Wed Apr  9 14:26:30 2025.
