 Gaussian 16, Revision C.01,

 ----------------------------------------------------------------------
 #t hf aug-cc-pvdz symm=none int=(grid=ultrafine) guess=(read,tcheck) s
 table=(opt,rrhf)
 ----------------------------------------------------------------------
 -----
 title
 -----
 Symbolic Z-matrix:
 Charge =  0 Multiplicity = 1

 SCF Done:  E(RHF) =  -343.488170193     A.U. after   14 cycles
 Normal termination of Gaussian 16 at Wed Apr  9 17:00:21 2025.
 Gaussian 16:  ES64L-G16RevC.01  3-Jul-2019

 ----------------------------------------------------------------------
 #t hf aug-cc-pvdz iop(5/13=1,5/36=2,99/5=2) pseudo=read geom=check gue
 ss=(read,tcheck) scf=(maxcycle=1)
 ----------------------------------------------------------------------
 -----
 title
 -----
 Structure from the checkpoint file:  "Grambow2020_wb97xd3_009109_forward_mol1.chk"
 Charge =  0 Multiplicity = 1

                         Standard orientation:
 ---------------------------------------------------------------------
 Center     Atomic      Atomic             Coordinates (Angstroms)
 Number     Number       Type             X           Y           Z
 ---------------------------------------------------------------------
      1          6           0       -1.873409   -0.084456   -0.398234
      2          6           0       -0.853872   -0.703212    0.506594
      3          8           0        0.222795   -1.365559   -0.116776
      4          6           0        1.384898   -0.680926   -0.151478
      5          6           0        1.358372    0.726744    0.095832
      6          8           0        0.162911    1.315100   -0.402270
      7          6           0       -0.901228    0.787344    0.331225
      8          1           0       -1.706498   -0.200288   -1.460733
      9          1           0       -2.905593   -0.091700   -0.075723
     10          1           0       -1.156684   -1.168941    1.435729
     11          1           0        2.058797   -1.165773   -0.838839
     12          1           0        2.874242   -0.311445    0.510520
     13          1           0        1.545394    1.105597    1.096358
     14          1           0        2.763184    0.557318    0.026618
     15          1           0       -1.247068    1.405937    1.154807
 ---------------------------------------------------------------------

 SCF Done:  E(RHF) =  -343.597760638     A.U. after    2 cycles

 The electronic state is 1-A.
 Alpha  occ. eigenvalues --  -20.62656 -20.58528 -11.35181 -11.31380 -11.31031
 Alpha  occ. eigenvalues --  -11.30953 -11.25110  -1.41510  -1.34983  -1.14861
 Alpha  occ. eigenvalues --   -1.02535  -0.91546  -0.84592  -0.76352  -0.75457
 Alpha  occ. eigenvalues --   -0.75058  -0.69450  -0.64781  -0.62578  -0.59913
 Alpha  occ. eigenvalues --   -0.58157  -0.56097  -0.50702  -0.46793  -0.43116
 Alpha  occ. eigenvalues --   -0.42035  -0.34095
 Alpha virt. eigenvalues --    0.03214   0.04282   0.04464   0.04872   0.06193
 Alpha virt. eigenvalues --    0.06246   0.07390   0.08877   0.09166   0.10344
 Alpha virt. eigenvalues --    0.10991   0.12641   0.13258   0.13764   0.14356

 Mulliken charges:
               1
     1  C    0.605462
     2  C    0.749130
     3  O   -0.581815
     4  C    0.439306
     5  C    0.397729
     6  O   -0.825940
     7  C    0.872057
     8  H   -0.277181
     9  H   -0.325644
    10  H   -0.391207
    11  H   -0.397568
    12  H    0.026642
    13  H   -0.245582
    14  H    0.324960
    15  H   -0.370349
 Sum of Mulliken charges =  -0.00000

 Dipole moment (field-independent basis, Debye):
    X=             -1.6107    Y=             -0.5290    Z=              1.3466  Tot=              2.1651

 Test job not archived.
 1\1\GINC-SE112\SP\RHF\Aug-CC-pVDZ\C5H8O2\OHZDE\09-Apr-2025\0\\#t hf au
 g-cc-pvdz iop(5/13=1,5/36=2,99/5=2) pseudo=read geom=check guess=(read
 ,tcheck) scf=(maxcycle=1)\\title\\0,1\C,0,-1.84181787,-0.13757607,0.89
 6598\C,0,-1.18401949,0.10709146,-0.42569871\O,0,-0.36047799,1.24711564
 ,-0.51859798\C,0,0.96660158,1.01245795,-0.45374808\C,0,1.41558672,-0.2
 4928386,0.04607271\O,0,0.54904598,-0.73898321,1.06228963\C,0,-0.690006
 84,-0.99156111,0.47077711\H,0,-1.63800895,0.58459967,1.67576658\H,0,-2
 .83389406,-0.56798589,0.89520376\H,0,-1.70766807,-0.1131759,-1.3472010

 Normal termination of Gaussian 16 at Wed Apr  9 17:00:27 2025.
