 Gaussian 16, Revision C.01,

 ----------------------------------------------------------------------
 #t hf aug-cc-pvdz symm=none int=(grid=ultrafine) guess=(read,tcheck) s
 table=(opt,rrhf)
 ----------------------------------------------------------------------
 -----
 title
 -----
 Symbolic Z-matrix:
 Charge =  0 Multiplicity = 1

 SCF Done:  E(RHF) =  -344.786517833     A.U. after   15 cycles

 1\1\GINC-SE334\Stability\RHF\Aug-CC-pVDZ\C5H10O2\OHZDE\09-Apr-2025\0\\
 #t hf aug-cc-pvdz symm=none int=(grid=ultrafine) guess=(read,tcheck) s
 table=(opt,rrhf)\\title\\0,1\C,0,-1.89448502,-0.35982067,-0.61465644\C
 ,0,-0.82456489,0.32275319,0.21343427\O,0,-1.14467611,1.62096901,0.6415
 6945\C,0,-0.04412469,-0.39304007,1.11695482\C,0,2.05306572,0.00699795,
 0.6790033\C,0,1.9168284,-0.27991746,-0.65307381\O,0,1.15609672,0.44688
 836,-1.39679625\H,0,-1.5544813,-1.34098938,-0.9483738\H,0,-2.8126633,-
 0.48436269,-0.03505049\H,0,-2.13482566,0.22543469,-1.50541333\H,0,0.15

 Normal termination of Gaussian 16 at Wed Apr  9 03:33:41 2025.
 Gaussian 16:  ES64L-G16RevC.01  3-Jul-2019

 ----------------------------------------------------------------------
 #t hf aug-cc-pvdz iop(5/13=1,5/36=2,99/5=2) pseudo=read geom=check gue
 ss=(read,tcheck) scf=(maxcycle=1)
 ----------------------------------------------------------------------
 -----
 title
 -----
 Structure from the checkpoint file:  "Grambow2020_wb97xd3_007090_reverse_mol1.chk"
 Charge =  0 Multiplicity = 1

                         Standard orientation:
 ---------------------------------------------------------------------
 Center     Atomic      Atomic             Coordinates (Angstroms)
 Number     Number       Type             X           Y           Z
 ---------------------------------------------------------------------
      1          6           0        1.860251    0.885875    0.696361
      2          6           0        0.962497   -0.157783    0.062969
      3          8           0        1.509700   -0.812412   -1.052004
      4          6           0        0.131418   -0.961973    0.837812
      5          6           0       -1.896906   -0.806611    0.055632
      6          6           0       -1.885334    0.562736    0.063788
      7          8           0       -1.062692    1.207154   -0.689914
      8          1           0        1.349449    1.381658    1.522764
      9          1           0        2.778750    0.429478    1.073940
     10          1           0        2.138977    1.655627   -0.027192
     11          1           0       -0.036911    0.659970   -0.437303
     12          1           0        1.670474   -0.166550   -1.742826
     13          1           0        0.064944   -2.019666    0.625678
     14          1           0       -0.063752   -0.676119    1.862359
     15          1           0       -2.539395   -1.348191    0.738884
     16          1           0       -1.575449   -1.327292   -0.837111
     17          1           0       -2.394713    1.119686    0.856780
 ---------------------------------------------------------------------

 SCF Done:  E(RHF) =  -344.895686691     A.U. after    2 cycles

 The electronic state is 1-A.
 Alpha  occ. eigenvalues --  -20.57775 -20.56749 -11.30996 -11.28506 -11.27463
 Alpha  occ. eigenvalues --  -11.23985 -11.23825  -1.34387  -1.32978  -1.05871
 Alpha  occ. eigenvalues --   -1.00800  -0.94288  -0.80412  -0.79356  -0.72667
 Alpha  occ. eigenvalues --   -0.68146  -0.65234  -0.63739  -0.62823  -0.59363
 Alpha  occ. eigenvalues --   -0.57183  -0.55656  -0.54794  -0.54173  -0.49455
 Alpha  occ. eigenvalues --   -0.47476  -0.38886  -0.31844
 Alpha virt. eigenvalues --    0.03091   0.04118   0.04461   0.04856   0.06244
 Alpha virt. eigenvalues --    0.06487   0.06702   0.07002   0.08566   0.09446
 Alpha virt. eigenvalues --    0.09858   0.12121   0.12889   0.13430   0.13855

 Mulliken charges:
               1
     1  C    0.569257
     2  C   -0.284464
     3  O   -0.605282
     4  C    0.579220
     5  C    0.454765
     6  C    0.768329
     7  O   -0.658158
     8  H   -0.041255
     9  H    0.015507
    10  H   -0.068947
    11  H    0.408277
    12  H    0.128539
    13  H   -0.126705
    14  H   -0.326391
    15  H   -0.300369
    16  H   -0.248162
    17  H   -0.264162
 Sum of Mulliken charges =  -0.00000

 Dipole moment (field-independent basis, Debye):
    X=             -0.0318    Y=             -0.6765    Z=              2.2619  Tot=              2.3611

 Test job not archived.
 1\1\GINC-SE334\SP\RHF\Aug-CC-pVDZ\C5H10O2\OHZDE\09-Apr-2025\0\\#t hf a
 ug-cc-pvdz iop(5/13=1,5/36=2,99/5=2) pseudo=read geom=check guess=(rea
 d,tcheck) scf=(maxcycle=1)\\title\\0,1\C,0,-1.89448502,-0.35982067,-0.
 61465644\C,0,-0.82456489,0.32275319,0.21343427\O,0,-1.14467611,1.62096
 901,0.64156945\C,0,-0.04412469,-0.39304007,1.11695482\C,0,2.05306572,0
 .00699795,0.6790033\C,0,1.9168284,-0.27991746,-0.65307381\O,0,1.156096
 72,0.44688836,-1.39679625\H,0,-1.5544813,-1.34098938,-0.9483738\H,0,-2
 .8126633,-0.48436269,-0.03505049\H,0,-2.13482566,0.22543469,-1.5054133

 Normal termination of Gaussian 16 at Wed Apr  9 03:33:48 2025.
