 Gaussian 16, Revision C.01,

 ----------------------------------------------------------------------
 #t hf aug-cc-pvdz symm=none int=(grid=ultrafine) guess=(read,tcheck) s
 table=(opt,rrhf)
 ----------------------------------------------------------------------
 -----
 title
 -----
 Symbolic Z-matrix:
 Charge =  0 Multiplicity = 1

 SCF Done:  E(RHF) =  -337.408237532     A.U. after   16 cycles
 Normal termination of Gaussian 16 at Wed Apr  9 04:04:00 2025.
 Gaussian 16:  ES64L-G16RevC.01  3-Jul-2019

 ----------------------------------------------------------------------
 #t hf aug-cc-pvdz iop(5/13=1,5/36=2,99/5=2) pseudo=read geom=check gue
 ss=(read,tcheck) scf=(maxcycle=1)
 ----------------------------------------------------------------------
 -----
 title
 -----
 Structure from the checkpoint file:  "Grambow2020_wb97xd3_009189_forward_mol1.chk"
 Charge =  0 Multiplicity = 1

                         Standard orientation:
 ---------------------------------------------------------------------
 Center     Atomic      Atomic             Coordinates (Angstroms)
 Number     Number       Type             X           Y           Z
 ---------------------------------------------------------------------
      1          8           0       -1.877140   -0.398742   -0.272921
      2          6           0       -0.590156   -0.507564   -0.072083
      3          6           0       -0.986703    0.680071    0.582549
      4          6           0        0.018175    1.189097   -0.310200
      5          7           0        1.333138    0.718688   -0.031307
      6          6           0        1.492293   -0.607675    0.104332
      7          7           0        0.430421   -1.364966   -0.035148
      8          1           0       -1.460823    0.860573    1.534571
      9          1           0       -0.062493    2.001073   -1.024766
     10          1           0        2.120860    1.341838   -0.002830
     11          1           0        2.473011   -1.013179    0.313992
 ---------------------------------------------------------------------

 SCF Done:  E(RHF) =  -337.508681189     A.U. after    2 cycles

 The electronic state is 1-A.
 Alpha  occ. eigenvalues --  -20.60043 -15.69805 -15.63398 -11.37367 -11.35236
 Alpha  occ. eigenvalues --  -11.31012 -11.28789  -1.40753  -1.31049  -1.17695
 Alpha  occ. eigenvalues --   -1.06001  -0.90743  -0.84036  -0.79392  -0.75155
 Alpha  occ. eigenvalues --   -0.69603  -0.66817  -0.64322  -0.60022  -0.58362
 Alpha  occ. eigenvalues --   -0.53090  -0.50869  -0.43010  -0.37366  -0.31753
 Alpha virt. eigenvalues --    0.02089   0.03591   0.04230   0.05412   0.08144
 Alpha virt. eigenvalues --    0.09103   0.10245   0.10412   0.11721   0.12494
 Alpha virt. eigenvalues --    0.13554   0.14142   0.14439   0.14838   0.15110

 Mulliken charges:
               1
     1  O   -0.616111
     2  C    0.076876
     3  C    0.825852
     4  C    0.608682
     5  N   -0.379794
     6  C    0.790358
     7  N   -0.441467
     8  H   -0.287153
     9  H   -0.281919
    10  H   -0.079314
    11  H   -0.216009
 Sum of Mulliken charges =  -0.00000

 Dipole moment (field-independent basis, Debye):
    X=              4.4434    Y=              3.2429    Z=              1.3678  Tot=              5.6684

 Test job not archived.
 1\1\GINC-SE229\SP\RHF\Aug-CC-pVDZ\C4H4N2O1\OHZDE\09-Apr-2025\0\\#t hf
 aug-cc-pvdz iop(5/13=1,5/36=2,99/5=2) pseudo=read geom=check guess=(re
 ad,tcheck) scf=(maxcycle=1)\\title\\0,1\O,0,2.16216177,-0.23978976,0.6
 5578511\C,0,0.9614057,-0.59924983,0.28500322\C,0,1.21405044,0.63335127
 ,-0.35775135\C,0,0.01385858,0.95022864,0.36682913\N,0,-1.13417123,0.22
 955688,-0.07003808\C,0,-1.0171525,-1.10425836,-0.17108009\N,0,0.138424
 66,-1.63891846,0.14403137\H,0,1.7760052,0.88892209,-1.24240295\H,0,-0.
 16411536,1.7724861,1.05139781\H,0,-2.01377289,0.68744525,-0.23212323\H

 Normal termination of Gaussian 16 at Wed Apr  9 04:04:04 2025.
