 Gaussian 16, Revision C.01,

 ----------------------------------------------------------------------
 #t hf aug-cc-pvdz symm=none int=(grid=ultrafine) guess=(read,tcheck) s
 table=(opt,rrhf)
 ----------------------------------------------------------------------
 -----
 title
 -----
 Symbolic Z-matrix:
 Charge =  0 Multiplicity = 1

 SCF Done:  E(RHF) =  -308.826076972     A.U. after   15 cycles

 1\1\GINC-SE232\Stability\RHF\Aug-CC-pVDZ\C6H12O1\OHZDE\09-Apr-2025\0\\
 #t hf aug-cc-pvdz symm=none int=(grid=ultrafine) guess=(read,tcheck) s
 table=(opt,rrhf)\\title\\0,1\C,0,1.49144534,0.96670003,0.30050681\C,0,
 0.65166731,-0.19140604,0.00706962\C,0,1.28166218,-1.37630477,-0.410529
 25\C,0,-0.69750849,0.13017294,-0.56250513\C,0,-1.8843601,-0.74793805,-
 0.27216939\C,0,-1.81877318,0.6159919,0.31575852\O,0,-1.64044993,0.6712
 36,1.70069643\H,0,2.27871524,0.61013133,-1.34974138\H,0,1.01748726,1.9
 2153348,0.50208581\H,0,2.45357308,0.79599512,0.76965169\H,0,0.63998836

 Normal termination of Gaussian 16 at Wed Apr  9 16:26:31 2025.
 Gaussian 16:  ES64L-G16RevC.01  3-Jul-2019

 ----------------------------------------------------------------------
 #t hf aug-cc-pvdz iop(5/13=1,5/36=2,99/5=2) pseudo=read geom=check gue
 ss=(read,tcheck) scf=(maxcycle=1)
 ----------------------------------------------------------------------
 -----
 title
 -----
 Structure from the checkpoint file:  "Grambow2020_wb97xd3_008287_forward_mol1.chk"
 Charge =  0 Multiplicity = 1

                         Standard orientation:
 ---------------------------------------------------------------------
 Center     Atomic      Atomic             Coordinates (Angstroms)
 Number     Number       Type             X           Y           Z
 ---------------------------------------------------------------------
      1          6           0       -1.490961    1.326081    0.284584
      2          6           0       -0.969968    0.023467   -0.120761
      3          6           0       -1.882903   -0.937868   -0.587291
      4          6           0        0.223476   -0.451986    0.652376
      5          6           0        1.272672   -1.309074   -0.002282
      6          6           0        1.599074    0.091454    0.374878
      7          8           0        1.793242    0.976292   -0.689201
      8          1           0       -2.723751    0.343086    1.276655
      9          1           0       -0.821839    2.033714    0.762610
     10          1           0       -2.315686    1.746005   -0.279703
     11          1           0       -0.639531    0.775569   -0.963049
     12          1           0       -2.739353   -0.628411   -1.174618
     13          1           0       -2.817612   -0.420690    0.960771
     14          1           0       -1.562743   -1.965071   -0.710905
     15          1           0       -0.007863   -0.662143    1.691955
     16          1           0        1.718962   -2.120401    0.556260
     17          1           0        1.154003   -1.488962   -1.063525
     18          1           0        2.257186    0.253618    1.223511
     19          1           0        1.643956    1.870906   -0.375374
 ---------------------------------------------------------------------

 SCF Done:  E(RHF) =  -308.925428768     A.U. after    2 cycles

 The electronic state is 1-A.
 Alpha  occ. eigenvalues --  -20.59040 -11.30089 -11.28023 -11.26719 -11.24885
 Alpha  occ. eigenvalues --  -11.23796 -11.22426  -1.34759  -1.15419  -1.08573
 Alpha  occ. eigenvalues --   -0.92325  -0.85643  -0.82659  -0.76735  -0.71663
 Alpha  occ. eigenvalues --   -0.69241  -0.65878  -0.62243  -0.60962  -0.59639
 Alpha  occ. eigenvalues --   -0.56282  -0.54193  -0.52971  -0.50606  -0.46461
 Alpha  occ. eigenvalues --   -0.42447  -0.41127  -0.26577
 Alpha virt. eigenvalues --    0.03005   0.03895   0.04257   0.05160   0.05929
 Alpha virt. eigenvalues --    0.06087   0.06706   0.07107   0.07865   0.08174
 Alpha virt. eigenvalues --    0.08339   0.10140   0.10393   0.12323   0.12592

 Mulliken charges:
               1
     1  C    0.422640
     2  C   -1.392522
     3  C    1.207309
     4  C    0.787180
     5  C    0.711788
     6  C    0.871895
     7  O   -0.612980
     8  H    0.119092
     9  H   -0.329057
    10  H   -0.354821
    11  H    0.371604
    12  H   -0.319485
    13  H    0.184633
    14  H   -0.386434
    15  H   -0.460050
    16  H   -0.320492
    17  H   -0.326237
    18  H   -0.357769
    19  H    0.183705
 Sum of Mulliken charges =  -0.00000

 Dipole moment (field-independent basis, Debye):
    X=              1.1176    Y=              1.5514    Z=              0.6291  Tot=              2.0129

 Test job not archived.
 1\1\GINC-SE232\SP\RHF\Aug-CC-pVDZ\C6H12O1\OHZDE\09-Apr-2025\0\\#t hf a
 ug-cc-pvdz iop(5/13=1,5/36=2,99/5=2) pseudo=read geom=check guess=(rea
 d,tcheck) scf=(maxcycle=1)\\title\\0,1\C,0,1.49144534,0.96670003,0.300
 50681\C,0,0.65166731,-0.19140604,0.00706962\C,0,1.28166218,-1.37630477
 ,-0.41052925\C,0,-0.69750849,0.13017294,-0.56250513\C,0,-1.8843601,-0.
 74793805,-0.27216939\C,0,-1.81877318,0.6159919,0.31575852\O,0,-1.64044
 993,0.671236,1.70069643\H,0,2.27871524,0.61013133,-1.34974138\H,0,1.01
 748726,1.92153348,0.50208581\H,0,2.45357308,0.79599512,0.76965169\H,0,

 Normal termination of Gaussian 16 at Wed Apr  9 16:26:39 2025.
