 Gaussian 16, Revision C.01,

 ----------------------------------------------------------------------
 #t hf aug-cc-pvdz symm=none int=(grid=ultrafine) guess=(read,tcheck) s
 table=(opt,rrhf)
 ----------------------------------------------------------------------
 -----
 title
 -----
 Symbolic Z-matrix:
 Charge =  0 Multiplicity = 1

 SCF Done:  E(RHF) =  -286.774037113     A.U. after   15 cycles
 Normal termination of Gaussian 16 at Wed Apr  9 16:34:14 2025.
 Gaussian 16:  ES64L-G16RevC.01  3-Jul-2019

 ----------------------------------------------------------------------
 #t hf aug-cc-pvdz iop(5/13=1,5/36=2,99/5=2) pseudo=read geom=check gue
 ss=(read,tcheck) scf=(maxcycle=1)
 ----------------------------------------------------------------------
 -----
 title
 -----
 Structure from the checkpoint file:  "Grambow2020_wb97xd3_008601_reverse_mol2.chk"
 Charge =  0 Multiplicity = 1

                         Standard orientation:
 ---------------------------------------------------------------------
 Center     Atomic      Atomic             Coordinates (Angstroms)
 Number     Number       Type             X           Y           Z
 ---------------------------------------------------------------------
      1          6           0       -1.479599   -0.774836    0.538372
      2          6           0       -1.215251   -0.003042   -0.738020
      3          6           0       -0.958775    1.351401   -0.359482
      4          6           0        2.114588   -0.424715   -0.317648
      5          6           0        0.825501   -0.198354    0.449229
      6          6           0        0.327285    1.275328    0.381489
      7          7           0       -0.254381   -1.000017   -0.147837
      8          1           0       -2.236059   -1.545680    0.457344
      9          1           0       -1.467258   -0.243288    1.486471
     10          1           0       -1.782218   -0.298861   -1.609770
     11          1           0        1.987509   -0.141597   -1.365447
     12          1           0        2.410377   -1.473494   -0.284540
     13          1           0        2.922489    0.178275    0.102922
     14          1           0        0.953010   -0.521332    1.486241
     15          1           0        0.316716    1.839997    1.316604
     16          1           0        0.993609    1.851415   -0.278609
 ---------------------------------------------------------------------

 SCF Done:  E(RHF) =  -286.855956365     A.U. after    2 cycles

 The electronic state is 1-A.
 Alpha  occ. eigenvalues --  -15.64044 -11.29608 -11.27391 -11.27358 -11.26162
 Alpha  occ. eigenvalues --  -11.24220 -11.22862  -1.28547  -1.06663  -1.02252
 Alpha  occ. eigenvalues --   -0.91644  -0.87258  -0.79380  -0.75223  -0.67058
 Alpha  occ. eigenvalues --   -0.65213  -0.61159  -0.57010  -0.55572  -0.53635
 Alpha  occ. eigenvalues --   -0.52834  -0.50836  -0.47321  -0.46039  -0.39111
 Alpha  occ. eigenvalues --   -0.35014
 Alpha virt. eigenvalues --    0.03264   0.03826   0.04008   0.04816   0.06358
 Alpha virt. eigenvalues --    0.06646   0.07035   0.07347   0.08366   0.09066
 Alpha virt. eigenvalues --    0.10723   0.11779   0.12601   0.13335   0.13896

 Mulliken charges:
               1
     1  C    0.918040
     2  C    0.990017
     3  C   -0.745717
     4  C    0.490583
     5  C    0.009263
     6  C    0.485485
     7  N   -0.844741
     8  H   -0.281801
     9  H   -0.291555
    10  H   -0.308603
    11  H   -0.019675
    12  H   -0.040628
    13  H    0.015358
    14  H   -0.262755
    15  H   -0.077988
    16  H   -0.035283
 Sum of Mulliken charges =   0.00000

 Dipole moment (field-independent basis, Debye):
    X=              0.8786    Y=             -1.0245    Z=              1.4328  Tot=              1.9683

 Test job not archived.
 1\1\GINC-SE042\SP\RHF\Aug-CC-pVDZ\C6H9N1\OHZDE\09-Apr-2025\0\\#t hf au
 g-cc-pvdz iop(5/13=1,5/36=2,99/5=2) pseudo=read geom=check guess=(read
 ,tcheck) scf=(maxcycle=1)\\title\\0,1\C,0,1.77282548,0.65149452,-0.308
 83891\C,0,1.28143133,0.08365809,1.00676533\C,0,0.29938521,0.99198387,1
 .51086514\C,0,-1.32793382,-1.36955221,-0.58123482\C,0,-0.45569412,-0.1
 2850124,-0.59003096\C,0,-0.81968417,0.87975697,0.53933753\N,0,0.944392
 57,-0.50420472,-0.33724668\H,0,2.82781496,0.50371155,-0.50417002\H,0,1
 .37178791,1.60089111,-0.6543857\H,0,2.01211924,-0.42928407,1.61659575\

 Normal termination of Gaussian 16 at Wed Apr  9 16:34:20 2025.
