 Gaussian 16, Revision C.01,

 ----------------------------------------------------------------------
 #t hf aug-cc-pvdz symm=none int=(grid=ultrafine) guess=(read,tcheck) s
 table=(opt,rrhf)
 ----------------------------------------------------------------------
 -----
 title
 -----
 Symbolic Z-matrix:
 Charge =  0 Multiplicity = 1

 SCF Done:  E(RHF) =  -270.741000089     A.U. after   15 cycles
 Normal termination of Gaussian 16 at Wed Apr  9 03:52:51 2025.
 Gaussian 16:  ES64L-G16RevC.01  3-Jul-2019

 ----------------------------------------------------------------------
 #t hf aug-cc-pvdz iop(5/13=1,5/36=2,99/5=2) pseudo=read geom=check gue
 ss=(read,tcheck) scf=(maxcycle=1)
 ----------------------------------------------------------------------
 -----
 title
 -----
 Structure from the checkpoint file:  "Grambow2020_wb97xd3_008382_reverse_mol2.chk"
 Charge =  0 Multiplicity = 1

                         Standard orientation:
 ---------------------------------------------------------------------
 Center     Atomic      Atomic             Coordinates (Angstroms)
 Number     Number       Type             X           Y           Z
 ---------------------------------------------------------------------
      1          6           0        2.116655   -0.797192    0.323100
      2          6           0       -1.116662   -0.726798    0.701292
      3          6           0       -1.890365    0.482080    0.685028
      4          6           0       -0.728452    0.459259   -0.461357
      5          6           0       -1.044715   -1.117201   -0.678138
      6          6           0        0.593720    1.129284   -0.332012
      7          6           0        1.781434    0.618973   -0.023779
      8          1           0        2.394378   -1.361903   -0.572395
      9          1           0        2.973891   -0.830558    0.996849
     10          1           0        1.271865   -1.290886    0.804408
     11          1           0       -1.782016    1.164868    1.522491
     12          1           0       -2.846834    0.577691    0.159053
     13          1           0       -1.285331    0.885208   -1.291432
     14          1           0       -0.241210   -1.781885   -0.981969
     15          1           0       -1.918486   -1.164361   -1.337507
     16          1           0        0.551542    2.192248   -0.556640
     17          1           0        2.612513    1.319154   -0.027663
 ---------------------------------------------------------------------

 SCF Done:  E(RHF) =  -270.823444319     A.U. after    2 cycles

 The electronic state is 1-A.
 Alpha  occ. eigenvalues --  -11.29317 -11.25972 -11.25951 -11.23992 -11.23785
 Alpha  occ. eigenvalues --  -11.23488 -11.21706  -1.18730  -1.05854  -0.95014
 Alpha  occ. eigenvalues --   -0.92933  -0.85303  -0.76372  -0.72415  -0.66123
 Alpha  occ. eigenvalues --   -0.63165  -0.59336  -0.56281  -0.55855  -0.53711
 Alpha  occ. eigenvalues --   -0.52458  -0.50256  -0.48136  -0.45835  -0.35158
 Alpha  occ. eigenvalues --   -0.31644
 Alpha virt. eigenvalues --    0.03186   0.04084   0.04381   0.04955   0.06000
 Alpha virt. eigenvalues --    0.06115   0.06738   0.07299   0.08429   0.09090
 Alpha virt. eigenvalues --    0.10556   0.11700   0.12580   0.12943   0.13842

 Mulliken charges:
               1
     1  C    0.468333
     2  C   -0.210456
     3  C    0.684436
     4  C   -0.220279
     5  C    1.049250
     6  C    0.085144
     7  C    0.164828
     8  H    0.144845
     9  H   -0.075404
    10  H    0.010679
    11  H   -0.307527
    12  H   -0.198460
    13  H   -0.091629
    14  H   -0.387655
    15  H   -0.227094
    16  H   -0.450466
    17  H   -0.438546
 Sum of Mulliken charges =  -0.00000

 Dipole moment (field-independent basis, Debye):
    X=             -0.8228    Y=              1.0222    Z=             -1.9497  Tot=              2.3502

 Test job not archived.
 1\1\GINC-SE069\SP\RHF\Aug-CC-pVDZ\C7H10\OHZDE\09-Apr-2025\0\\#t hf aug
 -cc-pvdz iop(5/13=1,5/36=2,99/5=2) pseudo=read geom=check guess=(read,
 tcheck) scf=(maxcycle=1)\\title\\0,1\C,0,1.85937604,1.20729478,-0.2614
 0082\C,0,0.15062163,-1.51820369,0.2427208\C,0,-1.07002615,-1.5602801,0
 .99671928\C,0,-0.9791085,-0.2613079,0.01225646\C,0,-0.27219098,-1.2136
 6562,-1.09477811\C,0,-0.57735377,1.10168336,0.45344781\C,0,0.58864536,
 1.72769705,0.3324404\H,0,1.91531932,1.44311533,-1.32873282\H,0,2.72125
 435,1.67893199,0.21254794\H,0,1.93539635,0.12703341,-0.13366427\H,0,-1

 Normal termination of Gaussian 16 at Wed Apr  9 03:52:57 2025.
