 Gaussian 16, Revision C.01,

 ----------------------------------------------------------------------
 #t hf aug-cc-pvdz symm=none int=(grid=ultrafine) guess=(read,tcheck) s
 table=(opt,rrhf)
 ----------------------------------------------------------------------
 -----
 title
 -----
 Symbolic Z-matrix:
 Charge =  0 Multiplicity = 1

 SCF Done:  E(RHF) =  -304.710809885     A.U. after   14 cycles
 Normal termination of Gaussian 16 at Wed Apr  9 14:26:14 2025.
 Gaussian 16:  ES64L-G16RevC.01  3-Jul-2019

 ----------------------------------------------------------------------
 #t hf aug-cc-pvdz iop(5/13=1,5/36=2,99/5=2) pseudo=read geom=check gue
 ss=(read,tcheck) scf=(maxcycle=1)
 ----------------------------------------------------------------------
 -----
 title
 -----
 Structure from the checkpoint file:  "Grambow2020_wb97xd3_006273_reverse_mol2.chk"
 Charge =  0 Multiplicity = 1

                         Standard orientation:
 ---------------------------------------------------------------------
 Center     Atomic      Atomic             Coordinates (Angstroms)
 Number     Number       Type             X           Y           Z
 ---------------------------------------------------------------------
      1          8           0        0.876310   -0.950277   -0.186950
      2          6           0        1.633910    0.140716   -0.302608
      3          8           0        1.426012    1.203926    0.202783
      4          6           0       -1.465271   -0.356104   -0.278604
      5          6           0       -2.120393    0.775825   -0.083249
      6          6           0       -0.333514   -0.812969    0.585120
      7          1           0        2.501130   -0.089220   -0.936824
      8          1           0       -1.735648   -1.015165   -1.098795
      9          1           0       -1.847512    1.454351    0.717587
     10          1           0       -2.945518    1.068778   -0.720786
     11          1           0       -0.162236   -0.120282    1.408671
     12          1           0       -0.517180   -1.812453    0.979524
 ---------------------------------------------------------------------

 SCF Done:  E(RHF) =  -304.810414086     A.U. after    2 cycles

 The electronic state is 1-A.
 Alpha  occ. eigenvalues --  -20.62601 -20.57023 -11.39780 -11.30938 -11.25146
 Alpha  occ. eigenvalues --  -11.24699  -1.43090  -1.33873  -1.07818  -0.97392
 Alpha  occ. eigenvalues --   -0.83417  -0.77889  -0.75455  -0.70052  -0.67850
 Alpha  occ. eigenvalues --   -0.63851  -0.61106  -0.58637  -0.53539  -0.52266
 Alpha  occ. eigenvalues --   -0.48596  -0.47675  -0.38698
 Alpha virt. eigenvalues --    0.03417   0.04459   0.04767   0.05079   0.06793
 Alpha virt. eigenvalues --    0.07373   0.09751   0.09922   0.11120   0.11814
 Alpha virt. eigenvalues --    0.13555   0.14465   0.14873   0.15626   0.15961

 Mulliken charges:
               1
     1  O   -0.525075
     2  C    0.631333
     3  O   -0.371345
     4  C    0.444436
     5  C    0.472650
     6  C    0.759084
     7  H   -0.206988
     8  H   -0.350069
     9  H   -0.263204
    10  H   -0.284521
    11  H   -0.144038
    12  H   -0.162265
 Sum of Mulliken charges =   0.00000

 Dipole moment (field-independent basis, Debye):
    X=             -0.7957    Y=             -1.7305    Z=             -0.3832  Tot=              1.9428

 Test job not archived.
 1\1\GINC-SE087\SP\RHF\Aug-CC-pVDZ\C4H6O2\OHZDE\09-Apr-2025\0\\#t hf au
 g-cc-pvdz iop(5/13=1,5/36=2,99/5=2) pseudo=read geom=check guess=(read
 ,tcheck) scf=(maxcycle=1)\\title\\0,1\O,0,1.23029592,0.47630265,0.8677
 4849\C,0,2.03025207,0.32614016,-0.18824428\O,0,1.71279503,0.42401488,-
 1.33659078\C,0,-0.918762,-0.54542588,0.44105788\C,0,-1.55124701,-0.894
 70153,-0.66645269\C,0,-0.16029344,0.73468258,0.58824759\H,0,3.04817378
 ,0.10378712,0.16041545\H,0,-0.92928888,-1.19641421,1.31070256\H,0,-1.5
 3106435,-0.26566457,-1.54968804\H,0,-2.10337516,-1.82412226,-0.7330682

 Normal termination of Gaussian 16 at Wed Apr  9 14:26:18 2025.
