 Gaussian 16, Revision C.01,

 ----------------------------------------------------------------------
 #t hf aug-cc-pvdz symm=none int=(grid=ultrafine) guess=(read,tcheck) s
 table=(opt,rrhf)
 ----------------------------------------------------------------------
 -----
 title
 -----
 Symbolic Z-matrix:
 Charge =  0 Multiplicity = 1

 SCF Done:  E(RHF) =  -231.694583669     A.U. after   15 cycles
 Normal termination of Gaussian 16 at Wed Apr  9 14:15:15 2025.
 Gaussian 16:  ES64L-G16RevC.01  3-Jul-2019

 ----------------------------------------------------------------------
 #t hf aug-cc-pvdz iop(5/13=1,5/36=2,99/5=2) pseudo=read geom=check gue
 ss=(read,tcheck) scf=(maxcycle=1)
 ----------------------------------------------------------------------
 -----
 title
 -----
 Structure from the checkpoint file:  "Grambow2020_b97d3_006873_reverse_mol2.chk"
 Charge =  0 Multiplicity = 1

                         Standard orientation:
 ---------------------------------------------------------------------
 Center     Atomic      Atomic             Coordinates (Angstroms)
 Number     Number       Type             X           Y           Z
 ---------------------------------------------------------------------
      1          6           0        1.134750   -0.440265   -0.792621
      2          6           0        0.177803    0.754468   -0.714142
      3          6           0       -1.199689    0.367073    0.003090
      4          6           0       -1.632017   -0.973504   -0.022375
      5          6           0        1.130748   -0.479429    0.773307
      6          6           0        0.174225    0.717518    0.749759
      7          1           0        2.109253   -0.148989   -1.205171
      8          1           0        0.749857   -1.330869   -1.297475
      9          1           0        0.085539    1.592937   -1.403991
     10          1           0       -1.833935    1.266492    0.023178
     11          1           0        0.744106   -1.394387    1.231158
     12          1           0       -2.747460   -0.970242   -0.017170
     13          1           0        2.102773   -0.208506    1.205304
     14          1           0        0.074953    1.518393    1.482055
 ---------------------------------------------------------------------

 SCF Done:  E(RHF) =  -231.761337688     A.U. after    2 cycles

 The electronic state is 1-A.
 Alpha  occ. eigenvalues --  -11.27275 -11.27187 -11.24853 -11.24574 -11.24005
 Alpha  occ. eigenvalues --  -11.23966  -1.18798  -1.00380  -0.91035  -0.89321
 Alpha  occ. eigenvalues --   -0.73721  -0.72205  -0.70269  -0.62985  -0.57606
 Alpha  occ. eigenvalues --   -0.55576  -0.52619  -0.48314  -0.47528  -0.41357
 Alpha  occ. eigenvalues --   -0.40321  -0.34167
 Alpha virt. eigenvalues --    0.03089   0.04102   0.04243   0.05125   0.06532
 Alpha virt. eigenvalues --    0.06670   0.06700   0.07002   0.08623   0.10776
 Alpha virt. eigenvalues --    0.12413   0.12725   0.13546   0.13964   0.14529

 Mulliken charges:
               1
     1  C    0.558165
     2  C    0.313093
     3  C    0.377384
     4  C   -0.292651
     5  C    0.560910
     6  C    0.304287
     7  H   -0.107835
     8  H   -0.145761
     9  H   -0.386444
    10  H   -0.380965
    11  H   -0.146094
    12  H   -0.160424
    13  H   -0.107422
    14  H   -0.386242
 Sum of Mulliken charges =  -0.00000

 Dipole moment (field-independent basis, Debye):
    X=              0.7762    Y=              2.4437    Z=              0.0631  Tot=              2.5648

 Test job not archived.
 1\1\GINC-SE016\SP\RHF\Aug-CC-pVDZ\C6H8\OHZDE\09-Apr-2025\0\\#t hf aug-
 cc-pvdz iop(5/13=1,5/36=2,99/5=2) pseudo=read geom=check guess=(read,t
 check) scf=(maxcycle=1)\\title\\0,1\C,0,-1.25699834,-0.39750636,0.5866
 8205\C,0,-0.53970442,0.90419927,0.21205597\C,0,1.05072465,0.72435782,0
 .19887867\C,0,1.63307143,-0.28155745,0.99493737\C,0,-0.62240942,-1.052
 33601,-0.68696426\C,0,0.05344143,0.29169171,-0.97848825\H,0,-2.3468671
 3,-0.29316411,0.5092561\H,0,-0.97654617,-0.84073959,1.54641468\H,0,-0.
 85764595,1.92935359,0.40022409\H,0,1.49722115,1.69237036,-0.0753824\H,

 Normal termination of Gaussian 16 at Wed Apr  9 14:15:19 2025.
