 Gaussian 16, Revision C.01,

 ----------------------------------------------------------------------
 #t hf aug-cc-pvdz symm=none int=(grid=ultrafine) guess=(read,tcheck) s
 table=(opt,rrhf)
 ----------------------------------------------------------------------
 -----
 title
 -----
 Symbolic Z-matrix:
 Charge =  0 Multiplicity = 1

 SCF Done:  E(RHF) =  -286.716191339     A.U. after   16 cycles
 Normal termination of Gaussian 16 at Wed Apr  9 15:59:11 2025.
 Gaussian 16:  ES64L-G16RevC.01  3-Jul-2019

 ----------------------------------------------------------------------
 #t hf aug-cc-pvdz iop(5/13=1,5/36=2,99/5=2) pseudo=read geom=check gue
 ss=(read,tcheck) scf=(maxcycle=1)
 ----------------------------------------------------------------------
 -----
 title
 -----
 Structure from the checkpoint file:  "Grambow2020_wb97xd3_007642_reverse_mol1.chk"
 Charge =  0 Multiplicity = 1

                         Standard orientation:
 ---------------------------------------------------------------------
 Center     Atomic      Atomic             Coordinates (Angstroms)
 Number     Number       Type             X           Y           Z
 ---------------------------------------------------------------------
      1          6           0        1.989867   -0.700561    0.298239
      2          6           0        0.816486   -0.024191   -0.330173
      3          6           0        0.816621    1.273754   -0.666374
      4          6           0       -0.547517    0.847497    1.301374
      5          6           0       -1.289388   -0.284119    0.640252
      6          7           0       -1.703602   -0.290965   -0.757463
      7          6           0       -0.421446   -0.869684   -0.401882
      8          1           0        1.690422   -1.178263    1.232699
      9          1           0        2.799280   -0.001821    0.501702
     10          1           0        2.358795   -1.481958   -0.372474
     11          1           0        1.672721    1.895984   -0.441450
     12          1           0        0.009827    1.740563   -1.215256
     13          1           0       -0.988935    1.811433    0.991516
     14          1           0       -1.880266   -0.894596    1.318156
     15          1           0       -1.623261    0.622267   -1.187824
     16          1           0       -0.301109   -1.933028   -0.573450
 ---------------------------------------------------------------------

 SCF Done:  E(RHF) =  -286.798961205     A.U. after    2 cycles

 The electronic state is 1-A.
 Alpha  occ. eigenvalues --  -15.62870 -11.28640 -11.28145 -11.27883 -11.27163
 Alpha  occ. eigenvalues --  -11.25153 -11.24370  -1.26501  -1.09459  -0.96010
 Alpha  occ. eigenvalues --   -0.94760  -0.89534  -0.79868  -0.73105  -0.67761
 Alpha  occ. eigenvalues --   -0.67083  -0.61572  -0.59520  -0.58075  -0.54291
 Alpha  occ. eigenvalues --   -0.50648  -0.50088  -0.46835  -0.43924  -0.36129
 Alpha  occ. eigenvalues --   -0.33930
 Alpha virt. eigenvalues --    0.03396   0.03812   0.04350   0.04701   0.05863
 Alpha virt. eigenvalues --    0.06701   0.06940   0.07211   0.09014   0.09205
 Alpha virt. eigenvalues --    0.10013   0.11607   0.12788   0.13906   0.14275

 Mulliken charges:
               1
     1  C    0.218232
     2  C   -0.626379
     3  C    1.395114
     4  C    0.042077
     5  C    0.572679
     6  N   -0.734935
     7  C    0.667658
     8  H    0.046356
     9  H   -0.098441
    10  H    0.097575
    11  H   -0.413899
    12  H   -0.487948
    13  H   -0.047361
    14  H   -0.275421
    15  H    0.005047
    16  H   -0.360353
 Sum of Mulliken charges =  -0.00000

 Dipole moment (field-independent basis, Debye):
    X=              1.1974    Y=              0.2147    Z=             -1.0723  Tot=              1.6216

 Test job not archived.
 1\1\GINC-SE009\SP\RHF\Aug-CC-pVDZ\C6H9N1\OHZDE\09-Apr-2025\0\\#t hf au
 g-cc-pvdz iop(5/13=1,5/36=2,99/5=2) pseudo=read geom=check guess=(read
 ,tcheck) scf=(maxcycle=1)\\title\\0,1\C,0,1.56673283,-0.70415004,0.896
 3137\C,0,0.58495792,-0.3442592,-0.16942319\C,0,0.87054506,0.50365336,-
 1.16801075\C,0,-0.6202561,1.50453729,0.47221545\C,0,-1.56073855,0.3284
 7074,0.45300353\N,0,-1.91831966,-0.41958579,-0.74606903\C,0,-0.8002170
 4,-0.87502716,0.05872799\H,0,1.14101731,-0.50303157,1.88089461\H,0,2.4
 9776667,-0.14971523,0.79354172\H,0,1.78557941,-1.7744164,0.83990794\H,

 Normal termination of Gaussian 16 at Wed Apr  9 15:59:17 2025.
