 Gaussian 16, Revision C.01,

 ----------------------------------------------------------------------
 #t hf aug-cc-pvdz symm=none int=(grid=ultrafine) guess=(read,tcheck) s
 table=(opt,rrhf)
 ----------------------------------------------------------------------
 -----
 title
 -----
 Symbolic Z-matrix:
 Charge =  0 Multiplicity = 1

 SCF Done:  E(RHF) =  -353.401133191     A.U. after   15 cycles
 Normal termination of Gaussian 16 at Wed Apr  9 03:46:12 2025.
 Gaussian 16:  ES64L-G16RevC.01  3-Jul-2019

 ----------------------------------------------------------------------
 #t hf aug-cc-pvdz iop(5/13=1,5/36=2,99/5=2) pseudo=read geom=check gue
 ss=(read,tcheck) scf=(maxcycle=1)
 ----------------------------------------------------------------------
 -----
 title
 -----
 Structure from the checkpoint file:  "Grambow2020_wb97xd3_007941_reverse_mol2.chk"
 Charge =  0 Multiplicity = 1

                         Standard orientation:
 ---------------------------------------------------------------------
 Center     Atomic      Atomic             Coordinates (Angstroms)
 Number     Number       Type             X           Y           Z
 ---------------------------------------------------------------------
      1          8           0       -2.146016   -0.070358   -0.000512
      2          6           0        1.930978   -0.003339    0.000708
      3          6           0        1.068260    1.157706   -0.000401
      4          7           0       -0.244666    1.157888   -0.000780
      5          7           0       -0.781794   -0.029336   -0.000114
      6          6           0       -0.094958   -1.164276   -0.000163
      7          7           0        1.216161   -1.174706    0.000026
      8          1           0       -2.395483    0.865929    0.007546
      9          1           0        1.495721    2.154010    0.001186
     10          1           0       -0.685702   -2.074542    0.000577
 ---------------------------------------------------------------------

 SCF Done:  E(RHF) =  -353.503374871     A.U. after    2 cycles

 The electronic state is 1-A.
 Alpha  occ. eigenvalues --  -20.69178 -15.83065 -15.73788 -15.64772 -11.37951
 Alpha  occ. eigenvalues --  -11.30940 -11.26043  -1.51171  -1.34928  -1.22402
 Alpha  occ. eigenvalues --   -1.13725  -0.97450  -0.92080  -0.82466  -0.76672
 Alpha  occ. eigenvalues --   -0.74320  -0.70498  -0.69441  -0.63277  -0.59014
 Alpha  occ. eigenvalues --   -0.54017  -0.46762  -0.45198  -0.40164  -0.32811
 Alpha virt. eigenvalues --    0.02376   0.03517   0.04755   0.05509   0.06192
 Alpha virt. eigenvalues --    0.09472   0.10077   0.10337   0.10661   0.12968
 Alpha virt. eigenvalues --    0.13778   0.14531   0.15047   0.16266   0.16819

 Mulliken charges:
               1
     1  O   -0.575838
     2  C   -0.089319
     3  C    0.587719
     4  N   -0.133364
     5  N    0.274257
     6  C    0.541651
     7  N   -0.411259
     8  H    0.222520
     9  H   -0.208103
    10  H   -0.208264
 Sum of Mulliken charges =  -0.00000

 Dipole moment (field-independent basis, Debye):
    X=             -5.3976    Y=              1.4782    Z=              0.0130  Tot=              5.5964

 Test job not archived.
 1\1\GINC-SE329\SP\RHF\Aug-CC-pVDZ\C3H3N3O1\OHZDE\09-Apr-2025\0\\#t hf
 aug-cc-pvdz iop(5/13=1,5/36=2,99/5=2) pseudo=read geom=check guess=(re
 ad,tcheck) scf=(maxcycle=1)\\title\\0,1\O,0,0.13292714,-1.09557165,1.7
 5296534\C,0,-0.26978061,0.8759224,-1.79349952\C,0,0.32641639,1.4157878
 2,-0.59125066\N,0,0.46559132,0.79861542,0.55918614\N,0,0.00626334,-0.4
 2073825,0.57341463\C,0,-0.5609231,-1.02167129,-0.46437734\N,0,-0.70453
 842,-0.4136271,-1.61711266\H,0,0.57432276,-0.45340311,2.32891819\H,0,0
 .71627059,2.42737039,-0.58341121\H,0,-0.89389241,-2.04079264,-0.296783

 Normal termination of Gaussian 16 at Wed Apr  9 03:46:16 2025.
