 Gaussian 16, Revision C.01,

 ----------------------------------------------------------------------
 #t hf aug-cc-pvdz symm=none int=(grid=ultrafine) guess=(read,tcheck) s
 table=(opt,rrhf)
 ----------------------------------------------------------------------
 -----
 title
 -----
 Symbolic Z-matrix:
 Charge =  0 Multiplicity = 1

 SCF Done:  E(RHF) =  -301.494876468     A.U. after   16 cycles
 Normal termination of Gaussian 16 at Wed Apr  9 03:46:30 2025.
 Gaussian 16:  ES64L-G16RevC.01  3-Jul-2019

 ----------------------------------------------------------------------
 #t hf aug-cc-pvdz iop(5/13=1,5/36=2,99/5=2) pseudo=read geom=check gue
 ss=(read,tcheck) scf=(maxcycle=1)
 ----------------------------------------------------------------------
 -----
 title
 -----
 Structure from the checkpoint file:  "Grambow2020_wb97xd3_007936_forward_mol1.chk"
 Charge =  0 Multiplicity = 1

                         Standard orientation:
 ---------------------------------------------------------------------
 Center     Atomic      Atomic             Coordinates (Angstroms)
 Number     Number       Type             X           Y           Z
 ---------------------------------------------------------------------
      1          6           0        1.082522    0.808927    0.614837
      2          6           0        1.782159   -0.424933   -0.005360
      3          6           0        0.365972   -0.580251   -0.448115
      4          7           0       -0.588632   -1.327220   -0.028349
      5          6           0       -1.562108   -0.361531    0.322313
      6          6           0       -1.249138    0.897997   -0.250494
      7          7           0        0.050437    0.803051   -0.530813
      8          1           0        1.637563    1.738526    0.744093
      9          1           0       -0.733579    0.150858    1.303688
     10          1           0        2.518745   -0.236124   -0.787899
     11          1           0        2.118077   -1.181208    0.698094
     12          1           0       -2.537982   -0.685364    0.659400
     13          1           0       -1.751896    1.841240   -0.102332
 ---------------------------------------------------------------------

 SCF Done:  E(RHF) =  -301.579172955     A.U. after    2 cycles

 The electronic state is 1-A.
 Alpha  occ. eigenvalues --  -15.66978 -15.63183 -11.33623 -11.32822 -11.31717
 Alpha  occ. eigenvalues --  -11.26653 -11.25659  -1.35717  -1.16992  -1.10208
 Alpha  occ. eigenvalues --   -0.95402  -0.85921  -0.80673  -0.75416  -0.72032
 Alpha  occ. eigenvalues --   -0.67456  -0.63079  -0.59094  -0.55547  -0.52377
 Alpha  occ. eigenvalues --   -0.50076  -0.45825  -0.44903  -0.38383  -0.29514
 Alpha virt. eigenvalues --    0.02800   0.03811   0.04531   0.05011   0.05948
 Alpha virt. eigenvalues --    0.06523   0.07817   0.08872   0.10582   0.10811
 Alpha virt. eigenvalues --    0.11873   0.12172   0.13237   0.14322   0.14515

 Mulliken charges:
               1
     1  C    0.175137
     2  C    0.686280
     3  C    0.150895
     4  N   -0.621615
     5  C    0.131356
     6  C    0.748501
     7  N   -0.782227
     8  H   -0.401834
     9  H    0.530142
    10  H   -0.165341
    11  H   -0.017175
    12  H   -0.163809
    13  H   -0.270310
 Sum of Mulliken charges =  -0.00000

 Dipole moment (field-independent basis, Debye):
    X=             -1.2464    Y=              1.7380    Z=             -0.2526  Tot=              2.1536

 Test job not archived.
 1\1\GINC-SE247\SP\RHF\Aug-CC-pVDZ\C5H6N2\OHZDE\09-Apr-2025\0\\#t hf au
 g-cc-pvdz iop(5/13=1,5/36=2,99/5=2) pseudo=read geom=check guess=(read
 ,tcheck) scf=(maxcycle=1)\\title\\0,1\C,0,-1.20347902,-0.45366903,0.11
 455166\C,0,-1.41963244,1.07347212,-0.01835175\C,0,0.03505042,0.9107673
 ,-0.3067353\N,0,1.08088572,1.11660733,0.40691346\C,0,1.67467266,-0.168
 14453,0.40493952\C,0,1.11658376,-0.97775524,-0.6175753\N,0,-0.04159502
 ,-0.38002895,-0.89656194\H,0,-2.01048502,-1.13970696,-0.14434375\H,0,0
 .58948727,-0.69594221,1.0801437\H,0,-2.04427335,1.41583605,-0.84490236

 Normal termination of Gaussian 16 at Wed Apr  9 03:46:34 2025.
