 Gaussian 16, Revision C.01,

 ----------------------------------------------------------------------
 #t hf aug-cc-pvdz symm=none int=(grid=ultrafine) guess=(read,tcheck) s
 table=(opt,rrhf)
 ----------------------------------------------------------------------
 -----
 title
 -----
 Symbolic Z-matrix:
 Charge =  0 Multiplicity = 1

 SCF Done:  E(RHF) =  -286.745863431     A.U. after   16 cycles
 Normal termination of Gaussian 16 at Wed Apr  9 16:34:17 2025.
 Gaussian 16:  ES64L-G16RevC.01  3-Jul-2019

 ----------------------------------------------------------------------
 #t hf aug-cc-pvdz iop(5/13=1,5/36=2,99/5=2) pseudo=read geom=check gue
 ss=(read,tcheck) scf=(maxcycle=1)
 ----------------------------------------------------------------------
 -----
 title
 -----
 Structure from the checkpoint file:  "Grambow2020_wb97xd3_008599_reverse_mol2.chk"
 Charge =  0 Multiplicity = 1

                         Standard orientation:
 ---------------------------------------------------------------------
 Center     Atomic      Atomic             Coordinates (Angstroms)
 Number     Number       Type             X           Y           Z
 ---------------------------------------------------------------------
      1          6           0        0.450974   -1.391693    0.611491
      2          6           0       -0.247898   -0.824356   -0.579461
      3          6           0       -0.990672    0.535344   -0.382336
      4          6           0        0.043865    1.408953    0.334161
      5          6           0        1.400098    0.793507   -0.043251
      6          6           0       -2.048723   -0.050435    0.427066
      7          7           0        1.173242   -0.616327   -0.370412
      8          1           0        0.689328   -2.447862    0.622947
      9          1           0        0.228283   -0.955139    1.577765
     10          1           0       -0.557375   -1.447040   -1.407622
     11          1           0       -1.248020    0.902801   -1.381379
     12          1           0       -0.028473    2.455733    0.037666
     13          1           0       -0.140294    1.359687    1.407909
     14          1           0        1.811052    1.263952   -0.938724
     15          1           0       -2.759981   -0.522395   -0.279833
     16          1           0        2.146921    0.876627    0.748138
 ---------------------------------------------------------------------

 SCF Done:  E(RHF) =  -286.827691218     A.U. after    2 cycles

 The electronic state is 1-A.
 Alpha  occ. eigenvalues --  -15.63282 -11.28775 -11.27215 -11.26842 -11.26509
 Alpha  occ. eigenvalues --  -11.25353 -11.23342  -1.27812  -1.07612  -1.02565
 Alpha  occ. eigenvalues --   -0.89123  -0.84639  -0.78898  -0.74388  -0.70484
 Alpha  occ. eigenvalues --   -0.63382  -0.62325  -0.60840  -0.57170  -0.51359
 Alpha  occ. eigenvalues --   -0.50355  -0.48380  -0.46857  -0.45531  -0.37661
 Alpha  occ. eigenvalues --   -0.35374
 Alpha virt. eigenvalues --    0.03160   0.03930   0.04146   0.04903   0.06415
 Alpha virt. eigenvalues --    0.06531   0.06699   0.07173   0.07533   0.09437
 Alpha virt. eigenvalues --    0.11706   0.11928   0.13081   0.13514   0.13619

 Mulliken charges:
               1
     1  C    1.050428
     2  C    0.307235
     3  C    0.271340
     4  C    0.262087
     5  C    0.877610
     6  C   -0.044247
     7  N   -0.832846
     8  H   -0.298793
     9  H   -0.337518
    10  H   -0.398085
    11  H   -0.181389
    12  H   -0.075979
    13  H   -0.109884
    14  H   -0.237259
    15  H   -0.099484
    16  H   -0.153218
 Sum of Mulliken charges =   0.00000

 Dipole moment (field-independent basis, Debye):
    X=              0.1643    Y=              0.7455    Z=             -1.1789  Tot=              1.4045

 Test job not archived.
 1\1\GINC-SE138\SP\RHF\Aug-CC-pVDZ\C6H9N1\OHZDE\09-Apr-2025\0\\#t hf au
 g-cc-pvdz iop(5/13=1,5/36=2,99/5=2) pseudo=read geom=check guess=(read
 ,tcheck) scf=(maxcycle=1)\\title\\0,1\C,0,1.12016048,1.18814622,-0.318
 19848\C,0,1.00754891,-0.04911036,0.50955483\C,0,-0.42948383,-0.4831665
 8,0.94069934\C,0,-1.23308504,-0.40767387,-0.36135803\C,0,-0.18506014,-
 0.56252927,-1.47412227\C,0,-0.58066973,0.6129932,1.88585399\N,0,1.1030
 9469,-0.11709119,-0.93711894\H,0,2.07260429,1.70122534,-0.36333193\H,0
 ,0.24595027,1.82417611,-0.38946789\H,0,1.83787751,-0.41944118,1.095023

 Normal termination of Gaussian 16 at Wed Apr  9 16:34:23 2025.
