 Gaussian 16, Revision C.01,

 ----------------------------------------------------------------------
 #t hf aug-cc-pvdz symm=none int=(grid=ultrafine) guess=(read,tcheck) s
 table=(opt,rrhf)
 ----------------------------------------------------------------------
 -----
 title
 -----
 Symbolic Z-matrix:
 Charge =  0 Multiplicity = 1

 SCF Done:  E(RHF) =  -247.706345910     A.U. after   18 cycles
 Normal termination of Gaussian 16 at Wed Apr  9 03:21:42 2025.
 Gaussian 16:  ES64L-G16RevC.01  3-Jul-2019

 ----------------------------------------------------------------------
 #t hf aug-cc-pvdz iop(5/13=1,5/36=2,99/5=2) pseudo=read geom=check gue
 ss=(read,tcheck) scf=(maxcycle=1)
 ----------------------------------------------------------------------
 -----
 title
 -----
 Structure from the checkpoint file:  "Grambow2020_wb97xd3_006168_forward_mol1.chk"
 Charge =  0 Multiplicity = 1

                         Standard orientation:
 ---------------------------------------------------------------------
 Center     Atomic      Atomic             Coordinates (Angstroms)
 Number     Number       Type             X           Y           Z
 ---------------------------------------------------------------------
      1          6           0       -2.008941   -0.165719   -0.521215
      2          6           0       -0.880173    0.071834    0.465383
      3          6           0        0.235770   -0.947034    0.479628
      4          6           0        0.106233    1.167608    0.136355
      5          6           0        1.229471    0.423326   -0.152134
      6          7           0        2.141236   -0.290192   -0.477403
      7          1           0       -2.681313    0.693645   -0.535132
      8          1           0       -2.593147   -1.052440   -0.259249
      9          1           0       -1.611976   -0.292220   -1.530345
     10          1           0       -1.268569    0.147205    1.486957
     11          1           0        0.248382   -1.757555   -0.240925
     12          1           0        0.687383   -1.176775    1.435144
     13          1           0        0.136427    2.169399    0.537275
 ---------------------------------------------------------------------

 SCF Done:  E(RHF) =  -247.779148399     A.U. after    2 cycles

 The electronic state is 1-A.
 Alpha  occ. eigenvalues --  -15.65555 -11.35216 -11.30536 -11.27152 -11.23512
 Alpha  occ. eigenvalues --  -11.22463  -1.22435  -1.11611  -0.97229  -0.93639
 Alpha  occ. eigenvalues --   -0.81082  -0.70158  -0.67574  -0.62421  -0.59104
 Alpha  occ. eigenvalues --   -0.56457  -0.54972  -0.52570  -0.50898  -0.50530
 Alpha  occ. eigenvalues --   -0.44565  -0.28783
 Alpha virt. eigenvalues --    0.02710   0.03408   0.04258   0.05108   0.05939
 Alpha virt. eigenvalues --    0.06690   0.06826   0.07676   0.10097   0.11197
 Alpha virt. eigenvalues --    0.12731   0.13253   0.13574   0.14954   0.15128

 Mulliken charges:
               1
     1  C    0.489313
     2  C   -0.402306
     3  C    0.468429
     4  C    0.877940
     5  C   -0.202526
     6  N   -0.413374
     7  H   -0.009824
     8  H   -0.039729
     9  H   -0.006163
    10  H   -0.119422
    11  H   -0.201114
    12  H   -0.118280
    13  H   -0.322944
 Sum of Mulliken charges =  -0.00000

 Dipole moment (field-independent basis, Debye):
    X=             -2.5903    Y=             -1.4067    Z=              1.9738  Tot=              3.5474

 Test job not archived.
 1\1\GINC-SE083\SP\RHF\Aug-CC-pVDZ\C5H7N1\OHZDE\09-Apr-2025\0\\#t hf au
 g-cc-pvdz iop(5/13=1,5/36=2,99/5=2) pseudo=read geom=check guess=(read
 ,tcheck) scf=(maxcycle=1)\\title\\0,1\C,0,1.55100004,0.50988844,-0.175
 79171\C,0,0.34701844,-0.4135576,-0.21579967\C,0,-0.59058337,-0.3595968
 2,0.96809874\C,0,-0.78276726,-0.03637946,-1.14493841\C,0,-1.75511423,0
 .31864999,-0.2353553\N,0,-2.52196079,0.69842435,0.60959595\H,0,2.07691
 792,0.48127519,-1.13149897\H,0,2.25454013,0.22089173,0.61015245\H,0,1.
 23462976,1.54031231,-0.00240601\H,0,0.66245159,-1.45563195,-0.33716658

 Normal termination of Gaussian 16 at Wed Apr  9 03:21:47 2025.
