 Gaussian 16, Revision C.01,

 ----------------------------------------------------------------------
 #t hf aug-cc-pvdz symm=none int=(grid=ultrafine) guess=(read,tcheck) s
 table=(opt,rrhf)
 ----------------------------------------------------------------------
 -----
 title
 -----
 Symbolic Z-matrix:
 Charge =  0 Multiplicity = 1

 SCF Done:  E(RHF) =  -343.524093282     A.U. after   15 cycles
 Normal termination of Gaussian 16 at Wed Apr  9 17:00:25 2025.
 Gaussian 16:  ES64L-G16RevC.01  3-Jul-2019

 ----------------------------------------------------------------------
 #t hf aug-cc-pvdz iop(5/13=1,5/36=2,99/5=2) pseudo=read geom=check gue
 ss=(read,tcheck) scf=(maxcycle=1)
 ----------------------------------------------------------------------
 -----
 title
 -----
 Structure from the checkpoint file:  "Grambow2020_wb97xd3_009107_forward_mol1.chk"
 Charge =  0 Multiplicity = 1

                         Standard orientation:
 ---------------------------------------------------------------------
 Center     Atomic      Atomic             Coordinates (Angstroms)
 Number     Number       Type             X           Y           Z
 ---------------------------------------------------------------------
      1          6           0       -1.754383   -0.640527   -0.103307
      2          6           0       -0.375183   -0.780830    0.358609
      3          8           0        0.696557   -1.238783   -0.255073
      4          6           0        1.767698   -0.308109    0.033461
      5          6           0        1.080332    1.097329    0.149294
      6          8           0       -0.157890    0.931664   -0.469789
      7          6           0       -1.529670    0.846238    0.284568
      8          1           0       -1.884854   -0.904942   -1.155141
      9          1           0       -2.481146   -1.130158    0.545737
     10          1           0       -0.244024   -0.561616    1.416708
     11          1           0        2.447668   -0.385089   -0.811028
     12          1           0        2.279702   -0.596851    0.953961
     13          1           0        0.956472    1.399028    1.194904
     14          1           0        1.662533    1.854184   -0.379781
     15          1           0       -2.178444    1.497788   -0.302211
 ---------------------------------------------------------------------

 SCF Done:  E(RHF) =  -343.630671680     A.U. after    2 cycles

 The electronic state is 1-A.
 Alpha  occ. eigenvalues --  -20.64168 -20.57250 -11.41478 -11.32422 -11.30253
 Alpha  occ. eigenvalues --  -11.24413 -11.21765  -1.44116  -1.31907  -1.10042
 Alpha  occ. eigenvalues --   -0.99489  -0.92327  -0.83897  -0.78191  -0.74202
 Alpha  occ. eigenvalues --   -0.71792  -0.70085  -0.65952  -0.60723  -0.58258
 Alpha  occ. eigenvalues --   -0.56013  -0.55420  -0.52411  -0.49944  -0.47901
 Alpha  occ. eigenvalues --   -0.42482  -0.28308
 Alpha virt. eigenvalues --    0.03098   0.04134   0.04687   0.05141   0.06094
 Alpha virt. eigenvalues --    0.06648   0.07052   0.07293   0.09577   0.10498
 Alpha virt. eigenvalues --    0.11867   0.12558   0.13317   0.13813   0.14445

 Mulliken charges:
               1
     1  C    0.421539
     2  C    0.821127
     3  O   -0.674463
     4  C    0.754273
     5  C    0.717796
     6  O   -0.788948
     7  C    0.133918
     8  H   -0.087471
     9  H   -0.014284
    10  H   -0.201748
    11  H   -0.221742
    12  H   -0.103955
    13  H   -0.199422
    14  H   -0.208525
    15  H   -0.348095
 Sum of Mulliken charges =   0.00000

 Dipole moment (field-independent basis, Debye):
    X=              2.9816    Y=             -2.0649    Z=              0.6024  Tot=              3.6765

 Test job not archived.
 1\1\GINC-SE174\SP\RHF\Aug-CC-pVDZ\C5H8O2\OHZDE\09-Apr-2025\0\\#t hf au
 g-cc-pvdz iop(5/13=1,5/36=2,99/5=2) pseudo=read geom=check guess=(read
 ,tcheck) scf=(maxcycle=1)\\title\\0,1\C,0,-1.77421358,-0.2192735,0.696
 29688\C,0,-0.8429602,0.39930581,-0.24464481\O,0,-0.11232747,1.49046216
 ,-0.14214632\C,0,1.20780038,1.15166166,-0.63125317\C,0,1.4196508,-0.35
 591008,-0.25245188\O,0,0.46278819,-0.60599326,0.73028742\C,0,-0.842045
 81,-1.44767094,0.51321563\H,0,-1.80803941,0.28688895,1.66374053\H,0,-2
 .76628628,-0.38892378,0.27654555\H,0,-0.83520187,-0.07199348,-1.225790

 Normal termination of Gaussian 16 at Wed Apr  9 17:00:30 2025.
