 Gaussian 16, Revision C.01,

 ----------------------------------------------------------------------
 #t hf aug-cc-pvdz symm=none int=(grid=ultrafine) guess=(read,tcheck) s
 table=(opt,rrhf)
 ----------------------------------------------------------------------
 -----
 title
 -----
 Symbolic Z-matrix:
 Charge =  0 Multiplicity = 1

 SCF Done:  E(RHF) =  -306.648668235     A.U. after   15 cycles
 Normal termination of Gaussian 16 at Wed Apr  9 04:04:47 2025.
 Gaussian 16:  ES64L-G16RevC.01  3-Jul-2019

 ----------------------------------------------------------------------
 #t hf aug-cc-pvdz iop(5/13=1,5/36=2,99/5=2) pseudo=read geom=check gue
 ss=(read,tcheck) scf=(maxcycle=1)
 ----------------------------------------------------------------------
 -----
 title
 -----
 Structure from the checkpoint file:  "Grambow2020_wb97xd3_009216_reverse_mol2.chk"
 Charge =  0 Multiplicity = 1

                         Standard orientation:
 ---------------------------------------------------------------------
 Center     Atomic      Atomic             Coordinates (Angstroms)
 Number     Number       Type             X           Y           Z
 ---------------------------------------------------------------------
      1          6           0        2.342326   -1.416049   -0.273269
      2          6           0        1.805851   -0.239040   -0.077393
      3          6           0        1.287108    0.901303    0.118086
      4          6           0        0.731881    2.067875    0.316173
      5          6           0       -1.663805   -0.465357   -0.455618
      6          6           0       -1.690653   -1.087944    0.905737
      7          8           0       -2.091599    0.627125   -0.715512
      8          1           0        1.786284   -2.216236   -0.749346
      9          1           0       -0.671469   -1.351121    1.200054
     10          1           0        3.361973   -1.626174    0.029013
     11          1           0        1.280083    2.874913    0.788576
     12          1           0       -0.292582    2.250981    0.009130
     13          1           0       -1.214213   -1.090133   -1.255351
     14          1           0       -2.265474   -2.017220    0.866689
     15          1           0       -2.128058   -0.406752    1.633039
 ---------------------------------------------------------------------

 SCF Done:  E(RHF) =  -306.749334529     A.U. after    2 cycles

 The electronic state is 1-A.
 Alpha  occ. eigenvalues --  -20.57095 -11.34552 -11.27352 -11.27043 -11.26749
 Alpha  occ. eigenvalues --  -11.26475 -11.24622  -1.36255  -1.09064  -1.01648
 Alpha  occ. eigenvalues --   -1.01320  -0.89944  -0.80057  -0.69557  -0.68521
 Alpha  occ. eigenvalues --   -0.65657  -0.63983  -0.63321  -0.61350  -0.60206
 Alpha  occ. eigenvalues --   -0.56139  -0.51726  -0.48465  -0.43624  -0.38035
 Alpha  occ. eigenvalues --   -0.34267
 Alpha virt. eigenvalues --    0.03175   0.04089   0.04344   0.04832   0.05978
 Alpha virt. eigenvalues --    0.06542   0.06664   0.07862   0.07946   0.09967
 Alpha virt. eigenvalues --    0.11379   0.12067   0.12631   0.13060   0.13691

 Mulliken charges:
               1
     1  C    0.619933
     2  C   -0.319401
     3  C   -0.325786
     4  C    0.704371
     5  C    0.632637
     6  C    0.106058
     7  O   -0.505066
     8  H   -0.204111
     9  H   -0.021828
    10  H   -0.174451
    11  H   -0.165473
    12  H   -0.151559
    13  H   -0.143204
    14  H    0.011660
    15  H   -0.063779
 Sum of Mulliken charges =  -0.00000

 Dipole moment (field-independent basis, Debye):
    X=              1.0033    Y=             -2.5325    Z=              1.1853  Tot=              2.9707

 Test job not archived.
 1\1\GINC-SE166\SP\RHF\Aug-CC-pVDZ\C6H8O1\OHZDE\09-Apr-2025\0\\#t hf au
 g-cc-pvdz iop(5/13=1,5/36=2,99/5=2) pseudo=read geom=check guess=(read
 ,tcheck) scf=(maxcycle=1)\\title\\0,1\C,0,2.01504687,-0.46410785,-1.72
 241645\C,0,1.55048696,0.39428877,-0.85128898\C,0,1.10328972,1.223642,-
 0.00283459\C,0,0.62206919,2.06853681,0.87065595\C,0,-1.83648839,-0.256
 55273,-0.27026216\C,0,-1.38717605,-1.40341064,0.58088883\O,0,-2.351175
 45,0.7449155,0.14953356\H,0,1.34863719,-1.06182056,-2.33460039\H,0,-0.
 32294266,-1.58294705,0.40827869\H,0,3.0812314,-0.60020329,-1.86360567\

 Normal termination of Gaussian 16 at Wed Apr  9 04:04:52 2025.
