 Gaussian 16, Revision C.01,

 ----------------------------------------------------------------------
 #t hf aug-cc-pvdz symm=none int=(grid=ultrafine) guess=(read,tcheck) s
 table=(opt,rrhf)
 ----------------------------------------------------------------------
 -----
 title
 -----
 Symbolic Z-matrix:
 Charge =  0 Multiplicity = 1

 SCF Done:  E(RHF) =  -308.823600930     A.U. after   14 cycles

 1\1\GINC-SE220\Stability\RHF\Aug-CC-pVDZ\C6H12O1\OHZDE\09-Apr-2025\0\\
 #t hf aug-cc-pvdz symm=none int=(grid=ultrafine) guess=(read,tcheck) s
 table=(opt,rrhf)\\title\\0,1\C,0,1.63735419,0.93517743,0.62003371\C,0,
 0.75721176,-0.28134037,0.53427124\C,0,1.37666032,-1.04951952,-1.167922
 44\C,0,-0.68844586,-0.0141207,0.64874432\C,0,-1.92865281,-0.77022372,0
 .32665914\C,0,-1.68538656,0.64275119,-0.18917529\O,0,-2.40715175,1.747
 41862,0.28341982\H,0,1.54532243,1.33841255,1.62931082\H,0,2.68334578,0
 .7084062,0.41486687\H,0,1.29337108,1.70039341,-0.07574663\H,0,1.055112

 Normal termination of Gaussian 16 at Wed Apr  9 16:26:29 2025.
 Gaussian 16:  ES64L-G16RevC.01  3-Jul-2019

 ----------------------------------------------------------------------
 #t hf aug-cc-pvdz iop(5/13=1,5/36=2,99/5=2) pseudo=read geom=check gue
 ss=(read,tcheck) scf=(maxcycle=1)
 ----------------------------------------------------------------------
 -----
 title
 -----
 Structure from the checkpoint file:  "Grambow2020_wb97xd3_008293_forward_mol1.chk"
 Charge =  0 Multiplicity = 1

                         Standard orientation:
 ---------------------------------------------------------------------
 Center     Atomic      Atomic             Coordinates (Angstroms)
 Number     Number       Type             X           Y           Z
 ---------------------------------------------------------------------
      1          6           0       -1.587503    1.500573   -0.144848
      2          6           0       -1.119895    0.138115   -0.577250
      3          6           0       -2.157722   -0.999622    0.647392
      4          6           0        0.342625   -0.050109   -0.570673
      5          6           0        1.253973   -1.225842   -0.596006
      6          6           0        1.366614   -0.137410    0.464365
      7          8           0        2.435369    0.768831    0.497125
      8          1           0       -1.248102    2.218489   -0.892586
      9          1           0       -2.671765    1.559450   -0.052508
     10          1           0       -1.131453    1.772213    0.807108
     11          1           0       -1.575116   -0.274988   -1.469778
     12          1           0       -3.129878   -0.864427    0.184461
     13          1           0       -2.134490   -0.590740    1.655911
     14          1           0       -1.880373   -2.055086    0.634450
     15          1           0       -0.720055   -0.669097    0.214059
     16          1           0        0.942688   -2.210064   -0.238643
     17          1           0        2.009447   -1.275527   -1.374892
     18          1           0        1.143538   -0.455749    1.483963
     19          1           0        2.324061    1.340649   -0.266428
 ---------------------------------------------------------------------

 SCF Done:  E(RHF) =  -308.921796110     A.U. after    2 cycles

 The electronic state is 1-A.
 Alpha  occ. eigenvalues --  -20.55152 -11.32947 -11.28126 -11.26421 -11.25112
 Alpha  occ. eigenvalues --  -11.22298 -11.20600  -1.30998  -1.15009  -1.06242
 Alpha  occ. eigenvalues --   -0.95778  -0.90323  -0.81427  -0.76050  -0.70336
 Alpha  occ. eigenvalues --   -0.65057  -0.62952  -0.61472  -0.59421  -0.58312
 Alpha  occ. eigenvalues --   -0.57428  -0.55200  -0.54216  -0.52751  -0.51271
 Alpha  occ. eigenvalues --   -0.41165  -0.38396  -0.26547
 Alpha virt. eigenvalues --    0.02318   0.03893   0.04215   0.04768   0.06240
 Alpha virt. eigenvalues --    0.06364   0.06397   0.07146   0.07309   0.08668
 Alpha virt. eigenvalues --    0.09051   0.10788   0.11957   0.12405   0.13057

 Mulliken charges:
               1
     1  C    0.881936
     2  C   -0.160271
     3  C    0.483285
     4  C   -1.339103
     5  C    0.933013
     6  C    0.971459
     7  O   -0.613589
     8  H   -0.020498
     9  H   -0.109131
    10  H    0.012018
    11  H   -0.156636
    12  H   -0.172397
    13  H   -0.067546
    14  H   -0.068920
    15  H    0.180246
    16  H   -0.239932
    17  H   -0.321723
    18  H   -0.339745
    19  H    0.147533
 Sum of Mulliken charges =  -0.00000

 Dipole moment (field-independent basis, Debye):
    X=             -4.5633    Y=             -0.4588    Z=             -0.3684  Tot=              4.6010

 Test job not archived.
 1\1\GINC-SE220\SP\RHF\Aug-CC-pVDZ\C6H12O1\OHZDE\09-Apr-2025\0\\#t hf a
 ug-cc-pvdz iop(5/13=1,5/36=2,99/5=2) pseudo=read geom=check guess=(rea
 d,tcheck) scf=(maxcycle=1)\\title\\0,1\C,0,1.63735419,0.93517743,0.620
 03371\C,0,0.75721176,-0.28134037,0.53427124\C,0,1.37666032,-1.04951952
 ,-1.16792244\C,0,-0.68844586,-0.0141207,0.64874432\C,0,-1.92865281,-0.
 77022372,0.32665914\C,0,-1.68538656,0.64275119,-0.18917529\O,0,-2.4071
 5175,1.74741862,0.28341982\H,0,1.54532243,1.33841255,1.62931082\H,0,2.
 68334578,0.7084062,0.41486687\H,0,1.29337108,1.70039341,-0.07574663\H,

 Normal termination of Gaussian 16 at Wed Apr  9 16:26:37 2025.
