 Gaussian 16, Revision C.01,

 ----------------------------------------------------------------------
 #t hf aug-cc-pvdz symm=none int=(grid=ultrafine) guess=(read,tcheck) s
 table=(opt,rrhf)
 ----------------------------------------------------------------------
 -----
 title
 -----
 Symbolic Z-matrix:
 Charge =  0 Multiplicity = 1

 SCF Done:  E(RHF) =  -306.502997733     A.U. after   15 cycles
 Normal termination of Gaussian 16 at Wed Apr  9 16:23:07 2025.
 Gaussian 16:  ES64L-G16RevC.01  3-Jul-2019

 ----------------------------------------------------------------------
 #t hf aug-cc-pvdz iop(5/13=1,5/36=2,99/5=2) pseudo=read geom=check gue
 ss=(read,tcheck) scf=(maxcycle=1)
 ----------------------------------------------------------------------
 -----
 title
 -----
 Structure from the checkpoint file:  "Grambow2020_wb97xd3_008181_forward_mol1.chk"
 Charge =  0 Multiplicity = 1

                         Standard orientation:
 ---------------------------------------------------------------------
 Center     Atomic      Atomic             Coordinates (Angstroms)
 Number     Number       Type             X           Y           Z
 ---------------------------------------------------------------------
      1          6           0        1.729446   -0.070593   -0.211624
      2          6           0        0.426065   -0.731173   -0.607695
      3          8           0       -0.229184   -1.148866    0.608097
      4          6           0       -0.828370    0.094031    0.785646
      5          6           0       -1.823348    0.293129   -0.307209
      6          6           0       -0.430721    0.516783   -0.770814
      7          6           0        1.159557    1.013126    0.701061
      8          1           0        2.404711   -0.752655    0.308941
      9          1           0        2.213145    0.296624   -1.126629
     10          1           0        0.435846   -1.527683   -1.354286
     11          1           0       -0.914390    0.502130    1.779229
     12          1           0       -2.363084   -0.589320   -0.639023
     13          1           0       -2.418839    1.196128   -0.235386
     14          1           0       -0.127887    1.377846   -1.344865
     15          1           0        1.208200    1.996039    0.211054
 ---------------------------------------------------------------------

 SCF Done:  E(RHF) =  -306.593554317     A.U. after    2 cycles

 The electronic state is 1-A.
 Alpha  occ. eigenvalues --  -20.58614 -11.33651 -11.31484 -11.28400 -11.25322
 Alpha  occ. eigenvalues --  -11.24471 -11.23394  -1.39202  -1.12145  -1.06125
 Alpha  occ. eigenvalues --   -0.91969  -0.84893  -0.79705  -0.74118  -0.72638
 Alpha  occ. eigenvalues --   -0.69101  -0.66628  -0.58921  -0.56672  -0.55787
 Alpha  occ. eigenvalues --   -0.53851  -0.52156  -0.47801  -0.42992  -0.39784
 Alpha  occ. eigenvalues --   -0.30973
 Alpha virt. eigenvalues --    0.03050   0.03988   0.04495   0.04926   0.06256
 Alpha virt. eigenvalues --    0.06389   0.06735   0.07139   0.09567   0.11037
 Alpha virt. eigenvalues --    0.12056   0.12691   0.13204   0.14029   0.14082

 Mulliken charges:
               1
     1  C    0.455826
     2  C    0.464835
     3  O   -0.783411
     4  C    0.732128
     5  C    0.731117
     6  C    0.182706
     7  C    0.006987
     8  H   -0.111636
     9  H   -0.078344
    10  H   -0.254190
    11  H   -0.365346
    12  H   -0.250752
    13  H   -0.173256
    14  H   -0.479517
    15  H   -0.077146
 Sum of Mulliken charges =   0.00000

 Dipole moment (field-independent basis, Debye):
    X=             -1.2410    Y=              1.0869    Z=             -2.9146  Tot=              3.3491

 Test job not archived.
 1\1\GINC-SE173\SP\RHF\Aug-CC-pVDZ\C6H8O1\OHZDE\09-Apr-2025\0\\#t hf au
 g-cc-pvdz iop(5/13=1,5/36=2,99/5=2) pseudo=read geom=check guess=(read
 ,tcheck) scf=(maxcycle=1)\\title\\0,1\C,0,-1.69478291,-0.12635985,-0.2
 5039743\C,0,-0.62107099,-0.45427275,0.76530704\O,0,0.18795949,-1.51075
 934,0.20738583\C,0,1.00316258,-0.61182837,-0.47284043\C,0,1.77821132,0
 .16948302,0.53354053\C,0,0.37573981,0.64264394,0.41713149\C,0,-0.78651
 988,0.21642321,-1.42928312\H,0,-2.35331458,-0.97325217,-0.45359234\H,0
 ,-2.28600202,0.71162261,0.14240535\H,0,-0.90845913,-0.6685952,1.796517

 Normal termination of Gaussian 16 at Wed Apr  9 16:23:12 2025.
