 Gaussian 16, Revision C.01,

 ----------------------------------------------------------------------
 #t hf aug-cc-pvdz symm=none int=(grid=ultrafine) guess=(read,tcheck) s
 table=(opt,rrhf)
 ----------------------------------------------------------------------
 -----
 title
 -----
 Symbolic Z-matrix:
 Charge =  0 Multiplicity = 1

 SCF Done:  E(RHF) =  -264.857321937     A.U. after   17 cycles
 Normal termination of Gaussian 16 at Wed Apr  9 14:21:22 2025.
 Gaussian 16:  ES64L-G16RevC.01  3-Jul-2019

 ----------------------------------------------------------------------
 #t hf aug-cc-pvdz iop(5/13=1,5/36=2,99/5=2) pseudo=read geom=check gue
 ss=(read,tcheck) scf=(maxcycle=1)
 ----------------------------------------------------------------------
 -----
 title
 -----
 Structure from the checkpoint file:  "Grambow2020_wb97xd3_006062_forward_mol1.chk"
 Charge =  0 Multiplicity = 1

                         Standard orientation:
 ---------------------------------------------------------------------
 Center     Atomic      Atomic             Coordinates (Angstroms)
 Number     Number       Type             X           Y           Z
 ---------------------------------------------------------------------
      1          6           0       -0.292750    1.695572   -0.077338
      2          6           0       -0.000394    0.229840   -0.084544
      3          6           0       -1.613507   -0.836583   -0.679624
      4          7           0       -0.818939   -0.505699    0.947414
      5          6           0        1.355760   -0.164936   -0.093228
      6          7           0        2.433832   -0.584960   -0.149770
      7          1           0       -0.106456    2.156139    0.907317
      8          1           0       -1.335996    1.907283   -0.338525
      9          1           0        0.338577    2.208355   -0.802352
     10          1           0       -2.493309   -1.291329   -0.215437
     11          1           0       -1.044036   -1.568449   -1.240068
     12          1           0       -1.910265    0.005783   -1.294999
     13          1           0       -0.378480   -1.369744    1.234469
     14          1           0       -1.068945    0.043217    1.774489
 ---------------------------------------------------------------------

 SCF Done:  E(RHF) =  -264.938149460     A.U. after    2 cycles

 The electronic state is 1-A.
 Alpha  occ. eigenvalues --  -15.68549 -15.59460 -11.35476 -11.24969 -11.24761
 Alpha  occ. eigenvalues --  -11.23895  -1.21677  -1.14875  -1.00736  -0.97241
 Alpha  occ. eigenvalues --   -0.86912  -0.72961  -0.69408  -0.63527  -0.62356
 Alpha  occ. eigenvalues --   -0.58837  -0.56540  -0.54573  -0.51595  -0.50349
 Alpha  occ. eigenvalues --   -0.45004  -0.42399  -0.26100
 Alpha virt. eigenvalues --    0.02036   0.03263   0.03821   0.04999   0.06576
 Alpha virt. eigenvalues --    0.06673   0.07234   0.07870   0.09802   0.10899
 Alpha virt. eigenvalues --    0.12286   0.12721   0.13818   0.14589   0.14606

 Mulliken charges:
               1
     1  C    0.470612
     2  C    0.536137
     3  C    0.848588
     4  N   -0.323972
     5  C   -0.953452
     6  N   -0.227582
     7  H    0.018676
     8  H   -0.138244
     9  H   -0.079967
    10  H   -0.168834
    11  H   -0.010176
    12  H   -0.027764
    13  H    0.062282
    14  H   -0.006303
 Sum of Mulliken charges =  -0.00000

 Dipole moment (field-independent basis, Debye):
    X=             -6.5300    Y=             -0.2315    Z=              1.1823  Tot=              6.6402

 Test job not archived.
 1\1\GINC-SE112\SP\RHF\Aug-CC-pVDZ\C4H8N2\OHZDE\09-Apr-2025\0\\#t hf au
 g-cc-pvdz iop(5/13=1,5/36=2,99/5=2) pseudo=read geom=check guess=(read
 ,tcheck) scf=(maxcycle=1)\\title\\0,1\C,0,-0.90647038,1.21921094,-0.38
 117257\C,0,-0.25114193,0.13574529,0.41289198\C,0,1.55719975,-0.3456097
 6,-0.35633427\N,0,-0.10627674,-1.13284872,-0.39063437\C,0,-0.72983885,
 -0.09467067,1.72164591\N,0,-1.01959139,-0.32494542,2.81931322\H,0,-1.9
 0342611,0.92524014,-0.74999982\H,0,-0.31140086,1.50372627,-1.25658357\
 H,0,-1.03511866,2.10999578,0.23292778\H,0,1.95430579,-1.03213523,-1.10

 Normal termination of Gaussian 16 at Wed Apr  9 14:21:26 2025.
