 Gaussian 16, Revision C.01,

 ----------------------------------------------------------------------
 #t hf aug-cc-pvdz symm=none int=(grid=ultrafine) guess=(read,tcheck) s
 table=(opt,rrhf)
 ----------------------------------------------------------------------
 -----
 title
 -----
 Symbolic Z-matrix:
 Charge =  0 Multiplicity = 1

 SCF Done:  E(RHF) =  -322.638212031     A.U. after   16 cycles
 Normal termination of Gaussian 16 at Wed Apr  9 17:08:30 2025.
 Gaussian 16:  ES64L-G16RevC.01  3-Jul-2019

 ----------------------------------------------------------------------
 #t hf aug-cc-pvdz iop(5/13=1,5/36=2,99/5=2) pseudo=read geom=check gue
 ss=(read,tcheck) scf=(maxcycle=1)
 ----------------------------------------------------------------------
 -----
 title
 -----
 Structure from the checkpoint file:  "Grambow2020_wb97xd3_009153_reverse_mol2.chk"
 Charge =  0 Multiplicity = 1

                         Standard orientation:
 ---------------------------------------------------------------------
 Center     Atomic      Atomic             Coordinates (Angstroms)
 Number     Number       Type             X           Y           Z
 ---------------------------------------------------------------------
      1          6           0        2.048344   -0.345101    0.080790
      2          7           0        0.606338   -0.407869    0.065310
      3          6           0       -0.173742   -1.416363   -0.219626
      4          6           0       -1.611045   -1.176872   -0.150875
      5          6           0       -1.612814    0.136975    0.201001
      6          6           0       -0.247620    0.744174    0.401201
      7          8           0        0.089243    1.872288   -0.345184
      8          1           0        2.420608   -0.269873    1.104096
      9          1           0        2.374132    0.532476   -0.478109
     10          1           0        2.454541   -1.243282   -0.381098
     11          1           0        0.304068   -2.359842   -0.480933
     12          1           0       -0.064641    0.987202    1.453862
     13          1           0       -2.486201    0.753222    0.394464
     14          1           0       -0.379553    1.819989   -1.182922
 ---------------------------------------------------------------------

 SCF Done:  E(RHF) =  -322.735366670     A.U. after    2 cycles

 The electronic state is 1-A.
 Alpha  occ. eigenvalues --  -20.60586 -15.70318 -11.34771 -11.34047 -11.30723
 Alpha  occ. eigenvalues --  -11.23195 -11.17434  -1.37631  -1.29011  -1.07839
 Alpha  occ. eigenvalues --   -0.99076  -0.94762  -0.81555  -0.78188  -0.72746
 Alpha  occ. eigenvalues --   -0.69958  -0.69059  -0.63406  -0.62265  -0.59266
 Alpha  occ. eigenvalues --   -0.54445  -0.52412  -0.50583  -0.48674  -0.33726
 Alpha  occ. eigenvalues --   -0.30862
 Alpha virt. eigenvalues --    0.02313   0.03473   0.03955   0.04727   0.05559
 Alpha virt. eigenvalues --    0.06552   0.07062   0.07595   0.10006   0.11163
 Alpha virt. eigenvalues --    0.11561   0.12625   0.13772   0.14304   0.15079

 Mulliken charges:
               1
     1  C    0.796949
     2  N   -0.331711
     3  C    0.576080
     4  C   -0.795932
     5  C    0.412773
     6  C    1.013077
     7  O   -0.572310
     8  H   -0.073374
     9  H   -0.092021
    10  H   -0.231256
    11  H   -0.381484
    12  H   -0.224105
    13  H   -0.286697
    14  H    0.190010
 Sum of Mulliken charges =  -0.00000

 Dipole moment (field-independent basis, Debye):
    X=              5.5623    Y=              0.9940    Z=              0.0881  Tot=              5.6511

 Test job not archived.
 1\1\GINC-SE045\SP\RHF\Aug-CC-pVDZ\C5H7N1O1\OHZDE\09-Apr-2025\0\\#t hf
 aug-cc-pvdz iop(5/13=1,5/36=2,99/5=2) pseudo=read geom=check guess=(re
 ad,tcheck) scf=(maxcycle=1)\\title\\0,1\C,0,-1.79204977,0.0634401,0.28
 65597\N,0,-0.41355668,-0.29157743,0.04722567\C,0,0.19123981,-1.4332310
 9,0.24119023\C,0,1.60920181,-1.49274144,-0.0961\C,0,1.80479512,-0.2125
 443,-0.51185616\C,0,0.57334936,0.65684373,-0.49663412\O,0,0.61047207,1
 .84157897,0.2370089\H,0,-2.32572952,0.19676378,-0.65620518\H,0,-1.8285
 597,0.99770667,0.84732651\H,0,-2.2744436,-0.72572021,0.86065658\H,0,-0

 Normal termination of Gaussian 16 at Wed Apr  9 17:08:38 2025.
