 Gaussian 16, Revision C.01,

 ----------------------------------------------------------------------
 #t hf aug-cc-pvdz symm=none int=(grid=ultrafine) guess=(read,tcheck) s
 table=(opt,rrhf)
 ----------------------------------------------------------------------
 -----
 title
 -----
 Symbolic Z-matrix:
 Charge =  0 Multiplicity = 1

 SCF Done:  E(RHF) =  -316.523676067     A.U. after   15 cycles
 Normal termination of Gaussian 16 at Wed Apr  9 15:39:40 2025.
 Gaussian 16:  ES64L-G16RevC.01  3-Jul-2019

 ----------------------------------------------------------------------
 #t hf aug-cc-pvdz iop(5/13=1,5/36=2,99/5=2) pseudo=read geom=check gue
 ss=(read,tcheck) scf=(maxcycle=1)
 ----------------------------------------------------------------------
 -----
 title
 -----
 Structure from the checkpoint file:  "Grambow2020_wb97xd3_007271_reverse_mol2.chk"
 Charge =  0 Multiplicity = 1

                         Standard orientation:
 ---------------------------------------------------------------------
 Center     Atomic      Atomic             Coordinates (Angstroms)
 Number     Number       Type             X           Y           Z
 ---------------------------------------------------------------------
      1          7           0        1.847179   -1.454339   -0.020680
      2          6           0        1.488005   -0.361658   -0.000293
      3          6           0       -1.743172   -1.658794    0.018046
      4          7           0       -1.486698   -0.519323    0.003125
      5          6           0       -1.306142    0.843529   -0.016182
      6          6           0       -0.129737    1.465298   -0.004785
      7          7           0        1.149805    0.932232    0.023795
      8          1           0       -2.211196    1.432747   -0.042432
      9          1           0       -0.131432    2.545971   -0.019925
     10          1           0        1.916896    1.581050    0.037964
 ---------------------------------------------------------------------

 SCF Done:  E(RHF) =  -316.620154773     A.U. after    2 cycles

 The electronic state is 1-A.
 Alpha  occ. eigenvalues --  -15.72811 -15.67530 -15.64370 -11.34479 -11.33267
 Alpha  occ. eigenvalues --  -11.32588 -11.30107  -1.30318  -1.25600  -1.19147
 Alpha  occ. eigenvalues --   -1.08503  -0.94016  -0.83846  -0.79676  -0.68535
 Alpha  occ. eigenvalues --   -0.65278  -0.62888  -0.56094  -0.55543  -0.51249
 Alpha  occ. eigenvalues --   -0.48316  -0.46665  -0.46089  -0.35435
 Alpha virt. eigenvalues --    0.01196   0.03209   0.05054   0.06576   0.08886
 Alpha virt. eigenvalues --    0.09064   0.09268   0.10397   0.10539   0.11563
 Alpha virt. eigenvalues --    0.12042   0.12748   0.13178   0.14366   0.15578

 Mulliken charges:
               1
     1  N   -0.105442
     2  C   -0.303832
     3  C   -0.301438
     4  N   -0.294073
     5  C    0.828709
     6  C    0.998521
     7  N   -0.256423
     8  H   -0.240693
     9  H   -0.339186
    10  H    0.013857
 Sum of Mulliken charges =  -0.00000

 Dipole moment (field-independent basis, Debye):
    X=              0.2892    Y=              7.2740    Z=              0.0087  Tot=              7.2797

 Test job not archived.
 1\1\GINC-SE131\SP\RHF\Aug-CC-pVDZ\C4H3N3\OHZDE\09-Apr-2025\0\\#t hf au
 g-cc-pvdz iop(5/13=1,5/36=2,99/5=2) pseudo=read geom=check guess=(read
 ,tcheck) scf=(maxcycle=1)\\title\\0,1\N,0,2.71514048,0.09210671,0.2275
 1549\C,0,1.67204095,0.56840786,0.13556593\C,0,0.43087418,-2.68468117,0
 .15337494\N,0,-0.22648356,-1.72529019,0.04454448\C,0,-1.09798944,-0.67
 065399,-0.09168738\C,0,-0.75696513,0.61556321,-0.09374521\N,0,0.495828
 77,1.19646199,0.02981643\H,0,-2.13854637,-0.93812679,-0.20433477\H,0,-
 1.54609183,1.34533134,-0.20689598\H,0,0.53980495,2.20014602,0.01310408

 Normal termination of Gaussian 16 at Wed Apr  9 15:39:44 2025.
