 Gaussian 16, Revision C.01,

 ----------------------------------------------------------------------
 #t hf aug-cc-pvdz symm=none int=(grid=ultrafine) guess=(read,tcheck) s
 table=(opt,rrhf)
 ----------------------------------------------------------------------
 -----
 title
 -----
 Symbolic Z-matrix:
 Charge =  0 Multiplicity = 1

 SCF Done:  E(RHF) =  -343.703742909     A.U. after   14 cycles
 Normal termination of Gaussian 16 at Wed Apr  9 03:34:28 2025.
 Gaussian 16:  ES64L-G16RevC.01  3-Jul-2019

 ----------------------------------------------------------------------
 #t hf aug-cc-pvdz iop(5/13=1,5/36=2,99/5=2) pseudo=read geom=check gue
 ss=(read,tcheck) scf=(maxcycle=1)
 ----------------------------------------------------------------------
 -----
 title
 -----
 Structure from the checkpoint file:  "Grambow2020_wb97xd3_007151_reverse_mol2.chk"
 Charge =  0 Multiplicity = 1

                         Standard orientation:
 ---------------------------------------------------------------------
 Center     Atomic      Atomic             Coordinates (Angstroms)
 Number     Number       Type             X           Y           Z
 ---------------------------------------------------------------------
      1          8           0        2.340008    0.650918    0.499998
      2          6           0       -1.435994    0.455165   -0.008020
      3          6           0       -1.112395    1.702318   -0.267822
      4          6           0        1.784034   -0.089072   -0.461600
      5          8           0        1.484768   -1.242064   -0.346897
      6          6           0       -1.522748   -0.631223    0.964887
      7          6           0       -1.960312   -0.820613   -0.487981
      8          1           0        2.433260    0.090159    1.282035
      9          1           0       -1.246169    2.122373   -1.258449
     10          1           0       -0.705782    2.349301    0.501147
     11          1           0        1.647748    0.509050   -1.369758
     12          1           0       -2.292877   -0.582821    1.725988
     13          1           0       -0.607185   -1.127142    1.266616
     14          1           0       -1.321367   -1.431316   -1.115087
     15          1           0       -3.021344   -0.899884   -0.694093
 ---------------------------------------------------------------------

 SCF Done:  E(RHF) =  -343.816727332     A.U. after    2 cycles

 The electronic state is 1-A.
 Alpha  occ. eigenvalues --  -20.63767 -20.57689 -11.40720 -11.25398 -11.23921
 Alpha  occ. eigenvalues --  -11.23878 -11.23350  -1.44017  -1.34285  -1.14421
 Alpha  occ. eigenvalues --   -0.97549  -0.90403  -0.83014  -0.73906  -0.73002
 Alpha  occ. eigenvalues --   -0.72539  -0.66232  -0.64444  -0.64176  -0.61666
 Alpha  occ. eigenvalues --   -0.60157  -0.52274  -0.51356  -0.48870  -0.43964
 Alpha  occ. eigenvalues --   -0.42420  -0.36838
 Alpha virt. eigenvalues --    0.03467   0.04127   0.04497   0.05021   0.05974
 Alpha virt. eigenvalues --    0.06706   0.07119   0.08569   0.10236   0.10482
 Alpha virt. eigenvalues --    0.12310   0.13073   0.13242   0.13639   0.14417

 Mulliken charges:
               1
     1  O   -0.375786
     2  C   -0.707211
     3  C    0.963837
     4  C    0.821823
     5  O   -0.417843
     6  C    0.600341
     7  C    0.443781
     8  H    0.136987
     9  H   -0.340827
    10  H   -0.354072
    11  H   -0.175401
    12  H   -0.131182
    13  H   -0.176459
    14  H   -0.147958
    15  H   -0.140030
 Sum of Mulliken charges =   0.00000

 Dipole moment (field-independent basis, Debye):
    X=              0.4124    Y=              1.0402    Z=              0.4302  Tot=              1.1988

 Test job not archived.
 1\1\GINC-SE453\SP\RHF\Aug-CC-pVDZ\C5H8O2\OHZDE\09-Apr-2025\0\\#t hf au
 g-cc-pvdz iop(5/13=1,5/36=2,99/5=2) pseudo=read geom=check guess=(read
 ,tcheck) scf=(maxcycle=1)\\title\\0,1\O,0,2.16685921,-1.17966633,-1.28
 501462\C,0,-0.67566842,-0.01734694,0.97853044\C,0,0.21657886,-0.550194
 69,1.78324922\C,0,1.84834155,0.10820079,-1.13904363\O,0,1.07949118,0.7
 0318376,-1.83687747\C,0,-1.63232899,-0.19519329,-0.11118709\C,0,-1.407
 90001,1.1687177,0.54267415\H,0,1.65715392,-1.52310702,-2.03132395\H,0,
 0.72882354,0.04808306,2.52846961\H,0,0.46425777,-1.60419208,1.72866567

 Normal termination of Gaussian 16 at Wed Apr  9 03:34:33 2025.
