 Gaussian 16, Revision C.01,

 ----------------------------------------------------------------------
 #t hf aug-cc-pvdz symm=none int=(grid=ultrafine) guess=(read,tcheck) s
 table=(opt,rrhf)
 ----------------------------------------------------------------------
 -----
 title
 -----
 Symbolic Z-matrix:
 Charge =  0 Multiplicity = 1

 SCF Done:  E(RHF) =  -268.727330336     A.U. after   14 cycles
 Normal termination of Gaussian 16 at Wed Apr  9 14:23:19 2025.
 Gaussian 16:  ES64L-G16RevC.01  3-Jul-2019

 ----------------------------------------------------------------------
 #t hf aug-cc-pvdz iop(5/13=1,5/36=2,99/5=2) pseudo=read geom=check gue
 ss=(read,tcheck) scf=(maxcycle=1)
 ----------------------------------------------------------------------
 -----
 title
 -----
 Structure from the checkpoint file:  "Grambow2020_wb97xd3_006189_reverse_mol2.chk"
 Charge =  0 Multiplicity = 1

                         Standard orientation:
 ---------------------------------------------------------------------
 Center     Atomic      Atomic             Coordinates (Angstroms)
 Number     Number       Type             X           Y           Z
 ---------------------------------------------------------------------
      1          8           0        1.510089   -1.057062    0.075284
      2          6           0        0.433598   -0.158942   -0.004277
      3          6           0        0.756632    1.190780   -0.514449
      4          6           0        0.755974    0.953213    0.958918
      5          6           0       -2.098756    0.152509    0.032733
      6          6           0       -0.923022   -0.804675   -0.110374
      7          1           0        1.939399   -1.092557   -0.783021
      8          1           0        1.694416    1.469358   -0.985169
      9          1           0       -0.087811    1.796385   -0.837392
     10          1           0       -2.037028    0.724331    0.962135
     11          1           0       -3.038325   -0.400008    0.047567
     12          1           0       -2.152224    0.861078   -0.796900
     13          1           0       -0.962597   -1.559973    0.679141
     14          1           0       -0.983106   -1.339437   -1.063933
 ---------------------------------------------------------------------

 SCF Done:  E(RHF) =  -268.809052642     A.U. after    2 cycles

 The electronic state is 1-A.
 Alpha  occ. eigenvalues --  -20.59551 -11.30797 -11.29297 -11.25209 -11.24597
 Alpha  occ. eigenvalues --  -11.23828  -1.35585  -1.14825  -1.03651  -0.89714
 Alpha  occ. eigenvalues --   -0.82151  -0.73857  -0.69944  -0.66873  -0.62240
 Alpha  occ. eigenvalues --   -0.58556  -0.57326  -0.54604  -0.51946  -0.51572
 Alpha  occ. eigenvalues --   -0.49701  -0.41966  -0.36087
 Alpha virt. eigenvalues --    0.03070   0.03887   0.04417   0.05398   0.06104
 Alpha virt. eigenvalues --    0.06633   0.06713   0.07994   0.08699   0.09195
 Alpha virt. eigenvalues --    0.11831   0.13948   0.14295   0.14719   0.15130

 Mulliken charges:
               1
     1  O   -0.612278
     2  C    0.246253
     3  C    0.644632
     4  C   -0.258514
     5  C    0.470023
     6  C    0.194840
     7  H    0.151725
     8  H   -0.314559
     9  H   -0.299103
    10  H   -0.050542
    11  H   -0.103790
    12  H   -0.029925
    13  H    0.001151
    14  H   -0.039914
 Sum of Mulliken charges =  -0.00000

 Dipole moment (field-independent basis, Debye):
    X=             -1.1393    Y=              0.0928    Z=             -3.5598  Tot=              3.7388

 Test job not archived.
 1\1\GINC-SE232\SP\RHF\Aug-CC-pVDZ\C5H8O1\OHZDE\09-Apr-2025\0\\#t hf au
 g-cc-pvdz iop(5/13=1,5/36=2,99/5=2) pseudo=read geom=check guess=(read
 ,tcheck) scf=(maxcycle=1)\\title\\0,1\O,0,1.54868319,0.4829091,1.46764
 689\C,0,0.57823012,0.39057032,0.45696533\C,0,0.89945076,1.08173785,-0.
 81011055\C,0,0.09518396,1.79788596,0.22310564\C,0,-1.52609394,-0.78052
 042,-0.38657274\C,0,-0.33842843,-0.7995598,0.56638089\H,0,2.39068881,0
 .19479216,1.10671899\H,0,1.8734498,1.4859921,-1.06803535\H,0,0.3043327
 5,0.79774679,-1.67574184\H,0,-2.10662065,0.1396561,-0.28244877\H,0,-2.

 Normal termination of Gaussian 16 at Wed Apr  9 14:23:23 2025.
