 Gaussian 16, Revision C.01,

 ----------------------------------------------------------------------
 #t hf aug-cc-pvdz symm=none int=(grid=ultrafine) guess=(read,tcheck) s
 table=(opt,rrhf)
 ----------------------------------------------------------------------
 -----
 title
 -----
 Symbolic Z-matrix:
 Charge =  0 Multiplicity = 1

 SCF Done:  E(RHF) =  -307.834972245     A.U. after   15 cycles

 1\1\GINC-SE174\Stability\RHF\Aug-CC-pVDZ\C6H10O1\OHZDE\09-Apr-2025\0\\
 #t hf aug-cc-pvdz symm=none int=(grid=ultrafine) guess=(read,tcheck) s
 table=(opt,rrhf)\\title\\0,1\C,0,2.25095172,-0.57880971,-0.25847191\C,
 0,0.99731486,-0.31004196,0.09659647\C,0,0.10714956,0.55463527,-0.67065
 014\C,0,-1.19640639,0.74502366,-0.4263549\C,0,-2.02058765,0.04483194,0
 .56171224\C,0,-2.1038627,-1.28053294,0.70268611\O,0,-1.44307184,-2.219
 52712,-0.00039504\H,0,2.68067719,-0.17133649,-1.16774274\H,0,2.4306158
 2,2.47440149,0.27725394\H,0,2.88751603,-1.20985026,0.34840417\H,0,0.59

 Normal termination of Gaussian 16 at Wed Apr  9 16:09:16 2025.
 Gaussian 16:  ES64L-G16RevC.01  3-Jul-2019

 ----------------------------------------------------------------------
 #t hf aug-cc-pvdz iop(5/13=1,5/36=2,99/5=2) pseudo=read geom=check gue
 ss=(read,tcheck) scf=(maxcycle=1)
 ----------------------------------------------------------------------
 -----
 title
 -----
 Structure from the checkpoint file:  "Grambow2020_wb97xd3_007818_reverse_mol2.chk"
 Charge =  0 Multiplicity = 1

                         Standard orientation:
 ---------------------------------------------------------------------
 Center     Atomic      Atomic             Coordinates (Angstroms)
 Number     Number       Type             X           Y           Z
 ---------------------------------------------------------------------
      1          6           0        2.379146   -1.136206    0.051256
      2          6           0        1.258140   -0.455110    0.273447
      3          6           0        0.863630    0.724199   -0.489653
      4          6           0       -0.312723    1.358180   -0.392454
      5          6           0       -1.478859    0.939691    0.389092
      6          6           0       -2.041249   -0.271077    0.355079
      7          8           0       -1.644453   -1.335648   -0.367362
      8          1           0        3.066260   -0.851701   -0.738936
      9          1           0        3.523084    1.598668    0.974972
     10          1           0        2.647332   -1.995317    0.652695
     11          1           0        0.594171   -0.765439    1.075184
     12          1           0        1.614736    1.134342   -1.158798
     13          1           0        3.930428    2.223023    0.960080
     14          1           0       -0.429353    2.283611   -0.950414
     15          1           0       -1.994734    1.694634    0.970364
     16          1           0       -2.936956   -0.493617    0.922373
     17          1           0       -0.867859   -1.101081   -0.889217
 ---------------------------------------------------------------------

 SCF Done:  E(RHF) =  -307.935999768     A.U. after    2 cycles

 The electronic state is 1-A.
 Alpha  occ. eigenvalues --  -20.60476 -11.31321 -11.25666 -11.25141 -11.25042
 Alpha  occ. eigenvalues --  -11.24465 -11.23469  -1.37218  -1.10529  -1.04807
 Alpha  occ. eigenvalues --   -0.98506  -0.86579  -0.81772  -0.75394  -0.70367
 Alpha  occ. eigenvalues --   -0.67687  -0.65179  -0.60953  -0.59839  -0.58852
 Alpha  occ. eigenvalues --   -0.57848  -0.55266  -0.53952  -0.49602  -0.45896
 Alpha  occ. eigenvalues --   -0.37428  -0.31190
 Alpha virt. eigenvalues --    0.03534   0.04054   0.04227   0.05339   0.05832
 Alpha virt. eigenvalues --    0.06260   0.06915   0.07279   0.08004   0.08282
 Alpha virt. eigenvalues --    0.10535   0.11350   0.12348   0.12877   0.13441

 Mulliken charges:
               1
     1  C    0.637878
     2  C    0.548928
     3  C    0.532998
     4  C   -0.000692
     5  C    0.694443
     6  C    0.682842
     7  O   -0.520664
     8  H   -0.333894
     9  H   -0.008783
    10  H   -0.318774
    11  H   -0.530840
    12  H   -0.552326
    13  H    0.021120
    14  H   -0.386307
    15  H   -0.344888
    16  H   -0.320142
    17  H    0.199101
 Sum of Mulliken charges =  -0.00000

 Dipole moment (field-independent basis, Debye):
    X=              0.5046    Y=              0.9021    Z=             -0.1266  Tot=              1.0413

 Test job not archived.
 1\1\GINC-SE174\SP\RHF\Aug-CC-pVDZ\C6H10O1\OHZDE\09-Apr-2025\0\\#t hf a
 ug-cc-pvdz iop(5/13=1,5/36=2,99/5=2) pseudo=read geom=check guess=(rea
 d,tcheck) scf=(maxcycle=1)\\title\\0,1\C,0,2.25095172,-0.57880971,-0.2
 5847191\C,0,0.99731486,-0.31004196,0.09659647\C,0,0.10714956,0.5546352
 7,-0.67065014\C,0,-1.19640639,0.74502366,-0.4263549\C,0,-2.02058765,0.
 04483194,0.56171224\C,0,-2.1038627,-1.28053294,0.70268611\O,0,-1.44307
 184,-2.21952712,-0.00039504\H,0,2.68067719,-0.17133649,-1.16774274\H,0
 ,2.43061582,2.47440149,0.27725394\H,0,2.88751603,-1.20985026,0.3484041

 Normal termination of Gaussian 16 at Wed Apr  9 16:09:22 2025.
