 Gaussian 16, Revision C.01,

 ----------------------------------------------------------------------
 #t hf aug-cc-pvdz symm=none int=(grid=ultrafine) guess=(read,tcheck) s
 table=(opt,rrhf)
 ----------------------------------------------------------------------
 -----
 title
 -----
 Symbolic Z-matrix:
 Charge =  0 Multiplicity = 1

 SCF Done:  E(RHF) =  -354.679319629     A.U. after   14 cycles
 Normal termination of Gaussian 16 at Wed Apr  9 16:06:48 2025.
 Gaussian 16:  ES64L-G16RevC.01  3-Jul-2019

 ----------------------------------------------------------------------
 #t hf aug-cc-pvdz iop(5/13=1,5/36=2,99/5=2) pseudo=read geom=check gue
 ss=(read,tcheck) scf=(maxcycle=1)
 ----------------------------------------------------------------------
 -----
 title
 -----
 Structure from the checkpoint file:  "Grambow2020_wb97xd3_007773_forward_mol1.chk"
 Charge =  0 Multiplicity = 1

                         Standard orientation:
 ---------------------------------------------------------------------
 Center     Atomic      Atomic             Coordinates (Angstroms)
 Number     Number       Type             X           Y           Z
 ---------------------------------------------------------------------
      1          6           0        2.396192   -0.523252    0.000794
      2          6           0        0.991936   -0.048650   -0.000933
      3          7           0        0.658373    1.214303   -0.000473
      4          7           0       -0.723343    1.207775    0.000153
      5          6           0       -1.161237   -0.048398   -0.000211
      6          8           0       -2.246799   -0.715801    0.000760
      7          7           0       -0.108658   -0.861988   -0.001198
      8          1           0        2.594212   -1.122015    0.890838
      9          1           0        3.068665    0.331550   -0.012758
     10          1           0        2.588107   -1.146265   -0.873559
     11          1           0       -1.239866    2.066721    0.002143
     12          1           0       -1.182668   -1.602415   -0.000014
 ---------------------------------------------------------------------

 SCF Done:  E(RHF) =  -354.785404445     A.U. after    2 cycles

 The electronic state is 1-A.
 Alpha  occ. eigenvalues --  -20.57572 -15.71395 -15.66383 -15.64664 -11.39977
 Alpha  occ. eigenvalues --  -11.34075 -11.25734  -1.42300  -1.33951  -1.18474
 Alpha  occ. eigenvalues --   -1.10767  -0.99734  -0.86182  -0.84524  -0.74772
 Alpha  occ. eigenvalues --   -0.68357  -0.66260  -0.61647  -0.59897  -0.57421
 Alpha  occ. eigenvalues --   -0.55012  -0.53693  -0.53242  -0.45358  -0.44341
 Alpha  occ. eigenvalues --   -0.35737
 Alpha virt. eigenvalues --    0.03233   0.03605   0.04730   0.05166   0.07142
 Alpha virt. eigenvalues --    0.09400   0.09957   0.09997   0.13280   0.13590
 Alpha virt. eigenvalues --    0.15018   0.15156   0.15509   0.15803   0.15930

 Mulliken charges:
               1
     1  C    0.497305
     2  C    0.278261
     3  N   -0.435830
     4  N   -0.084617
     5  C    0.581434
     6  O   -0.626101
     7  N   -0.730880
     8  H    0.044847
     9  H   -0.034500
    10  H    0.042247
    11  H   -0.034236
    12  H    0.502072
 Sum of Mulliken charges =  -0.00000

 Dipole moment (field-independent basis, Debye):
    X=              1.9895    Y=              0.3550    Z=              0.0043  Tot=              2.0210

 Test job not archived.
 1\1\GINC-SE042\SP\RHF\Aug-CC-pVDZ\C3H5N3O1\OHZDE\09-Apr-2025\0\\#t hf
 aug-cc-pvdz iop(5/13=1,5/36=2,99/5=2) pseudo=read geom=check guess=(re
 ad,tcheck) scf=(maxcycle=1)\\title\\0,1\C,0,1.95680765,-0.22156175,0.0
 5624187\C,0,0.47469876,-0.20869139,0.07549347\N,0,-0.24929717,-1.21842
 058,0.47871895\N,0,-1.55453778,-0.78979313,0.33104588\C,0,-1.56266819,
 0.45016859,-0.15077394\O,0,-2.37400477,1.36971368,-0.49724519\N,0,-0.3
 0365505,0.84436362,-0.32208416\H,0,2.32524379,-0.07777566,-0.96036358\
 H,0,2.31687126,-1.1750073,0.43622256\H,0,2.3521628,0.58501955,0.674781

 Normal termination of Gaussian 16 at Wed Apr  9 16:06:53 2025.
