 Gaussian 16, Revision C.01,

 ----------------------------------------------------------------------
 #t hf aug-cc-pvdz symm=none int=(grid=ultrafine) guess=(read,tcheck) s
 table=(opt,rrhf)
 ----------------------------------------------------------------------
 -----
 title
 -----
 Symbolic Z-matrix:
 Charge =  0 Multiplicity = 1

 SCF Done:  E(RHF) =  -333.551037553     A.U. after   17 cycles
 Normal termination of Gaussian 16 at Wed Apr  9 15:33:42 2025.
 Gaussian 16:  ES64L-G16RevC.01  3-Jul-2019

 ----------------------------------------------------------------------
 #t hf aug-cc-pvdz iop(5/13=1,5/36=2,99/5=2) pseudo=read geom=check gue
 ss=(read,tcheck) scf=(maxcycle=1)
 ----------------------------------------------------------------------
 -----
 title
 -----
 Structure from the checkpoint file:  "Grambow2020_wb97xd3_006984_reverse_mol1.chk"
 Charge =  0 Multiplicity = 1

                         Standard orientation:
 ---------------------------------------------------------------------
 Center     Atomic      Atomic             Coordinates (Angstroms)
 Number     Number       Type             X           Y           Z
 ---------------------------------------------------------------------
      1          7           0        2.158867   -0.071985   -0.002829
      2          6           0        0.815921   -0.116935   -0.000625
      3          6           0        0.169785    1.252785   -0.002320
      4          7           0       -1.037385    1.560902    0.001631
      5          6           0       -1.940101   -0.367660    0.001026
      6          7           0       -1.131133   -1.239262   -0.001053
      7          7           0        0.261219   -1.283205    0.000148
      8          1           0        2.637711    0.808708    0.019071
      9          1           0        2.685727   -0.926100    0.010942
     10          1           0        0.938626    2.048408   -0.007729
     11          1           0       -2.296676    0.694696    0.003958
 ---------------------------------------------------------------------

 SCF Done:  E(RHF) =  -333.648463614     A.U. after    2 cycles

 The electronic state is 1-A.
 Alpha  occ. eigenvalues --  -15.71131 -15.67336 -15.66896 -15.61893 -11.36496
 Alpha  occ. eigenvalues --  -11.35145 -11.29841  -1.33221  -1.24663  -1.16309
 Alpha  occ. eigenvalues --   -1.12099  -0.90862  -0.87600  -0.78636  -0.72778
 Alpha  occ. eigenvalues --   -0.69030  -0.66643  -0.61663  -0.55800  -0.52576
 Alpha  occ. eigenvalues --   -0.51871  -0.45959  -0.43853  -0.37267  -0.32232
 Alpha virt. eigenvalues --    0.02370   0.04195   0.04966   0.06795   0.08372
 Alpha virt. eigenvalues --    0.08556   0.09406   0.09625   0.10954   0.11420
 Alpha virt. eigenvalues --    0.12921   0.13066   0.13755   0.15200   0.15944

 Mulliken charges:
               1
     1  N   -0.217504
     2  C    0.805163
     3  C    0.620036
     4  N   -0.630941
     5  C    0.152985
     6  N   -0.002704
     7  N   -0.549600
     8  H    0.012481
     9  H   -0.032487
    10  H   -0.312384
    11  H    0.154954
 Sum of Mulliken charges =  -0.00000

 Dipole moment (field-independent basis, Debye):
    X=              2.8548    Y=              0.5367    Z=              0.0529  Tot=              2.9053

 Test job not archived.
 1\1\GINC-SE229\SP\RHF\Aug-CC-pVDZ\C3H4N4\OHZDE\09-Apr-2025\0\\#t hf au
 g-cc-pvdz iop(5/13=1,5/36=2,99/5=2) pseudo=read geom=check guess=(read
 ,tcheck) scf=(maxcycle=1)\\title\\0,1\N,0,1.79250511,-0.18648904,-0.55
 089132\C,0,0.4696683,-0.23653902,-0.32039863\C,0,0.00122061,0.77208419
 ,0.70764017\N,0,-1.14538698,0.98399303,1.14649798\C,0,-2.2647008,-0.45
 474038,0.04584789\N,0,-1.57674756,-1.0899208,-0.68722071\N,0,-0.215682
 41,-1.10745702,-0.98348002\H,0,2.37225668,0.45675646,-0.04540698\H,0,2
 .20814493,-0.82256383,-1.20658559\H,0,0.85112508,1.37393614,1.08127088

 Normal termination of Gaussian 16 at Wed Apr  9 15:33:46 2025.
