 Gaussian 16, Revision C.01,

 ----------------------------------------------------------------------
 #t hf aug-cc-pvdz symm=none int=(grid=ultrafine) guess=(read,tcheck) s
 table=(opt,rrhf)
 ----------------------------------------------------------------------
 -----
 title
 -----
 Symbolic Z-matrix:
 Charge =  0 Multiplicity = 1

 SCF Done:  E(RHF) =  -305.839543135     A.U. after   13 cycles
 Normal termination of Gaussian 16 at Wed Apr  9 14:17:15 2025.
 Gaussian 16:  ES64L-G16RevC.01  3-Jul-2019

 ----------------------------------------------------------------------
 #t hf aug-cc-pvdz iop(5/13=1,5/36=2,99/5=2) pseudo=read geom=check gue
 ss=(read,tcheck) scf=(maxcycle=1)
 ----------------------------------------------------------------------
 -----
 title
 -----
 Structure from the checkpoint file:  "Grambow2020_b97d3_006957_forward_mol2.chk"
 Charge =  0 Multiplicity = 1

                         Standard orientation:
 ---------------------------------------------------------------------
 Center     Atomic      Atomic             Coordinates (Angstroms)
 Number     Number       Type             X           Y           Z
 ---------------------------------------------------------------------
      1          8           0       -1.728367   -0.989280    0.235332
      2          6           0       -1.652832    0.355728   -0.211194
      3          6           0       -0.376667    1.058691    0.287067
      4          6           0        0.862937    0.521435   -0.399530
      5          6           0        2.005675   -0.033741    0.346251
      6          8           0        1.071826   -0.916914   -0.300675
      7          1           0       -0.832944   -1.364793    0.107786
      8          1           0       -1.698502    0.429196   -1.316889
      9          1           0       -2.538936    0.869894    0.187095
     10          1           0       -0.438836    2.142474    0.100623
     11          1           0       -0.302205    0.910839    1.374216
     12          1           0        1.049471    0.899409   -1.410757
     13          1           0        1.973286   -0.032155    1.439945
     14          1           0        3.006313   -0.017993   -0.094832
 ---------------------------------------------------------------------

 SCF Done:  E(RHF) =  -305.935607234     A.U. after    2 cycles

 The electronic state is 1-A.
 Alpha  occ. eigenvalues --  -20.59921 -20.55585 -11.31425 -11.31052 -11.28845
 Alpha  occ. eigenvalues --  -11.25062  -1.38064  -1.30480  -1.04142  -0.93432
 Alpha  occ. eigenvalues --   -0.88209  -0.81572  -0.71405  -0.69387  -0.65606
 Alpha  occ. eigenvalues --   -0.63378  -0.60030  -0.57029  -0.54439  -0.53075
 Alpha  occ. eigenvalues --   -0.51431  -0.47390  -0.45522  -0.43766
 Alpha virt. eigenvalues --    0.03114   0.04117   0.04388   0.05448   0.06004
 Alpha virt. eigenvalues --    0.06724   0.07870   0.08552   0.09773   0.12207
 Alpha virt. eigenvalues --    0.13148   0.13508   0.14589   0.14858   0.15331

 Mulliken charges:
               1
     1  O   -0.574535
     2  C    0.747785
     3  C   -0.080976
     4  C    0.696643
     5  C    0.798173
     6  O   -0.780091
     7  H    0.213946
     8  H   -0.105906
     9  H   -0.144692
    10  H   -0.002663
    11  H   -0.073325
    12  H   -0.309261
    13  H   -0.182307
    14  H   -0.202790
 Sum of Mulliken charges =  -0.00000

 Dipole moment (field-independent basis, Debye):
    X=              2.4461    Y=              3.3554    Z=             -0.0398  Tot=              4.1525

 Test job not archived.
 1\1\GINC-SE098\SP\RHF\Aug-CC-pVDZ\C4H8O2\OHZDE\09-Apr-2025\0\\#t hf au
 g-cc-pvdz iop(5/13=1,5/36=2,99/5=2) pseudo=read geom=check guess=(read
 ,tcheck) scf=(maxcycle=1)\\title\\0,1\O,0,1.82350698,1.02184646,0.5429
 814\C,0,1.68199362,-0.24414674,-0.08261717\C,0,0.28643695,-0.85120184,
 0.15174637\C,0,-0.78625195,-0.09982751,-0.61078448\C,0,-1.96360838,0.4
 9018072,0.04950588\O,0,-0.86696546,1.33134332,-0.35099541\H,0,0.995524
 06,1.50897287,0.35268458\H,0,1.87569689,-0.19209683,-1.17340332\H,0,2.
 44923972,-0.89877146,0.35439714\H,0,0.26920413,-1.90562621,-0.16622036

 Normal termination of Gaussian 16 at Wed Apr  9 14:17:19 2025.
