 Gaussian 16, Revision C.01,

 ----------------------------------------------------------------------
 #t hf aug-cc-pvdz symm=none int=(grid=ultrafine) guess=(read,tcheck) s
 table=(opt,rrhf)
 ----------------------------------------------------------------------
 -----
 title
 -----
 Symbolic Z-matrix:
 Charge =  0 Multiplicity = 1

 SCF Done:  E(RHF) =  -320.297014925     A.U. after   15 cycles
 Normal termination of Gaussian 16 at Wed Apr  9 15:58:42 2025.
 Gaussian 16:  ES64L-G16RevC.01  3-Jul-2019

 ----------------------------------------------------------------------
 #t hf aug-cc-pvdz iop(5/13=1,5/36=2,99/5=2) pseudo=read geom=check gue
 ss=(read,tcheck) scf=(maxcycle=1)
 ----------------------------------------------------------------------
 -----
 title
 -----
 Structure from the checkpoint file:  "Grambow2020_wb97xd3_007657_forward_mol1.chk"
 Charge =  0 Multiplicity = 1

                         Standard orientation:
 ---------------------------------------------------------------------
 Center     Atomic      Atomic             Coordinates (Angstroms)
 Number     Number       Type             X           Y           Z
 ---------------------------------------------------------------------
      1          7           0       -2.107889   -0.077484    0.596274
      2          6           0       -2.001938    0.147029   -0.566570
      3          6           0       -0.472067    0.047109   -0.154394
      4          6           0        0.287076   -1.075439   -0.089524
      5          8           0        1.580120   -0.741088    0.040338
      6          6           0        1.646582    0.614473    0.079971
      7          6           0        0.419493    1.159306   -0.023031
      8          1           0        0.044174   -2.123164   -0.127496
      9          1           0        2.632841    1.034560    0.181557
     10          1           0        0.162374    2.204829   -0.029396
 ---------------------------------------------------------------------

 SCF Done:  E(RHF) =  -320.391912797     A.U. after    2 cycles

 The electronic state is 1-A.
 Alpha  occ. eigenvalues --  -20.66844 -15.70335 -11.33602 -11.32452 -11.31887
 Alpha  occ. eigenvalues --  -11.28871 -11.26615  -1.45974  -1.27999  -1.10217
 Alpha  occ. eigenvalues --   -1.03789  -0.84409  -0.81525  -0.77264  -0.69420
 Alpha  occ. eigenvalues --   -0.66681  -0.64353  -0.61486  -0.59868  -0.57841
 Alpha  occ. eigenvalues --   -0.51309  -0.49234  -0.41123  -0.34577
 Alpha virt. eigenvalues --    0.03120   0.03988   0.04807   0.06222   0.08126
 Alpha virt. eigenvalues --    0.09072   0.09557   0.10121   0.11109   0.12512
 Alpha virt. eigenvalues --    0.13103   0.13502   0.13959   0.14674   0.15377

 Mulliken charges:
               1
     1  N   -0.260115
     2  C    0.096373
     3  C    0.383221
     4  C    0.423300
     5  O   -0.447242
     6  C    0.524022
     7  C    0.179011
     8  H   -0.324492
     9  H   -0.286071
    10  H   -0.288008
 Sum of Mulliken charges =  -0.00000

 Dipole moment (field-independent basis, Debye):
    X=              2.2237    Y=              0.3001    Z=              0.1280  Tot=              2.2475

 Test job not archived.
 1\1\GINC-SE113\SP\RHF\Aug-CC-pVDZ\C5H3N1O1\OHZDE\09-Apr-2025\0\\#t hf
 aug-cc-pvdz iop(5/13=1,5/36=2,99/5=2) pseudo=read geom=check guess=(re
 ad,tcheck) scf=(maxcycle=1)\\title\\0,1\N,0,2.33006505,-0.17722552,0.6
 0849404\C,0,2.19900772,-0.30983205,-0.56584795\C,0,0.69707734,-0.01852
 56,-0.14191005\C,0,0.10595805,1.19464603,-0.00257708\O,0,-1.22225498,1
 .04112153,0.11099662\C,0,-1.48209901,-0.29073909,0.06447747\C,0,-0.345
 03394,-0.99783039,-0.07802021\H,0,0.4963919,2.1971215,0.02527261\H,0,-
 2.5188013,-0.57102759,0.14312046\H,0,-0.24005382,-2.06683681,-0.152014

 Normal termination of Gaussian 16 at Wed Apr  9 15:58:45 2025.
