 Gaussian 16, Revision C.01,

 ----------------------------------------------------------------------
 #t hf aug-cc-pvdz symm=none int=(grid=ultrafine) guess=(read,tcheck) s
 table=(opt,rrhf)
 ----------------------------------------------------------------------
 -----
 title
 -----
 Symbolic Z-matrix:
 Charge =  0 Multiplicity = 1

 SCF Done:  E(RHF) =  -307.715152543     A.U. after   17 cycles

 1\1\GINC-SE113\Stability\RHF\Aug-CC-pVDZ\C6H10O1\OHZDE\09-Apr-2025\0\\
 #t hf aug-cc-pvdz symm=none int=(grid=ultrafine) guess=(read,tcheck) s
 table=(opt,rrhf)\\title\\0,1\C,0,-2.27508869,-0.42430633,0.14650199\C,
 0,-0.93351091,0.0197194,-0.29230728\O,0,-0.61963505,1.29259476,-0.0954
 6287\C,0,0.80521876,1.47709575,-0.28404964\C,0,1.4336242,0.07612036,-0
 .19198242\C,0,1.70152628,-0.4504265,1.13364346\C,0,0.21617605,-0.76112
 961,-0.60837402\H,0,-3.02865,0.33524253,-0.05517091\H,0,-2.22927414,-0
 .59740035,1.22910271\H,0,-2.55656004,-1.35970292,-0.33338265\H,0,-0.45

 Normal termination of Gaussian 16 at Wed Apr  9 15:27:15 2025.
 Gaussian 16:  ES64L-G16RevC.01  3-Jul-2019

 ----------------------------------------------------------------------
 #t hf aug-cc-pvdz iop(5/13=1,5/36=2,99/5=2) pseudo=read geom=check gue
 ss=(read,tcheck) scf=(maxcycle=1)
 ----------------------------------------------------------------------
 -----
 title
 -----
 Structure from the checkpoint file:  "Grambow2020_wb97xd3_006910_reverse_mol1.chk"
 Charge =  0 Multiplicity = 1

                         Standard orientation:
 ---------------------------------------------------------------------
 Center     Atomic      Atomic             Coordinates (Angstroms)
 Number     Number       Type             X           Y           Z
 ---------------------------------------------------------------------
      1          6           0        2.296627   -0.482153   -0.280919
      2          6           0        0.972953   -0.011947    0.184199
      3          8           0        0.534841    1.143487   -0.295912
      4          6           0       -0.874512    1.292801    0.006152
      5          6           0       -1.388659   -0.114593    0.353996
      6          6           0       -1.742269   -0.988595   -0.749357
      7          6           0       -0.069510   -0.742672    0.825071
      8          1           0        2.999857    0.343948   -0.372930
      9          1           0        2.157683   -0.939139   -1.268817
     10          1           0        2.702436   -1.239309    0.387300
     11          1           0        0.661262   -0.073045    1.609553
     12          1           0       -0.950383    1.980116    0.852787
     13          1           0       -1.349916    1.718013   -0.876579
     14          1           0       -2.139729   -0.075919    1.141619
     15          1           0       -1.120180   -1.010165   -1.636665
     16          1           0       -2.454249   -1.787843   -0.604983
     17          1           0        0.046705   -1.781597    1.101151
 ---------------------------------------------------------------------

 SCF Done:  E(RHF) =  -307.810683566     A.U. after    2 cycles

 The electronic state is 1-A.
 Alpha  occ. eigenvalues --  -20.64333 -11.39602 -11.30092 -11.29421 -11.28166
 Alpha  occ. eigenvalues --  -11.25075 -11.13815  -1.43344  -1.12542  -1.07985
 Alpha  occ. eigenvalues --   -0.98026  -0.90965  -0.80419  -0.76226  -0.72937
 Alpha  occ. eigenvalues --   -0.71208  -0.65240  -0.62562  -0.60147  -0.59475
 Alpha  occ. eigenvalues --   -0.57595  -0.54775  -0.53590  -0.50546  -0.46308
 Alpha  occ. eigenvalues --   -0.45062  -0.19525
 Alpha virt. eigenvalues --    0.02343   0.03598   0.04204   0.04899   0.06049
 Alpha virt. eigenvalues --    0.06378   0.06640   0.07040   0.07464   0.09166
 Alpha virt. eigenvalues --    0.09552   0.10791   0.12078   0.13185   0.13710

 Mulliken charges:
               1
     1  C    0.466885
     2  C   -0.407030
     3  O   -0.666076
     4  C    1.064663
     5  C    0.136017
     6  C    0.513013
     7  C    0.191842
     8  H   -0.001043
     9  H    0.171596
    10  H    0.051827
    11  H    0.304692
    12  H   -0.170493
    13  H   -0.216285
    14  H   -0.220467
    15  H   -0.421327
    16  H   -0.427106
    17  H   -0.370706
 Sum of Mulliken charges =  -0.00000

 Dipole moment (field-independent basis, Debye):
    X=              4.8970    Y=              0.9903    Z=              3.2353  Tot=              5.9522

 Test job not archived.
 1\1\GINC-SE113\SP\RHF\Aug-CC-pVDZ\C6H10O1\OHZDE\09-Apr-2025\0\\#t hf a
 ug-cc-pvdz iop(5/13=1,5/36=2,99/5=2) pseudo=read geom=check guess=(rea
 d,tcheck) scf=(maxcycle=1)\\title\\0,1\C,0,-2.27508869,-0.42430633,0.1
 4650199\C,0,-0.93351091,0.0197194,-0.29230728\O,0,-0.61963505,1.292594
 76,-0.09546287\C,0,0.80521876,1.47709575,-0.28404964\C,0,1.4336242,0.0
 7612036,-0.19198242\C,0,1.70152628,-0.4504265,1.13364346\C,0,0.2161760
 5,-0.76112961,-0.60837402\H,0,-3.02865,0.33524253,-0.05517091\H,0,-2.2
 2927414,-0.59740035,1.22910271\H,0,-2.55656004,-1.35970292,-0.33338265

 Normal termination of Gaussian 16 at Wed Apr  9 15:27:21 2025.
