 Gaussian 16, Revision C.01,

 ----------------------------------------------------------------------
 #t hf aug-cc-pvdz symm=none int=(grid=ultrafine) guess=(read,tcheck) s
 table=(opt,rrhf)
 ----------------------------------------------------------------------
 -----
 title
 -----
 Symbolic Z-matrix:
 Charge =  0 Multiplicity = 1

 SCF Done:  E(RHF) =  -322.485891628     A.U. after   18 cycles
 Normal termination of Gaussian 16 at Wed Apr  9 16:47:14 2025.
 Gaussian 16:  ES64L-G16RevC.01  3-Jul-2019

 ----------------------------------------------------------------------
 #t hf aug-cc-pvdz iop(5/13=1,5/36=2,99/5=2) pseudo=read geom=check gue
 ss=(read,tcheck) scf=(maxcycle=1)
 ----------------------------------------------------------------------
 -----
 title
 -----
 Structure from the checkpoint file:  "Grambow2020_wb97xd3_008890_reverse_mol2.chk"
 Charge =  0 Multiplicity = 1

                         Standard orientation:
 ---------------------------------------------------------------------
 Center     Atomic      Atomic             Coordinates (Angstroms)
 Number     Number       Type             X           Y           Z
 ---------------------------------------------------------------------
      1          8           0        2.160758    0.115689    0.047488
      2          6           0        0.990408   -0.012135    0.043837
      3          6           0        0.169487   -1.244406   -0.553134
      4          7           0       -1.218370   -0.810756   -0.177731
      5          6           0       -0.851323   -0.273228    1.085949
      6          6           0       -0.185757    0.871773    0.641413
      7          6           0       -1.086004    0.615660   -0.639452
      8          1           0        0.500742   -2.129736   -0.002612
      9          1           0        0.245064   -1.440982   -1.623525
     10          1           0       -0.121520    4.047818   -0.633709
     11          1           0       -0.900242   -0.826541    2.022619
     12          1           0        0.001714    3.460010   -0.188323
     13          1           0       -2.030980    1.143976   -0.541381
     14          1           0       -0.673114    0.749257   -1.640542
 ---------------------------------------------------------------------

 SCF Done:  E(RHF) =  -322.583134479     A.U. after    2 cycles

 The electronic state is 1-A.
 Alpha  occ. eigenvalues --  -20.59585 -15.67793 -11.38989 -11.37723 -11.32181
 Alpha  occ. eigenvalues --  -11.29454 -11.22607  -1.40164  -1.33095  -1.03266
 Alpha  occ. eigenvalues --   -0.98504  -0.95211  -0.79930  -0.74918  -0.71230
 Alpha  occ. eigenvalues --   -0.68754  -0.66520  -0.61328  -0.57815  -0.57293
 Alpha  occ. eigenvalues --   -0.56298  -0.53363  -0.52144  -0.49797  -0.40351
 Alpha  occ. eigenvalues --   -0.32730
 Alpha virt. eigenvalues --    0.01298   0.02710   0.03597   0.04310   0.06254
 Alpha virt. eigenvalues --    0.06330   0.07566   0.08108   0.09593   0.10516
 Alpha virt. eigenvalues --    0.11017   0.12494   0.12969   0.13707   0.14001

 Mulliken charges:
               1
     1  O   -0.389112
     2  C    0.275470
     3  C    0.610727
     4  N   -0.890248
     5  C    1.004522
     6  C   -0.515285
     7  C    0.851417
     8  H   -0.090452
     9  H   -0.174178
    10  H   -0.070107
    11  H   -0.264765
    12  H    0.118509
    13  H   -0.240909
    14  H   -0.225589
 Sum of Mulliken charges =  -0.00000

 Dipole moment (field-independent basis, Debye):
    X=             -2.8931    Y=             -3.1267    Z=             -0.4788  Tot=              4.2867

 Test job not archived.
 1\1\GINC-SE129\SP\RHF\Aug-CC-pVDZ\C5H7N1O1\OHZDE\09-Apr-2025\0\\#t hf
 aug-cc-pvdz iop(5/13=1,5/36=2,99/5=2) pseudo=read geom=check guess=(re
 ad,tcheck) scf=(maxcycle=1)\\title\\0,1\O,0,1.01469208,2.16758436,-0.1
 8558698\C,0,0.73080476,1.02512571,-0.169295\C,0,0.92381229,-0.02055882
 ,-1.36012366\N,0,0.43576986,-1.26145528,-0.66938717\C,0,1.0134192,-0.9
 4683778,0.59072597\C,0,0.14706618,0.08231473,0.96741546\C,0,-0.8027450
 4,-0.65143535,-0.06994963\H,0,1.99625283,-0.0480502,-1.57396511\H,0,0.
 37917594,0.15353615,-2.28918343\H,0,-2.84556228,1.25975057,2.14008229\

 Normal termination of Gaussian 16 at Wed Apr  9 16:47:20 2025.
