 Gaussian 16, Revision C.01,

 ----------------------------------------------------------------------
 #t hf aug-cc-pvdz symm=none int=(grid=ultrafine) guess=(read,tcheck) s
 table=(opt,rrhf)
 ----------------------------------------------------------------------
 -----
 title
 -----
 Symbolic Z-matrix:
 Charge =  0 Multiplicity = 1

 SCF Done:  E(RHF) =  -268.710084301     A.U. after   18 cycles
 Normal termination of Gaussian 16 at Wed Apr  9 03:16:36 2025.
 Gaussian 16:  ES64L-G16RevC.01  3-Jul-2019

 ----------------------------------------------------------------------
 #t hf aug-cc-pvdz iop(5/13=1,5/36=2,99/5=2) pseudo=read geom=check gue
 ss=(read,tcheck) scf=(maxcycle=1)
 ----------------------------------------------------------------------
 -----
 title
 -----
 Structure from the checkpoint file:  "Grambow2020_b97d3_007076_reverse_mol1.chk"
 Charge =  0 Multiplicity = 1

                         Standard orientation:
 ---------------------------------------------------------------------
 Center     Atomic      Atomic             Coordinates (Angstroms)
 Number     Number       Type             X           Y           Z
 ---------------------------------------------------------------------
      1          6           0       -2.210926   -0.316238    0.219807
      2          6           0       -0.801466   -0.017231   -0.236523
      3          6           0        0.225744   -0.963226   -0.222543
      4          6           0        1.632931   -0.428091   -0.318749
      5          8           0        1.593040    0.388529    0.804551
      6          6           0       -0.324888    1.302639   -0.322713
      7          1           0       -2.495348    0.322747    1.070193
      8          1           0       -2.309678   -1.363366    0.534226
      9          1           0       -2.940650   -0.136060   -0.583442
     10          1           0        0.029646   -1.969599    0.155777
     11          1           0        1.843060    0.092595   -1.278604
     12          1           0        2.383736   -1.241289   -0.234788
     13          1           0        0.532420    1.600770   -0.915704
     14          1           0       -0.915870    2.118857    0.100259
 ---------------------------------------------------------------------

 SCF Done:  E(RHF) =  -268.790700872     A.U. after    2 cycles

 The electronic state is 1-A.
 Alpha  occ. eigenvalues --  -20.46715 -11.34309 -11.32025 -11.26964 -11.26952
 Alpha  occ. eigenvalues --  -11.25818  -1.21424  -1.11305  -0.96981  -0.96325
 Alpha  occ. eigenvalues --   -0.84500  -0.75320  -0.69674  -0.64782  -0.60420
 Alpha  occ. eigenvalues --   -0.58547  -0.56767  -0.54549  -0.53924  -0.50712
 Alpha  occ. eigenvalues --   -0.43851  -0.34965  -0.33747
 Alpha virt. eigenvalues --    0.00631   0.02862   0.04190   0.04388   0.04897
 Alpha virt. eigenvalues --    0.06041   0.06232   0.08020   0.08534   0.10390
 Alpha virt. eigenvalues --    0.11389   0.12950   0.13695   0.14389   0.14789

 Mulliken charges:
               1
     1  C    0.227118
     2  C   -0.221931
     3  C    0.306758
     4  C    0.700141
     5  O   -0.858809
     6  C    0.969062
     7  H    0.019604
     8  H   -0.094694
     9  H    0.076135
    10  H   -0.338206
    11  H   -0.049717
    12  H   -0.207223
    13  H   -0.217445
    14  H   -0.310793
 Sum of Mulliken charges =   0.00000

 Dipole moment (field-independent basis, Debye):
    X=             -4.5779    Y=             -0.5944    Z=             -3.0316  Tot=              5.5228

 Test job not archived.
 1\1\GINC-SE159\SP\RHF\Aug-CC-pVDZ\C5H8O1\OHZDE\09-Apr-2025\0\\#t hf au
 g-cc-pvdz iop(5/13=1,5/36=2,99/5=2) pseudo=read geom=check guess=(read
 ,tcheck) scf=(maxcycle=1)\\title\\0,1\C,0,-1.84676392,0.26738316,-0.67
 676358\C,0,-0.53972723,0.10412007,0.06432991\C,0,0.62045234,0.80908345
 ,-0.26319754\C,0,1.91568022,0.26182273,0.283327\O,0,1.83406121,-1.0014
 8146,-0.28909293\C,0,-0.28258878,-1.03120959,0.85269386\H,0,-2.1621682
 8,-0.68213492,-1.13642592\H,0,-1.75703897,1.01691449,-1.47378351\H,0,-
 2.6542808,0.58867977,-0.00233534\H,0,0.61278241,1.50086938,-1.10921139

 Normal termination of Gaussian 16 at Wed Apr  9 03:16:41 2025.
