 Gaussian 16, Revision C.01,

 ----------------------------------------------------------------------
 #t hf aug-cc-pvdz symm=none int=(grid=ultrafine) guess=(read,tcheck) s
 table=(opt,rrhf)
 ----------------------------------------------------------------------
 -----
 title
 -----
 Symbolic Z-matrix:
 Charge =  0 Multiplicity = 1

 SCF Done:  E(RHF) =  -279.736252931     A.U. after   17 cycles
 Normal termination of Gaussian 16 at Wed Apr  9 03:15:48 2025.
 Gaussian 16:  ES64L-G16RevC.01  3-Jul-2019

 ----------------------------------------------------------------------
 #t hf aug-cc-pvdz iop(5/13=1,5/36=2,99/5=2) pseudo=read geom=check gue
 ss=(read,tcheck) scf=(maxcycle=1)
 ----------------------------------------------------------------------
 -----
 title
 -----
 Structure from the checkpoint file:  "Grambow2020_b97d3_007056_forward_mol1.chk"
 Charge =  0 Multiplicity = 1

                         Standard orientation:
 ---------------------------------------------------------------------
 Center     Atomic      Atomic             Coordinates (Angstroms)
 Number     Number       Type             X           Y           Z
 ---------------------------------------------------------------------
      1          7           0        2.035167    0.010215   -0.204993
      2          6           0        0.664349   -0.113553    0.143959
      3          6           0       -0.196659   -1.303457   -0.002511
      4          6           0       -1.475242   -0.635047   -0.052064
      5          7           0       -1.445367    0.714388   -0.059791
      6          7           0       -0.166925    1.047295    0.003108
      7          1           0        2.401819   -0.922615   -0.393858
      8          1           0        2.593392    0.434086    0.537223
      9          1           0        0.445723   -0.514192    1.229475
     10          1           0       -2.446573   -1.117747   -0.115543
     11          1           0        0.090826    2.029534    0.038136
 ---------------------------------------------------------------------

 SCF Done:  E(RHF) =  -279.814406690     A.U. after    2 cycles

 The electronic state is 1-A.
 Alpha  occ. eigenvalues --  -15.71450 -15.71066 -15.64871 -11.34301 -11.26785
 Alpha  occ. eigenvalues --  -11.25420  -1.35621  -1.19504  -1.07035  -1.03164
 Alpha  occ. eigenvalues --   -0.82235  -0.79473  -0.73210  -0.70208  -0.65219
 Alpha  occ. eigenvalues --   -0.61980  -0.56819  -0.51178  -0.46649  -0.42405
 Alpha  occ. eigenvalues --   -0.37105  -0.35768
 Alpha virt. eigenvalues --    0.02295   0.04037   0.04605   0.05171   0.06473
 Alpha virt. eigenvalues --    0.07540   0.10090   0.11440   0.12418   0.13013
 Alpha virt. eigenvalues --    0.13650   0.14146   0.15921   0.16450   0.17312

 Mulliken charges:
               1
     1  N   -0.492824
     2  C    0.960739
     3  C   -0.624441
     4  C    0.648275
     5  N   -0.461701
     6  N   -0.169444
     7  H    0.099472
     8  H    0.029220
     9  H    0.272810
    10  H   -0.219550
    11  H   -0.042556
 Sum of Mulliken charges =  -0.00000

 Dipole moment (field-independent basis, Debye):
    X=              2.2411    Y=              2.4825    Z=              1.5085  Tot=              3.6689

 Test job not archived.
 1\1\GINC-SE362\SP\RHF\Aug-CC-pVDZ\C3H5N3\OHZDE\09-Apr-2025\0\\#t hf au
 g-cc-pvdz iop(5/13=1,5/36=2,99/5=2) pseudo=read geom=check guess=(read
 ,tcheck) scf=(maxcycle=1)\\title\\0,1\N,0,-1.79327415,-0.17198195,0.38
 018371\C,0,-0.42943056,-0.14029236,-0.01371166\C,0,0.60184736,-1.16685
 35,0.23387299\C,0,1.76836594,-0.3210576,0.14518822\N,0,1.53942876,1.00
 051494,-0.00634021\N,0,0.22456003,1.13618806,-0.05003461\H,0,-2.012527
 4,-1.11694628,0.695218\H,0,-2.42840884,0.07180959,-0.38095684\H,0,-0.1
 8410874,-0.63729504,-1.05268193\H,0,2.80179581,-0.6477741,0.22128471\H

 Normal termination of Gaussian 16 at Wed Apr  9 03:15:52 2025.
