 Gaussian 16, Revision C.01,

 ----------------------------------------------------------------------
 #t hf aug-cc-pvdz symm=none int=(grid=ultrafine) guess=(read,tcheck) s
 table=(opt,rrhf)
 ----------------------------------------------------------------------
 -----
 title
 -----
 Symbolic Z-matrix:
 Charge =  0 Multiplicity = 1

 SCF Done:  E(RHF) =  -338.472389783     A.U. after   17 cycles
 Normal termination of Gaussian 16 at Wed Apr  9 03:46:29 2025.
 Gaussian 16:  ES64L-G16RevC.01  3-Jul-2019

 ----------------------------------------------------------------------
 #t hf aug-cc-pvdz iop(5/13=1,5/36=2,99/5=2) pseudo=read geom=check gue
 ss=(read,tcheck) scf=(maxcycle=1)
 ----------------------------------------------------------------------
 -----
 title
 -----
 Structure from the checkpoint file:  "Grambow2020_wb97xd3_007971_reverse_mol1.chk"
 Charge =  0 Multiplicity = 1

                         Standard orientation:
 ---------------------------------------------------------------------
 Center     Atomic      Atomic             Coordinates (Angstroms)
 Number     Number       Type             X           Y           Z
 ---------------------------------------------------------------------
      1          7           0       -1.329587    1.282338    0.073241
      2          6           0       -0.753544    0.299155   -0.630424
      3          8           0       -1.377139   -0.920257   -0.360546
      4          6           0       -0.494236   -0.992843    0.740858
      5          6           0        0.514302   -0.079413    0.024770
      6          6           0        1.886306   -0.357513   -0.432773
      7          7           0        1.572687    0.731805    0.491111
      8          1           0       -2.345225    1.212743    0.002677
      9          1           0       -1.140870    0.521060    1.110321
     10          1           0       -0.232070   -2.020355    1.015386
     11          1           0        2.123436   -0.129535   -1.465612
     12          1           0        2.434926   -1.182536    0.004406
     13          1           0        1.558243    1.645368    0.052147
 ---------------------------------------------------------------------

 SCF Done:  E(RHF) =  -338.571520279     A.U. after    2 cycles

 The electronic state is 1-A.
 Alpha  occ. eigenvalues --  -20.63120 -15.65278 -15.65178 -11.36312 -11.32457
 Alpha  occ. eigenvalues --  -11.31251 -11.29979  -1.43806  -1.28030  -1.18396
 Alpha  occ. eigenvalues --   -0.99245  -0.90658  -0.88741  -0.76715  -0.71756
 Alpha  occ. eigenvalues --   -0.70369  -0.68359  -0.63996  -0.61912  -0.54683
 Alpha  occ. eigenvalues --   -0.51737  -0.50493  -0.49547  -0.44860  -0.41188
 Alpha  occ. eigenvalues --   -0.32879
 Alpha virt. eigenvalues --    0.02095   0.03535   0.04302   0.04607   0.05558
 Alpha virt. eigenvalues --    0.06269   0.07561   0.09677   0.10251   0.10480
 Alpha virt. eigenvalues --    0.12556   0.13714   0.14078   0.14385   0.15471

 Mulliken charges:
               1
     1  N   -0.480101
     2  C    0.265226
     3  O   -0.628460
     4  C    0.254313
     5  C    0.302106
     6  C    1.052283
     7  N   -0.643789
     8  H    0.050482
     9  H    0.449542
    10  H   -0.313403
    11  H   -0.151872
    12  H   -0.185694
    13  H    0.029367
 Sum of Mulliken charges =   0.00000

 Dipole moment (field-independent basis, Debye):
    X=              1.3181    Y=             -0.3693    Z=             -1.2612  Tot=              1.8613

 Test job not archived.
 1\1\GINC-SE462\SP\RHF\Aug-CC-pVDZ\C4H6N2O1\OHZDE\09-Apr-2025\0\\#t hf
 aug-cc-pvdz iop(5/13=1,5/36=2,99/5=2) pseudo=read geom=check guess=(re
 ad,tcheck) scf=(maxcycle=1)\\title\\0,1\N,0,1.78696231,-0.88627978,-0.
 1038533\C,0,0.94321396,-0.17811313,-0.86556772\O,0,1.26849222,1.178561
 15,-0.8176299\C,0,0.47066292,1.2071494,0.34878673\C,0,-0.33152844,-0.0
 1029177,-0.13969294\C,0,-1.75758824,-0.12774958,-0.48845661\N,0,-1.127
 1594,-0.96607328,0.53051564\H,0,2.74811104,-0.59498384,-0.28464063\H,0
 ,1.48918624,-0.04446923,0.84133294\H,0,-0.01424561,2.17519652,0.514996

 Normal termination of Gaussian 16 at Wed Apr  9 03:46:33 2025.
