 Gaussian 16, Revision C.01,

 ----------------------------------------------------------------------
 #t hf aug-cc-pvdz symm=none int=(grid=ultrafine) guess=(read,tcheck) s
 table=(opt,rrhf)
 ----------------------------------------------------------------------
 -----
 title
 -----
 Symbolic Z-matrix:
 Charge =  0 Multiplicity = 1

 SCF Done:  E(RHF) =  -344.789261631     A.U. after   15 cycles

 1\1\GINC-SE100\Stability\RHF\Aug-CC-pVDZ\C5H10O2\OHZDE\09-Apr-2025\0\\
 #t hf aug-cc-pvdz symm=none int=(grid=ultrafine) guess=(read,tcheck) s
 table=(opt,rrhf)\\title\\0,1\C,0,1.89293511,1.11541246,-0.1810246\O,0,
 0.52538307,0.90886047,0.06494175\C,0,0.00612079,-0.31817643,-0.4040931
 7\C,0,0.48018158,-1.53943349,0.39694517\O,0,-0.21735531,-1.6819603,1.6
 1249993\C,0,-1.44764862,-0.37296716,-0.58127361\C,0,-2.13491703,0.8976
 8755,-0.41418337\H,0,2.53088975,0.46745154,0.43001241\H,0,2.13734216,0
 .95223165,-1.2391432\H,0,2.1123712,2.15166852,0.07307029\H,0,0.3119358

 Normal termination of Gaussian 16 at Wed Apr  9 14:57:10 2025.
 Gaussian 16:  ES64L-G16RevC.01  3-Jul-2019

 ----------------------------------------------------------------------
 #t hf aug-cc-pvdz iop(5/13=1,5/36=2,99/5=2) pseudo=read geom=check gue
 ss=(read,tcheck) scf=(maxcycle=1)
 ----------------------------------------------------------------------
 -----
 title
 -----
 Structure from the checkpoint file:  "Grambow2020_wb97xd3_006652_reverse_mol2.chk"
 Charge =  0 Multiplicity = 1

                         Standard orientation:
 ---------------------------------------------------------------------
 Center     Atomic      Atomic             Coordinates (Angstroms)
 Number     Number       Type             X           Y           Z
 ---------------------------------------------------------------------
      1          6           0        2.176438   -0.832287   -0.110372
      2          8           0        0.796986   -0.795455   -0.373278
      3          6           0        0.028556   -0.038179    0.538476
      4          6           0        0.236684    1.478239    0.415894
      5          8           0       -0.470962    2.026258   -0.671928
      6          6           0       -1.404581   -0.342383    0.576120
      7          6           0       -1.807277   -1.500269   -0.206157
      8          1           0        2.665221    0.129142   -0.302598
      9          1           0        2.377146   -1.126991    0.928301
     10          1           0        2.610751   -1.577413   -0.775731
     11          1           0        0.288720   -0.319654    1.585487
     12          1           0        1.289367    1.705259    0.244829
     13          1           0       -0.063063    1.940224    1.361844
     14          1           0       -1.406160    1.974210   -0.452224
     15          1           0       -1.060738   -2.284718   -0.361084
     16          1           0       -2.794714   -1.887986    0.038122
     17          1           0       -1.893637   -0.989225   -1.189055
 ---------------------------------------------------------------------

 SCF Done:  E(RHF) =  -344.897996611     A.U. after    2 cycles

 The electronic state is 1-A.
 Alpha  occ. eigenvalues --  -20.57774 -20.57227 -11.29970 -11.29259 -11.29019
 Alpha  occ. eigenvalues --  -11.27018 -11.23753  -1.35210  -1.32487  -1.07612
 Alpha  occ. eigenvalues --   -0.99233  -0.93465  -0.86828  -0.74090  -0.71719
 Alpha  occ. eigenvalues --   -0.69011  -0.65739  -0.64684  -0.62125  -0.59306
 Alpha  occ. eigenvalues --   -0.57940  -0.55866  -0.53115  -0.51190  -0.49785
 Alpha  occ. eigenvalues --   -0.47478  -0.43157  -0.35615
 Alpha virt. eigenvalues --    0.03319   0.04285   0.04691   0.05031   0.06164
 Alpha virt. eigenvalues --    0.06591   0.06741   0.07255   0.07868   0.08712
 Alpha virt. eigenvalues --    0.09344   0.11715   0.12427   0.13747   0.14139

 Mulliken charges:
               1
     1  C    0.734612
     2  O   -0.719826
     3  C    0.426923
     4  C    0.962478
     5  O   -0.569854
     6  C   -0.847281
     7  C    0.463255
     8  H   -0.145644
     9  H   -0.095540
    10  H   -0.245577
    11  H    0.106972
    12  H   -0.215191
    13  H   -0.082467
    14  H    0.194562
    15  H   -0.027566
    16  H   -0.077164
    17  H    0.137309
 Sum of Mulliken charges =  -0.00000

 Dipole moment (field-independent basis, Debye):
    X=              1.2821    Y=             -1.3730    Z=              1.3362  Tot=              2.3053

 Test job not archived.
 1\1\GINC-SE100\SP\RHF\Aug-CC-pVDZ\C5H10O2\OHZDE\09-Apr-2025\0\\#t hf a
 ug-cc-pvdz iop(5/13=1,5/36=2,99/5=2) pseudo=read geom=check guess=(rea
 d,tcheck) scf=(maxcycle=1)\\title\\0,1\C,0,1.89293511,1.11541246,-0.18
 10246\O,0,0.52538307,0.90886047,0.06494175\C,0,0.00612079,-0.31817643,
 -0.40409317\C,0,0.48018158,-1.53943349,0.39694517\O,0,-0.21735531,-1.6
 819603,1.61249993\C,0,-1.44764862,-0.37296716,-0.58127361\C,0,-2.13491
 703,0.89768755,-0.41418337\H,0,2.53088975,0.46745154,0.43001241\H,0,2.
 13734216,0.95223165,-1.2391432\H,0,2.1123712,2.15166852,0.07307029\H,0

 Normal termination of Gaussian 16 at Wed Apr  9 14:57:16 2025.
