 Gaussian 16, Revision C.01,

 ----------------------------------------------------------------------
 #t hf aug-cc-pvdz symm=none int=(grid=ultrafine) guess=(read,tcheck) s
 table=(opt,rrhf)
 ----------------------------------------------------------------------
 -----
 title
 -----
 Symbolic Z-matrix:
 Charge =  0 Multiplicity = 1

 SCF Done:  E(RHF) =  -337.565308186     A.U. after   13 cycles
 Normal termination of Gaussian 16 at Wed Apr  9 17:16:10 2025.
 Gaussian 16:  ES64L-G16RevC.01  3-Jul-2019

 ----------------------------------------------------------------------
 #t hf aug-cc-pvdz iop(5/13=1,5/36=2,99/5=2) pseudo=read geom=check gue
 ss=(read,tcheck) scf=(maxcycle=1)
 ----------------------------------------------------------------------
 -----
 title
 -----
 Structure from the checkpoint file:  "Grambow2020_wb97xd3_009446_forward_mol2.chk"
 Charge =  0 Multiplicity = 1

                         Standard orientation:
 ---------------------------------------------------------------------
 Center     Atomic      Atomic             Coordinates (Angstroms)
 Number     Number       Type             X           Y           Z
 ---------------------------------------------------------------------
      1          7           0       -2.587425   -0.941586    0.441900
      2          6           0       -1.818988   -0.326008   -0.145298
      3          6           0       -0.803108    0.460124   -0.867907
      4          8           0       -0.000147    1.214529    0.003732
      5          6           0        0.801524    0.453064    0.870168
      6          6           0        1.818961   -0.326971    0.143211
      7          7           0        2.589748   -0.936792   -0.446842
      8          1           0       -1.302603    1.170302   -1.525301
      9          1           0       -0.206161   -0.222017   -1.484775
     10          1           0        1.300287    1.157357    1.534378
     11          1           0        0.203061   -0.234478    1.479395
 ---------------------------------------------------------------------

 SCF Done:  E(RHF) =  -337.668482616     A.U. after    2 cycles

 The electronic state is 1-A.
 Alpha  occ. eigenvalues --  -20.64462 -15.66616 -15.66607 -11.37338 -11.37308
 Alpha  occ. eigenvalues --  -11.30861 -11.30851  -1.41710  -1.22240  -1.21940
 Alpha  occ. eigenvalues --   -1.07591  -0.98839  -0.79991  -0.75026  -0.74947
 Alpha  occ. eigenvalues --   -0.69941  -0.63176  -0.59217  -0.58191  -0.56624
 Alpha  occ. eigenvalues --   -0.52781  -0.50223  -0.49320  -0.49085  -0.48108
 Alpha virt. eigenvalues --    0.02715   0.03669   0.05161   0.05767   0.07639
 Alpha virt. eigenvalues --    0.08217   0.09000   0.10716   0.10813   0.12614
 Alpha virt. eigenvalues --    0.13630   0.13803   0.14328   0.14407   0.14739

 Mulliken charges:
               1
     1  N   -0.172092
     2  C   -0.278199
     3  C    0.906855
     4  O   -0.676029
     5  C    0.907462
     6  C   -0.279416
     7  N   -0.171812
     8  H   -0.112872
     9  H   -0.005841
    10  H   -0.112243
    11  H   -0.005812
 Sum of Mulliken charges =   0.00000

 Dipole moment (field-independent basis, Debye):
    X=             -0.0083    Y=              2.3631    Z=              0.0043  Tot=              2.3632

 Test job not archived.
 1\1\GINC-SE135\SP\RHF\Aug-CC-pVDZ\C4H4N2O1\OHZDE\09-Apr-2025\0\\#t hf
 aug-cc-pvdz iop(5/13=1,5/36=2,99/5=2) pseudo=read geom=check guess=(re
 ad,tcheck) scf=(maxcycle=1)\\title\\0,1\N,0,2.22173006,-1.0412518,1.42
 227894\C,0,1.72701449,-0.53424035,0.52093092\C,0,1.05245983,0.10934129
 ,-0.6205409\O,0,-0.16554992,-0.51580834,-0.93560807\C,0,-1.15052645,-0
 .41791227,0.06111363\C,0,-1.58731629,0.97331072,0.27514967\N,0,-1.8972
 4247,2.06542039,0.43452146\H,0,1.68462896,0.02363886,-1.5031684\H,0,0.
 91786886,1.17344337,-0.39302975\H,0,-1.99935192,-1.00926077,-0.2791390

 Normal termination of Gaussian 16 at Wed Apr  9 17:16:14 2025.
