 Gaussian 16, Revision C.01,

 ----------------------------------------------------------------------
 #t hf aug-cc-pvdz symm=none int=(grid=ultrafine) guess=(read,tcheck) s
 table=(opt,rrhf)
 ----------------------------------------------------------------------
 -----
 title
 -----
 Symbolic Z-matrix:
 Charge =  0 Multiplicity = 1

 SCF Done:  E(RHF) =  -358.571822050     A.U. after   15 cycles
 Normal termination of Gaussian 16 at Wed Apr  9 03:28:04 2025.
 Gaussian 16:  ES64L-G16RevC.01  3-Jul-2019

 ----------------------------------------------------------------------
 #t hf aug-cc-pvdz iop(5/13=1,5/36=2,99/5=2) pseudo=read geom=check gue
 ss=(read,tcheck) scf=(maxcycle=1)
 ----------------------------------------------------------------------
 -----
 title
 -----
 Structure from the checkpoint file:  "Grambow2020_wb97xd3_006757_reverse_mol2.chk"
 Charge =  0 Multiplicity = 1

                         Standard orientation:
 ---------------------------------------------------------------------
 Center     Atomic      Atomic             Coordinates (Angstroms)
 Number     Number       Type             X           Y           Z
 ---------------------------------------------------------------------
      1          8           0       -2.636211    0.378804    0.001916
      2          6           0       -1.758842   -0.431242   -0.001409
      3          6           0       -0.300538   -0.069517   -0.001258
      4          8           0        0.529957   -1.137448    0.003218
      5          7           0        0.182822    1.093385   -0.003732
      6          6           0        1.636852    0.930976    0.002440
      7          6           0        1.864443   -0.594838   -0.001700
      8          1           0       -1.953073   -1.519932   -0.005447
      9          1           0        2.050817    1.418852    0.886458
     10          1           0        2.062195    1.424862   -0.872638
     11          1           0        2.374710   -0.957051   -0.894389
     12          1           0        2.384149   -0.963539    0.882626
 ---------------------------------------------------------------------

 SCF Done:  E(RHF) =  -358.682587806     A.U. after    2 cycles

 The electronic state is 1-A.
 Alpha  occ. eigenvalues --  -20.62692 -20.59925 -15.63683 -11.36649 -11.36051
 Alpha  occ. eigenvalues --  -11.31763 -11.28626  -1.42445  -1.38731  -1.20601
 Alpha  occ. eigenvalues --   -1.05580  -0.91316  -0.88360  -0.77406  -0.73865
 Alpha  occ. eigenvalues --   -0.71721  -0.69120  -0.63738  -0.61230  -0.59727
 Alpha  occ. eigenvalues --   -0.58054  -0.54780  -0.53585  -0.46942  -0.44902
 Alpha  occ. eigenvalues --   -0.39894
 Alpha virt. eigenvalues --    0.02836   0.04113   0.04173   0.05125   0.06180
 Alpha virt. eigenvalues --    0.06986   0.08243   0.09403   0.11171   0.11531
 Alpha virt. eigenvalues --    0.13093   0.13714   0.14460   0.14773   0.15169

 Mulliken charges:
               1
     1  O   -0.437907
     2  C    0.951959
     3  C    0.153434
     4  O   -0.667462
     5  N   -0.462232
     6  C    0.494898
     7  C    0.768484
     8  H   -0.133887
     9  H   -0.156568
    10  H   -0.155176
    11  H   -0.177535
    12  H   -0.178007
 Sum of Mulliken charges =  -0.00000

 Dipole moment (field-independent basis, Debye):
    X=              4.1389    Y=             -2.2293    Z=             -0.0055  Tot=              4.7011

 Test job not archived.
 1\1\GINC-SE250\SP\RHF\Aug-CC-pVDZ\C4H5N1O2\OHZDE\09-Apr-2025\0\\#t hf
 aug-cc-pvdz iop(5/13=1,5/36=2,99/5=2) pseudo=read geom=check guess=(re
 ad,tcheck) scf=(maxcycle=1)\\title\\0,1\O,0,2.7401713,-0.27648795,1.62
 934998\C,0,2.19967833,0.26816683,0.71437359\C,0,0.76901446,0.01565422,
 0.33105717\O,0,0.34871279,0.74166483,-0.73029747\N,0,-0.02845051,-0.77
 940228,0.89490029\C,0,-1.2941995,-0.67093868,0.16913702\C,0,-1.0247261
 7,0.36294502,-0.94369302\H,0,2.71464135,1.00666663,0.07217535\H,0,-2.0
 7973933,-0.35672919,0.85839547\H,0,-1.57497178,-1.65021907,-0.221733\H

 Normal termination of Gaussian 16 at Wed Apr  9 03:28:09 2025.
