 Gaussian 16, Revision C.01,

 ----------------------------------------------------------------------
 #t hf aug-cc-pvdz symm=none int=(grid=ultrafine) guess=(read,tcheck) s
 table=(opt,rrhf)
 ----------------------------------------------------------------------
 -----
 title
 -----
 Symbolic Z-matrix:
 Charge =  0 Multiplicity = 1

 SCF Done:  E(RHF) =  -359.498335432     A.U. after   17 cycles
 Normal termination of Gaussian 16 at Wed Apr  9 14:42:54 2025.
 Gaussian 16:  ES64L-G16RevC.01  3-Jul-2019

 ----------------------------------------------------------------------
 #t hf aug-cc-pvdz iop(5/13=1,5/36=2,99/5=2) pseudo=read geom=check gue
 ss=(read,tcheck) scf=(maxcycle=1)
 ----------------------------------------------------------------------
 -----
 title
 -----
 Structure from the checkpoint file:  "Grambow2020_wb97xd3_006596_forward_mol1.chk"
 Charge =  0 Multiplicity = 1

                         Standard orientation:
 ---------------------------------------------------------------------
 Center     Atomic      Atomic             Coordinates (Angstroms)
 Number     Number       Type             X           Y           Z
 ---------------------------------------------------------------------
      1          6           0       -2.294641   -0.344847   -0.423644
      2          7           0       -0.858756    1.440834    0.027026
      3          6           0        0.188482    0.932455    0.348233
      4          6           0        1.508615    0.677121   -0.347009
      5          8           0        1.310146   -0.697907   -0.691558
      6          6           0        0.283589   -1.166099    0.138927
      7          8           0        0.178363   -0.354797    1.186176
      8          1           0       -2.768388    0.166030    0.396539
      9          1           0       -2.335821    0.161691   -1.377012
     10          1           0       -2.479483   -1.414774   -0.450218
     11          1           0        2.365114    0.781514    0.318404
     12          1           0        1.625406    1.262307   -1.255259
     13          1           0        0.356099   -2.233570    0.343098
     14          1           0       -0.775973   -0.979190   -0.420721
 ---------------------------------------------------------------------

 SCF Done:  E(RHF) =  -359.610936972     A.U. after    2 cycles

 The electronic state is 1-A.
 Alpha  occ. eigenvalues --  -20.60323 -20.58665 -15.58807 -11.37695 -11.35838
 Alpha  occ. eigenvalues --  -11.30709 -11.30594  -1.43123  -1.31043  -1.14586
 Alpha  occ. eigenvalues --   -1.00674  -0.97279  -0.86219  -0.78823  -0.73153
 Alpha  occ. eigenvalues --   -0.70646  -0.65443  -0.64363  -0.64085  -0.60708
 Alpha  occ. eigenvalues --   -0.56888  -0.53474  -0.51896  -0.48489  -0.44138
 Alpha  occ. eigenvalues --   -0.40979  -0.32250
 Alpha virt. eigenvalues --   -0.00784   0.02910   0.04732   0.04827   0.05377
 Alpha virt. eigenvalues --    0.06263   0.07058   0.08224   0.09145   0.10734
 Alpha virt. eigenvalues --    0.12140   0.13236   0.14012   0.14499   0.14923

 Mulliken charges:
               1
     1  C    0.376614
     2  N   -0.593734
     3  C    0.206590
     4  C    0.866680
     5  O   -0.738325
     6  C    0.937828
     7  O   -0.717105
     8  H   -0.027756
     9  H    0.070664
    10  H   -0.051175
    11  H   -0.100864
    12  H   -0.139526
    13  H   -0.213150
    14  H    0.123259
 Sum of Mulliken charges =  -0.00000

 Dipole moment (field-independent basis, Debye):
    X=             -1.8930    Y=             -2.8343    Z=             -1.4750  Tot=              3.7138

 Test job not archived.
 1\1\GINC-SE113\SP\RHF\Aug-CC-pVDZ\C4H7N1O2\OHZDE\09-Apr-2025\0\\#t hf
 aug-cc-pvdz iop(5/13=1,5/36=2,99/5=2) pseudo=read geom=check guess=(re
 ad,tcheck) scf=(maxcycle=1)\\title\\0,1\C,0,1.71939887,-1.1305137,-0.4
 4792193\N,0,1.2035514,1.14663402,-0.49288201\C,0,0.00292261,1.19755978
 ,-0.61215544\C,0,-1.15374802,1.44877228,0.33140859\O,0,-1.55042648,0.0
 9172295,0.55472399\C,0,-1.00269185,-0.65504468,-0.49649207\O,0,-0.7130
 6384,0.16788382,-1.49894762\H,0,2.23173625,-0.76749783,-1.32191378\H,0
 ,2.1432677,-0.83320577,0.50030254\H,0,1.39759248,-2.16558701,-0.516336

 Normal termination of Gaussian 16 at Wed Apr  9 14:42:58 2025.
