 Gaussian 16, Revision C.01,

 ----------------------------------------------------------------------
 #t hf aug-cc-pvdz symm=none int=(grid=ultrafine) guess=(read,tcheck) s
 table=(opt,rrhf)
 ----------------------------------------------------------------------
 -----
 title
 -----
 Symbolic Z-matrix:
 Charge =  0 Multiplicity = 1

 SCF Done:  E(RHF) =  -307.744553449     A.U. after   16 cycles

 1\1\GINC-SE232\Stability\RHF\Aug-CC-pVDZ\C6H10O1\OHZDE\09-Apr-2025\0\\
 #t hf aug-cc-pvdz symm=none int=(grid=ultrafine) guess=(read,tcheck) s
 table=(opt,rrhf)\\title\\0,1\C,0,2.1327157,0.47316624,0.49818193\C,0,0
 .73742998,-0.01613953,0.3841196\C,0,0.04162324,-0.77762034,1.26572763\
 C,0,-1.28186309,-0.62617418,1.04849952\C,0,-1.54444341,0.53575521,0.12
 938777\C,0,-0.21784835,0.42904469,-0.72765654\O,0,0.14225185,1.5779324
 1,-1.43665672\H,0,2.22480369,1.51624362,0.19085282\H,0,2.78458508,-0.1
 0137494,-0.16780161\H,0,2.49731862,0.34820054,1.51719835\H,0,-0.459045

 Normal termination of Gaussian 16 at Wed Apr  9 16:04:51 2025.
 Gaussian 16:  ES64L-G16RevC.01  3-Jul-2019

 ----------------------------------------------------------------------
 #t hf aug-cc-pvdz iop(5/13=1,5/36=2,99/5=2) pseudo=read geom=check gue
 ss=(read,tcheck) scf=(maxcycle=1)
 ----------------------------------------------------------------------
 -----
 title
 -----
 Structure from the checkpoint file:  "Grambow2020_wb97xd3_007729_reverse_mol2.chk"
 Charge =  0 Multiplicity = 1

                         Standard orientation:
 ---------------------------------------------------------------------
 Center     Atomic      Atomic             Coordinates (Angstroms)
 Number     Number       Type             X           Y           Z
 ---------------------------------------------------------------------
      1          6           0       -1.841895   -1.173477   -0.149284
      2          6           0       -0.445141   -0.702624    0.013897
      3          6           0        0.702293   -1.365890   -0.277146
      4          6           0        1.709113   -0.480860   -0.434544
      5          6           0        1.177638    0.923264   -0.533368
      6          6           0       -0.086039    0.735350    0.401284
      7          8           0       -1.095664    1.690614    0.258365
      8          1           0       -2.485773   -0.399752   -0.570842
      9          1           0       -2.266186   -1.426721    0.827655
     10          1           0       -1.871574   -2.067141   -0.771722
     11          1           0        1.731852   -1.188403    2.471232
     12          1           0        2.763216   -0.682709   -0.270078
     13          1           0        1.990520   -0.828634    3.071991
     14          1           0        1.880333    1.687587   -0.192285
     15          1           0        0.829713    1.205921   -1.531856
     16          1           0        0.243467    0.809756    1.440682
     17          1           0       -1.346071    1.750605   -0.666736
 ---------------------------------------------------------------------

 SCF Done:  E(RHF) =  -307.840743249     A.U. after    2 cycles

 The electronic state is 1-A.
 Alpha  occ. eigenvalues --  -20.59388 -11.31808 -11.28645 -11.27726 -11.26122
 Alpha  occ. eigenvalues --  -11.24437 -11.19454  -1.35374  -1.15396  -1.02645
 Alpha  occ. eigenvalues --   -0.95097  -0.91478  -0.81454  -0.72204  -0.69260
 Alpha  occ. eigenvalues --   -0.67250  -0.63299  -0.59931  -0.58714  -0.58178
 Alpha  occ. eigenvalues --   -0.56667  -0.55789  -0.53773  -0.51084  -0.46182
 Alpha  occ. eigenvalues --   -0.37413  -0.30896
 Alpha virt. eigenvalues --    0.02907   0.03935   0.04000   0.04779   0.05155
 Alpha virt. eigenvalues --    0.06306   0.06519   0.06827   0.07675   0.07993
 Alpha virt. eigenvalues --    0.10074   0.11456   0.11802   0.12821   0.13654

 Mulliken charges:
               1
     1  C    0.614863
     2  C   -0.384844
     3  C   -0.947724
     4  C    0.723631
     5  C    0.339262
     6  C    0.549122
     7  O   -0.497889
     8  H   -0.029208
     9  H    0.109051
    10  H   -0.020986
    11  H    0.056931
    12  H   -0.290523
    13  H   -0.014911
    14  H   -0.099736
    15  H   -0.038241
    16  H   -0.179277
    17  H    0.110479
 Sum of Mulliken charges =  -0.00000

 Dipole moment (field-independent basis, Debye):
    X=             -0.3329    Y=              2.1653    Z=             -0.9343  Tot=              2.3817

 Test job not archived.
 1\1\GINC-SE232\SP\RHF\Aug-CC-pVDZ\C6H10O1\OHZDE\09-Apr-2025\0\\#t hf a
 ug-cc-pvdz iop(5/13=1,5/36=2,99/5=2) pseudo=read geom=check guess=(rea
 d,tcheck) scf=(maxcycle=1)\\title\\0,1\C,0,2.1327157,0.47316624,0.4981
 8193\C,0,0.73742998,-0.01613953,0.3841196\C,0,0.04162324,-0.77762034,1
 .26572763\C,0,-1.28186309,-0.62617418,1.04849952\C,0,-1.54444341,0.535
 75521,0.12938777\C,0,-0.21784835,0.42904469,-0.72765654\O,0,0.14225185
 ,1.57793241,-1.43665672\H,0,2.22480369,1.51624362,0.19085282\H,0,2.784
 58508,-0.10137494,-0.16780161\H,0,2.49731862,0.34820054,1.51719835\H,0

 Normal termination of Gaussian 16 at Wed Apr  9 16:04:57 2025.
