 Gaussian 16, Revision C.01,

 ----------------------------------------------------------------------
 #t hf aug-cc-pvdz symm=none int=(grid=ultrafine) guess=(read,tcheck) s
 table=(opt,rrhf)
 ----------------------------------------------------------------------
 -----
 title
 -----
 Symbolic Z-matrix:
 Charge =  0 Multiplicity = 1

 SCF Done:  E(RHF) =  -271.942953505     A.U. after   15 cycles
 Normal termination of Gaussian 16 at Wed Apr  9 15:53:24 2025.
 Gaussian 16:  ES64L-G16RevC.01  3-Jul-2019

 ----------------------------------------------------------------------
 #t hf aug-cc-pvdz iop(5/13=1,5/36=2,99/5=2) pseudo=read geom=check gue
 ss=(read,tcheck) scf=(maxcycle=1)
 ----------------------------------------------------------------------
 -----
 title
 -----
 Structure from the checkpoint file:  "Grambow2020_wb97xd3_007440_reverse_mol2.chk"
 Charge =  0 Multiplicity = 1

                         Standard orientation:
 ---------------------------------------------------------------------
 Center     Atomic      Atomic             Coordinates (Angstroms)
 Number     Number       Type             X           Y           Z
 ---------------------------------------------------------------------
      1          6           0       -3.071250    0.411596    0.180885
      2          6           0       -1.834797   -0.456866   -0.008740
      3          6           0       -0.581514    0.365966   -0.293538
      4          6           0        2.259455    1.265401    0.354436
      5          6           0        2.067796    0.059714   -0.348093
      6          6           0        1.406090   -1.005417    0.616832
      7          6           0        0.627747   -0.507798   -0.501353
      8          1           0       -3.956087   -0.192887    0.387864
      9          1           0       -3.274480    1.006299   -0.712990
     10          1           0       -2.937993    1.105594    1.014112
     11          1           0       -1.669990   -1.065308    0.886550
     12          1           0       -2.005429   -1.163602   -0.828342
     13          1           0       -0.737524    0.980266   -1.186257
     14          1           0       -0.382981    1.056963    0.527646
     15          1           0        3.280239    1.629878    0.135708
     16          1           0        2.789048   -0.379989   -1.035139
     17          1           0        1.893609   -1.969264    0.565243
     18          1           0        1.180791   -0.641073    1.609248
     19          1           0        0.579637   -1.162453   -1.366215
 ---------------------------------------------------------------------

 SCF Done:  E(RHF) =  -272.026481015     A.U. after    2 cycles

 The electronic state is 1-A.
 Alpha  occ. eigenvalues --  -11.26709 -11.25956 -11.24601 -11.24457 -11.22806
 Alpha  occ. eigenvalues --  -11.22610 -11.22085  -1.16115  -1.05218  -0.95556
 Alpha  occ. eigenvalues --   -0.92052  -0.82800  -0.79395  -0.72272  -0.69277
 Alpha  occ. eigenvalues --   -0.63012  -0.60782  -0.57467  -0.56418  -0.54127
 Alpha  occ. eigenvalues --   -0.52359  -0.49394  -0.48477  -0.47187  -0.43882
 Alpha  occ. eigenvalues --   -0.41543  -0.33827
 Alpha virt. eigenvalues --    0.03179   0.03972   0.04139   0.04642   0.05866
 Alpha virt. eigenvalues --    0.06183   0.06369   0.06944   0.07260   0.08614
 Alpha virt. eigenvalues --    0.08783   0.09235   0.09983   0.12660   0.13006

 Mulliken charges:
               1
     1  C    0.461536
     2  C    0.312040
     3  C    0.072443
     4  C   -0.104633
     5  C    0.580091
     6  C    0.701859
     7  C    0.498348
     8  H   -0.055744
     9  H   -0.064645
    10  H   -0.076074
    11  H   -0.134124
    12  H   -0.160370
    13  H   -0.122685
    14  H   -0.133345
    15  H   -0.214049
    16  H   -0.417466
    17  H   -0.319289
    18  H   -0.351642
    19  H   -0.472251
 Sum of Mulliken charges =  -0.00000

 Dipole moment (field-independent basis, Debye):
    X=              0.0428    Y=             -2.2650    Z=             -1.0693  Tot=              2.5051

 Test job not archived.
 1\1\GINC-SE114\SP\RHF\Aug-CC-pVDZ\C7H12\OHZDE\09-Apr-2025\0\\#t hf aug
 -cc-pvdz iop(5/13=1,5/36=2,99/5=2) pseudo=read geom=check guess=(read,
 tcheck) scf=(maxcycle=1)\\title\\0,1\C,0,2.68000198,0.01708699,-1.0902
 8904\C,0,1.30570371,-0.59737366,-0.86063341\C,0,0.54350466,0.08396812,
 0.2723752\C,0,-1.85469446,1.61329533,1.37226273\C,0,-1.93530428,0.2124
 4894,1.24941579\C,0,-1.96309284,-0.17480204,-0.28443609\C,0,-0.8036386
 1,-0.54948983,0.50236595\H,0,3.20823684,-0.4792856,-1.90623015\H,0,3.3
 0019,-0.06142885,-0.19408084\H,0,2.59770463,1.07723775,-1.34121525\H,0

 Normal termination of Gaussian 16 at Wed Apr  9 15:53:31 2025.
