 Gaussian 16, Revision C.01,

 ----------------------------------------------------------------------
 #t hf aug-cc-pvdz symm=none int=(grid=ultrafine) guess=(read,tcheck) s
 table=(opt,rrhf)
 ----------------------------------------------------------------------
 -----
 title
 -----
 Symbolic Z-matrix:
 Charge =  0 Multiplicity = 1

 SCF Done:  E(RHF) =  -373.291379899     A.U. after   16 cycles
 Normal termination of Gaussian 16 at Wed Apr  9 03:27:00 2025.
 Gaussian 16:  ES64L-G16RevC.01  3-Jul-2019

 ----------------------------------------------------------------------
 #t hf aug-cc-pvdz iop(5/13=1,5/36=2,99/5=2) pseudo=read geom=check gue
 ss=(read,tcheck) scf=(maxcycle=1)
 ----------------------------------------------------------------------
 -----
 title
 -----
 Structure from the checkpoint file:  "Grambow2020_wb97xd3_006708_reverse_mol2.chk"
 Charge =  0 Multiplicity = 1

                         Standard orientation:
 ---------------------------------------------------------------------
 Center     Atomic      Atomic             Coordinates (Angstroms)
 Number     Number       Type             X           Y           Z
 ---------------------------------------------------------------------
      1          8           0       -2.629722   -0.058513    0.150978
      2          6           0       -1.597314   -0.587850   -0.122827
      3          6           0       -0.263081    0.183080   -0.059044
      4          7           0        0.838351   -0.724068   -0.149183
      5          6           0        1.973307   -0.293536    0.581764
      6          7           0        2.180267    0.107004   -0.555163
      7          8           0       -0.199864    1.370459    0.020112
      8          1           0       -1.522592   -1.646216   -0.429806
      9          1           0        2.351477   -0.340062    1.592154
 ---------------------------------------------------------------------

 SCF Done:  E(RHF) =  -373.400582337     A.U. after    2 cycles

 The electronic state is 1-A.
 Alpha  occ. eigenvalues --  -20.61509 -20.60463 -15.73837 -15.71193 -11.39965
 Alpha  occ. eigenvalues --  -11.39293 -11.37466  -1.42915  -1.39881  -1.36715
 Alpha  occ. eigenvalues --   -1.09835  -0.92712  -0.86526  -0.78985  -0.75534
 Alpha  occ. eigenvalues --   -0.71260  -0.68760  -0.65496  -0.61178  -0.57922
 Alpha  occ. eigenvalues --   -0.55706  -0.54112  -0.47708  -0.46336  -0.42636
 Alpha virt. eigenvalues --    0.01695   0.02946   0.03830   0.06606   0.06916
 Alpha virt. eigenvalues --    0.08951   0.09795   0.10546   0.11174   0.12843
 Alpha virt. eigenvalues --    0.13759   0.14574   0.15027   0.15650   0.16866

 Mulliken charges:
               1
     1  O   -0.377532
     2  C    0.695998
     3  C    0.361105
     4  N   -0.614825
     5  C    0.792952
     6  N   -0.280921
     7  O   -0.391287
     8  H   -0.076757
     9  H   -0.108733
 Sum of Mulliken charges =   0.00000

 Dipole moment (field-independent basis, Debye):
    X=              3.1939    Y=             -3.3324    Z=              2.1683  Tot=              5.0998

 Test job not archived.
 1\1\GINC-SE292\SP\RHF\Aug-CC-pVDZ\C3H2N2O2\OHZDE\09-Apr-2025\0\\#t hf
 aug-cc-pvdz iop(5/13=1,5/36=2,99/5=2) pseudo=read geom=check guess=(re
 ad,tcheck) scf=(maxcycle=1)\\title\\0,1\O,0,-2.68893657,-0.10402393,-0
 .58843956\C,0,-1.7586594,0.21146795,0.08689834\C,0,-0.36918231,-0.4249
 4992,-0.12023654\N,0,0.62452566,0.3091806,0.59934093\C,0,1.88933043,0.
 30430703,-0.03941677\N,0,1.95583346,-0.61667178,0.76260725\O,0,-0.1936
 0547,-1.40950232,-0.7682796\H,0,-1.82174152,0.96915471,0.88807964\H,0,
 2.41023372,0.85432266,-0.80896669\\Version=ES64L-G16RevC.01\State=1-A\

 Normal termination of Gaussian 16 at Wed Apr  9 03:27:03 2025.
