 Gaussian 16, Revision C.01,

 ----------------------------------------------------------------------
 #t hf aug-cc-pvdz symm=none int=(grid=ultrafine) guess=(read,tcheck) s
 table=(opt,rrhf)
 ----------------------------------------------------------------------
 -----
 title
 -----
 Symbolic Z-matrix:
 Charge =  0 Multiplicity = 1

 SCF Done:  E(RHF) =  -323.840077436     A.U. after   14 cycles
 Normal termination of Gaussian 16 at Wed Apr  9 15:17:05 2025.
 Gaussian 16:  ES64L-G16RevC.01  3-Jul-2019

 ----------------------------------------------------------------------
 #t hf aug-cc-pvdz iop(5/13=1,5/36=2,99/5=2) pseudo=read geom=check gue
 ss=(read,tcheck) scf=(maxcycle=1)
 ----------------------------------------------------------------------
 -----
 title
 -----
 Structure from the checkpoint file:  "Grambow2020_wb97xd3_006829_reverse_mol2.chk"
 Charge =  0 Multiplicity = 1

                         Standard orientation:
 ---------------------------------------------------------------------
 Center     Atomic      Atomic             Coordinates (Angstroms)
 Number     Number       Type             X           Y           Z
 ---------------------------------------------------------------------
      1          6           0       -0.571487    1.454502   -0.002060
      2          6           0        0.951733   -0.657115    0.000718
      3          6           0        2.102375   -0.039244   -0.746583
      4          6           0        2.099564   -0.033391    0.747400
      5          6           0       -0.390683   -0.032583   -0.001314
      6          7           0       -1.368496   -0.847288    0.000483
      7          8           0       -2.593366   -0.184514    0.000521
      8          1           0        0.379189    1.984580   -0.013579
      9          1           0       -1.134038    1.761706    0.880985
     10          1           0       -1.157142    1.759239   -0.870582
     11          1           0        0.905757   -1.738262    0.004535
     12          1           0        2.776054   -0.711994   -1.259778
     13          1           0        1.932479    0.898802   -1.259233
     14          1           0        1.926768    0.908395    1.252218
     15          1           0        2.771844   -0.701438    1.268400
     16          1           0       -3.223518   -0.906914    0.000516
 ---------------------------------------------------------------------

 SCF Done:  E(RHF) =  -323.939804448     A.U. after    2 cycles

 The electronic state is 1-A.
 Alpha  occ. eigenvalues --  -20.60000 -15.66709 -11.28596 -11.24981 -11.24468
 Alpha  occ. eigenvalues --  -11.24413 -11.23806  -1.37392  -1.17167  -1.11634
 Alpha  occ. eigenvalues --   -0.97526  -0.86675  -0.83233  -0.73627  -0.70099
 Alpha  occ. eigenvalues --   -0.69236  -0.63552  -0.62051  -0.61846  -0.55815
 Alpha  occ. eigenvalues --   -0.55532  -0.52593  -0.51762  -0.46667  -0.44411
 Alpha  occ. eigenvalues --   -0.42409  -0.35919
 Alpha virt. eigenvalues --    0.03499   0.04100   0.04461   0.04588   0.06359
 Alpha virt. eigenvalues --    0.06773   0.06777   0.08135   0.08442   0.11261
 Alpha virt. eigenvalues --    0.12377   0.13550   0.13848   0.15005   0.15150

 Mulliken charges:
               1
     1  C    0.590701
     2  C    0.940713
     3  C    0.637266
     4  C    0.636157
     5  C   -0.249193
     6  N   -0.260466
     7  O   -0.505401
     8  H   -0.343476
     9  H    0.080994
    10  H    0.075311
    11  H   -0.401110
    12  H   -0.328755
    13  H   -0.357195
    14  H   -0.356876
    15  H   -0.328695
    16  H    0.170025
 Sum of Mulliken charges =  -0.00000

 Dipole moment (field-independent basis, Debye):
    X=              1.2059    Y=              0.5422    Z=              0.0002  Tot=              1.3222

 Test job not archived.
 1\1\GINC-SE100\SP\RHF\Aug-CC-pVDZ\C5H9N1O1\OHZDE\09-Apr-2025\0\\#t hf
 aug-cc-pvdz iop(5/13=1,5/36=2,99/5=2) pseudo=read geom=check guess=(re
 ad,tcheck) scf=(maxcycle=1)\\title\\0,1\C,0,-0.50210387,-0.97387456,1.
 11740836\C,0,0.35286674,0.66818512,-0.71338283\C,0,-0.9926029,1.236037
 14,-1.07595279\C,0,-0.14695857,1.92578143,-0.05557795\C,0,0.47437285,-
 0.59723449,0.04561229\N,0,1.46296538,-1.33103655,-0.27701138\O,0,1.509
 16221,-2.49841885,0.48105292\H,0,-1.28343889,-0.22650081,1.24329886\H,
 0,0.0186975,-1.10079745,2.06781031\H,0,-0.96475575,-1.93317324,0.88100

 Normal termination of Gaussian 16 at Wed Apr  9 15:17:12 2025.
