 Gaussian 16, Revision C.01,

 ----------------------------------------------------------------------
 #t hf aug-cc-pvdz symm=none int=(grid=ultrafine) guess=(read,tcheck) s
 table=(opt,rrhf)
 ----------------------------------------------------------------------
 -----
 title
 -----
 Symbolic Z-matrix:
 Charge =  0 Multiplicity = 1

 SCF Done:  E(RHF) =  -381.737879225     A.U. after   15 cycles

 1\1\GINC-SE174\Stability\RHF\Aug-CC-pVDZ\C4H10O3\OHZDE\09-Apr-2025\0\\
 #t hf aug-cc-pvdz symm=none int=(grid=ultrafine) guess=(read,tcheck) s
 table=(opt,rrhf)\\title\\0,1\C,0,2.77761783,0.18670139,-0.24762378\O,0
 ,1.54938897,-0.00138154,0.46021901\C,0,0.46822432,-0.16584666,-0.21364
 904\C,0,-0.80461829,-0.466269,0.50350359\O,0,-1.0615843,0.34125439,1.5
 1495327\C,0,-1.9929417,-0.68422277,-0.46394076\O,0,-2.68888564,0.51398
 362,-0.6558417\H,0,3.57351277,-0.10845712,0.42966625\H,0,2.87372961,1.
 24271687,-0.50122178\H,0,2.79695405,-0.42618952,-1.15061593\H,0,-0.140

 Normal termination of Gaussian 16 at Wed Apr  9 16:48:51 2025.
 Gaussian 16:  ES64L-G16RevC.01  3-Jul-2019

 ----------------------------------------------------------------------
 #t hf aug-cc-pvdz iop(5/13=1,5/36=2,99/5=2) pseudo=read geom=check gue
 ss=(read,tcheck) scf=(maxcycle=1)
 ----------------------------------------------------------------------
 -----
 title
 -----
 Structure from the checkpoint file:  "Grambow2020_wb97xd3_008928_forward_mol1.chk"
 Charge =  0 Multiplicity = 1

                         Standard orientation:
 ---------------------------------------------------------------------
 Center     Atomic      Atomic             Coordinates (Angstroms)
 Number     Number       Type             X           Y           Z
 ---------------------------------------------------------------------
      1          6           0       -2.998840   -0.372094    0.210448
      2          8           0       -1.783794    0.302284   -0.126957
      3          6           0       -0.683978   -0.361058   -0.105837
      4          6           0        0.577800    0.296172   -0.553783
      5          8           0        0.794076    1.480822   -0.014351
      6          6           0        1.792699   -0.661831   -0.511183
      7          8           0        2.467630   -0.536165    0.707644
      8          1           0       -3.803960    0.190336   -0.252956
      9          1           0       -3.111149   -0.362923    1.294893
     10          1           0       -2.984221   -1.397518   -0.163311
     11          1           0       -0.116734    0.176420    1.738820
     12          1           0       -0.777732   -1.453043   -0.064032
     13          1           0        0.272860    0.336967   -1.642509
     14          1           0        0.223894    0.829247    1.389149
     15          1           0        2.447000   -0.399302   -1.352478
     16          1           0        1.496007   -1.709774   -0.634529
     17          1           0        2.404668    0.406927    0.918392
 ---------------------------------------------------------------------

 SCF Done:  E(RHF) =  -381.862771762     A.U. after    2 cycles

 The electronic state is 1-A.
 Alpha  occ. eigenvalues --  -20.69337 -20.54740 -20.46622 -11.42854 -11.35382
 Alpha  occ. eigenvalues --  -11.29457 -11.27774  -1.48052  -1.31328  -1.23887
 Alpha  occ. eigenvalues --   -1.07449  -0.99080  -0.90956  -0.83333  -0.77495
 Alpha  occ. eigenvalues --   -0.74799  -0.72083  -0.67309  -0.65505  -0.61718
 Alpha  occ. eigenvalues --   -0.60655  -0.59368  -0.57133  -0.53937  -0.52399
 Alpha  occ. eigenvalues --   -0.49529  -0.44550  -0.38345  -0.36672
 Alpha virt. eigenvalues --    0.01511   0.03334   0.03992   0.04320   0.05103
 Alpha virt. eigenvalues --    0.05963   0.06293   0.07436   0.08583   0.09160
 Alpha virt. eigenvalues --    0.09665   0.10993   0.11947   0.13200   0.13815

 Mulliken charges:
               1
     1  C    0.701556
     2  O   -0.598138
     3  C    0.574749
     4  C    0.263133
     5  O   -0.954159
     6  C    0.923710
     7  O   -0.576187
     8  H   -0.179947
     9  H   -0.056476
    10  H   -0.052897
    11  H   -0.185192
    12  H   -0.267856
    13  H    0.073349
    14  H    0.414356
    15  H   -0.089334
    16  H   -0.183030
    17  H    0.192364
 Sum of Mulliken charges =  -0.00000

 Dipole moment (field-independent basis, Debye):
    X=             -6.9808    Y=             -4.9696    Z=             -1.5300  Tot=              8.7046

 Test job not archived.
 1\1\GINC-SE174\SP\RHF\Aug-CC-pVDZ\C4H10O3\OHZDE\09-Apr-2025\0\\#t hf a
 ug-cc-pvdz iop(5/13=1,5/36=2,99/5=2) pseudo=read geom=check guess=(rea
 d,tcheck) scf=(maxcycle=1)\\title\\0,1\C,0,2.77761783,0.18670139,-0.24
 762378\O,0,1.54938897,-0.00138154,0.46021901\C,0,0.46822432,-0.1658466
 6,-0.21364904\C,0,-0.80461829,-0.466269,0.50350359\O,0,-1.0615843,0.34
 125439,1.51495327\C,0,-1.9929417,-0.68422277,-0.46394076\O,0,-2.688885
 64,0.51398362,-0.6558417\H,0,3.57351277,-0.10845712,0.42966625\H,0,2.8
 7372961,1.24271687,-0.50122178\H,0,2.79695405,-0.42618952,-1.15061593\

 Normal termination of Gaussian 16 at Wed Apr  9 16:48:59 2025.
