 Gaussian 16, Revision C.01,

 ----------------------------------------------------------------------
 #t hf aug-cc-pvdz symm=none int=(grid=ultrafine) guess=(read,tcheck) s
 table=(opt,rrhf)
 ----------------------------------------------------------------------
 -----
 title
 -----
 Symbolic Z-matrix:
 Charge =  0 Multiplicity = 1

 SCF Done:  E(RHF) =  -287.897514859     A.U. after   16 cycles

 1\1\GINC-SE187\Stability\RHF\Aug-CC-pVDZ\C6H11N1\OHZDE\09-Apr-2025\0\\
 #t hf aug-cc-pvdz symm=none int=(grid=ultrafine) guess=(read,tcheck) s
 table=(opt,rrhf)\\title\\0,1\C,0,1.81615917,-0.60512237,0.45132239\C,0
 ,0.47113699,0.11711418,0.48190734\C,0,0.50665715,1.40070561,-0.2527679
 2\C,0,-0.66281599,-0.82867832,-0.06661224\C,0,-2.05368232,-0.49528649,
 0.47747329\C,0,-0.68230454,-0.62720015,-1.55322788\N,0,-0.24715119,0.3
 9133648,-2.0310972\H,0,1.78074318,-1.5415724,1.01141181\H,0,2.60493772
 ,0.01400921,0.88136649\H,0,2.10007854,-0.84318943,-0.57713106\H,0,0.17

 Normal termination of Gaussian 16 at Wed Apr  9 03:45:58 2025.
 Gaussian 16:  ES64L-G16RevC.01  3-Jul-2019

 ----------------------------------------------------------------------
 #t hf aug-cc-pvdz iop(5/13=1,5/36=2,99/5=2) pseudo=read geom=check gue
 ss=(read,tcheck) scf=(maxcycle=1)
 ----------------------------------------------------------------------
 -----
 title
 -----
 Structure from the checkpoint file:  "Grambow2020_wb97xd3_007880_forward_mol1.chk"
 Charge =  0 Multiplicity = 1

                         Standard orientation:
 ---------------------------------------------------------------------
 Center     Atomic      Atomic             Coordinates (Angstroms)
 Number     Number       Type             X           Y           Z
 ---------------------------------------------------------------------
      1          6           0        1.837995   -0.863941   -0.568684
      2          6           0        0.670818   -0.572632    0.371785
      3          6           0        0.865028    0.679017    1.136162
      4          6           0       -0.681367   -0.549733   -0.435878
      5          6           0       -1.906806   -0.894995    0.413112
      6          6           0       -0.839048    0.857018   -0.933057
      7          7           0       -0.276018    1.763679   -0.370832
      8          1           0        1.689932   -1.798514   -1.113242
      9          1           0        2.776897   -0.940877   -0.018251
     10          1           0        1.945835   -0.063330   -1.305159
     11          1           0        0.542991   -1.411799    1.066865
     12          1           0        0.383342    2.304021    0.173195
     13          1           0        1.889352    1.033748    1.232555
     14          1           0        0.287855    0.803112    2.049293
     15          1           0       -0.622662   -1.249737   -1.272819
     16          1           0       -2.821902   -0.821269   -0.174097
     17          1           0       -1.824531   -1.914098    0.793538
     18          1           0       -1.994701   -0.215407    1.263309
 ---------------------------------------------------------------------

 SCF Done:  E(RHF) =  -287.986771606     A.U. after    2 cycles

 The electronic state is 1-A.
 Alpha  occ. eigenvalues --  -15.67462 -11.27296 -11.25713 -11.24342 -11.24264
 Alpha  occ. eigenvalues --  -11.23484 -11.22597  -1.22268  -1.08485  -1.01035
 Alpha  occ. eigenvalues --   -0.92212  -0.88720  -0.81604  -0.77580  -0.65876
 Alpha  occ. eigenvalues --   -0.63214  -0.61381  -0.57922  -0.56111  -0.54162
 Alpha  occ. eigenvalues --   -0.52900  -0.50918  -0.49679  -0.49036  -0.45819
 Alpha  occ. eigenvalues --   -0.43427  -0.25893
 Alpha virt. eigenvalues --    0.03285   0.03972   0.04366   0.04901   0.05950
 Alpha virt. eigenvalues --    0.06402   0.06584   0.07259   0.07433   0.09039
 Alpha virt. eigenvalues --    0.09264   0.09522   0.11485   0.12529   0.13130

 Mulliken charges:
               1
     1  C    0.429131
     2  C   -0.090558
     3  C    0.710037
     4  C   -0.235924
     5  C    0.654037
     6  C   -0.226099
     7  N   -0.092851
     8  H   -0.083341
     9  H   -0.096087
    10  H    0.006307
    11  H   -0.198840
    12  H    0.169072
    13  H   -0.325816
    14  H   -0.289656
    15  H   -0.178929
    16  H   -0.048830
    17  H   -0.057031
    18  H   -0.044624
 Sum of Mulliken charges =  -0.00000

 Dipole moment (field-independent basis, Debye):
    X=              1.1802    Y=             -0.8143    Z=              1.5026  Tot=              2.0769

 Test job not archived.
 1\1\GINC-SE187\SP\RHF\Aug-CC-pVDZ\C6H11N1\OHZDE\09-Apr-2025\0\\#t hf a
 ug-cc-pvdz iop(5/13=1,5/36=2,99/5=2) pseudo=read geom=check guess=(rea
 d,tcheck) scf=(maxcycle=1)\\title\\0,1\C,0,1.81615917,-0.60512237,0.45
 132239\C,0,0.47113699,0.11711418,0.48190734\C,0,0.50665715,1.40070561,
 -0.25276792\C,0,-0.66281599,-0.82867832,-0.06661224\C,0,-2.05368232,-0
 .49528649,0.47747329\C,0,-0.68230454,-0.62720015,-1.55322788\N,0,-0.24
 715119,0.39133648,-2.0310972\H,0,1.78074318,-1.5415724,1.01141181\H,0,
 2.60493772,0.01400921,0.88136649\H,0,2.10007854,-0.84318943,-0.5771310

 Normal termination of Gaussian 16 at Wed Apr  9 03:46:06 2025.
