 Gaussian 16, Revision C.01,

 ----------------------------------------------------------------------
 #t hf aug-cc-pvdz symm=none int=(grid=ultrafine) guess=(read,tcheck) s
 table=(opt,rrhf)
 ----------------------------------------------------------------------
 -----
 title
 -----
 Symbolic Z-matrix:
 Charge =  0 Multiplicity = 1

 SCF Done:  E(RHF) =  -339.915544162     A.U. after   14 cycles
 Normal termination of Gaussian 16 at Wed Apr  9 14:26:38 2025.
 Gaussian 16:  ES64L-G16RevC.01  3-Jul-2019

 ----------------------------------------------------------------------
 #t hf aug-cc-pvdz iop(5/13=1,5/36=2,99/5=2) pseudo=read geom=check gue
 ss=(read,tcheck) scf=(maxcycle=1)
 ----------------------------------------------------------------------
 -----
 title
 -----
 Structure from the checkpoint file:  "Grambow2020_wb97xd3_006540_forward_mol2.chk"
 Charge =  0 Multiplicity = 1

                         Standard orientation:
 ---------------------------------------------------------------------
 Center     Atomic      Atomic             Coordinates (Angstroms)
 Number     Number       Type             X           Y           Z
 ---------------------------------------------------------------------
      1          6           0       -1.143406    1.962991   -0.133752
      2          7           0       -0.109420    1.088864    0.399902
      3          6           0        0.038593   -0.171980   -0.301640
      4          6           0        1.345232   -0.841172    0.136602
      5          8           0        2.428926    0.000404   -0.137274
      6          6           0       -1.108124   -1.084264   -0.107434
      7          7           0       -2.004483   -1.774140    0.086529
      8          1           0       -2.139977    1.503345   -0.152106
      9          1           0       -1.189850    2.869299    0.469079
     10          1           0       -0.879102    2.252538   -1.152310
     11          1           0       -0.275212    0.910293    1.382895
     12          1           0        0.111867    0.043935   -1.371497
     13          1           0        1.492777   -1.771396   -0.413080
     14          1           0        1.279113   -1.088386    1.206024
     15          1           0        2.172531    0.880625    0.161508
 ---------------------------------------------------------------------

 SCF Done:  E(RHF) =  -340.020030771     A.U. after    2 cycles

 The electronic state is 1-A.
 Alpha  occ. eigenvalues --  -20.58379 -15.65102 -15.64850 -11.32887 -11.31263
 Alpha  occ. eigenvalues --  -11.29150 -11.28003  -1.34618  -1.23203  -1.19496
 Alpha  occ. eigenvalues --   -1.04278  -0.92269  -0.88664  -0.75469  -0.73227
 Alpha  occ. eigenvalues --   -0.67978  -0.65518  -0.61840  -0.60422  -0.58790
 Alpha  occ. eigenvalues --   -0.56018  -0.55204  -0.52604  -0.49088  -0.47819
 Alpha  occ. eigenvalues --   -0.45908  -0.41434
 Alpha virt. eigenvalues --    0.02878   0.03533   0.04176   0.05086   0.06380
 Alpha virt. eigenvalues --    0.06744   0.07551   0.08711   0.09742   0.11224
 Alpha virt. eigenvalues --    0.12332   0.13082   0.13889   0.14136   0.14977

 Mulliken charges:
               1
     1  C    0.723861
     2  N   -0.748528
     3  C    0.673591
     4  C    1.044146
     5  O   -0.540438
     6  C   -0.338380
     7  N   -0.186171
     8  H   -0.099695
     9  H   -0.213515
    10  H   -0.149122
    11  H    0.047499
    12  H   -0.175800
    13  H   -0.128677
    14  H   -0.117229
    15  H    0.208457
 Sum of Mulliken charges =  -0.00000

 Dipole moment (field-independent basis, Debye):
    X=              0.2872    Y=              2.7990    Z=              0.4396  Tot=              2.8478

 Test job not archived.
 1\1\GINC-SE114\SP\RHF\Aug-CC-pVDZ\C4H8N2O1\OHZDE\09-Apr-2025\0\\#t hf
 aug-cc-pvdz iop(5/13=1,5/36=2,99/5=2) pseudo=read geom=check guess=(re
 ad,tcheck) scf=(maxcycle=1)\\title\\0,1\C,0,-1.7670987,0.68909779,0.72
 812573\N,0,-0.39654547,0.20775971,0.81705983\C,0,0.21675446,-0.1114265
 9,-0.45800051\C,0,1.72605935,-0.28542185,-0.26076184\O,0,2.27780918,0.
 88713711,0.26680846\C,0,-0.36856018,-1.30589151,-1.10266945\N,0,-0.831
 53867,-2.25106778,-1.56016688\H,0,-2.44690134,-0.01259374,0.22786257\H
 ,0,-2.14323315,0.88096638,1.73244895\H,0,-1.78199269,1.63273505,0.1799

 Normal termination of Gaussian 16 at Wed Apr  9 14:26:43 2025.
