 Gaussian 16, Revision C.01,

 ----------------------------------------------------------------------
 #t hf aug-cc-pvdz symm=none int=(grid=ultrafine) guess=(read,tcheck) s
 table=(opt,rrhf)
 ----------------------------------------------------------------------
 -----
 title
 -----
 Symbolic Z-matrix:
 Charge =  0 Multiplicity = 1

 SCF Done:  E(RHF) =  -374.500868187     A.U. after   14 cycles
 Normal termination of Gaussian 16 at Wed Apr  9 15:45:41 2025.
 Gaussian 16:  ES64L-G16RevC.01  3-Jul-2019

 ----------------------------------------------------------------------
 #t hf aug-cc-pvdz iop(5/13=1,5/36=2,99/5=2) pseudo=read geom=check gue
 ss=(read,tcheck) scf=(maxcycle=1)
 ----------------------------------------------------------------------
 -----
 title
 -----
 Structure from the checkpoint file:  "Grambow2020_wb97xd3_007335_forward_mol1.chk"
 Charge =  0 Multiplicity = 1

                         Standard orientation:
 ---------------------------------------------------------------------
 Center     Atomic      Atomic             Coordinates (Angstroms)
 Number     Number       Type             X           Y           Z
 ---------------------------------------------------------------------
      1          7           0        2.305694   -0.602755   -0.084251
      2          6           0        1.042067   -0.062317   -0.006470
      3          6           0        0.614600    1.221669    0.008029
      4          8           0       -0.800449    1.227380    0.007592
      5          6           0       -1.119031   -0.042123    0.005166
      6          8           0       -2.215439   -0.672140   -0.003169
      7          7           0       -0.087508   -0.863823    0.000062
      8          1           0        2.393541   -1.498975    0.365994
      9          1           0        3.051349    0.025550    0.162461
     10          1           0        1.102137    2.177803    0.003792
     11          1           0       -1.173036   -1.583627   -0.018659
 ---------------------------------------------------------------------

 SCF Done:  E(RHF) =  -374.617565471     A.U. after    2 cycles

 The electronic state is 1-A.
 Alpha  occ. eigenvalues --  -20.66081 -20.58116 -15.66041 -15.64819 -11.42627
 Alpha  occ. eigenvalues --  -11.35157 -11.29185  -1.48058  -1.37389  -1.25629
 Alpha  occ. eigenvalues --   -1.17599  -1.00862  -0.88537  -0.83357  -0.75509
 Alpha  occ. eigenvalues --   -0.71459  -0.70312  -0.67719  -0.65148  -0.62125
 Alpha  occ. eigenvalues --   -0.56057  -0.55514  -0.54695  -0.49463  -0.43294
 Alpha  occ. eigenvalues --   -0.31986
 Alpha virt. eigenvalues --    0.02361   0.03619   0.04627   0.06972   0.08671
 Alpha virt. eigenvalues --    0.09458   0.11569   0.12171   0.12774   0.12949
 Alpha virt. eigenvalues --    0.13634   0.14558   0.15154   0.15341   0.18138

 Mulliken charges:
               1
     1  N   -0.264378
     2  C    0.584278
     3  C    0.918380
     4  O   -0.524258
     5  C    0.434397
     6  O   -0.608469
     7  N   -0.734175
     8  H   -0.021379
     9  H    0.005561
    10  H   -0.307580
    11  H    0.517623
 Sum of Mulliken charges =  -0.00000

 Dipole moment (field-independent basis, Debye):
    X=              4.7035    Y=             -0.3478    Z=              1.0048  Tot=              4.8222

 Test job not archived.
 1\1\GINC-SE120\SP\RHF\Aug-CC-pVDZ\C3H4N2O2\OHZDE\09-Apr-2025\0\\#t hf
 aug-cc-pvdz iop(5/13=1,5/36=2,99/5=2) pseudo=read geom=check guess=(re
 ad,tcheck) scf=(maxcycle=1)\\title\\0,1\N,0,-1.8833415,-0.35222848,0.0
 8701352\C,0,-0.56946232,0.05698772,0.05323931\C,0,-0.00770905,1.282017
 78,0.17689422\O,0,1.39989957,1.13811032,0.15890234\C,0,1.58147592,-0.1
 5006951,0.01482188\O,0,2.60456629,-0.88929256,-0.06223674\N,0,0.468320
 16,-0.85349069,-0.05824734\H,0,-2.06679824,-1.17760673,-0.45955921\H,0
 ,-2.55820798,0.37513689,-0.07769961\H,0,-0.39064306,2.27769371,0.29477

 Normal termination of Gaussian 16 at Wed Apr  9 15:45:45 2025.
