 Gaussian 16, Revision C.01,

 ----------------------------------------------------------------------
 #t hf aug-cc-pvdz symm=none int=(grid=ultrafine) guess=(read,tcheck) s
 table=(opt,rrhf)
 ----------------------------------------------------------------------
 -----
 title
 -----
 Symbolic Z-matrix:
 Charge =  0 Multiplicity = 1

 SCF Done:  E(RHF) =  -302.716359380     A.U. after   18 cycles
 Normal termination of Gaussian 16 at Wed Apr  9 04:05:56 2025.
 Gaussian 16:  ES64L-G16RevC.01  3-Jul-2019

 ----------------------------------------------------------------------
 #t hf aug-cc-pvdz iop(5/13=1,5/36=2,99/5=2) pseudo=read geom=check gue
 ss=(read,tcheck) scf=(maxcycle=1)
 ----------------------------------------------------------------------
 -----
 title
 -----
 Structure from the checkpoint file:  "Grambow2020_wb97xd3_009330_forward_mol1.chk"
 Charge =  0 Multiplicity = 1

                         Standard orientation:
 ---------------------------------------------------------------------
 Center     Atomic      Atomic             Coordinates (Angstroms)
 Number     Number       Type             X           Y           Z
 ---------------------------------------------------------------------
      1          6           0        2.437611   -0.448169    0.021981
      2          7           0        1.043757   -0.096266   -0.094125
      3          6           0       -0.012677   -0.924118   -0.005145
      4          6           0       -1.218445   -0.125442    0.045013
      5          6           0       -2.597901   -0.494818   -0.167590
      6          6           0       -0.614295    1.224342    0.020165
      7          7           0        0.681736    1.200041   -0.048567
      8          1           0        2.748549   -0.499528    1.068105
      9          1           0        3.022962    0.311768   -0.490069
     10          1           0        2.604340   -1.414444   -0.452317
     11          1           0        0.094852   -1.995855    0.036005
     12          1           0       -1.181593   -0.338720    1.179792
     13          1           0       -2.847874   -1.545762   -0.082843
     14          1           0       -3.339311    0.202512    0.201627
     15          1           0       -1.146136    2.162829    0.051999
 ---------------------------------------------------------------------

 SCF Done:  E(RHF) =  -302.806082293     A.U. after    2 cycles

 The electronic state is 1-A.
 Alpha  occ. eigenvalues --  -15.73865 -15.68941 -11.33921 -11.30896 -11.30323
 Alpha  occ. eigenvalues --  -11.28300 -11.15570  -1.38252  -1.15028  -1.10588
 Alpha  occ. eigenvalues --   -0.98819  -0.89851  -0.81163  -0.80156  -0.73230
 Alpha  occ. eigenvalues --   -0.69315  -0.64497  -0.60976  -0.60285  -0.59123
 Alpha  occ. eigenvalues --   -0.55515  -0.51357  -0.50162  -0.46634  -0.39711
 Alpha  occ. eigenvalues --   -0.20628
 Alpha virt. eigenvalues --    0.02089   0.03629   0.03828   0.04281   0.06299
 Alpha virt. eigenvalues --    0.06649   0.07182   0.07408   0.08745   0.10343
 Alpha virt. eigenvalues --    0.10560   0.11914   0.12728   0.13341   0.14165

 Mulliken charges:
               1
     1  C    0.900857
     2  N   -0.416199
     3  C    0.513777
     4  C   -0.993890
     5  C    0.784670
     6  C    0.803104
     7  N   -0.380239
     8  H   -0.065570
     9  H   -0.158143
    10  H   -0.168272
    11  H   -0.426787
    12  H    0.520660
    13  H   -0.342675
    14  H   -0.306874
    15  H   -0.264419
 Sum of Mulliken charges =  -0.00000

 Dipole moment (field-independent basis, Debye):
    X=              5.5418    Y=             -1.3139    Z=              1.8237  Tot=              5.9803

 Test job not archived.
 1\1\GINC-SE132\SP\RHF\Aug-CC-pVDZ\C5H8N2\OHZDE\09-Apr-2025\0\\#t hf au
 g-cc-pvdz iop(5/13=1,5/36=2,99/5=2) pseudo=read geom=check guess=(read
 ,tcheck) scf=(maxcycle=1)\\title\\0,1\C,0,-2.43772288,-0.21745013,-0.3
 9928763\N,0,-1.08615202,0.05922476,0.02125012\C,0,-0.01269055,-0.73902
 942,-0.11938675\C,0,1.17024406,0.0166833,0.23252385\C,0,2.50673998,-0.
 42712463,0.55088093\C,0,0.54319,1.32474498,0.52115751\N,0,-0.74699873,
 1.31250198,0.37876669\H,0,-2.58085693,0.01796954,-1.45654247\H,0,-3.11
 050377,0.39227749,0.19898699\H,0,-2.6572702,-1.27094927,-0.2308174\H,0

 Normal termination of Gaussian 16 at Wed Apr  9 04:06:02 2025.
