 Gaussian 16, Revision C.01,

 ----------------------------------------------------------------------
 #t hf aug-cc-pvdz symm=none int=(grid=ultrafine) guess=(read,tcheck) s
 table=(opt,rrhf)
 ----------------------------------------------------------------------
 -----
 title
 -----
 Symbolic Z-matrix:
 Charge =  0 Multiplicity = 1

 SCF Done:  E(RHF) =  -302.906014659     A.U. after   14 cycles
 Normal termination of Gaussian 16 at Wed Apr  9 16:46:10 2025.
 Gaussian 16:  ES64L-G16RevC.01  3-Jul-2019

 ----------------------------------------------------------------------
 #t hf aug-cc-pvdz iop(5/13=1,5/36=2,99/5=2) pseudo=read geom=check gue
 ss=(read,tcheck) scf=(maxcycle=1)
 ----------------------------------------------------------------------
 -----
 title
 -----
 Structure from the checkpoint file:  "Grambow2020_wb97xd3_008872_forward_mol2.chk"
 Charge =  0 Multiplicity = 1

                         Standard orientation:
 ---------------------------------------------------------------------
 Center     Atomic      Atomic             Coordinates (Angstroms)
 Number     Number       Type             X           Y           Z
 ---------------------------------------------------------------------
      1          6           0       -2.440445   -0.522022    0.017514
      2          7           0       -1.071263   -0.079146   -0.034437
      3          6           0       -0.656181    1.210780   -0.015135
      4          6           0        0.715519    1.233301    0.015215
      5          6           0        1.153743   -0.115515    0.015377
      6          7           0        2.491314   -0.535551    0.095980
      7          6           0        0.030022   -0.904867   -0.011256
      8          1           0       -3.092707    0.298622   -0.278351
      9          1           0       -2.595271   -1.349822   -0.675431
     10          1           0       -2.720052   -0.845558    1.023178
     11          1           0       -1.365876    2.023097   -0.027153
     12          1           0        1.338324    2.114324    0.032755
     13          1           0        3.121734    0.099410   -0.367898
     14          1           0        2.634577   -1.469472   -0.253992
     15          1           0       -0.077035   -1.977789   -0.014200
 ---------------------------------------------------------------------

 SCF Done:  E(RHF) =  -302.999069906     A.U. after    2 cycles

 The electronic state is 1-A.
 Alpha  occ. eigenvalues --  -15.65988 -15.61287 -11.27878 -11.25753 -11.25367
 Alpha  occ. eigenvalues --  -11.23715 -11.20668  -1.26834  -1.16025  -1.04886
 Alpha  occ. eigenvalues --   -0.96354  -0.91550  -0.77121  -0.75531  -0.70708
 Alpha  occ. eigenvalues --   -0.65086  -0.63352  -0.61231  -0.58423  -0.56271
 Alpha  occ. eigenvalues --   -0.54287  -0.53045  -0.51653  -0.45291  -0.31137
 Alpha  occ. eigenvalues --   -0.27420
 Alpha virt. eigenvalues --    0.03275   0.03747   0.03964   0.05450   0.06045
 Alpha virt. eigenvalues --    0.06240   0.08414   0.08896   0.10860   0.11527
 Alpha virt. eigenvalues --    0.13073   0.13429   0.14118   0.14763   0.15191

 Mulliken charges:
               1
     1  C    0.813623
     2  N   -0.443738
     3  C    0.288017
     4  C    0.795391
     5  C   -0.364868
     6  N   -0.340950
     7  C    1.127071
     8  H   -0.218768
     9  H   -0.149888
    10  H   -0.070733
    11  H   -0.447804
    12  H   -0.421893
    13  H   -0.043404
    14  H   -0.029352
    15  H   -0.492705
 Sum of Mulliken charges =   0.00000

 Dipole moment (field-independent basis, Debye):
    X=             -1.5232    Y=             -0.6454    Z=             -1.1449  Tot=              2.0118

 Test job not archived.
 1\1\GINC-SE220\SP\RHF\Aug-CC-pVDZ\C5H8N2\OHZDE\09-Apr-2025\0\\#t hf au
 g-cc-pvdz iop(5/13=1,5/36=2,99/5=2) pseudo=read geom=check guess=(read
 ,tcheck) scf=(maxcycle=1)\\title\\0,1\C,0,2.30559823,0.25482523,0.0035
 4271\N,0,0.90064438,-0.06072733,-0.0019021\C,0,0.36680742,-1.29504619,
 0.16557477\C,0,-1.00073199,-1.18516016,0.19300758\C,0,-1.3107837,0.189
 66747,0.03470383\N,0,-2.60257042,0.73978814,0.06074658\C,0,-0.11833583
 ,0.86171349,-0.07912358\H,0,2.87608867,-0.65213863,-0.19240359\H,0,2.5
 3232395,0.97840631,-0.78030823\H,0,2.62134868,0.66524849,0.9658688\H,0

 Normal termination of Gaussian 16 at Wed Apr  9 16:46:15 2025.
