 Gaussian 16, Revision C.01,

 ----------------------------------------------------------------------
 #t hf aug-cc-pvdz symm=none int=(grid=ultrafine) guess=(read,tcheck) s
 table=(opt,rrhf)
 ----------------------------------------------------------------------
 -----
 title
 -----
 Symbolic Z-matrix:
 Charge =  0 Multiplicity = 1

 SCF Done:  E(RHF) =  -338.619279384     A.U. after   16 cycles
 Normal termination of Gaussian 16 at Wed Apr  9 16:27:00 2025.
 Gaussian 16:  ES64L-G16RevC.01  3-Jul-2019

 ----------------------------------------------------------------------
 #t hf aug-cc-pvdz iop(5/13=1,5/36=2,99/5=2) pseudo=read geom=check gue
 ss=(read,tcheck) scf=(maxcycle=1)
 ----------------------------------------------------------------------
 -----
 title
 -----
 Structure from the checkpoint file:  "Grambow2020_wb97xd3_008311_reverse_mol2.chk"
 Charge =  0 Multiplicity = 1

                         Standard orientation:
 ---------------------------------------------------------------------
 Center     Atomic      Atomic             Coordinates (Angstroms)
 Number     Number       Type             X           Y           Z
 ---------------------------------------------------------------------
      1          6           0        2.466876    0.316187   -0.121659
      2          8           0        1.483428   -0.634185   -0.009151
      3          6           0        0.261828   -0.331544    0.079045
      4          6           0       -0.222085    1.072841    0.025883
      5          7           0       -1.637310    0.816120   -0.046053
      6          6           0       -1.830916   -0.524819   -0.025999
      7          7           0       -0.752852   -1.244095    0.039816
      8          1           0        3.430695   -0.153013    0.015277
      9          1           0        2.269932    1.223364    0.444143
     10          1           0        0.229105    1.553473   -0.867481
     11          1           0        0.067606    1.683926    0.891725
     12          1           0       -2.359974    1.509116   -0.039227
     13          1           0       -2.827876   -0.943553   -0.071188
 ---------------------------------------------------------------------

 SCF Done:  E(RHF) =  -338.723432024     A.U. after    2 cycles

 The electronic state is 1-A.
 Alpha  occ. eigenvalues --  -20.66748 -15.69711 -15.64507 -11.37656 -11.37535
 Alpha  occ. eigenvalues --  -11.31877 -11.21500  -1.45155  -1.33875  -1.17934
 Alpha  occ. eigenvalues --   -1.04557  -0.96228  -0.86547  -0.80894  -0.77387
 Alpha  occ. eigenvalues --   -0.70800  -0.70105  -0.66803  -0.63069  -0.62106
 Alpha  occ. eigenvalues --   -0.58606  -0.53589  -0.50213  -0.46898  -0.41756
 Alpha  occ. eigenvalues --   -0.22533
 Alpha virt. eigenvalues --    0.01353   0.03151   0.04432   0.05181   0.06225
 Alpha virt. eigenvalues --    0.06769   0.08132   0.09397   0.09948   0.10147
 Alpha virt. eigenvalues --    0.12221   0.12721   0.13254   0.13887   0.15392

 Mulliken charges:
               1
     1  C    0.414330
     2  O   -0.329298
     3  C    0.199682
     4  C    0.793988
     5  N   -0.439747
     6  C    0.842121
     7  N   -0.560477
     8  H   -0.410254
     9  H   -0.214035
    10  H    0.073380
    11  H   -0.063120
    12  H   -0.112817
    13  H   -0.193753
 Sum of Mulliken charges =   0.00000

 Dipole moment (field-independent basis, Debye):
    X=             -6.9679    Y=              2.9794    Z=              1.3225  Tot=              7.6927

 Test job not archived.
 1\1\GINC-SE141\SP\RHF\Aug-CC-pVDZ\C4H6N2O1\OHZDE\09-Apr-2025\0\\#t hf
 aug-cc-pvdz iop(5/13=1,5/36=2,99/5=2) pseudo=read geom=check guess=(re
 ad,tcheck) scf=(maxcycle=1)\\title\\0,1\C,0,2.41488681,-0.08070482,-0.
 24075146\O,0,1.37790069,0.60862877,-0.817392\C,0,0.17379094,0.39874306
 ,-0.50475087\C,0,-0.2240898,-0.57873895,0.5419179\N,0,-1.62486523,-0.2
 5498024,0.62528727\C,0,-1.88817615,0.73832854,-0.2578927\N,0,-0.869884
 83,1.1631974,-0.94088573\H,0,3.32279456,0.1179943,-0.79217514\H,0,2.18
 425354,-1.11976195,-0.01926154\H,0,0.37719288,-0.36611885,1.45072436\H

 Normal termination of Gaussian 16 at Wed Apr  9 16:27:04 2025.
