 Gaussian 16, Revision C.01,

 ----------------------------------------------------------------------
 #t hf aug-cc-pvdz symm=none int=(grid=ultrafine) guess=(read,tcheck) s
 table=(opt,rrhf)
 ----------------------------------------------------------------------
 -----
 title
 -----
 Symbolic Z-matrix:
 Charge =  0 Multiplicity = 1

 SCF Done:  E(RHF) =  -324.986071510     A.U. after   15 cycles
 Normal termination of Gaussian 16 at Wed Apr  9 16:20:21 2025.
 Gaussian 16:  ES64L-G16RevC.01  3-Jul-2019

 ----------------------------------------------------------------------
 #t hf aug-cc-pvdz iop(5/13=1,5/36=2,99/5=2) pseudo=read geom=check gue
 ss=(read,tcheck) scf=(maxcycle=1)
 ----------------------------------------------------------------------
 -----
 title
 -----
 Structure from the checkpoint file:  "Grambow2020_wb97xd3_008097_forward_mol1.chk"
 Charge =  0 Multiplicity = 1

                         Standard orientation:
 ---------------------------------------------------------------------
 Center     Atomic      Atomic             Coordinates (Angstroms)
 Number     Number       Type             X           Y           Z
 ---------------------------------------------------------------------
      1          6           0        2.335744   -0.494598    0.217742
      2          6           0        1.717846    0.744175    0.040277
      3          7           0       -0.165706    0.618421   -0.261630
      4          6           0       -0.896562    1.834958   -0.014692
      5          6           0       -0.707966   -0.544338   -0.116667
      6          8           0        0.009148   -1.611973   -0.264197
      7          6           0       -2.149917   -0.752991    0.245361
      8          1           0        2.575154   -0.817145    1.224280
      9          1           0        2.978762   -0.866161   -0.572414
     10          1           0        1.056790   -1.288714   -0.118456
     11          1           0        1.889569    1.297221   -0.876557
     12          1           0        1.559404    1.387351    0.901577
     13          1           0       -0.233996    2.681539   -0.207620
     14          1           0       -1.755915    1.934302   -0.682418
     15          1           0       -1.251601    1.921680    1.018311
     16          1           0       -2.383141   -1.813672    0.197105
     17          1           0       -2.806671   -0.203087   -0.429626
     18          1           0       -2.336467   -0.389715    1.258675
 ---------------------------------------------------------------------

 SCF Done:  E(RHF) =  -325.090910645     A.U. after    2 cycles

 The electronic state is 1-A.
 Alpha  occ. eigenvalues --  -20.56980 -15.62251 -11.36447 -11.29132 -11.27356
 Alpha  occ. eigenvalues --  -11.25112 -11.16538  -1.36870  -1.19408  -1.02891
 Alpha  occ. eigenvalues --   -0.99467  -0.94511  -0.80998  -0.77829  -0.69082
 Alpha  occ. eigenvalues --   -0.66091  -0.65862  -0.62304  -0.58828  -0.58185
 Alpha  occ. eigenvalues --   -0.57293  -0.56383  -0.55236  -0.53055  -0.49053
 Alpha  occ. eigenvalues --   -0.47456  -0.38889  -0.29137
 Alpha virt. eigenvalues --    0.02878   0.03961   0.04348   0.04961   0.06471
 Alpha virt. eigenvalues --    0.06697   0.07063   0.07250   0.08143   0.09029
 Alpha virt. eigenvalues --    0.09210   0.11094   0.12543   0.12916   0.13588

 Mulliken charges:
               1
     1  C    0.300909
     2  C    0.664775
     3  N   -0.440080
     4  C    0.821231
     5  C    0.089753
     6  O   -0.620129
     7  C    0.309343
     8  H   -0.220655
     9  H   -0.205628
    10  H    0.399427
    11  H   -0.290862
    12  H   -0.272572
    13  H   -0.310984
    14  H   -0.190210
    15  H   -0.088078
    16  H   -0.126189
    17  H    0.080989
    18  H    0.098960
 Sum of Mulliken charges =  -0.00000

 Dipole moment (field-independent basis, Debye):
    X=             -2.8051    Y=              2.8430    Z=              0.5785  Tot=              4.0356

 Test job not archived.
 1\1\GINC-SE042\SP\RHF\Aug-CC-pVDZ\C5H11N1O1\OHZDE\09-Apr-2025\0\\#t hf
  aug-cc-pvdz iop(5/13=1,5/36=2,99/5=2) pseudo=read geom=check guess=(r
 ead,tcheck) scf=(maxcycle=1)\\title\\0,1\C,0,-2.23375189,-0.00416332,-
 1.03576513\C,0,-1.79271805,-0.1954189,0.2744872\N,0,0.10423801,-0.3837
 9272,0.41872632\C,0,0.63352978,-0.14432865,1.73690679\C,0,0.79971159,-
 0.16162417,-0.64618011\O,0,0.25612337,-0.30709511,-1.81203292\C,0,2.23
 121654,0.29036983,-0.62835014\H,0,-2.48610779,0.99912956,-1.35855414\H
 ,0,-2.76526931,-0.81430939,-1.52262171\H,0,-0.83442811,-0.23458584,-1.

 Normal termination of Gaussian 16 at Wed Apr  9 16:20:27 2025.
