 Gaussian 16, Revision C.01,

 ----------------------------------------------------------------------
 #t hf aug-cc-pvdz symm=none int=(grid=ultrafine) guess=(read,tcheck) s
 table=(opt,rrhf)
 ----------------------------------------------------------------------
 -----
 title
 -----
 Symbolic Z-matrix:
 Charge =  0 Multiplicity = 1

 SCF Done:  E(RHF) =  -307.736824254     A.U. after   17 cycles

 1\1\GINC-SE229\Stability\RHF\Aug-CC-pVDZ\C6H10O1\OHZDE\09-Apr-2025\0\\
 #t hf aug-cc-pvdz symm=none int=(grid=ultrafine) guess=(read,tcheck) s
 table=(opt,rrhf)\\title\\0,1\C,0,1.52691954,-0.53371165,-0.70192557\C,
 0,0.66964455,-0.09207557,0.49929573\C,0,0.15701629,1.34596631,0.307560
 35\C,0,-0.97396687,1.19726024,-0.69286291\C,0,-1.57221245,-0.14692406,
 -0.28151932\C,0,-0.60590861,-0.87663072,0.42302177\O,0,-0.66932003,-2.
 21220747,0.56503939\H,0,0.96919123,-0.39264423,-1.63086183\H,0,2.43156
 886,0.07441408,-0.75733927\H,0,1.82110557,-1.58217448,-0.62187833\H,0,

 Normal termination of Gaussian 16 at Wed Apr  9 16:09:21 2025.
 Gaussian 16:  ES64L-G16RevC.01  3-Jul-2019

 ----------------------------------------------------------------------
 #t hf aug-cc-pvdz iop(5/13=1,5/36=2,99/5=2) pseudo=read geom=check gue
 ss=(read,tcheck) scf=(maxcycle=1)
 ----------------------------------------------------------------------
 -----
 title
 -----
 Structure from the checkpoint file:  "Grambow2020_wb97xd3_007813_reverse_mol1.chk"
 Charge =  0 Multiplicity = 1

                         Standard orientation:
 ---------------------------------------------------------------------
 Center     Atomic      Atomic             Coordinates (Angstroms)
 Number     Number       Type             X           Y           Z
 ---------------------------------------------------------------------
      1          6           0        0.256617    1.723986   -0.679733
      2          6           0        0.008672    0.805797    0.532022
      3          6           0       -1.461063    0.353520    0.585291
      4          6           0       -1.550709   -0.714811   -0.488356
      5          6           0       -0.181105   -1.381628   -0.372279
      6          6           0        0.708565   -0.486957    0.236526
      7          8           0        2.043169   -0.602685    0.120796
      8          1           0       -0.078995    1.232203   -1.595920
      9          1           0       -0.310864    2.649575   -0.567801
     10          1           0        1.313588    1.978232   -0.781707
     11          1           0        0.335886    1.298690    1.451802
     12          1           0       -2.152430    1.185425    0.437239
     13          1           0       -1.654800   -0.050999    1.597402
     14          1           0       -2.414816   -1.376259   -0.459266
     15          1           0        0.190393   -2.159610   -1.029808
     16          1           0       -0.730753   -1.842982    0.496909
     17          1           0        2.471571    0.107761    0.603954
 ---------------------------------------------------------------------

 SCF Done:  E(RHF) =  -307.830302262     A.U. after    2 cycles

 The electronic state is 1-A.
 Alpha  occ. eigenvalues --  -20.64098 -11.34700 -11.25875 -11.25188 -11.23363
 Alpha  occ. eigenvalues --  -11.22663 -11.19435  -1.40501  -1.14962  -1.02411
 Alpha  occ. eigenvalues --   -0.95372  -0.89792  -0.81910  -0.75748  -0.71841
 Alpha  occ. eigenvalues --   -0.67807  -0.65191  -0.61609  -0.57784  -0.57246
 Alpha  occ. eigenvalues --   -0.54306  -0.53328  -0.50653  -0.49077  -0.47094
 Alpha  occ. eigenvalues --   -0.46458  -0.21166
 Alpha virt. eigenvalues --    0.02498   0.04208   0.04536   0.04706   0.06094
 Alpha virt. eigenvalues --    0.06381   0.06881   0.07077   0.07511   0.08257
 Alpha virt. eigenvalues --    0.09370   0.11561   0.12080   0.12888   0.13594

 Mulliken charges:
               1
     1  C    0.602360
     2  C   -0.624323
     3  C    0.631867
     4  C    0.030658
     5  C   -0.013663
     6  C    0.451277
     7  O   -0.569562
     8  H    0.024155
     9  H   -0.074513
    10  H   -0.109777
    11  H   -0.164218
    12  H   -0.193497
    13  H   -0.101368
    14  H   -0.317391
    15  H   -0.157265
    16  H    0.430946
    17  H    0.154313
 Sum of Mulliken charges =   0.00000

 Dipole moment (field-independent basis, Debye):
    X=              2.2942    Y=              1.0488    Z=              2.3006  Tot=              3.4141

 Test job not archived.
 1\1\GINC-SE229\SP\RHF\Aug-CC-pVDZ\C6H10O1\OHZDE\09-Apr-2025\0\\#t hf a
 ug-cc-pvdz iop(5/13=1,5/36=2,99/5=2) pseudo=read geom=check guess=(rea
 d,tcheck) scf=(maxcycle=1)\\title\\0,1\C,0,1.52691954,-0.53371165,-0.7
 0192557\C,0,0.66964455,-0.09207557,0.49929573\C,0,0.15701629,1.3459663
 1,0.30756035\C,0,-0.97396687,1.19726024,-0.69286291\C,0,-1.57221245,-0
 .14692406,-0.28151932\C,0,-0.60590861,-0.87663072,0.42302177\O,0,-0.66
 932003,-2.21220747,0.56503939\H,0,0.96919123,-0.39264423,-1.63086183\H
 ,0,2.43156886,0.07441408,-0.75733927\H,0,1.82110557,-1.58217448,-0.621

 Normal termination of Gaussian 16 at Wed Apr  9 16:09:28 2025.
