 Gaussian 16, Revision C.01,

 ----------------------------------------------------------------------
 #t hf aug-cc-pvdz symm=none int=(grid=ultrafine) guess=(read,tcheck) s
 table=(opt,rrhf)
 ----------------------------------------------------------------------
 -----
 title
 -----
 Symbolic Z-matrix:
 Charge =  0 Multiplicity = 1

 SCF Done:  E(RHF) =  -305.312556644     A.U. after   17 cycles
 Normal termination of Gaussian 16 at Wed Apr  9 16:15:01 2025.
 Gaussian 16:  ES64L-G16RevC.01  3-Jul-2019

 ----------------------------------------------------------------------
 #t hf aug-cc-pvdz iop(5/13=1,5/36=2,99/5=2) pseudo=read geom=check gue
 ss=(read,tcheck) scf=(maxcycle=1)
 ----------------------------------------------------------------------
 -----
 title
 -----
 Structure from the checkpoint file:  "Grambow2020_wb97xd3_008024_reverse_mol1.chk"
 Charge =  0 Multiplicity = 1

                         Standard orientation:
 ---------------------------------------------------------------------
 Center     Atomic      Atomic             Coordinates (Angstroms)
 Number     Number       Type             X           Y           Z
 ---------------------------------------------------------------------
      1          8           0        2.493816    0.238243   -0.043314
      2          6           0        1.454455   -0.649337   -0.337406
      3          6           0        0.239631   -0.279355    0.513579
      4          6           0       -0.199005    1.164275    0.192527
      5          6           0       -1.471398    1.020358   -0.170217
      6          6           0       -1.068165   -0.768973    0.115543
      7          6           0       -2.275976   -0.654509   -0.101043
      8          1           0        2.096894    1.121592   -0.049668
      9          1           0        1.171738   -0.613290   -1.397907
     10          1           0        1.803858   -1.657836   -0.108778
     11          1           0        0.430522   -0.450695    1.573199
     12          1           0       -2.233642    1.603165   -0.665179
     13          1           0       -3.297153   -0.903637   -0.283051
 ---------------------------------------------------------------------

 SCF Done:  E(RHF) =  -305.404597679     A.U. after    2 cycles

 The electronic state is 1-A.
 Alpha  occ. eigenvalues --  -20.56366 -11.35348 -11.31258 -11.29971 -11.28947
 Alpha  occ. eigenvalues --  -11.28455 -11.21933  -1.32549  -1.19958  -1.04872
 Alpha  occ. eigenvalues --   -0.96937  -0.88490  -0.78370  -0.73333  -0.71066
 Alpha  occ. eigenvalues --   -0.69527  -0.62627  -0.60823  -0.57091  -0.54987
 Alpha  occ. eigenvalues --   -0.49828  -0.48317  -0.45133  -0.35835  -0.31737
 Alpha virt. eigenvalues --    0.02156   0.03517   0.04764   0.04991   0.06423
 Alpha virt. eigenvalues --    0.06862   0.08101   0.08364   0.09355   0.11753
 Alpha virt. eigenvalues --    0.12093   0.12463   0.13264   0.13560   0.14118

 Mulliken charges:
               1
     1  O   -0.561837
     2  C    1.093083
     3  C   -0.558010
     4  C   -0.359269
     5  C    0.461075
     6  C    0.201501
     7  C    0.578737
     8  H    0.227061
     9  H   -0.117498
    10  H   -0.123275
    11  H   -0.042355
    12  H   -0.308291
    13  H   -0.490920
 Sum of Mulliken charges =  -0.00000

 Dipole moment (field-independent basis, Debye):
    X=             -4.7249    Y=             -3.3875    Z=             -0.5316  Tot=              5.8380

 Test job not archived.
 1\1\GINC-SE114\SP\RHF\Aug-CC-pVDZ\C6H6O1\OHZDE\09-Apr-2025\0\\#t hf au
 g-cc-pvdz iop(5/13=1,5/36=2,99/5=2) pseudo=read geom=check guess=(read
 ,tcheck) scf=(maxcycle=1)\\title\\0,1\O,0,2.28064292,-1.13171644,-0.12
 348705\C,0,1.62406547,-0.04308788,0.45819639\C,0,0.34583488,0.23661745
 ,-0.33221554\C,0,-0.56861962,-1.00518803,-0.29707917\C,0,-1.70413899,-
 0.53058464,0.20950316\C,0,-0.70069387,1.0291713,0.28836993\C,0,-1.8685
 9934,1.28204435,0.5898173\H,0,1.59834109,-1.8022967,-0.27408323\H,0,1.
 36051689,-0.23529155,1.50676181\H,0,2.30305889,0.81090726,0.42528711\H

 Normal termination of Gaussian 16 at Wed Apr  9 16:15:29 2025.
