 Gaussian 16, Revision C.01,

 ----------------------------------------------------------------------
 #t hf aug-cc-pvdz symm=none int=(grid=ultrafine) guess=(read,tcheck) s
 table=(opt,rrhf)
 ----------------------------------------------------------------------
 -----
 title
 -----
 Symbolic Z-matrix:
 Charge =  0 Multiplicity = 1

 SCF Done:  E(RHF) =  -322.674430939     A.U. after   14 cycles
 Normal termination of Gaussian 16 at Wed Apr  9 15:45:53 2025.
 Gaussian 16:  ES64L-G16RevC.01  3-Jul-2019

 ----------------------------------------------------------------------
 #t hf aug-cc-pvdz iop(5/13=1,5/36=2,99/5=2) pseudo=read geom=check gue
 ss=(read,tcheck) scf=(maxcycle=1)
 ----------------------------------------------------------------------
 -----
 title
 -----
 Structure from the checkpoint file:  "Grambow2020_wb97xd3_007346_reverse_mol2.chk"
 Charge =  0 Multiplicity = 1

                         Standard orientation:
 ---------------------------------------------------------------------
 Center     Atomic      Atomic             Coordinates (Angstroms)
 Number     Number       Type             X           Y           Z
 ---------------------------------------------------------------------
      1          8           0       -3.296703   -0.930335    0.440312
      2          6           0       -2.724368   -0.009372    0.035345
      3          6           0       -2.068550    1.024642   -0.419228
      4          7           0        1.134753    0.606120    0.276371
      5          6           0        2.543700    0.375901    0.689417
      6          6           0        2.641895   -0.743495   -0.376708
      7          6           0        1.221929   -0.318850   -0.601376
      8          1           0       -1.089373    1.244519   -0.006801
      9          1           0       -2.515978    1.635134   -1.188150
     10          1           0        2.628167    0.056011    1.728456
     11          1           0        3.175376    1.249749    0.526130
     12          1           0        2.785253   -1.757485   -0.001781
     13          1           0        3.330285   -0.564087   -1.203302
     14          1           0        0.428988   -0.636951   -1.276342
 ---------------------------------------------------------------------

 SCF Done:  E(RHF) =  -322.775905645     A.U. after    2 cycles

 The electronic state is 1-A.
 Alpha  occ. eigenvalues --  -20.63158 -15.63239 -11.38296 -11.29538 -11.27513
 Alpha  occ. eigenvalues --  -11.25482 -11.23204  -1.43149  -1.26001  -1.03648
 Alpha  occ. eigenvalues --   -0.97069  -0.91101  -0.75789  -0.73623  -0.67591
 Alpha  occ. eigenvalues --   -0.66568  -0.66230  -0.65025  -0.64955  -0.58896
 Alpha  occ. eigenvalues --   -0.55857  -0.53583  -0.48383  -0.42016  -0.41699
 Alpha  occ. eigenvalues --   -0.35813
 Alpha virt. eigenvalues --    0.03145   0.03964   0.04383   0.04573   0.06589
 Alpha virt. eigenvalues --    0.07095   0.07429   0.08192   0.10298   0.11186
 Alpha virt. eigenvalues --    0.11398   0.12277   0.12901   0.13740   0.13986

 Mulliken charges:
               1
     1  O   -0.251446
     2  C   -0.185697
     3  C    0.889643
     4  N   -0.527636
     5  C    0.784433
     6  C    0.353443
     7  C    0.345261
     8  H   -0.241214
     9  H   -0.200209
    10  H   -0.235185
    11  H   -0.237061
    12  H   -0.109392
    13  H   -0.106671
    14  H   -0.278268
 Sum of Mulliken charges =  -0.00000

 Dipole moment (field-independent basis, Debye):
    X=              3.1817    Y=              0.0107    Z=             -1.5423  Tot=              3.5358

 Test job not archived.
 1\1\GINC-SE113\SP\RHF\Aug-CC-pVDZ\C5H7N1O1\OHZDE\09-Apr-2025\0\\#t hf
 aug-cc-pvdz iop(5/13=1,5/36=2,99/5=2) pseudo=read geom=check guess=(re
 ad,tcheck) scf=(maxcycle=1)\\title\\0,1\O,0,3.23139413,2.31501311,0.80
 612031\C,0,2.9667077,1.19164073,0.89395027\C,0,2.65744082,-0.07375095,
 0.98911932\N,0,-0.5812154,-0.39365228,0.41559344\C,0,-2.05328282,-0.44
 2512,0.21717207\C,0,-1.83134243,-0.12877811,-1.28336932\C,0,-0.4046029
 9,-0.13466878,-0.82349561\H,0,1.62328499,-0.34622752,1.17216776\H,0,3.
 43518295,-0.81466383,0.88763274\H,0,-2.57862388,0.3200692,0.79297778\H

 Normal termination of Gaussian 16 at Wed Apr  9 15:45:57 2025.
