 Gaussian 16, Revision C.01,

 ----------------------------------------------------------------------
 #t hf aug-cc-pvdz symm=none int=(grid=ultrafine) guess=(read,tcheck) s
 table=(opt,rrhf)
 ----------------------------------------------------------------------
 -----
 title
 -----
 Symbolic Z-matrix:
 Charge =  0 Multiplicity = 1

 SCF Done:  E(RHF) =  -323.821346655     A.U. after   14 cycles
 Normal termination of Gaussian 16 at Wed Apr  9 15:16:04 2025.
 Gaussian 16:  ES64L-G16RevC.01  3-Jul-2019

 ----------------------------------------------------------------------
 #t hf aug-cc-pvdz iop(5/13=1,5/36=2,99/5=2) pseudo=read geom=check gue
 ss=(read,tcheck) scf=(maxcycle=1)
 ----------------------------------------------------------------------
 -----
 title
 -----
 Structure from the checkpoint file:  "Grambow2020_wb97xd3_006827_reverse_mol2.chk"
 Charge =  0 Multiplicity = 1

                         Standard orientation:
 ---------------------------------------------------------------------
 Center     Atomic      Atomic             Coordinates (Angstroms)
 Number     Number       Type             X           Y           Z
 ---------------------------------------------------------------------
      1          6           0        1.864555   -1.478195    0.077288
      2          6           0        1.055418   -0.232367    0.024713
      3          6           0        1.455963    1.226654    0.083571
      4          6           0       -0.061051    1.551244   -0.083177
      5          6           0       -0.239910    0.061396   -0.130739
      6          7           0       -1.383148   -0.685226   -0.410155
      7          8           0       -2.472638   -0.267887    0.395849
      8          1           0        2.522463   -1.478672    0.950287
      9          1           0        2.501647   -1.579182   -0.806297
     10          1           0        1.234145   -2.368346    0.132634
     11          1           0       -1.240426   -1.666892   -0.204554
     12          1           0        1.903728    1.558235    1.024059
     13          1           0        2.075147    1.580738   -0.745074
     14          1           0       -0.320488    2.084541   -1.000539
     15          1           0       -0.522711    2.051234    0.768995
     16          1           0       -3.140214   -0.014363   -0.245150
 ---------------------------------------------------------------------

 SCF Done:  E(RHF) =  -323.920571590     A.U. after    2 cycles

 The electronic state is 1-A.
 Alpha  occ. eigenvalues --  -20.60958 -15.68067 -11.26127 -11.23400 -11.23092
 Alpha  occ. eigenvalues --  -11.23010 -11.22693  -1.37184  -1.16492  -1.07774
 Alpha  occ. eigenvalues --   -0.98621  -0.86460  -0.85443  -0.73569  -0.71340
 Alpha  occ. eigenvalues --   -0.65910  -0.63993  -0.63001  -0.58895  -0.56524
 Alpha  occ. eigenvalues --   -0.52757  -0.51003  -0.50207  -0.47203  -0.45551
 Alpha  occ. eigenvalues --   -0.44956  -0.31023
 Alpha virt. eigenvalues --    0.03475   0.03881   0.04523   0.05134   0.06279
 Alpha virt. eigenvalues --    0.06661   0.07049   0.08103   0.08858   0.10476
 Alpha virt. eigenvalues --    0.12978   0.13283   0.13533   0.14052   0.14736

 Mulliken charges:
               1
     1  C    0.496213
     2  C   -0.121551
     3  C    0.397271
     4  C    0.306363
     5  C   -0.162748
     6  N   -0.340196
     7  O   -0.523015
     8  H    0.005742
     9  H    0.054687
    10  H   -0.075860
    11  H    0.043171
    12  H   -0.081909
    13  H   -0.083029
    14  H   -0.064772
    15  H   -0.064945
    16  H    0.214579
 Sum of Mulliken charges =  -0.00000

 Dipole moment (field-independent basis, Debye):
    X=              0.1698    Y=             -0.4964    Z=             -0.7509  Tot=              0.9161

 Test job not archived.
 1\1\GINC-SE226\SP\RHF\Aug-CC-pVDZ\C5H9N1O1\OHZDE\09-Apr-2025\0\\#t hf
 aug-cc-pvdz iop(5/13=1,5/36=2,99/5=2) pseudo=read geom=check guess=(re
 ad,tcheck) scf=(maxcycle=1)\\title\\0,1\C,0,-1.81841027,-1.13445022,-0
 .15353786\C,0,-0.76376177,-0.09253431,-0.04545218\C,0,-0.84308217,1.41
 94902,-0.05700441\C,0,0.70449667,1.40704513,0.14133181\C,0,0.56093246,
 -0.08736977,0.13756036\N,0,1.51293136,-1.06956218,0.40496701\O,0,2.682
 65832,-0.86865529,-0.37103428\H,0,-2.44321859,-0.96615181,-1.0345939\H
 ,0,-2.48043772,-1.12559883,0.71735143\H,0,-1.39104235,-2.13642674,-0.2

 Normal termination of Gaussian 16 at Wed Apr  9 15:16:10 2025.
