 Gaussian 16, Revision C.01,

 ----------------------------------------------------------------------
 #t hf aug-cc-pvdz symm=none int=(grid=ultrafine) guess=(read,tcheck) s
 table=(opt,rrhf)
 ----------------------------------------------------------------------
 -----
 title
 -----
 Symbolic Z-matrix:
 Charge =  0 Multiplicity = 1

 SCF Done:  E(RHF) =  -268.674868508     A.U. after   15 cycles
 Normal termination of Gaussian 16 at Wed Apr  9 03:16:38 2025.
 Gaussian 16:  ES64L-G16RevC.01  3-Jul-2019

 ----------------------------------------------------------------------
 #t hf aug-cc-pvdz iop(5/13=1,5/36=2,99/5=2) pseudo=read geom=check gue
 ss=(read,tcheck) scf=(maxcycle=1)
 ----------------------------------------------------------------------
 -----
 title
 -----
 Structure from the checkpoint file:  "Grambow2020_b97d3_007079_forward_mol1.chk"
 Charge =  0 Multiplicity = 1

                         Standard orientation:
 ---------------------------------------------------------------------
 Center     Atomic      Atomic             Coordinates (Angstroms)
 Number     Number       Type             X           Y           Z
 ---------------------------------------------------------------------
      1          6           0       -1.834207    0.096541    0.350445
      2          6           0       -0.728614    0.161252   -0.559548
      3          6           0       -0.046727   -1.061364   -0.654067
      4          6           0        1.041602   -0.867250    0.235330
      5          8           0        1.445929    0.445760    0.286859
      6          6           0        0.317795    1.220691   -0.251017
      7          1           0       -1.042356   -0.387299    1.362511
      8          1           0       -2.567322   -0.709394    0.228308
      9          1           0       -2.293389    1.031170    0.697675
     10          1           0       -0.585373   -2.007679   -0.686750
     11          1           0        1.818481   -1.567292    0.534931
     12          1           0       -0.056318   -0.931011    1.453449
     13          1           0        0.674148    1.774227   -1.130569
     14          1           0       -0.014395    1.931979    0.518710
 ---------------------------------------------------------------------

 SCF Done:  E(RHF) =  -268.757551810     A.U. after    2 cycles

 The electronic state is 1-A.
 Alpha  occ. eigenvalues --  -20.59938 -11.34406 -11.30309 -11.26765 -11.25896
 Alpha  occ. eigenvalues --  -11.25205  -1.37082  -1.11429  -1.00633  -0.93499
 Alpha  occ. eigenvalues --   -0.81229  -0.76514  -0.70200  -0.68658  -0.61557
 Alpha  occ. eigenvalues --   -0.61059  -0.57168  -0.55723  -0.54987  -0.50263
 Alpha  occ. eigenvalues --   -0.50051  -0.35916  -0.32200
 Alpha virt. eigenvalues --    0.03516   0.04197   0.04660   0.05247   0.06502
 Alpha virt. eigenvalues --    0.06840   0.07662   0.08132   0.09293   0.10278
 Alpha virt. eigenvalues --    0.12059   0.12431   0.13473   0.14297   0.14720

 Mulliken charges:
               1
     1  C    0.304706
     2  C   -0.877775
     3  C    0.437570
     4  C    0.348676
     5  O   -0.673944
     6  C    1.077563
     7  H    0.235017
     8  H   -0.150652
     9  H   -0.155176
    10  H   -0.225312
    11  H   -0.282026
    12  H    0.213664
    13  H   -0.124394
    14  H   -0.127917
 Sum of Mulliken charges =  -0.00000

 Dipole moment (field-independent basis, Debye):
    X=             -1.2244    Y=             -0.2972    Z=             -0.1738  Tot=              1.2719

 Test job not archived.
 1\1\GINC-SE195\SP\RHF\Aug-CC-pVDZ\C5H8O1\OHZDE\09-Apr-2025\0\\#t hf au
 g-cc-pvdz iop(5/13=1,5/36=2,99/5=2) pseudo=read geom=check guess=(read
 ,tcheck) scf=(maxcycle=1)\\title\\0,1\C,0,-1.41199203,0.32769796,-0.62
 680547\C,0,-0.59346788,0.33508189,0.54987339\C,0,0.56096627,1.11605944
 ,0.38847601\C,0,1.53863753,0.14169512,0.05993324\O,0,1.28683184,-1.071
 83607,0.65496935\C,0,-0.13172925,-1.02839377,1.04008517\H,0,-0.3615842
 4,-0.06265283,-1.4203265\H,0,-1.69352742,1.28746777,-1.07567757\H,0,-2
 .20432624,-0.42633454,-0.71948379\H,0,0.52670663,2.07536099,-0.1265841

 Normal termination of Gaussian 16 at Wed Apr  9 03:16:42 2025.
