 Gaussian 16, Revision C.01,

 ----------------------------------------------------------------------
 #t hf aug-cc-pvdz symm=none int=(grid=ultrafine) guess=(read,tcheck) s
 table=(opt,rrhf)
 ----------------------------------------------------------------------
 -----
 title
 -----
 Symbolic Z-matrix:
 Charge =  0 Multiplicity = 1

 SCF Done:  E(RHF) =  -354.652216206     A.U. after   15 cycles
 Normal termination of Gaussian 16 at Wed Apr  9 03:39:13 2025.
 Gaussian 16:  ES64L-G16RevC.01  3-Jul-2019

 ----------------------------------------------------------------------
 #t hf aug-cc-pvdz iop(5/13=1,5/36=2,99/5=2) pseudo=read geom=check gue
 ss=(read,tcheck) scf=(maxcycle=1)
 ----------------------------------------------------------------------
 -----
 title
 -----
 Structure from the checkpoint file:  "Grambow2020_wb97xd3_007469_reverse_mol1.chk"
 Charge =  0 Multiplicity = 1

                         Standard orientation:
 ---------------------------------------------------------------------
 Center     Atomic      Atomic             Coordinates (Angstroms)
 Number     Number       Type             X           Y           Z
 ---------------------------------------------------------------------
      1          7           0        2.256810   -0.084403   -0.336251
      2          6           0        0.982048    0.002981    0.109516
      3          6           0        0.120266    1.065362   -0.269431
      4          7           0       -1.124937    1.066152    0.500747
      5          6           0       -1.234754   -0.125598   -0.088096
      6          8           0       -1.873869   -0.879612   -0.714227
      7          7           0        0.354680   -0.891812    0.844066
      8          1           0        2.722651   -0.972840   -0.324890
      9          1           0        2.587614    0.594110   -0.997280
     10          1           0        0.330203    1.888527   -0.931624
     11          1           0       -1.026265    1.055525    1.513671
     12          1           0        0.765520   -1.814450    0.882072
 ---------------------------------------------------------------------

 SCF Done:  E(RHF) =  -354.758811874     A.U. after    2 cycles

 The electronic state is 1-A.
 Alpha  occ. eigenvalues --  -20.59412 -15.67917 -15.66483 -15.59649 -11.44779
 Alpha  occ. eigenvalues --  -11.35439 -11.25503  -1.41247  -1.29868  -1.23476
 Alpha  occ. eigenvalues --   -1.12248  -0.95021  -0.81817  -0.78994  -0.75288
 Alpha  occ. eigenvalues --   -0.73204  -0.70710  -0.63972  -0.63863  -0.58932
 Alpha  occ. eigenvalues --   -0.57607  -0.53593  -0.47281  -0.42613  -0.39614
 Alpha  occ. eigenvalues --   -0.30859
 Alpha virt. eigenvalues --    0.02309   0.03587   0.04285   0.05981   0.07276
 Alpha virt. eigenvalues --    0.07721   0.11318   0.11602   0.12159   0.13224
 Alpha virt. eigenvalues --    0.13598   0.14300   0.14529   0.15038   0.16309

 Mulliken charges:
               1
     1  N   -0.220186
     2  C    0.572271
     3  C    1.062886
     4  N   -0.463700
     5  C    0.295783
     6  O   -0.318588
     7  N   -0.533000
     8  H   -0.045538
     9  H    0.000340
    10  H   -0.380517
    11  H    0.140735
    12  H   -0.110484
 Sum of Mulliken charges =  -0.00000

 Dipole moment (field-independent basis, Debye):
    X=              4.3857    Y=              0.8216    Z=              0.2029  Tot=              4.4666

 Test job not archived.
 1\1\GINC-SE095\SP\RHF\Aug-CC-pVDZ\C3H5N3O1\OHZDE\09-Apr-2025\0\\#t hf
 aug-cc-pvdz iop(5/13=1,5/36=2,99/5=2) pseudo=read geom=check guess=(re
 ad,tcheck) scf=(maxcycle=1)\\title\\0,1\N,0,1.88100039,-0.02238487,-0.
 17062109\C,0,0.56550533,-0.05939052,0.14475787\C,0,-0.3180932,1.004855
 12,-0.17392406\N,0,-1.63095927,0.83717759,0.45215308\C,0,-1.60889246,-
 0.26180523,-0.30336918\O,0,-2.13566772,-0.94744089,-1.09169404\N,0,-0.
 07533822,-1.07846173,0.67825749\H,0,2.39698212,-0.88054513,-0.23211248
 \H,0,2.23327585,0.75848929,-0.69302815\H,0,-0.09461141,1.92324899,-0.6

 Normal termination of Gaussian 16 at Wed Apr  9 03:39:18 2025.
