 Gaussian 16, Revision C.01,

 ----------------------------------------------------------------------
 #t hf aug-cc-pvdz symm=none int=(grid=ultrafine) guess=(read,tcheck) s
 table=(opt,rrhf)
 ----------------------------------------------------------------------
 -----
 title
 -----
 Symbolic Z-matrix:
 Charge =  0 Multiplicity = 1

 SCF Done:  E(RHF) =  -343.535314585     A.U. after   14 cycles
 Normal termination of Gaussian 16 at Wed Apr  9 17:01:23 2025.
 Gaussian 16:  ES64L-G16RevC.01  3-Jul-2019

 ----------------------------------------------------------------------
 #t hf aug-cc-pvdz iop(5/13=1,5/36=2,99/5=2) pseudo=read geom=check gue
 ss=(read,tcheck) scf=(maxcycle=1)
 ----------------------------------------------------------------------
 -----
 title
 -----
 Structure from the checkpoint file:  "Grambow2020_wb97xd3_009111_forward_mol1.chk"
 Charge =  0 Multiplicity = 1

                         Standard orientation:
 ---------------------------------------------------------------------
 Center     Atomic      Atomic             Coordinates (Angstroms)
 Number     Number       Type             X           Y           Z
 ---------------------------------------------------------------------
      1          6           0        1.680870   -0.054942    0.637108
      2          6           0        0.914239   -0.671132   -0.485522
      3          8           0       -0.259187   -1.417834   -0.213055
      4          6           0       -1.398164   -0.804529    0.081796
      5          6           0       -1.422218    0.668011   -0.190494
      6          8           0       -0.257318    1.404524    0.154115
      7          6           0        0.906317    0.810065   -0.320114
      8          1           0        1.244724   -0.137859    1.625833
      9          1           0        2.761517   -0.074952    0.596783
     10          1           0        1.444998   -1.117463   -1.314661
     11          1           0       -1.234831   -0.513000    1.834076
     12          1           0       -1.744445   -1.030553    1.355711
     13          1           0       -1.621648    0.754078   -1.269319
     14          1           0       -2.250433    1.124515    0.347128
     15          1           0        1.445903    1.416876   -1.040674
 ---------------------------------------------------------------------

 SCF Done:  E(RHF) =  -343.644860418     A.U. after    2 cycles

 The electronic state is 1-A.
 Alpha  occ. eigenvalues --  -20.62439 -20.58956 -11.31799 -11.31248 -11.30846
 Alpha  occ. eigenvalues --  -11.30141 -11.24814  -1.40963  -1.35341  -1.14806
 Alpha  occ. eigenvalues --   -1.00135  -0.92178  -0.84667  -0.76170  -0.73806
 Alpha  occ. eigenvalues --   -0.72891  -0.69364  -0.64691  -0.63264  -0.61013
 Alpha  occ. eigenvalues --   -0.57408  -0.55450  -0.53563  -0.50072  -0.42515
 Alpha  occ. eigenvalues --   -0.41601  -0.34018
 Alpha virt. eigenvalues --    0.03193   0.04283   0.04541   0.04993   0.06127
 Alpha virt. eigenvalues --    0.06308   0.07222   0.08950   0.09960   0.11336
 Alpha virt. eigenvalues --    0.11413   0.12432   0.13706   0.14054   0.14606

 Mulliken charges:
               1
     1  C    0.547159
     2  C    0.834706
     3  O   -0.627951
     4  C   -0.064634
     5  C    0.642533
     6  O   -0.717037
     7  C    0.942325
     8  H   -0.299157
     9  H   -0.331508
    10  H   -0.421716
    11  H   -0.060382
    12  H    0.202705
    13  H   -0.050662
    14  H   -0.211959
    15  H   -0.384423
 Sum of Mulliken charges =  -0.00000

 Dipole moment (field-independent basis, Debye):
    X=              1.6744    Y=              0.7879    Z=             -0.7751  Tot=              2.0063

 Test job not archived.
 1\1\GINC-SE103\SP\RHF\Aug-CC-pVDZ\C5H8O2\OHZDE\09-Apr-2025\0\\#t hf au
 g-cc-pvdz iop(5/13=1,5/36=2,99/5=2) pseudo=read geom=check guess=(read
 ,tcheck) scf=(maxcycle=1)\\title\\0,1\C,0,-1.54419511,0.17239765,0.808
 66693\C,0,-1.12467526,-0.08143932,-0.60104179\O,0,-0.23262296,0.812673
 57,-1.24411121\C,0,1.06525782,0.78748279,-0.96985011\C,0,1.53465278,-0
 .40901551,-0.20098382\O,0,0.70530531,-0.85558523,0.86248014\C,0,-0.626
 61299,-0.97493524,0.48291637\H,0,-1.06688805,1.0033258,1.31503874\H,0,
 -2.57291535,-0.01738226,1.0835201\H,0,-1.84591826,-0.45230456,-1.31564

 Normal termination of Gaussian 16 at Wed Apr  9 17:01:29 2025.
