 Gaussian 16, Revision C.01,

 ----------------------------------------------------------------------
 #t hf aug-cc-pvdz symm=none int=(grid=ultrafine) guess=(read,tcheck) s
 table=(opt,rrhf)
 ----------------------------------------------------------------------
 -----
 title
 -----
 Symbolic Z-matrix:
 Charge =  0 Multiplicity = 1

 SCF Done:  E(RHF) =  -306.542780477     A.U. after   15 cycles
 Normal termination of Gaussian 16 at Wed Apr  9 16:23:07 2025.
 Gaussian 16:  ES64L-G16RevC.01  3-Jul-2019

 ----------------------------------------------------------------------
 #t hf aug-cc-pvdz iop(5/13=1,5/36=2,99/5=2) pseudo=read geom=check gue
 ss=(read,tcheck) scf=(maxcycle=1)
 ----------------------------------------------------------------------
 -----
 title
 -----
 Structure from the checkpoint file:  "Grambow2020_wb97xd3_008172_reverse_mol1.chk"
 Charge =  0 Multiplicity = 1

                         Standard orientation:
 ---------------------------------------------------------------------
 Center     Atomic      Atomic             Coordinates (Angstroms)
 Number     Number       Type             X           Y           Z
 ---------------------------------------------------------------------
      1          6           0        1.643760   -0.106724   -0.159704
      2          6           0        0.601759    0.551734    0.755249
      3          8           0       -0.165384    1.379450   -0.133805
      4          6           0       -0.959999    0.508702   -0.838547
      5          6           0       -1.573867   -0.416336    0.227786
      6          6           0       -0.210832   -0.784452    0.724075
      7          6           0        0.500818   -0.962645   -0.639942
      8          1           0        2.208761    0.519186   -0.849828
      9          1           0        2.316454   -0.720823    0.446547
     10          1           0        0.870115    1.080580    1.666800
     11          1           0       -0.291698   -0.164331   -1.590225
     12          1           0       -2.235210    0.127590    0.903175
     13          1           0       -2.106113   -1.253543   -0.223396
     14          1           0       -0.005797   -1.490383    1.531094
     15          1           0        0.556735   -1.875554   -1.227221
 ---------------------------------------------------------------------

 SCF Done:  E(RHF) =  -306.632351505     A.U. after    2 cycles

 The electronic state is 1-A.
 Alpha  occ. eigenvalues --  -20.58178 -11.30135 -11.28780 -11.28567 -11.25881
 Alpha  occ. eigenvalues --  -11.25038 -11.23449  -1.37638  -1.14719  -1.03720
 Alpha  occ. eigenvalues --   -0.93325  -0.85626  -0.78475  -0.77631  -0.69871
 Alpha  occ. eigenvalues --   -0.67691  -0.64609  -0.61040  -0.55825  -0.55332
 Alpha  occ. eigenvalues --   -0.53359  -0.51091  -0.46954  -0.45270  -0.43213
 Alpha  occ. eigenvalues --   -0.30335
 Alpha virt. eigenvalues --    0.02818   0.03925   0.04277   0.04935   0.06136
 Alpha virt. eigenvalues --    0.06488   0.06695   0.07470   0.10283   0.11087
 Alpha virt. eigenvalues --    0.12083   0.12538   0.13151   0.13539   0.14030

 Mulliken charges:
               1
     1  C    0.562390
     2  C    0.771611
     3  O   -0.710229
     4  C   -0.181927
     5  C    0.827394
     6  C    0.142618
     7  C   -0.056238
     8  H   -0.191304
     9  H   -0.131717
    10  H   -0.326865
    11  H    0.305485
    12  H   -0.143474
    13  H   -0.114573
    14  H   -0.359293
    15  H   -0.393880
 Sum of Mulliken charges =  -0.00000

 Dipole moment (field-independent basis, Debye):
    X=              1.7869    Y=             -3.0839    Z=              1.6701  Tot=              3.9361

 Test job not archived.
 1\1\GINC-SE168\SP\RHF\Aug-CC-pVDZ\C6H8O1\OHZDE\09-Apr-2025\0\\#t hf au
 g-cc-pvdz iop(5/13=1,5/36=2,99/5=2) pseudo=read geom=check guess=(read
 ,tcheck) scf=(maxcycle=1)\\title\\0,1\C,0,-1.54621766,-0.22810526,-0.3
 0883199\C,0,-0.61676124,-0.51309661,0.87917596\O,0,0.22432185,-1.58008
 109,0.41209686\C,0,1.10300633,-0.98795552,-0.461732\C,0,1.61844058,0.2
 5802452,0.28087006\C,0,0.21772538,0.74720737,0.47676515\C,0,-0.3447927
 5,0.433737,-0.93179852\H,0,-2.04704855,-1.06333955,-0.79751713\H,0,-2.
 26763373,0.54322897,-0.0228631\H,0,-0.9877336,-0.70300391,1.88363338\H

 Normal termination of Gaussian 16 at Wed Apr  9 16:23:13 2025.
