 Gaussian 16, Revision C.01,

 ----------------------------------------------------------------------
 #t hf aug-cc-pvdz symm=none int=(grid=ultrafine) guess=(read,tcheck) s
 table=(opt,rrhf)
 ----------------------------------------------------------------------
 -----
 title
 -----
 Symbolic Z-matrix:
 Charge =  0 Multiplicity = 1

 SCF Done:  E(RHF) =  -323.758606395     A.U. after   15 cycles
 Normal termination of Gaussian 16 at Wed Apr  9 03:40:35 2025.
 Gaussian 16:  ES64L-G16RevC.01  3-Jul-2019

 ----------------------------------------------------------------------
 #t hf aug-cc-pvdz iop(5/13=1,5/36=2,99/5=2) pseudo=read geom=check gue
 ss=(read,tcheck) scf=(maxcycle=1)
 ----------------------------------------------------------------------
 -----
 title
 -----
 Structure from the checkpoint file:  "Grambow2020_wb97xd3_007534_forward_mol1.chk"
 Charge =  0 Multiplicity = 1

                         Standard orientation:
 ---------------------------------------------------------------------
 Center     Atomic      Atomic             Coordinates (Angstroms)
 Number     Number       Type             X           Y           Z
 ---------------------------------------------------------------------
      1          6           0       -3.055719   -0.277873    0.426113
      2          8           0       -2.047113   -0.457629   -0.574727
      3          6           0       -0.851204   -0.058402   -0.274397
      4          6           0        1.782555   -0.239312    0.617394
      5          6           0        2.676363   -1.123691   -0.209350
      6          6           0        1.364399    0.979543    0.169558
      7          7           0        0.719340    1.864741   -0.264391
      8          1           0       -3.975655   -0.680915    0.013172
      9          1           0       -3.172030    0.784750    0.640969
     10          1           0       -2.779434   -0.821871    1.330381
     11          1           0       -0.653188    0.306181    0.716400
     12          1           0       -0.119266   -0.209427   -1.042364
     13          1           0        1.806228   -0.369234    1.694509
     14          1           0        3.738143   -0.934144   -0.018329
     15          1           0        2.491065   -2.175828    0.015174
     16          1           0        2.507290   -0.973255   -1.277263
 ---------------------------------------------------------------------

 SCF Done:  E(RHF) =  -323.863503969     A.U. after    2 cycles

 The electronic state is 1-A.
 Alpha  occ. eigenvalues --  -20.68713 -15.59225 -11.40379 -11.34382 -11.24901
 Alpha  occ. eigenvalues --  -11.22236 -11.21632  -1.46486  -1.15502  -1.05167
 Alpha  occ. eigenvalues --   -1.01107  -0.91538  -0.86691  -0.77149  -0.75277
 Alpha  occ. eigenvalues --   -0.72105  -0.65229  -0.61971  -0.58282  -0.56928
 Alpha  occ. eigenvalues --   -0.56104  -0.55340  -0.51962  -0.50084  -0.44802
 Alpha  occ. eigenvalues --   -0.41120  -0.26079
 Alpha virt. eigenvalues --    0.02097   0.03754   0.04258   0.04825   0.05793
 Alpha virt. eigenvalues --    0.06080   0.06251   0.06647   0.08275   0.08771
 Alpha virt. eigenvalues --    0.10526   0.10989   0.12054   0.12675   0.13650

 Mulliken charges:
               1
     1  C    0.702089
     2  O   -0.460177
     3  C    0.965523
     4  C    0.595187
     5  C    0.268715
     6  C   -0.481093
     7  N   -0.333436
     8  H   -0.221262
     9  H   -0.037466
    10  H   -0.048047
    11  H   -0.113053
    12  H   -0.211754
    13  H   -0.399976
    14  H   -0.003736
    15  H   -0.038867
    16  H   -0.182646
 Sum of Mulliken charges =   0.00000

 Dipole moment (field-independent basis, Debye):
    X=             -4.9427    Y=             -3.4578    Z=              1.4056  Tot=              6.1938

 Test job not archived.
 1\1\GINC-SE403\SP\RHF\Aug-CC-pVDZ\C5H9N1O1\OHZDE\09-Apr-2025\0\\#t hf
 aug-cc-pvdz iop(5/13=1,5/36=2,99/5=2) pseudo=read geom=check guess=(re
 ad,tcheck) scf=(maxcycle=1)\\title\\0,1\C,0,2.99850629,-0.18388459,0.6
 517075\O,0,2.14400722,-0.03577869,-0.48810584\C,0,0.89069989,-0.317989
 39,-0.31676326\C,0,-1.81118767,0.13583736,0.19171572\C,0,-2.51615939,0
 .99275339,-0.82476561\C,0,-1.44157166,-1.14822452,-0.08321834\N,0,-0.8
 218731,-2.11563561,-0.34413363\H,0,3.99370872,0.11007897,0.33170237\H,
 0,2.9982448,-1.22495436,0.9757936\H,0,2.65516155,0.46650557,1.45735895

 Normal termination of Gaussian 16 at Wed Apr  9 03:40:40 2025.
