 Gaussian 16, Revision C.01,

 ----------------------------------------------------------------------
 #t hf aug-cc-pvdz symm=none int=(grid=ultrafine) guess=(read,tcheck) s
 table=(opt,rrhf)
 ----------------------------------------------------------------------
 -----
 title
 -----
 Symbolic Z-matrix:
 Charge =  0 Multiplicity = 1

 SCF Done:  E(RHF) =  -359.603195714     A.U. after   16 cycles
 Normal termination of Gaussian 16 at Wed Apr  9 03:52:38 2025.
 Gaussian 16:  ES64L-G16RevC.01  3-Jul-2019

 ----------------------------------------------------------------------
 #t hf aug-cc-pvdz iop(5/13=1,5/36=2,99/5=2) pseudo=read geom=check gue
 ss=(read,tcheck) scf=(maxcycle=1)
 ----------------------------------------------------------------------
 -----
 title
 -----
 Structure from the checkpoint file:  "Grambow2020_wb97xd3_008364_forward_mol1.chk"
 Charge =  0 Multiplicity = 1

                         Standard orientation:
 ---------------------------------------------------------------------
 Center     Atomic      Atomic             Coordinates (Angstroms)
 Number     Number       Type             X           Y           Z
 ---------------------------------------------------------------------
      1          8           0       -0.658665    1.769276   -0.174036
      2          6           0       -1.033927    0.545247    0.398244
      3          6           0       -1.468572   -0.576069   -0.569901
      4          7           0       -0.427631   -1.478193   -0.000487
      5          6           0        0.138708   -0.347391    0.773428
      6          6           0        1.564445   -0.338978   -0.292635
      7          8           0        2.468144    0.391179   -0.131476
      8          1           0       -1.388544    2.386482   -0.113409
      9          1           0       -1.762656    0.706112    1.200589
     10          1           0       -1.232915   -0.345685   -1.610667
     11          1           0       -2.481242   -0.965026   -0.480091
     12          1           0       -0.745880   -2.316337    0.465211
     13          1           0        0.396393   -0.535681    1.812719
     14          1           0        0.528504   -1.563006   -0.681663
 ---------------------------------------------------------------------

 SCF Done:  E(RHF) =  -359.712364701     A.U. after    2 cycles

 The electronic state is 1-A.
 Alpha  occ. eigenvalues --  -20.58468 -20.54340 -15.70430 -11.31586 -11.30376
 Alpha  occ. eigenvalues --  -11.28506 -11.25982  -1.34781  -1.33964  -1.27420
 Alpha  occ. eigenvalues --   -1.00882  -0.94987  -0.82555  -0.77304  -0.73104
 Alpha  occ. eigenvalues --   -0.72049  -0.68019  -0.63485  -0.60516  -0.57834
 Alpha  occ. eigenvalues --   -0.57190  -0.54241  -0.52467  -0.51381  -0.46896
 Alpha  occ. eigenvalues --   -0.45370  -0.28111
 Alpha virt. eigenvalues --    0.01622   0.03074   0.03550   0.04916   0.06072
 Alpha virt. eigenvalues --    0.06693   0.07784   0.09899   0.10653   0.11656
 Alpha virt. eigenvalues --    0.12058   0.13137   0.13682   0.14667   0.14982

 Mulliken charges:
               1
     1  O   -0.577376
     2  C    0.948914
     3  C    0.626154
     4  N   -0.446485
     5  C    0.191997
     6  C    0.035125
     7  O   -0.393137
     8  H    0.128901
     9  H   -0.199113
    10  H   -0.195062
    11  H   -0.211888
    12  H    0.002013
    13  H   -0.356651
    14  H    0.446609
 Sum of Mulliken charges =  -0.00000

 Dipole moment (field-independent basis, Debye):
    X=             -7.7227    Y=             -2.9914    Z=              1.5403  Tot=              8.4239

 Test job not archived.
 1\1\GINC-SE452\SP\RHF\Aug-CC-pVDZ\C4H7N1O2\OHZDE\09-Apr-2025\0\\#t hf
 aug-cc-pvdz iop(5/13=1,5/36=2,99/5=2) pseudo=read geom=check guess=(re
 ad,tcheck) scf=(maxcycle=1)\\title\\0,1\O,0,-0.64984931,-1.66137942,0.
 79049379\C,0,-0.69027176,-0.68670979,-0.21695816\C,0,-1.06855122,0.747
 49751,0.21144019\N,0,0.20217554,1.26267715,-0.37290712\C,0,0.67323307,
 -0.12628754,-0.59034545\C,0,1.87099273,0.08215601,0.71012019\O,0,2.638
 54022,-0.7557667,1.0008597\H,0,-1.45997196,-2.17198949,0.77258456\H,0,
 -1.2892431,-1.03804202,-1.06459007\H,0,-1.05953352,0.87712047,1.295377

 Normal termination of Gaussian 16 at Wed Apr  9 03:52:42 2025.
