 Gaussian 16, Revision C.01,

 ----------------------------------------------------------------------
 #t hf aug-cc-pvdz symm=none int=(grid=ultrafine) guess=(read,tcheck) s
 table=(opt,rrhf)
 ----------------------------------------------------------------------
 -----
 title
 -----
 Symbolic Z-matrix:
 Charge =  0 Multiplicity = 1

 SCF Done:  E(RHF) =  -266.661151683     A.U. after   15 cycles
 Normal termination of Gaussian 16 at Wed Apr  9 13:47:03 2025.
 Gaussian 16:  ES64L-G16RevC.01  3-Jul-2019

 ----------------------------------------------------------------------
 #t hf aug-cc-pvdz iop(5/13=1,5/36=2,99/5=2) pseudo=read geom=check gue
 ss=(read,tcheck) scf=(maxcycle=1)
 ----------------------------------------------------------------------
 -----
 title
 -----
 Structure from the checkpoint file:  "Grambow2020_b97d3_006693_reverse_mol2.chk"
 Charge =  0 Multiplicity = 1

                         Standard orientation:
 ---------------------------------------------------------------------
 Center     Atomic      Atomic             Coordinates (Angstroms)
 Number     Number       Type             X           Y           Z
 ---------------------------------------------------------------------
      1          6           0       -0.501642    1.102940    0.143823
      2          6           0       -1.252748   -0.206960    0.048935
      3          8           0       -0.119062   -1.179234    0.077168
      4          6           0        0.922940   -0.503503   -0.412984
      5          8           0        0.758088    0.779342   -0.420646
      6          1           0        0.986613    0.494272    2.269266
      7          1           0       -0.902949    1.989357   -0.346420
      8          1           0       -1.893936   -0.441433    0.905991
      9          1           0       -1.813888   -0.406937   -0.894269
     10          1           0        1.589365    0.158872    2.564269
     11          1           0        1.911284   -0.949864   -0.429665
 ---------------------------------------------------------------------

 SCF Done:  E(RHF) =  -266.749351875     A.U. after    2 cycles

 The electronic state is 1-A.
 Alpha  occ. eigenvalues --  -20.69067 -20.65674 -11.44156 -11.31437 -11.23055
 Alpha  occ. eigenvalues --   -1.49553  -1.37440  -1.04318  -0.90296  -0.85777
 Alpha  occ. eigenvalues --   -0.79310  -0.72774  -0.65711  -0.63150  -0.60942
 Alpha  occ. eigenvalues --   -0.59756  -0.56843  -0.54061  -0.52197  -0.25770
 Alpha virt. eigenvalues --    0.03008   0.04380   0.05023   0.05645   0.06303
 Alpha virt. eigenvalues --    0.07384   0.08866   0.09871   0.10407   0.12641
 Alpha virt. eigenvalues --    0.14069   0.14601   0.14755   0.15311   0.16317

 Mulliken charges:
               1
     1  C    0.324443
     2  C    0.587432
     3  O   -0.577192
     4  C    0.915330
     5  O   -0.395220
     6  H    0.081592
     7  H   -0.355701
     8  H   -0.159879
     9  H   -0.164328
    10  H   -0.060983
    11  H   -0.195495
 Sum of Mulliken charges =  -0.00000

 Dipole moment (field-independent basis, Debye):
    X=              0.7166    Y=             -2.1814    Z=             -2.0456  Tot=              3.0751

 Test job not archived.
 1\1\GINC-SE054\SP\RHF\Aug-CC-pVDZ\C3H6O2\OHZDE\09-Apr-2025\0\\#t hf au
 g-cc-pvdz iop(5/13=1,5/36=2,99/5=2) pseudo=read geom=check guess=(read
 ,tcheck) scf=(maxcycle=1)\\title\\0,1\C,0,0.60410688,0.84171511,0.4685
 5616\C,0,1.14338448,-0.51938049,0.08698082\O,0,-0.12043162,-1.22449464
 ,-0.2830741\C,0,-1.0739516,-0.60805211,0.41937045\O,0,-0.71867872,0.54
 54877,0.8841844\H,0,-0.84138659,1.26885997,-1.72939304\H,0,1.10701687,
 1.42164206,1.24178897\H,0,1.78749772,-0.53544904,-0.79930604\H,0,1.616
 11925,-1.12641067,0.89477977\H,0,-1.47084875,1.16016398,-2.12282961\H,

 Normal termination of Gaussian 16 at Wed Apr  9 13:47:06 2025.
