 Gaussian 16, Revision C.01,

 ----------------------------------------------------------------------
 #t hf aug-cc-pvdz symm=none int=(grid=ultrafine) guess=(read,tcheck) s
 table=(opt,rrhf)
 ----------------------------------------------------------------------
 -----
 title
 -----
 Symbolic Z-matrix:
 Charge =  0 Multiplicity = 1

 SCF Done:  E(RHF) =  -320.703323710     A.U. after   14 cycles
 Normal termination of Gaussian 16 at Wed Apr  9 14:19:04 2025.
 Gaussian 16:  ES64L-G16RevC.01  3-Jul-2019

 ----------------------------------------------------------------------
 #t hf aug-cc-pvdz iop(5/13=1,5/36=2,99/5=2) pseudo=read geom=check gue
 ss=(read,tcheck) scf=(maxcycle=1)
 ----------------------------------------------------------------------
 -----
 title
 -----
 Structure from the checkpoint file:  "Grambow2020_b97d3_007125_reverse_mol2.chk"
 Charge =  0 Multiplicity = 1

                         Standard orientation:
 ---------------------------------------------------------------------
 Center     Atomic      Atomic             Coordinates (Angstroms)
 Number     Number       Type             X           Y           Z
 ---------------------------------------------------------------------
      1          6           0        2.299513   -0.111046   -0.000520
      2          7           0        0.065744    1.405743    0.000824
      3          6           0       -0.050512    0.131791    0.000082
      4          8           0        0.995017   -0.724826   -0.000407
      5          6           0       -1.358334   -0.632066    0.001202
      6          8           0       -2.436023   -0.066099   -0.001535
      7          1           0        3.010063   -0.942604   -0.007475
      8          1           0        2.424102    0.520751   -0.888888
      9          1           0        2.428970    0.509199    0.895298
     10          1           0       -0.881976    1.808043    0.001037
     11          1           0       -1.257332   -1.740262    0.005201
 ---------------------------------------------------------------------

 SCF Done:  E(RHF) =  -320.803948975     A.U. after    2 cycles

 The electronic state is 1-A.
 Alpha  occ. eigenvalues --  -20.63058 -20.61040 -15.63419 -11.37834 -11.37441
 Alpha  occ. eigenvalues --  -11.30794  -1.40750  -1.38236  -1.18185  -1.00449
 Alpha  occ. eigenvalues --   -0.90059  -0.79260  -0.74372  -0.70685  -0.68565
 Alpha  occ. eigenvalues --   -0.66478  -0.62224  -0.58008  -0.54689  -0.52765
 Alpha  occ. eigenvalues --   -0.50409  -0.44613  -0.42340
 Alpha virt. eigenvalues --    0.03178   0.04476   0.04821   0.05073   0.05962
 Alpha virt. eigenvalues --    0.06791   0.09133   0.11252   0.11321   0.13876
 Alpha virt. eigenvalues --    0.13959   0.14820   0.15169   0.15679   0.16057

 Mulliken charges:
               1
     1  C    0.715748
     2  N   -0.309818
     3  C    0.237435
     4  O   -0.573492
     5  C    0.729149
     6  O   -0.432966
     7  H   -0.240699
     8  H   -0.041612
     9  H   -0.042512
    10  H    0.086042
    11  H   -0.127275
 Sum of Mulliken charges =  -0.00000

 Dipole moment (field-independent basis, Debye):
    X=              2.3337    Y=             -1.4712    Z=              0.0061  Tot=              2.7588

 Test job not archived.
 1\1\GINC-SE009\SP\RHF\Aug-CC-pVDZ\C3H5N1O2\OHZDE\09-Apr-2025\0\\#t hf
 aug-cc-pvdz iop(5/13=1,5/36=2,99/5=2) pseudo=read geom=check guess=(re
 ad,tcheck) scf=(maxcycle=1)\\title\\0,1\C,0,-1.61316051,0.84034537,0.1
 7699593\N,0,1.03541577,0.94885173,-0.33646477\C,0,0.50261285,-0.182344
 2,-0.06630513\O,0,-0.80981889,-0.35641607,0.20598803\C,0,1.23418409,-1
 .50711214,-0.00571432\O,0,2.43040042,-1.59361687,-0.21385365\H,0,-2.62
 75501,0.51342035,0.42307083\H,0,-1.24398123,1.56589957,0.91263494\H,0,
 -1.5786232,1.29852015,-0.81941553\H,0,2.03958575,0.79221441,-0.5011684

 Normal termination of Gaussian 16 at Wed Apr  9 14:19:07 2025.
