 Gaussian 16, Revision C.01,

 ----------------------------------------------------------------------
 #t hf aug-cc-pvdz symm=none int=(grid=ultrafine) guess=(read,tcheck) s
 table=(opt,rrhf)
 ----------------------------------------------------------------------
 -----
 title
 -----
 Symbolic Z-matrix:
 Charge =  0 Multiplicity = 1

 SCF Done:  E(RHF) =  -264.852499082     A.U. after   15 cycles
 Normal termination of Gaussian 16 at Wed Apr  9 03:07:57 2025.
 Gaussian 16:  ES64L-G16RevC.01  3-Jul-2019

 ----------------------------------------------------------------------
 #t hf aug-cc-pvdz iop(5/13=1,5/36=2,99/5=2) pseudo=read geom=check gue
 ss=(read,tcheck) scf=(maxcycle=1)
 ----------------------------------------------------------------------
 -----
 title
 -----
 Structure from the checkpoint file:  "Grambow2020_b97d3_006627_reverse_mol1.chk"
 Charge =  0 Multiplicity = 1

                         Standard orientation:
 ---------------------------------------------------------------------
 Center     Atomic      Atomic             Coordinates (Angstroms)
 Number     Number       Type             X           Y           Z
 ---------------------------------------------------------------------
      1          6           0       -1.836183   -0.292532   -0.259683
      2          6           0       -0.847310   -1.256345    0.209716
      3          6           0        1.122421    0.039601    0.519202
      4          7           0        2.063997   -0.492164   -0.421073
      5          6           0        0.259345    1.081469    0.223484
      6          7           0       -0.742104    1.646066   -0.125505
      7          1           0       -1.982168   -0.140579   -1.323767
      8          1           0       -2.581450    0.092636    0.427782
      9          1           0       -2.045702   -1.656248   -0.136786
     10          1           0       -0.809975   -1.528183    1.260782
     11          1           0       -0.214849   -1.801974   -0.484522
     12          1           0        1.389193   -0.126215    1.563264
     13          1           0        1.795433   -0.228600   -1.370912
     14          1           0        3.006625   -0.121302   -0.266106
 ---------------------------------------------------------------------

 SCF Done:  E(RHF) =  -264.931802596     A.U. after    2 cycles

 The electronic state is 1-A.
 Alpha  occ. eigenvalues --  -15.61828 -15.60121 -11.32664 -11.31615 -11.25829
 Alpha  occ. eigenvalues --  -11.25349  -1.16760  -1.13076  -1.09368  -0.91644
 Alpha  occ. eigenvalues --   -0.84972  -0.70093  -0.68918  -0.65447  -0.63000
 Alpha  occ. eigenvalues --   -0.58194  -0.57155  -0.56662  -0.51876  -0.44267
 Alpha  occ. eigenvalues --   -0.41541  -0.40314  -0.26235
 Alpha virt. eigenvalues --    0.02772   0.03851   0.04158   0.05121   0.06254
 Alpha virt. eigenvalues --    0.06534   0.07287   0.08272   0.09581   0.11584
 Alpha virt. eigenvalues --    0.12320   0.13566   0.14451   0.15033   0.15185

 Mulliken charges:
               1
     1  C    0.592771
     2  C    0.589797
     3  C    0.969601
     4  N   -0.498807
     5  C   -0.328703
     6  N   -0.377917
     7  H   -0.159521
     8  H   -0.147773
     9  H   -0.045022
    10  H   -0.144932
    11  H   -0.160808
    12  H   -0.298172
    13  H    0.002748
    14  H    0.006736
 Sum of Mulliken charges =   0.00000

 Dipole moment (field-independent basis, Debye):
    X=             -1.1417    Y=             -3.6558    Z=             -0.1670  Tot=              3.8336

 Test job not archived.
 1\1\GINC-SE092\SP\RHF\Aug-CC-pVDZ\C4H8N2\OHZDE\09-Apr-2025\0\\#t hf au
 g-cc-pvdz iop(5/13=1,5/36=2,99/5=2) pseudo=read geom=check guess=(read
 ,tcheck) scf=(maxcycle=1)\\title\\0,1\C,0,-1.54473195,0.73873578,-0.32
 606183\C,0,-1.01817584,-0.59848558,-0.07762755\C,0,1.20732073,-0.21491
 9,0.66744823\N,0,2.03864707,-0.82225561,-0.32929495\C,0,0.79916623,1.1
 0732948,0.61353712\N,0,0.10869031,2.06105248,0.37454473\H,0,-1.4761115
 3,1.17247824,-1.31794646\H,0,-2.20664264,1.20017175,0.39873876\H,0,-2.
 21811844,-0.44475787,-0.58025645\H,0,-1.22649265,-1.09802102,0.8642309

 Normal termination of Gaussian 16 at Wed Apr  9 03:08:01 2025.
