 Gaussian 16, Revision C.01,

 ----------------------------------------------------------------------
 #t hf aug-cc-pvdz symm=none int=(grid=ultrafine) guess=(read,tcheck) s
 table=(opt,rrhf)
 ----------------------------------------------------------------------
 -----
 title
 -----
 Symbolic Z-matrix:
 Charge =  0 Multiplicity = 1

 SCF Done:  E(RHF) =  -284.775860175     A.U. after   15 cycles
 Normal termination of Gaussian 16 at Wed Apr  9 03:04:33 2025.
 Gaussian 16:  ES64L-G16RevC.01  3-Jul-2019

 ----------------------------------------------------------------------
 #t hf aug-cc-pvdz iop(5/13=1,5/36=2,99/5=2) pseudo=read geom=check gue
 ss=(read,tcheck) scf=(maxcycle=1)
 ----------------------------------------------------------------------
 -----
 title
 -----
 Structure from the checkpoint file:  "Grambow2020_b97d3_006526_reverse_mol2.chk"
 Charge =  0 Multiplicity = 1

                         Standard orientation:
 ---------------------------------------------------------------------
 Center     Atomic      Atomic             Coordinates (Angstroms)
 Number     Number       Type             X           Y           Z
 ---------------------------------------------------------------------
      1          6           0       -1.304553    0.529392   -0.264679
      2          6           0       -0.998911   -0.862690    0.343025
      3          8           0        0.242583   -1.368981   -0.195466
      4          6           0        1.291668   -0.513912   -0.026494
      5          7           0        1.067044    0.802753    0.074526
      6          6           0       -0.142742    1.452082   -0.040722
      7          1           0       -1.519628    0.376040   -1.336512
      8          1           0       -2.222188    0.936164    0.186607
      9          1           0       -0.922526   -0.788731    1.437693
     10          1           0       -1.747594   -1.618475    0.080897
     11          1           0        2.275195   -0.917363   -0.231071
     12          1           0        1.889009    1.373124    0.259532
     13          1           0       -0.235015    2.342584    0.578115
 ---------------------------------------------------------------------

 SCF Done:  E(RHF) =  -284.863325061     A.U. after    2 cycles

 The electronic state is 1-A.
 Alpha  occ. eigenvalues --  -20.60442 -15.72571 -11.33472 -11.29447 -11.23287
 Alpha  occ. eigenvalues --  -11.21918  -1.37731  -1.23856  -1.04389  -0.90827
 Alpha  occ. eigenvalues --   -0.90526  -0.78011  -0.73834  -0.67593  -0.66484
 Alpha  occ. eigenvalues --   -0.60993  -0.59569  -0.56753  -0.54713  -0.51796
 Alpha  occ. eigenvalues --   -0.47996  -0.44671  -0.22373
 Alpha virt. eigenvalues --    0.03017   0.04169   0.04438   0.05270   0.06477
 Alpha virt. eigenvalues --    0.07095   0.07603   0.09224   0.11769   0.12276
 Alpha virt. eigenvalues --    0.13113   0.13567   0.14640   0.15250   0.15739

 Mulliken charges:
               1
     1  C   -0.107731
     2  C    0.705968
     3  O   -0.574969
     4  C    0.655380
     5  N   -0.218102
     6  C    0.660118
     7  H   -0.033013
     8  H   -0.013068
     9  H   -0.138289
    10  H   -0.190014
    11  H   -0.326441
    12  H    0.010119
    13  H   -0.429958
 Sum of Mulliken charges =  -0.00000

 Dipole moment (field-independent basis, Debye):
    X=              1.1676    Y=              0.2572    Z=              1.3703  Tot=              1.8185

 Test job not archived.
 1\1\GINC-SE188\SP\RHF\Aug-CC-pVDZ\C4H7N1O1\OHZDE\09-Apr-2025\0\\#t hf
 aug-cc-pvdz iop(5/13=1,5/36=2,99/5=2) pseudo=read geom=check guess=(re
 ad,tcheck) scf=(maxcycle=1)\\title\\0,1\C,0,0.57089236,-0.9670991,0.48
 694378\C,0,-0.87354573,-0.98264664,-0.07338683\O,0,-1.549306,0.2435394
 9,0.28358099\C,0,-0.87756913,1.36332056,-0.11028719\N,0,0.45338899,1.3
 2382766,-0.25609656\C,0,1.28950737,0.26300832,0.01604412\H,0,0.4932706
 9,-1.01389591,1.58711838\H,0,1.10051973,-1.87777472,0.16860384\H,0,-0.
 85320106,-1.08667693,-1.16808638\H,0,-1.49132072,-1.77903069,0.3562357

 Normal termination of Gaussian 16 at Wed Apr  9 03:05:08 2025.
