 Gaussian 16, Revision C.01,

 ----------------------------------------------------------------------
 #t hf aug-cc-pvdz symm=none int=(grid=ultrafine) guess=(read,tcheck) s
 table=(opt,rrhf)
 ----------------------------------------------------------------------
 -----
 title
 -----
 Symbolic Z-matrix:
 Charge =  0 Multiplicity = 1

 SCF Done:  E(RHF) =  -306.865753624     A.U. after   15 cycles

 1\1\GINC-SE049\Stability\RHF\Aug-CC-pVDZ\C4H10O2\OHZDE\09-Apr-2025\0\\
 #t hf aug-cc-pvdz symm=none int=(grid=ultrafine) guess=(read,tcheck) s
 table=(opt,rrhf)\\title\\0,1\C,0,-1.66062393,-0.66275551,0.01195957\C,
 0,-0.46036572,0.22652714,-0.29595323\C,0,0.59420892,-0.38823414,-1.006
 81163\O,0,1.11758718,0.25492816,-2.08265032\C,0,0.0584328,0.83753995,1
 .47070917\O,0,1.26871892,1.25115817,1.57680445\H,0,-2.24501614,-0.8665
 3111,-0.89790761\H,0,-1.34588753,-1.62920713,0.43088413\H,0,-2.3290115
 9,-0.18027135,0.73858111\H,0,-0.71980322,1.1816017,-0.76393977\H,0,0.7

 Normal termination of Gaussian 16 at Wed Apr  9 14:18:25 2025.
 Gaussian 16:  ES64L-G16RevC.01  3-Jul-2019

 ----------------------------------------------------------------------
 #t hf aug-cc-pvdz iop(5/13=1,5/36=2,99/5=2) pseudo=read geom=check gue
 ss=(read,tcheck) scf=(maxcycle=1)
 ----------------------------------------------------------------------
 -----
 title
 -----
 Structure from the checkpoint file:  "Grambow2020_b97d3_007105_forward_mol1.chk"
 Charge =  0 Multiplicity = 1

                         Standard orientation:
 ---------------------------------------------------------------------
 Center     Atomic      Atomic             Coordinates (Angstroms)
 Number     Number       Type             X           Y           Z
 ---------------------------------------------------------------------
      1          6           0       -0.017087    2.042542    0.122947
      2          6           0       -0.159844    0.591425   -0.324417
      3          6           0       -1.129831   -0.171436    0.363002
      4          8           0       -2.004769   -0.917891   -0.359702
      5          6           0        1.645559   -0.083152   -0.102941
      6          8           0        1.747732   -1.358046    0.003515
      7          1           0       -0.880154    2.642838   -0.202104
      8          1           0        0.050599    2.119267    1.217532
      9          1           0        0.887389    2.496814   -0.304921
     10          1           0       -0.283153    0.466688   -1.405028
     11          1           0       -1.409210    0.075529    1.390884
     12          1           0       -0.218980   -1.584967    1.081522
     13          1           0       -2.516501   -1.490576    0.244103
     14          1           0        1.947905    0.366981   -1.068483
     15          1           0        1.905103    0.556049    0.770531
     16          1           0        0.540522   -1.717408    0.773911
 ---------------------------------------------------------------------

 SCF Done:  E(RHF) =  -306.965478707     A.U. after    2 cycles

 The electronic state is 1-A.
 Alpha  occ. eigenvalues --  -20.65054 -20.51362 -11.38868 -11.31578 -11.25252
 Alpha  occ. eigenvalues --  -11.24651  -1.40670  -1.27753  -1.07903  -0.94749
 Alpha  occ. eigenvalues --   -0.85845  -0.80615  -0.78533  -0.67803  -0.67204
 Alpha  occ. eigenvalues --   -0.63138  -0.61268  -0.58524  -0.57337  -0.56609
 Alpha  occ. eigenvalues --   -0.54684  -0.51848  -0.44769  -0.38823  -0.34649
 Alpha virt. eigenvalues --    0.02277   0.03632   0.04367   0.05086   0.06091
 Alpha virt. eigenvalues --    0.06638   0.06874   0.07811   0.08062   0.09018
 Alpha virt. eigenvalues --    0.10585   0.11742   0.13211   0.13953   0.15075

 Mulliken charges:
               1
     1  C    0.512009
     2  C   -0.375073
     3  C    0.572883
     4  O   -0.495764
     5  C    0.812802
     6  O   -0.736401
     7  H   -0.095279
     8  H   -0.023485
     9  H   -0.096208
    10  H   -0.155831
    11  H   -0.202163
    12  H    0.132056
    13  H    0.196670
    14  H   -0.092050
    15  H   -0.106243
    16  H    0.152077
 Sum of Mulliken charges =   0.00000

 Dipole moment (field-independent basis, Debye):
    X=             -4.2095    Y=              3.1258    Z=              1.5953  Tot=              5.4805

 Test job not archived.
 1\1\GINC-SE049\SP\RHF\Aug-CC-pVDZ\C4H10O2\OHZDE\09-Apr-2025\0\\#t hf a
 ug-cc-pvdz iop(5/13=1,5/36=2,99/5=2) pseudo=read geom=check guess=(rea
 d,tcheck) scf=(maxcycle=1)\\title\\0,1\C,0,-1.66062393,-0.66275551,0.0
 1195957\C,0,-0.46036572,0.22652714,-0.29595323\C,0,0.59420892,-0.38823
 414,-1.00681163\O,0,1.11758718,0.25492816,-2.08265032\C,0,0.0584328,0.
 83753995,1.47070917\O,0,1.26871892,1.25115817,1.57680445\H,0,-2.245016
 14,-0.86653111,-0.89790761\H,0,-1.34588753,-1.62920713,0.43088413\H,0,
 -2.32901159,-0.18027135,0.73858111\H,0,-0.71980322,1.1816017,-0.763939

 Normal termination of Gaussian 16 at Wed Apr  9 14:18:30 2025.
