 Gaussian 16, Revision C.01,

 ----------------------------------------------------------------------
 #t hf aug-cc-pvdz symm=none int=(grid=ultrafine) guess=(read,tcheck) s
 table=(opt,rrhf)
 ----------------------------------------------------------------------
 -----
 title
 -----
 Symbolic Z-matrix:
 Charge =  0 Multiplicity = 1

 SCF Done:  E(RHF) =  -279.848677428     A.U. after   15 cycles
 Normal termination of Gaussian 16 at Wed Apr  9 03:15:51 2025.
 Gaussian 16:  ES64L-G16RevC.01  3-Jul-2019

 ----------------------------------------------------------------------
 #t hf aug-cc-pvdz iop(5/13=1,5/36=2,99/5=2) pseudo=read geom=check gue
 ss=(read,tcheck) scf=(maxcycle=1)
 ----------------------------------------------------------------------
 -----
 title
 -----
 Structure from the checkpoint file:  "Grambow2020_b97d3_007047_reverse_mol2.chk"
 Charge =  0 Multiplicity = 1

                         Standard orientation:
 ---------------------------------------------------------------------
 Center     Atomic      Atomic             Coordinates (Angstroms)
 Number     Number       Type             X           Y           Z
 ---------------------------------------------------------------------
      1          7           0       -2.123605   -0.586800   -0.012379
      2          6           0       -0.914846    0.124447    0.033385
      3          6           0        0.266734   -0.758075    0.136426
      4          6           0        1.503449   -0.283330    0.028284
      5          7           0        2.640857    0.105984   -0.220260
      6          7           0       -0.770387    1.408016    0.054332
      7          1           0       -2.084076   -1.492921   -0.473761
      8          1           0       -2.922110   -0.038716   -0.323094
      9          1           0        0.140858   -1.817894    0.357386
     10          1           0        3.184301    0.484983    0.564752
     11          1           0       -1.679054    1.875896   -0.065710
 ---------------------------------------------------------------------

 SCF Done:  E(RHF) =  -279.931560636     A.U. after    2 cycles

 The electronic state is 1-A.
 Alpha  occ. eigenvalues --  -15.66541 -15.65205 -15.59256 -11.35361 -11.34554
 Alpha  occ. eigenvalues --  -11.25871  -1.23540  -1.21928  -1.10945  -1.03205
 Alpha  occ. eigenvalues --   -0.83423  -0.75481  -0.70798  -0.70047  -0.63857
 Alpha  occ. eigenvalues --   -0.58967  -0.56891  -0.52974  -0.47622  -0.42295
 Alpha  occ. eigenvalues --   -0.39193  -0.33894
 Alpha virt. eigenvalues --    0.02658   0.03573   0.04264   0.06071   0.07391
 Alpha virt. eigenvalues --    0.09630   0.11204   0.11951   0.12404   0.13050
 Alpha virt. eigenvalues --    0.13674   0.13907   0.14828   0.15070   0.15641

 Mulliken charges:
               1
     1  N   -0.296479
     2  C    0.452172
     3  C    1.462341
     4  C   -0.793918
     5  N   -0.136898
     6  N   -0.414074
     7  H    0.018371
     8  H    0.017886
     9  H   -0.392038
    10  H    0.112386
    11  H   -0.029748
 Sum of Mulliken charges =  -0.00000

 Dipole moment (field-independent basis, Debye):
    X=             -1.5909    Y=             -2.1717    Z=              0.2211  Tot=              2.7011

 Test job not archived.
 1\1\GINC-SE186\SP\RHF\Aug-CC-pVDZ\C3H5N3\OHZDE\09-Apr-2025\0\\#t hf au
 g-cc-pvdz iop(5/13=1,5/36=2,99/5=2) pseudo=read geom=check guess=(read
 ,tcheck) scf=(maxcycle=1)\\title\\0,1\N,0,-1.92914314,-0.16437409,0.14
 749002\C,0,-0.61682219,0.32749569,0.0771704\C,0,0.40036881,-0.74487769
 ,0.10765205\C,0,1.68667807,-0.49257563,-0.11210919\N,0,2.84908532,-0.3
 0888112,-0.46154143\N,0,-0.25319485,1.56686808,0.05294938\H,0,-2.08438
 313,-1.06903603,-0.29180243\H,0,-2.64505434,0.50990513,-0.11206412\H,0
 ,0.1136291,-1.76425885,0.36558166\H,0,3.51334388,-0.02040981,0.2669919

 Normal termination of Gaussian 16 at Wed Apr  9 03:15:55 2025.
