 Gaussian 16, Revision C.01,

 ----------------------------------------------------------------------
 #t hf aug-cc-pvdz symm=none int=(grid=ultrafine) guess=(read,tcheck) s
 table=(opt,rrhf)
 ----------------------------------------------------------------------
 -----
 title
 -----
 Symbolic Z-matrix:
 Charge =  0 Multiplicity = 1

 SCF Done:  E(RHF) =  -233.948003803     A.U. after   14 cycles
 Normal termination of Gaussian 16 at Wed Apr  9 14:13:37 2025.
 Gaussian 16:  ES64L-G16RevC.01  3-Jul-2019

 ----------------------------------------------------------------------
 #t hf aug-cc-pvdz iop(5/13=1,5/36=2,99/5=2) pseudo=read geom=check gue
 ss=(read,tcheck) scf=(maxcycle=1)
 ----------------------------------------------------------------------
 -----
 title
 -----
 Structure from the checkpoint file:  "Grambow2020_b97d3_006829_forward_mol1.chk"
 Charge =  0 Multiplicity = 1

                         Standard orientation:
 ---------------------------------------------------------------------
 Center     Atomic      Atomic             Coordinates (Angstroms)
 Number     Number       Type             X           Y           Z
 ---------------------------------------------------------------------
      1          6           0       -1.007277    1.388736   -0.349752
      2          6           0       -0.451052   -0.013534   -0.077055
      3          6           0       -1.578795   -1.041920    0.024359
      4          6           0        0.837760   -0.416456   -0.861109
      5          6           0        1.695986    0.045874    0.196433
      6          6           0        0.547659    0.026661    1.218138
      7          1           0       -1.688800    1.694861    0.458504
      8          1           0       -0.206717    2.136191   -0.423051
      9          1           0       -1.578272    1.400092   -1.289238
     10          1           0       -2.271048   -0.774275    0.838136
     11          1           0       -1.188793   -2.047519    0.236680
     12          1           0       -2.163295   -1.084082   -0.906755
     13          1           0        0.854020   -1.456008   -1.187737
     14          1           0        2.156911   -0.280500   -1.660563
     15          1           0        2.223445    0.994298    0.116258
     16          1           0        2.753506   -0.488676   -0.763147
     17          1           0        0.420315    0.881208    1.901204
     18          1           0        0.423046   -0.911757    1.773621
 ---------------------------------------------------------------------

 SCF Done:  E(RHF) =  -234.019609020     A.U. after    2 cycles

 The electronic state is 1-A.
 Alpha  occ. eigenvalues --  -11.26634 -11.26524 -11.26287 -11.24597 -11.23327
 Alpha  occ. eigenvalues --  -11.23290  -1.14521  -1.01139  -0.93420  -0.90214
 Alpha  occ. eigenvalues --   -0.81843  -0.72307  -0.65514  -0.61528  -0.60617
 Alpha  occ. eigenvalues --   -0.58551  -0.56500  -0.53780  -0.52458  -0.48680
 Alpha  occ. eigenvalues --   -0.48115  -0.43022  -0.37299  -0.34625
 Alpha virt. eigenvalues --    0.03371   0.04440   0.04499   0.04685   0.06183
 Alpha virt. eigenvalues --    0.06438   0.06659   0.06981   0.07325   0.08380
 Alpha virt. eigenvalues --    0.09272   0.09383   0.09948   0.11884   0.13635

 Mulliken charges:
               1
     1  C    0.563123
     2  C   -1.810481
     3  C    0.740354
     4  C    0.556890
     5  C    0.135359
     6  C    0.757406
     7  H    0.027512
     8  H   -0.056194
     9  H   -0.038516
    10  H    0.047480
    11  H   -0.103906
    12  H    0.007188
    13  H   -0.408235
    14  H    0.150568
    15  H   -0.347734
    16  H    0.154238
    17  H   -0.199895
    18  H   -0.175156
 Sum of Mulliken charges =  -0.00000

 Dipole moment (field-independent basis, Debye):
    X=             -1.6194    Y=              0.2454    Z=              0.9725  Tot=              1.9049

 Test job not archived.
 1\1\GINC-SE056\SP\RHF\Aug-CC-pVDZ\C6H12\OHZDE\09-Apr-2025\0\\#t hf aug
 -cc-pvdz iop(5/13=1,5/36=2,99/5=2) pseudo=read geom=check guess=(read,
 tcheck) scf=(maxcycle=1)\\title\\0,1\C,0,-1.29634348,-1.01956034,0.531
 55983\C,0,-0.42326384,0.09050799,-0.0647533\C,0,-1.28130145,1.16061154
 ,-0.741743\C,0,0.78873296,0.56329187,0.79876519\C,0,1.67946732,-0.3716
 9102,0.16544578\C,0,0.72762074,-0.56335544,-1.02625782\H,0,-1.89768563
 ,-1.49916544,-0.25573299\H,0,-0.6911016,-1.79475098,1.01912575\H,0,-1.
 99144542,-0.60450174,1.2754405\H,0,-1.88409044,0.71590952,-1.54918704\

 Normal termination of Gaussian 16 at Wed Apr  9 14:13:43 2025.
