 Gaussian 16, Revision C.01,

 ----------------------------------------------------------------------
 #t hf aug-cc-pvdz symm=none int=(grid=ultrafine) guess=(read,tcheck) s
 table=(opt,rrhf)
 ----------------------------------------------------------------------
 -----
 title
 -----
 Symbolic Z-matrix:
 Charge =  0 Multiplicity = 1

 SCF Done:  E(RHF) =  -263.796632411     A.U. after   15 cycles
 Normal termination of Gaussian 16 at Wed Apr  9 14:15:03 2025.
 Gaussian 16:  ES64L-G16RevC.01  3-Jul-2019

 ----------------------------------------------------------------------
 #t hf aug-cc-pvdz iop(5/13=1,5/36=2,99/5=2) pseudo=read geom=check gue
 ss=(read,tcheck) scf=(maxcycle=1)
 ----------------------------------------------------------------------
 -----
 title
 -----
 Structure from the checkpoint file:  "Grambow2020_b97d3_006859_reverse_mol2.chk"
 Charge =  0 Multiplicity = 1

                         Standard orientation:
 ---------------------------------------------------------------------
 Center     Atomic      Atomic             Coordinates (Angstroms)
 Number     Number       Type             X           Y           Z
 ---------------------------------------------------------------------
      1          6           0        1.520723   -1.106705    0.090650
      2          6           0        0.362519   -0.129347    0.043735
      3          6           0       -1.004393   -0.708063   -0.084474
      4          7           0       -2.047344    0.016239    0.095843
      5          7           0        0.597205    1.213377   -0.749629
      6          6           0        0.480108    1.248246    0.506120
      7          1           0        2.476206   -0.571600    0.144652
      8          1           0        1.445544   -1.765360    0.969273
      9          1           0        1.535658   -1.742189   -0.807725
     10          1           0       -1.025395   -1.784298   -0.335800
     11          1           0       -2.899301   -0.542533   -0.049027
     12          1           0        0.464522    1.973889    1.318939
 ---------------------------------------------------------------------

 SCF Done:  E(RHF) =  -263.872021979     A.U. after    2 cycles

 The electronic state is 1-A.
 Alpha  occ. eigenvalues --  -15.66342 -15.62850 -11.31104 -11.30441 -11.29775
 Alpha  occ. eigenvalues --  -11.24580  -1.28078  -1.17471  -1.01191  -0.88476
 Alpha  occ. eigenvalues --   -0.79806  -0.75588  -0.69128  -0.63926  -0.60651
 Alpha  occ. eigenvalues --   -0.57937  -0.55249  -0.52138  -0.46724  -0.43579
 Alpha  occ. eigenvalues --   -0.41962  -0.37292
 Alpha virt. eigenvalues --    0.03109   0.03606   0.04181   0.05661   0.06536
 Alpha virt. eigenvalues --    0.07512   0.09575   0.10175   0.11074   0.11335
 Alpha virt. eigenvalues --    0.12619   0.13231   0.14176   0.14668   0.15782

 Mulliken charges:
               1
     1  C    0.355447
     2  C   -0.200491
     3  C    0.974358
     4  N   -0.504959
     5  N   -0.662682
     6  C    0.462959
     7  H   -0.032687
     8  H    0.059405
     9  H    0.048934
    10  H   -0.387057
    11  H    0.052827
    12  H   -0.166054
 Sum of Mulliken charges =  -0.00000

 Dipole moment (field-independent basis, Debye):
    X=              0.6350    Y=             -2.3187    Z=              1.7929  Tot=              2.9990

 Test job not archived.
 1\1\GINC-SE056\SP\RHF\Aug-CC-pVDZ\C4H6N2\OHZDE\09-Apr-2025\0\\#t hf au
 g-cc-pvdz iop(5/13=1,5/36=2,99/5=2) pseudo=read geom=check guess=(read
 ,tcheck) scf=(maxcycle=1)\\title\\0,1\C,0,-1.51088852,-0.38834604,0.18
 092506\C,0,-0.11853445,0.2107919,0.14558503\C,0,0.99806228,-0.69828579
 ,-0.23728249\N,0,2.1614184,-0.23459425,-0.5138059\N,0,0.23091757,1.263
 61677,1.26668025\C,0,0.11475984,1.64792001,0.07058258\H,0,-2.24396924,
 0.35646329,0.51266949\H,0,-1.81152691,-0.74637606,-0.81551262\H,0,-1.5
 5413587,-1.2421364,0.87396988\H,0,0.72914263,-1.77017281,-0.26238276\H

 Normal termination of Gaussian 16 at Wed Apr  9 14:15:07 2025.
