 Gaussian 16, Revision C.01,

 ----------------------------------------------------------------------
 #t hf aug-cc-pvdz symm=none int=(grid=ultrafine) guess=(read,tcheck) s
 table=(opt,rrhf)
 ----------------------------------------------------------------------
 -----
 title
 -----
 Symbolic Z-matrix:
 Charge =  0 Multiplicity = 1

 SCF Done:  E(RHF) =  -305.383652893     A.U. after   18 cycles
 Normal termination of Gaussian 16 at Wed Apr  9 16:15:57 2025.
 Gaussian 16:  ES64L-G16RevC.01  3-Jul-2019

 ----------------------------------------------------------------------
 #t hf aug-cc-pvdz iop(5/13=1,5/36=2,99/5=2) pseudo=read geom=check gue
 ss=(read,tcheck) scf=(maxcycle=1)
 ----------------------------------------------------------------------
 -----
 title
 -----
 Structure from the checkpoint file:  "Grambow2020_wb97xd3_008022_reverse_mol2.chk"
 Charge =  0 Multiplicity = 1

                         Standard orientation:
 ---------------------------------------------------------------------
 Center     Atomic      Atomic             Coordinates (Angstroms)
 Number     Number       Type             X           Y           Z
 ---------------------------------------------------------------------
      1          8           0        2.393049   -0.324379   -0.026237
      2          6           0        1.147091   -0.934025    0.162097
      3          6           0       -0.039967   -0.014476    0.003385
      4          6           0        0.082189    1.343560   -0.046666
      5          6           0       -1.087208    2.134920   -0.020117
      6          6           0       -1.294402   -0.684807   -0.019144
      7          6           0       -2.282811   -1.363463   -0.054201
      8          1           0        2.493458   -0.093823   -0.952079
      9          1           0        0.997820   -1.786335   -0.513363
     10          1           0        1.138815   -1.339080    1.177713
     11          1           0        1.097081    1.738798    0.004778
     12          1           0       -0.834678    3.110939    0.431030
     13          1           0       -3.186245   -1.925717   -0.090305
 ---------------------------------------------------------------------

 SCF Done:  E(RHF) =  -305.477159331     A.U. after    2 cycles

 The electronic state is 1-A.
 Alpha  occ. eigenvalues --  -20.59896 -11.32133 -11.31783 -11.26607 -11.26202
 Alpha  occ. eigenvalues --  -11.25699 -11.25118  -1.35712  -1.13040  -1.03270
 Alpha  occ. eigenvalues --   -0.98845  -0.88048  -0.80482  -0.74187  -0.71719
 Alpha  occ. eigenvalues --   -0.67825  -0.65029  -0.61242  -0.56383  -0.54864
 Alpha  occ. eigenvalues --   -0.50181  -0.46731  -0.41724  -0.38569  -0.33342
 Alpha virt. eigenvalues --    0.01915   0.03099   0.03781   0.04554   0.05081
 Alpha virt. eigenvalues --    0.06277   0.07653   0.09351   0.10004   0.10776
 Alpha virt. eigenvalues --    0.11511   0.12066   0.12298   0.13847   0.14425

 Mulliken charges:
               1
     1  O   -0.484772
     2  C    0.830557
     3  C   -0.722667
     4  C    0.978211
     5  C   -0.180345
     6  C   -0.203085
     7  C    0.535447
     8  H    0.146932
     9  H    0.103171
    10  H    0.091600
    11  H   -0.448236
    12  H   -0.171010
    13  H   -0.475803
 Sum of Mulliken charges =   0.00000

 Dipole moment (field-independent basis, Debye):
    X=              1.1842    Y=             -1.8382    Z=             -0.6163  Tot=              2.2718

 Test job not archived.
 1\1\GINC-SE229\SP\RHF\Aug-CC-pVDZ\C6H6O1\OHZDE\09-Apr-2025\0\\#t hf au
 g-cc-pvdz iop(5/13=1,5/36=2,99/5=2) pseudo=read geom=check guess=(read
 ,tcheck) scf=(maxcycle=1)\\title\\0,1\O,0,2.15121762,-1.00130617,0.162
 78579\C,0,1.42183284,0.17791333,0.3551131\C,0,-0.07200474,0.03460435,0
 .18843922\C,0,-0.64820256,-1.07030847,-0.36730423\C,0,-2.0325973,-1.05
 050214,-0.64569953\C,0,-0.81381441,1.17752835,0.59697506\C,0,-1.326737
 16,2.18416027,0.99990981\H,0,1.96809024,-1.60554305,0.8851316\H,0,1.60
 345539,0.61952369,1.34352244\H,0,1.78487462,0.90253677,-0.378873\H,0,0

 Normal termination of Gaussian 16 at Wed Apr  9 16:16:23 2025.
