 Gaussian 16, Revision C.01,

 ----------------------------------------------------------------------
 #t hf aug-cc-pvdz symm=none int=(grid=ultrafine) guess=(read,tcheck) s
 table=(opt,rrhf)
 ----------------------------------------------------------------------
 -----
 title
 -----
 Symbolic Z-matrix:
 Charge =  0 Multiplicity = 1

 SCF Done:  E(RHF) =  -245.595357829     A.U. after   15 cycles
 Normal termination of Gaussian 16 at Wed Apr  9 14:20:00 2025.
 Gaussian 16:  ES64L-G16RevC.01  3-Jul-2019

 ----------------------------------------------------------------------
 #t hf aug-cc-pvdz iop(5/13=1,5/36=2,99/5=2) pseudo=read geom=check gue
 ss=(read,tcheck) scf=(maxcycle=1)
 ----------------------------------------------------------------------
 -----
 title
 -----
 Structure from the checkpoint file:  "Grambow2020_b97d3_007198_forward_mol1.chk"
 Charge =  0 Multiplicity = 1

                         Standard orientation:
 ---------------------------------------------------------------------
 Center     Atomic      Atomic             Coordinates (Angstroms)
 Number     Number       Type             X           Y           Z
 ---------------------------------------------------------------------
      1          8           0       -1.715591    0.204299   -0.192656
      2          6           0       -0.824466   -0.502802    0.447763
      3          6           0        0.382181   -0.612727   -0.363342
      4          6           0        0.599846    0.873912   -0.000224
      5          7           0        1.702641   -0.084196   -0.045800
      6          1           0       -0.957980   -0.759758    1.502377
      7          1           0        0.219916   -0.765597   -1.430920
      8          1           0       -0.801705    1.000662   -0.627497
      9          1           0        0.373319    1.246331    1.013371
     10          1           0        2.027319   -0.316957    0.899331
 ---------------------------------------------------------------------

 SCF Done:  E(RHF) =  -245.666784149     A.U. after    2 cycles

 The electronic state is 1-A.
 Alpha  occ. eigenvalues --  -20.59555 -15.66969 -11.38476 -11.31036 -11.29435
 Alpha  occ. eigenvalues --   -1.37183  -1.26327  -0.98485  -0.86126  -0.83634
 Alpha  occ. eigenvalues --   -0.73084  -0.67381  -0.63356  -0.62594  -0.57390
 Alpha  occ. eigenvalues --   -0.50487  -0.46035  -0.43357  -0.33050
 Alpha virt. eigenvalues --    0.02701   0.04341   0.04686   0.05141   0.07418
 Alpha virt. eigenvalues --    0.08131   0.10078   0.11167   0.11523   0.11986
 Alpha virt. eigenvalues --    0.13597   0.14764   0.15428   0.16364   0.17415

 Mulliken charges:
               1
     1  O   -0.759929
     2  C    0.739360
     3  C    0.511630
     4  C   -0.099175
     5  N   -0.542263
     6  H   -0.196304
     7  H   -0.153972
     8  H    0.627210
     9  H   -0.181951
    10  H    0.055395
 Sum of Mulliken charges =  -0.00000

 Dipole moment (field-independent basis, Debye):
    X=              0.8082    Y=             -1.4005    Z=              2.6380  Tot=              3.0942

 Test job not archived.
 1\1\GINC-SE229\SP\RHF\Aug-CC-pVDZ\C3H5N1O1\OHZDE\09-Apr-2025\0\\#t hf
 aug-cc-pvdz iop(5/13=1,5/36=2,99/5=2) pseudo=read geom=check guess=(re
 ad,tcheck) scf=(maxcycle=1)\\title\\0,1\O,0,0.61999296,-1.68638066,-0.
 30550282\C,0,0.98868403,-0.52026989,0.15109936\C,0,0.29594345,0.530384
 36,-0.58524823\C,0,-0.95119908,0.07830291,0.2082166\N,0,-0.66419335,1.
 48777124,-0.05107407\H,0,1.56707337,-0.43196332,1.07507514\H,0,0.19443
 134,0.36509873,-1.65846656\H,0,-0.59357044,-1.27532041,-0.4349694\H,0,
 -0.87137825,-0.20552762,1.27144494\H,0,-0.34769103,1.96196366,0.802057

 Normal termination of Gaussian 16 at Wed Apr  9 14:20:03 2025.
