 Gaussian 16, Revision C.01,

 ----------------------------------------------------------------------
 #t hf aug-cc-pvdz symm=none int=(grid=ultrafine) guess=(read,tcheck) s
 table=(opt,rrhf)
 ----------------------------------------------------------------------
 -----
 title
 -----
 Symbolic Z-matrix:
 Charge =  0 Multiplicity = 1

 SCF Done:  E(RHF) =  -232.726580773     A.U. after   17 cycles
 Normal termination of Gaussian 16 at Wed Apr  9 03:07:06 2025.
 Gaussian 16:  ES64L-G16RevC.01  3-Jul-2019

 ----------------------------------------------------------------------
 #t hf aug-cc-pvdz iop(5/13=1,5/36=2,99/5=2) pseudo=read geom=check gue
 ss=(read,tcheck) scf=(maxcycle=1)
 ----------------------------------------------------------------------
 -----
 title
 -----
 Structure from the checkpoint file:  "Grambow2020_b97d3_006597_reverse_mol1.chk"
 Charge =  0 Multiplicity = 1

                         Standard orientation:
 ---------------------------------------------------------------------
 Center     Atomic      Atomic             Coordinates (Angstroms)
 Number     Number       Type             X           Y           Z
 ---------------------------------------------------------------------
      1          6           0       -1.441063   -0.500657    0.749822
      2          6           0       -1.646823    0.041167   -0.619132
      3          6           0       -0.258859   -0.074638   -0.111902
      4          6           0        0.996873   -0.924794   -0.370898
      5          6           0        2.029607   -0.037352    0.242878
      6          6           0        0.107102    1.372489    0.018877
      7          1           0       -1.530193   -1.586139    0.879036
      8          1           0       -1.746239    0.073062    1.630100
      9          1           0       -1.159724    1.558904   -0.330942
     10          1           0       -2.245998   -0.345410   -1.446100
     11          1           0        1.170410   -1.066101   -1.447559
     12          1           0        0.920394   -1.915177    0.106967
     13          1           0        2.813623    0.425877   -0.350929
     14          1           0        2.142219   -0.019517    1.324916
     15          1           0        0.639723    1.805753   -0.830983
     16          1           0        0.274767    1.811455    1.007619
 ---------------------------------------------------------------------

 SCF Done:  E(RHF) =  -232.796290592     A.U. after    2 cycles

 The electronic state is 1-A.
 Alpha  occ. eigenvalues --  -11.27147 -11.25910 -11.25293 -11.24743 -11.24413
 Alpha  occ. eigenvalues --  -11.24069  -1.16077  -1.03131  -0.93394  -0.83948
 Alpha  occ. eigenvalues --   -0.79785  -0.72915  -0.65450  -0.63894  -0.61981
 Alpha  occ. eigenvalues --   -0.58130  -0.55490  -0.52812  -0.51988  -0.44548
 Alpha  occ. eigenvalues --   -0.42280  -0.38734  -0.22547
 Alpha virt. eigenvalues --    0.01665   0.03601   0.04485   0.04656   0.04917
 Alpha virt. eigenvalues --    0.06435   0.06536   0.06731   0.07592   0.07605
 Alpha virt. eigenvalues --    0.09296   0.11668   0.13057   0.13258   0.13811

 Mulliken charges:
               1
     1  C    0.724354
     2  C    0.004471
     3  C   -0.523342
     4  C    0.340611
     5  C    0.863064
     6  C    0.120094
     7  H   -0.261349
     8  H   -0.286696
     9  H    0.397975
    10  H   -0.413028
    11  H   -0.036916
    12  H   -0.053580
    13  H   -0.304722
    14  H   -0.331804
    15  H   -0.134585
    16  H   -0.104548
 Sum of Mulliken charges =   0.00000

 Dipole moment (field-independent basis, Debye):
    X=              0.7026    Y=             -0.7445    Z=              0.0275  Tot=              1.0240

 Test job not archived.
 1\1\GINC-SE129\SP\RHF\Aug-CC-pVDZ\C6H10\OHZDE\09-Apr-2025\0\\#t hf aug
 -cc-pvdz iop(5/13=1,5/36=2,99/5=2) pseudo=read geom=check guess=(read,
 tcheck) scf=(maxcycle=1)\\title\\0,1\C,0,-1.53317648,0.20496616,0.8264
 1053\C,0,-1.7188591,-0.06765698,-0.62312231\C,0,-0.34382674,-0.1128721
 2,-0.07141666\C,0,0.7413701,-1.15858467,0.23767911\C,0,1.93544617,-0.2
 6437486,0.31107439\C,0,0.25937294,1.08507434,-0.73945849\H,0,-1.791159
 34,-0.5994625,1.5258757\H,0,-1.69454242,1.20829684,1.23195106\H,0,-0.9
 7660699,1.25456625,-1.19288794\H,0,-2.41524136,-0.73948595,-1.12911209

 Normal termination of Gaussian 16 at Wed Apr  9 03:07:11 2025.
