 Gaussian 16, Revision C.01,

 ----------------------------------------------------------------------
 #t hf aug-cc-pvdz symm=none int=(grid=ultrafine) guess=(read,tcheck) s
 table=(opt,rrhf)
 ----------------------------------------------------------------------
 -----
 title
 -----
 Symbolic Z-matrix:
 Charge =  0 Multiplicity = 1

 SCF Done:  E(RHF) =  -358.614341010     A.U. after   14 cycles
 Normal termination of Gaussian 16 at Wed Apr  9 17:06:13 2025.
 Gaussian 16:  ES64L-G16RevC.01  3-Jul-2019

 ----------------------------------------------------------------------
 #t hf aug-cc-pvdz iop(5/13=1,5/36=2,99/5=2) pseudo=read geom=check gue
 ss=(read,tcheck) scf=(maxcycle=1)
 ----------------------------------------------------------------------
 -----
 title
 -----
 Structure from the checkpoint file:  "Grambow2020_wb97xd3_009140_forward_mol2.chk"
 Charge =  0 Multiplicity = 1

                         Standard orientation:
 ---------------------------------------------------------------------
 Center     Atomic      Atomic             Coordinates (Angstroms)
 Number     Number       Type             X           Y           Z
 ---------------------------------------------------------------------
      1          6           0       -2.454169   -0.448212    0.001479
      2          6           0       -1.041208    0.003286   -0.001369
      3          6           0       -0.495575    1.218952   -0.000999
      4          8           0        0.878466    1.125672   -0.000114
      5          6           0        1.221483   -0.197538   -0.000069
      6          8           0        2.343546   -0.614251    0.001691
      7          7           0        0.034650   -0.883011   -0.002132
      8          1           0       -2.677361   -1.053902   -0.879851
      9          1           0       -2.675476   -1.047978    0.887330
     10          1           0       -3.121631    0.411938   -0.000470
     11          1           0       -0.922950    2.205577    0.002975
     12          1           0       -0.004418   -1.884852   -0.001930
 ---------------------------------------------------------------------

 SCF Done:  E(RHF) =  -358.728634178     A.U. after    2 cycles

 The electronic state is 1-A.
 Alpha  occ. eigenvalues --  -20.63896 -20.54498 -15.68331 -11.42337 -11.30846
 Alpha  occ. eigenvalues --  -11.30599 -11.27143  -1.45694  -1.34385  -1.24140
 Alpha  occ. eigenvalues --   -1.06657  -0.97624  -0.88176  -0.83090  -0.74551
 Alpha  occ. eigenvalues --   -0.69932  -0.66469  -0.64319  -0.63552  -0.61031
 Alpha  occ. eigenvalues --   -0.59791  -0.56818  -0.53899  -0.49150  -0.47688
 Alpha  occ. eigenvalues --   -0.33433
 Alpha virt. eigenvalues --    0.02309   0.03543   0.04613   0.04658   0.06931
 Alpha virt. eigenvalues --    0.08764   0.09681   0.10255   0.11447   0.12736
 Alpha virt. eigenvalues --    0.13157   0.13601   0.14891   0.15325   0.15913

 Mulliken charges:
               1
     1  C    0.371905
     2  C    0.080526
     3  C    0.795825
     4  O   -0.587298
     5  C    0.585087
     6  O   -0.425761
     7  N   -0.472925
     8  H    0.049026
     9  H    0.050619
    10  H   -0.013009
    11  H   -0.316802
    12  H   -0.117193
 Sum of Mulliken charges =  -0.00000

 Dipole moment (field-independent basis, Debye):
    X=             -6.1350    Y=             -0.8500    Z=              0.0020  Tot=              6.1936

 Test job not archived.
 1\1\GINC-SE045\SP\RHF\Aug-CC-pVDZ\C4H5N1O2\OHZDE\09-Apr-2025\0\\#t hf
 aug-cc-pvdz iop(5/13=1,5/36=2,99/5=2) pseudo=read geom=check guess=(re
 ad,tcheck) scf=(maxcycle=1)\\title\\0,1\C,0,-1.55465569,-0.35232963,-0
 .71465221\C,0,-0.27554508,0.09976723,-0.11481719\C,0,0.18323583,1.3122
 559,0.19332408\O,0,1.44331814,1.22095093,0.74154425\C,0,1.80111675,-0.
 09764232,0.7844084\O,0,2.84100934,-0.51174842,1.20845789\N,0,0.7386712
 1,-0.78229593,0.25440074\H,0,-1.38454972,-0.88637366,-1.65235088\H,0,-
 2.09330372,-1.02085553,-0.0391095\H,0,-2.19320384,0.50440572,-0.923526

 Normal termination of Gaussian 16 at Wed Apr  9 17:06:23 2025.
