 Gaussian 16, Revision C.01,

 ----------------------------------------------------------------------
 #t hf aug-cc-pvdz symm=none int=(grid=ultrafine) guess=(read,tcheck) s
 table=(opt,rrhf)
 ----------------------------------------------------------------------
 -----
 title
 -----
 Symbolic Z-matrix:
 Charge =  0 Multiplicity = 1

 SCF Done:  E(RHF) =  -301.505570489     A.U. after   19 cycles
 Normal termination of Gaussian 16 at Wed Apr  9 16:46:09 2025.
 Gaussian 16:  ES64L-G16RevC.01  3-Jul-2019

 ----------------------------------------------------------------------
 #t hf aug-cc-pvdz iop(5/13=1,5/36=2,99/5=2) pseudo=read geom=check gue
 ss=(read,tcheck) scf=(maxcycle=1)
 ----------------------------------------------------------------------
 -----
 title
 -----
 Structure from the checkpoint file:  "Grambow2020_wb97xd3_008859_forward_mol1.chk"
 Charge =  0 Multiplicity = 1

                         Standard orientation:
 ---------------------------------------------------------------------
 Center     Atomic      Atomic             Coordinates (Angstroms)
 Number     Number       Type             X           Y           Z
 ---------------------------------------------------------------------
      1          7           0       -2.418856   -0.384678    0.224845
      2          6           0       -1.355134   -0.329176   -0.341869
      3          6           0       -0.588028    0.871448   -0.011908
      4          6           0        0.671217    0.691753    0.707922
      5          6           0        1.159936   -0.762114    0.784176
      6          6           0        1.190440   -0.619473   -0.710819
      7          7           0        0.982656    0.702199   -0.773327
      8          1           0       -1.019384    1.855968   -0.115431
      9          1           0        1.055599    1.480266    1.346203
     10          1           0        2.161832   -0.801428    1.214148
     11          1           0        0.526324   -1.516379    1.249218
     12          1           0        1.537081   -1.237162   -1.529885
     13          1           0       -0.678639   -1.118547   -0.889885
 ---------------------------------------------------------------------

 SCF Done:  E(RHF) =  -301.589821222     A.U. after    2 cycles

 The electronic state is 1-A.
 Alpha  occ. eigenvalues --  -15.68111 -15.60011 -11.35147 -11.33626 -11.32160
 Alpha  occ. eigenvalues --  -11.28978 -11.26747  -1.32608  -1.16638  -1.03230
 Alpha  occ. eigenvalues --   -1.00272  -0.88878  -0.78165  -0.75549  -0.69986
 Alpha  occ. eigenvalues --   -0.68695  -0.63579  -0.60908  -0.55959  -0.52876
 Alpha  occ. eigenvalues --   -0.51446  -0.46988  -0.45414  -0.40303  -0.28559
 Alpha virt. eigenvalues --    0.02236   0.03056   0.03605   0.04222   0.05192
 Alpha virt. eigenvalues --    0.06063   0.07415   0.09046   0.09196   0.10792
 Alpha virt. eigenvalues --    0.11911   0.12820   0.13252   0.13805   0.14654

 Mulliken charges:
               1
     1  N   -0.646288
     2  C    0.345476
     3  C    0.493809
     4  C    0.810111
     5  C    0.305111
     6  C    0.691237
     7  N   -0.913162
     8  H   -0.334578
     9  H   -0.330038
    10  H   -0.070912
    11  H   -0.114747
    12  H   -0.265564
    13  H    0.029545
 Sum of Mulliken charges =  -0.00000

 Dipole moment (field-independent basis, Debye):
    X=              5.5919    Y=              0.0927    Z=              0.7834  Tot=              5.6473

 Test job not archived.
 1\1\GINC-SE141\SP\RHF\Aug-CC-pVDZ\C5H6N2\OHZDE\09-Apr-2025\0\\#t hf au
 g-cc-pvdz iop(5/13=1,5/36=2,99/5=2) pseudo=read geom=check guess=(read
 ,tcheck) scf=(maxcycle=1)\\title\\0,1\N,0,2.34432167,0.13263467,1.3328
 8431\C,0,1.29400396,0.56346466,0.92426594\C,0,1.11624333,0.37909101,-0
 .51560654\C,0,0.04433552,-0.51194049,-0.9551726\C,0,-0.93416352,-0.927
 09776,0.15323811\C,0,-1.19197992,0.5518658,0.20308989\N,0,-0.51539516,
 0.89340352,-0.90121234\H,0,1.8599523,0.72314352,-1.21887716\H,0,0.1159
 0239,-1.02862452,-1.90639324\H,0,-1.77490872,-1.47708269,-0.27206312\H

 Normal termination of Gaussian 16 at Wed Apr  9 16:46:14 2025.
