 Gaussian 16, Revision C.01,

 ----------------------------------------------------------------------
 #t hf aug-cc-pvdz symm=none int=(grid=ultrafine) guess=(read,tcheck) s
 table=(opt,rrhf)
 ----------------------------------------------------------------------
 -----
 title
 -----
 Symbolic Z-matrix:
 Charge =  0 Multiplicity = 1

 SCF Done:  E(RHF) =  -360.717591664     A.U. after   15 cycles
 Normal termination of Gaussian 16 at Wed Apr  9 16:00:09 2025.
 Gaussian 16:  ES64L-G16RevC.01  3-Jul-2019

 ----------------------------------------------------------------------
 #t hf aug-cc-pvdz iop(5/13=1,5/36=2,99/5=2) pseudo=read geom=check gue
 ss=(read,tcheck) scf=(maxcycle=1)
 ----------------------------------------------------------------------
 -----
 title
 -----
 Structure from the checkpoint file:  "Grambow2020_wb97xd3_007662_reverse_mol1.chk"
 Charge =  0 Multiplicity = 1

                         Standard orientation:
 ---------------------------------------------------------------------
 Center     Atomic      Atomic             Coordinates (Angstroms)
 Number     Number       Type             X           Y           Z
 ---------------------------------------------------------------------
      1          6           0       -1.948884   -0.677441   -0.754445
      2          8           0       -1.852596    0.235007    0.313221
      3          6           0       -0.637662    0.136137    1.006997
      4          6           0        0.550887    0.565304    0.203057
      5          7           0        1.657793   -0.146774    0.049024
      6          8           0        1.489780   -1.532432   -0.110477
      7          6           0        0.830421    1.775600   -0.471898
      8          1           0       -2.937269   -0.553582   -1.193859
      9          1           0       -1.191158   -0.482885   -1.523388
     10          1           0       -1.832170   -1.711417   -0.407163
     11          1           0       -0.477832   -0.879924    1.387091
     12          1           0       -0.716218    0.818228    1.858411
     13          1           0        2.309452   -1.903708    0.226905
     14          1           0        0.825871    1.692787   -1.555687
     15          1           0        2.073115    0.898208   -0.562193
     16          1           0        0.475612    2.731518   -0.097509
 ---------------------------------------------------------------------

 SCF Done:  E(RHF) =  -360.831193573     A.U. after    2 cycles

 The electronic state is 1-A.
 Alpha  occ. eigenvalues --  -20.62328 -20.58058 -15.70219 -11.31186 -11.30449
 Alpha  occ. eigenvalues --  -11.28331 -11.21661  -1.38938  -1.34994  -1.18823
 Alpha  occ. eigenvalues --   -1.00084  -0.94082  -0.90231  -0.75614  -0.74537
 Alpha  occ. eigenvalues --   -0.69663  -0.68318  -0.67122  -0.62994  -0.61518
 Alpha  occ. eigenvalues --   -0.57601  -0.55622  -0.54009  -0.52519  -0.49504
 Alpha  occ. eigenvalues --   -0.45032  -0.40509  -0.33300
 Alpha virt. eigenvalues --    0.03304   0.04264   0.04562   0.04826   0.06526
 Alpha virt. eigenvalues --    0.06910   0.07322   0.07419   0.09150   0.10755
 Alpha virt. eigenvalues --    0.12058   0.12516   0.14015   0.14332   0.14507

 Mulliken charges:
               1
     1  C    0.729842
     2  O   -0.623081
     3  C    0.649174
     4  C    0.205199
     5  N   -0.415035
     6  O   -0.520303
     7  C    0.397648
     8  H   -0.268736
     9  H   -0.067226
    10  H   -0.062345
    11  H   -0.070611
    12  H   -0.119409
    13  H    0.199084
    14  H   -0.168253
    15  H    0.402775
    16  H   -0.268723
 Sum of Mulliken charges =   0.00000

 Dipole moment (field-independent basis, Debye):
    X=              0.8979    Y=             -1.4944    Z=              0.3405  Tot=              1.7764

 Test job not archived.
 1\1\GINC-SE057\SP\RHF\Aug-CC-pVDZ\C4H9N1O2\OHZDE\09-Apr-2025\0\\#t hf
 aug-cc-pvdz iop(5/13=1,5/36=2,99/5=2) pseudo=read geom=check guess=(re
 ad,tcheck) scf=(maxcycle=1)\\title\\0,1\C,0,2.09683462,0.10891098,0.12
 620519\O,0,1.3484128,-0.2845401,1.25172953\C,0,0.06395392,0.2782462,1.
 2762543\C,0,-0.8347003,-0.226041,0.18939327\N,0,-1.53203193,0.54309396
 ,-0.6341242\O,0,-0.89214045,1.70752528,-1.09058336\C,0,-1.22328606,-1.
 53878257,-0.16306931\H,0,3.08402265,-0.3394687,0.22492745\H,0,1.639253
 39,-0.24108369,-0.8072812\H,0,2.19642148,1.20015001,0.07507598\H,0,0.1

 Normal termination of Gaussian 16 at Wed Apr  9 16:00:15 2025.
