 Gaussian 16, Revision C.01,

 ----------------------------------------------------------------------
 #t hf aug-cc-pvdz symm=none int=(grid=ultrafine) guess=(read,tcheck) s
 table=(opt,rrhf)
 ----------------------------------------------------------------------
 -----
 title
 -----
 Symbolic Z-matrix:
 Charge =  0 Multiplicity = 1

 SCF Done:  E(RHF) =  -338.640148272     A.U. after   16 cycles
 Normal termination of Gaussian 16 at Wed Apr  9 03:59:38 2025.
 Gaussian 16:  ES64L-G16RevC.01  3-Jul-2019

 ----------------------------------------------------------------------
 #t hf aug-cc-pvdz iop(5/13=1,5/36=2,99/5=2) pseudo=read geom=check gue
 ss=(read,tcheck) scf=(maxcycle=1)
 ----------------------------------------------------------------------
 -----
 title
 -----
 Structure from the checkpoint file:  "Grambow2020_wb97xd3_008805_reverse_mol2.chk"
 Charge =  0 Multiplicity = 1

                         Standard orientation:
 ---------------------------------------------------------------------
 Center     Atomic      Atomic             Coordinates (Angstroms)
 Number     Number       Type             X           Y           Z
 ---------------------------------------------------------------------
      1          7           0        1.322366    1.523376   -0.079069
      2          6           0        2.008197    0.510463    0.361235
      3          6           0       -1.300179    0.291727   -0.349208
      4          8           0       -2.536130    0.485441    0.133686
      5          7           0       -0.837808   -0.835588    0.174695
      6          6           0        0.418666   -1.418399   -0.094034
      7          6           0        1.609096   -0.805184   -0.120464
      8          1           0        0.496723    1.430193   -0.680500
      9          1           0        1.526040    2.443201    0.280495
     10          1           0       -2.880368    1.283443   -0.269557
     11          1           0       -1.469152   -1.381931    0.754121
     12          1           0        0.363390   -2.489763   -0.250310
     13          1           0        2.445818   -1.454832   -0.358290
 ---------------------------------------------------------------------

 SCF Done:  E(RHF) =  -338.743524323     A.U. after    2 cycles

 The electronic state is 1-A.
 Alpha  occ. eigenvalues --  -20.62645 -15.67496 -15.65650 -11.32670 -11.28953
 Alpha  occ. eigenvalues --  -11.25258 -11.24256  -1.40304  -1.23636  -1.20275
 Alpha  occ. eigenvalues --   -1.04081  -0.91510  -0.84138  -0.77293  -0.74907
 Alpha  occ. eigenvalues --   -0.71098  -0.68236  -0.65553  -0.63824  -0.61189
 Alpha  occ. eigenvalues --   -0.54629  -0.49796  -0.46826  -0.39340  -0.37683
 Alpha  occ. eigenvalues --   -0.31116
 Alpha virt. eigenvalues --    0.02969   0.03423   0.04527   0.05345   0.06423
 Alpha virt. eigenvalues --    0.07477   0.09625   0.09942   0.11438   0.11921
 Alpha virt. eigenvalues --    0.12633   0.12958   0.14013   0.15195   0.15671

 Mulliken charges:
               1
     1  N    0.030711
     2  C   -0.237428
     3  C    0.276572
     4  O   -0.484912
     5  N   -0.375059
     6  C    0.696364
     7  C    0.484348
     8  H    0.092583
     9  H    0.019856
    10  H    0.194553
    11  H   -0.057349
    12  H   -0.303029
    13  H   -0.337212
 Sum of Mulliken charges =  -0.00000

 Dipole moment (field-independent basis, Debye):
    X=             -2.9383    Y=              0.1634    Z=             -0.8551  Tot=              3.0645

 Test job not archived.
 1\1\GINC-SE108\SP\RHF\Aug-CC-pVDZ\C4H6N2O1\OHZDE\09-Apr-2025\0\\#t hf
 aug-cc-pvdz iop(5/13=1,5/36=2,99/5=2) pseudo=read geom=check guess=(re
 ad,tcheck) scf=(maxcycle=1)\\title\\0,1\N,0,-1.67358759,1.05701325,0.1
 6209366\C,0,-0.71595076,1.79191251,0.64487649\C,0,-0.19510071,-1.36979
 525,-0.46428687\O,0,-0.23814077,-2.66680887,-0.12636594\N,0,0.90304669
 ,-0.85297173,0.07056527\C,0,1.34091931,0.48124647,-0.06633977\C,0,0.60
 882446,1.59423406,0.07204462\H,0,-1.52568713,0.32105769,-0.53689356\H,
 0,-2.59100364,1.11817378,0.57616406\H,0,-1.01532631,-3.04564407,-0.539

 Normal termination of Gaussian 16 at Wed Apr  9 03:59:42 2025.
