 Gaussian 16, Revision C.01,

 ----------------------------------------------------------------------
 #t hf aug-cc-pvdz symm=none int=(grid=ultrafine) guess=(read,tcheck) s
 table=(opt,rrhf)
 ----------------------------------------------------------------------
 -----
 title
 -----
 Symbolic Z-matrix:
 Charge =  0 Multiplicity = 1

 SCF Done:  E(RHF) =  -358.457160134     A.U. after   16 cycles
 Normal termination of Gaussian 16 at Wed Apr  9 17:05:13 2025.
 Gaussian 16:  ES64L-G16RevC.01  3-Jul-2019

 ----------------------------------------------------------------------
 #t hf aug-cc-pvdz iop(5/13=1,5/36=2,99/5=2) pseudo=read geom=check gue
 ss=(read,tcheck) scf=(maxcycle=1)
 ----------------------------------------------------------------------
 -----
 title
 -----
 Structure from the checkpoint file:  "Grambow2020_wb97xd3_009139_reverse_mol1.chk"
 Charge =  0 Multiplicity = 1

                         Standard orientation:
 ---------------------------------------------------------------------
 Center     Atomic      Atomic             Coordinates (Angstroms)
 Number     Number       Type             X           Y           Z
 ---------------------------------------------------------------------
      1          6           0        2.477141   -0.056885   -0.168778
      2          6           0        0.997530   -0.074463   -0.029951
      3          6           0        0.085590    0.969535   -0.342328
      4          8           0       -0.992390    0.998271    0.676214
      5          6           0       -1.223004   -0.082992   -0.028164
      6          8           0       -2.152775   -0.634313   -0.501669
      7          7           0        0.250476   -1.062696    0.361922
      8          1           0        2.914581    0.485912    0.672413
      9          1           0        2.894227   -1.061975   -0.207201
     10          1           0        2.755448    0.478422   -1.077832
     11          1           0        0.234514    1.899700   -0.863874
     12          1           0        0.585675   -1.806027    0.962014
 ---------------------------------------------------------------------

 SCF Done:  E(RHF) =  -358.569790214     A.U. after    2 cycles

 The electronic state is 1-A.
 Alpha  occ. eigenvalues --  -20.63910 -20.56066 -15.65539 -11.45176 -11.35054
 Alpha  occ. eigenvalues --  -11.29268 -11.27870  -1.45980  -1.35818  -1.23586
 Alpha  occ. eigenvalues --   -1.03619  -0.96681  -0.83111  -0.78798  -0.73340
 Alpha  occ. eigenvalues --   -0.70817  -0.68892  -0.63863  -0.62466  -0.61417
 Alpha  occ. eigenvalues --   -0.58248  -0.56520  -0.52015  -0.47209  -0.44242
 Alpha  occ. eigenvalues --   -0.33855
 Alpha virt. eigenvalues --    0.02260   0.03690   0.04450   0.04762   0.06820
 Alpha virt. eigenvalues --    0.08160   0.09064   0.09658   0.11183   0.11582
 Alpha virt. eigenvalues --    0.12619   0.13165   0.14122   0.14825   0.15317

 Mulliken charges:
               1
     1  C    0.552075
     2  C    0.070880
     3  C    0.618445
     4  O   -0.590923
     5  C    0.577626
     6  O   -0.371186
     7  N   -0.475530
     8  H    0.093756
     9  H   -0.078939
    10  H    0.039863
    11  H   -0.353941
    12  H   -0.082126
 Sum of Mulliken charges =  -0.00000

 Dipole moment (field-independent basis, Debye):
    X=              6.4020    Y=              0.2320    Z=              0.7320  Tot=              6.4479

 Test job not archived.
 1\1\GINC-SE226\SP\RHF\Aug-CC-pVDZ\C4H5N1O2\OHZDE\09-Apr-2025\0\\#t hf
 aug-cc-pvdz iop(5/13=1,5/36=2,99/5=2) pseudo=read geom=check guess=(re
 ad,tcheck) scf=(maxcycle=1)\\title\\0,1\C,0,-1.53938643,-0.39955857,-0
 .71809502\C,0,-0.20853289,-0.13438354,-0.11200693\C,0,0.35039799,1.125
 40137,0.23394812\O,0,1.79964151,1.12082887,-0.08222669\C,0,1.67940564,
 0.33373424,0.95915968\O,0,2.24809114,0.13626085,1.97416604\N,0,0.68099
 78,-1.0060838,0.25830352\H,0,-1.49629851,-0.19938807,-1.79124963\H,0,-
 1.86401597,-1.42589233,-0.55409246\H,0,-2.27973953,0.2796758,-0.292765

 Normal termination of Gaussian 16 at Wed Apr  9 17:05:20 2025.
