 Gaussian 16, Revision C.01,

 ----------------------------------------------------------------------
 #t hf aug-cc-pvdz symm=none int=(grid=ultrafine) guess=(read,tcheck) s
 table=(opt,rrhf)
 ----------------------------------------------------------------------
 -----
 title
 -----
 Symbolic Z-matrix:
 Charge =  0 Multiplicity = 1

 SCF Done:  E(RHF) =  -338.749573840     A.U. after   15 cycles
 Normal termination of Gaussian 16 at Wed Apr  9 03:26:40 2025.
 Gaussian 16:  ES64L-G16RevC.01  3-Jul-2019

 ----------------------------------------------------------------------
 #t hf aug-cc-pvdz iop(5/13=1,5/36=2,99/5=2) pseudo=read geom=check gue
 ss=(read,tcheck) scf=(maxcycle=1)
 ----------------------------------------------------------------------
 -----
 title
 -----
 Structure from the checkpoint file:  "Grambow2020_wb97xd3_006691_reverse_mol2.chk"
 Charge =  0 Multiplicity = 1

                         Standard orientation:
 ---------------------------------------------------------------------
 Center     Atomic      Atomic             Coordinates (Angstroms)
 Number     Number       Type             X           Y           Z
 ---------------------------------------------------------------------
      1          6           0       -2.991009    0.384250   -0.253868
      2          6           0       -1.955276   -0.436893    0.463281
      3          6           0       -0.729402   -0.564720    0.050780
      4          7           0        0.404986   -0.746235   -0.373348
      5          6           0        1.434882    0.200627   -0.037747
      6          7           0        2.636057   -0.414029    0.024120
      7          8           0        1.247292    1.376703    0.133989
      8          1           0       -2.578076    0.836873   -1.154174
      9          1           0       -3.844439   -0.233649   -0.540262
     10          1           0       -3.358143    1.186223    0.389120
     11          1           0       -2.215372   -0.944725    1.385169
     12          1           0        3.453104    0.142728    0.190713
     13          1           0        2.722120   -1.378803   -0.232551
 ---------------------------------------------------------------------

 SCF Done:  E(RHF) =  -338.856780996     A.U. after    2 cycles

 The electronic state is 1-A.
 Alpha  occ. eigenvalues --  -20.54480 -15.65627 -15.65521 -11.40529 -11.33602
 Alpha  occ. eigenvalues --  -11.25924 -11.25024  -1.37610  -1.23520  -1.18788
 Alpha  occ. eigenvalues --   -1.06828  -0.93239  -0.86471  -0.76401  -0.70223
 Alpha  occ. eigenvalues --   -0.69268  -0.64885  -0.62707  -0.59234  -0.58686
 Alpha  occ. eigenvalues --   -0.55185  -0.53846  -0.47883  -0.45766  -0.42928
 Alpha  occ. eigenvalues --   -0.35026
 Alpha virt. eigenvalues --    0.03154   0.03482   0.04813   0.05285   0.06320
 Alpha virt. eigenvalues --    0.06832   0.09396   0.10417   0.11601   0.12051
 Alpha virt. eigenvalues --    0.12470   0.12626   0.13808   0.14252   0.15862

 Mulliken charges:
               1
     1  C    0.195416
     2  C    0.956015
     3  C   -0.654213
     4  N   -0.384641
     5  C    0.788869
     6  N   -0.066937
     7  O   -0.440578
     8  H   -0.127528
     9  H    0.007099
    10  H    0.029038
    11  H   -0.289825
    12  H   -0.010746
    13  H   -0.001969
 Sum of Mulliken charges =  -0.00000

 Dipole moment (field-independent basis, Debye):
    X=              0.1000    Y=             -2.5559    Z=              0.3179  Tot=              2.5776

 Test job not archived.
 1\1\GINC-SE090\SP\RHF\Aug-CC-pVDZ\C4H6N2O1\OHZDE\09-Apr-2025\0\\#t hf
 aug-cc-pvdz iop(5/13=1,5/36=2,99/5=2) pseudo=read geom=check guess=(re
 ad,tcheck) scf=(maxcycle=1)\\title\\0,1\C,0,-2.54769271,-0.4338735,-0.
 48210369\C,0,-1.52101302,0.2556369,0.37336508\C,0,-0.25827072,-0.05210
 692,0.36702641\N,0,0.91841168,-0.38759581,0.41735766\C,0,1.84506467,0.
 17477586,-0.52864196\N,0,3.07753011,0.26345276,0.01690057\O,0,1.559469
 53,0.492037,-1.65363912\H,0,-2.09262639,-1.21786019,-1.08560235\H,0,-3
 .32682966,-0.88454274,0.13596235\H,0,-3.02526423,0.27788854,-1.1579007

 Normal termination of Gaussian 16 at Wed Apr  9 03:26:44 2025.
