 Gaussian 16, Revision C.01,

 ----------------------------------------------------------------------
 #t hf aug-cc-pvdz symm=none int=(grid=ultrafine) guess=(read,tcheck) s
 table=(opt,rrhf)
 ----------------------------------------------------------------------
 -----
 title
 -----
 Symbolic Z-matrix:
 Charge =  0 Multiplicity = 1

 SCF Done:  E(RHF) =  -281.569151288     A.U. after   15 cycles
 Normal termination of Gaussian 16 at Wed Apr  9 03:06:19 2025.
 Gaussian 16:  ES64L-G16RevC.01  3-Jul-2019

 ----------------------------------------------------------------------
 #t hf aug-cc-pvdz iop(5/13=1,5/36=2,99/5=2) pseudo=read geom=check gue
 ss=(read,tcheck) scf=(maxcycle=1)
 ----------------------------------------------------------------------
 -----
 title
 -----
 Structure from the checkpoint file:  "Grambow2020_b97d3_006582_forward_mol1.chk"
 Charge =  0 Multiplicity = 1

                         Standard orientation:
 ---------------------------------------------------------------------
 Center     Atomic      Atomic             Coordinates (Angstroms)
 Number     Number       Type             X           Y           Z
 ---------------------------------------------------------------------
      1          8           0        2.320878   -0.239661   -0.000500
      2          6           0        1.270928    0.369635    0.000004
      3          7           0        0.015127   -0.254836    0.000905
      4          6           0       -1.160849    0.432679    0.000106
      5          8           0       -2.274896   -0.280251   -0.000673
      6          1           0        1.169647    1.471920   -0.000085
      7          1           0       -0.008870   -1.284525    0.001500
      8          1           0       -2.294991    0.941876    0.000973
 ---------------------------------------------------------------------

 SCF Done:  E(RHF) =  -281.657739226     A.U. after    2 cycles

 The electronic state is 1-A.
 Alpha  occ. eigenvalues --  -20.61992 -20.59202 -15.71145 -11.40903 -11.38703
 Alpha  occ. eigenvalues --   -1.40125  -1.38618  -1.23972  -0.91338  -0.85434
 Alpha  occ. eigenvalues --   -0.77129  -0.72109  -0.67240  -0.63599  -0.63216
 Alpha  occ. eigenvalues --   -0.57695  -0.49047  -0.46538  -0.41197
 Alpha virt. eigenvalues --    0.03270   0.04404   0.04753   0.06840   0.08861
 Alpha virt. eigenvalues --    0.10644   0.11115   0.11636   0.13804   0.13915
 Alpha virt. eigenvalues --    0.15719   0.15859   0.17956   0.18517   0.20568

 Mulliken charges:
               1
     1  O   -0.426713
     2  C    0.836359
     3  N   -0.219829
     4  C    0.167774
     5  O   -0.625218
     6  H   -0.114265
     7  H   -0.050434
     8  H    0.432326
 Sum of Mulliken charges =  -0.00000

 Dipole moment (field-independent basis, Debye):
    X=             -1.2375    Y=              1.7159    Z=              0.0047  Tot=              2.1156

 Test job not archived.
 1\1\GINC-SE220\SP\RHF\Aug-CC-pVDZ\C2H3N1O2\OHZDE\09-Apr-2025\0\\#t hf
 aug-cc-pvdz iop(5/13=1,5/36=2,99/5=2) pseudo=read geom=check guess=(re
 ad,tcheck) scf=(maxcycle=1)\\title\\0,1\O,0,-2.45160553,0.28573894,0.0
 9576616\C,0,-1.37435159,-0.1352247,-0.27294924\N,0,-0.15374207,0.27018
 905,0.28629281\C,0,1.05315139,-0.20370932,-0.13135018\O,0,2.12810731,0
 .26389682,0.4811733\H,0,-1.21812303,-0.87678823,-1.07977442\H,0,-0.181
 46653,0.96126411,1.04949838\H,0,2.20930105,-0.55859467,-0.41933582\\Ve
 rsion=ES64L-G16RevC.01\State=1-A\HF=-281.6577392\RMSD=2.490e-03\Dipole

 Normal termination of Gaussian 16 at Wed Apr  9 03:06:21 2025.
