 Gaussian 16, Revision C.01,

 ----------------------------------------------------------------------
 #t hf aug-cc-pvdz symm=none int=(grid=ultrafine) guess=(read,tcheck) s
 table=(opt,rrhf)
 ----------------------------------------------------------------------
 -----
 title
 -----
 Symbolic Z-matrix:
 Charge =  0 Multiplicity = 1

 SCF Done:  E(RHF) =  -338.655683023     A.U. after   15 cycles
 Normal termination of Gaussian 16 at Wed Apr  9 16:32:59 2025.
 Gaussian 16:  ES64L-G16RevC.01  3-Jul-2019

 ----------------------------------------------------------------------
 #t hf aug-cc-pvdz iop(5/13=1,5/36=2,99/5=2) pseudo=read geom=check gue
 ss=(read,tcheck) scf=(maxcycle=1)
 ----------------------------------------------------------------------
 -----
 title
 -----
 Structure from the checkpoint file:  "Grambow2020_wb97xd3_008565_forward_mol1.chk"
 Charge =  0 Multiplicity = 1

                         Standard orientation:
 ---------------------------------------------------------------------
 Center     Atomic      Atomic             Coordinates (Angstroms)
 Number     Number       Type             X           Y           Z
 ---------------------------------------------------------------------
      1          7           0        1.962885    1.095276    0.130800
      2          6           0        2.100950   -0.111125   -0.199100
      3          8           0        1.129858   -1.023459   -0.081810
      4          6           0       -0.082350   -0.603467    0.544279
      5          6           0       -0.910853    0.237524   -0.405442
      6          6           0       -2.366863    0.566567    0.530499
      7          7           0       -2.720810   -0.076353   -0.400455
      8          1           0        2.818397    1.614692   -0.023800
      9          1           0        2.994655   -0.579535   -0.613964
     10          1           0        0.139826   -0.047323    1.454996
     11          1           0       -0.608821   -1.523764    0.788098
     12          1           0       -0.585801    1.268157   -0.489337
     13          1           0       -0.936942   -0.214009   -1.395345
 ---------------------------------------------------------------------

 SCF Done:  E(RHF) =  -338.757081958     A.U. after    2 cycles

 The electronic state is 1-A.
 Alpha  occ. eigenvalues --  -20.62988 -15.67593 -15.62526 -11.37086 -11.32498
 Alpha  occ. eigenvalues --  -11.31972 -11.27964  -1.41438  -1.25473  -1.18883
 Alpha  occ. eigenvalues --   -1.04743  -0.91264  -0.81106  -0.76310  -0.71544
 Alpha  occ. eigenvalues --   -0.67583  -0.67271  -0.63380  -0.58673  -0.55519
 Alpha  occ. eigenvalues --   -0.53506  -0.52346  -0.48099  -0.46459  -0.45158
 Alpha  occ. eigenvalues --   -0.42987
 Alpha virt. eigenvalues --    0.02775   0.04304   0.04739   0.05128   0.06847
 Alpha virt. eigenvalues --    0.07280   0.08748   0.09718   0.10946   0.11828
 Alpha virt. eigenvalues --    0.12358   0.13311   0.14454   0.14788   0.14849

 Mulliken charges:
               1
     1  N   -0.246143
     2  C    0.602733
     3  O   -0.515633
     4  C    0.796934
     5  C    0.271843
     6  C    0.021832
     7  N   -0.342393
     8  H    0.001887
     9  H   -0.242218
    10  H   -0.055945
    11  H   -0.228501
    12  H    0.009144
    13  H   -0.073542
 Sum of Mulliken charges =  -0.00000

 Dipole moment (field-independent basis, Debye):
    X=              3.6741    Y=             -0.4410    Z=             -1.0748  Tot=              3.8534

 Test job not archived.
 1\1\GINC-SE162\SP\RHF\Aug-CC-pVDZ\C4H6N2O1\OHZDE\09-Apr-2025\0\\#t hf
 aug-cc-pvdz iop(5/13=1,5/36=2,99/5=2) pseudo=read geom=check guess=(re
 ad,tcheck) scf=(maxcycle=1)\\title\\0,1\N,0,-1.7570096,1.01270905,-0.1
 4439888\C,0,-1.83983577,-0.1156821,0.4062141\O,0,-0.87090707,-1.036137
 14,0.3508056\C,0,0.26267574,-0.7362368,-0.46336739\C,0,1.17084245,0.25
 850049,0.23045038\C,0,2.51631066,0.41342587,-0.89646296\N,0,2.97556814
 ,-0.05461835,0.09111865\H,0,-2.60051948,1.55290302,0.00485432\H,0,-2.6
 7774281,-0.50132728,0.98880985\H,0,-0.06198121,-0.350239,-1.42963232\H

 Normal termination of Gaussian 16 at Wed Apr  9 16:33:03 2025.
