 Gaussian 16, Revision C.01,

 ----------------------------------------------------------------------
 #t hf aug-cc-pvdz symm=none int=(grid=ultrafine) guess=(read,tcheck) s
 table=(opt,rrhf)
 ----------------------------------------------------------------------
 -----
 title
 -----
 Symbolic Z-matrix:
 Charge =  0 Multiplicity = 1

 SCF Done:  E(RHF) =  -270.710942123     A.U. after   16 cycles
 Normal termination of Gaussian 16 at Wed Apr  9 03:52:55 2025.
 Gaussian 16:  ES64L-G16RevC.01  3-Jul-2019

 ----------------------------------------------------------------------
 #t hf aug-cc-pvdz iop(5/13=1,5/36=2,99/5=2) pseudo=read geom=check gue
 ss=(read,tcheck) scf=(maxcycle=1)
 ----------------------------------------------------------------------
 -----
 title
 -----
 Structure from the checkpoint file:  "Grambow2020_wb97xd3_008381_forward_mol1.chk"
 Charge =  0 Multiplicity = 1

                         Standard orientation:
 ---------------------------------------------------------------------
 Center     Atomic      Atomic             Coordinates (Angstroms)
 Number     Number       Type             X           Y           Z
 ---------------------------------------------------------------------
      1          6           0       -2.122734    0.171644   -0.175364
      2          6           0       -0.630825    0.014706    0.020519
      3          6           0        0.187257   -0.897457   -0.920028
      4          6           0        1.413248   -0.633017   -0.050747
      5          6           0       -0.254496   -0.746221    1.311295
      6          6           0        1.485192    0.879755   -0.027982
      7          6           0        0.226387    1.293503   -0.050423
      8          1           0       -2.562495    0.762018    0.632485
      9          1           0       -2.344784    0.675830   -1.118324
     10          1           0       -2.611890   -0.802837   -0.178569
     11          1           0        0.294966   -0.548792   -1.947982
     12          1           0       -0.154266   -1.931955   -0.883199
     13          1           0        2.331576   -1.212057   -0.152335
     14          1           0        0.014731   -0.019143    2.094433
     15          1           0        0.956783   -1.181051    0.991686
     16          1           0        2.400562    1.452565   -0.014886
     17          1           0       -0.149362    2.307946   -0.066934
 ---------------------------------------------------------------------

 SCF Done:  E(RHF) =  -270.788818911     A.U. after    2 cycles

 The electronic state is 1-A.
 Alpha  occ. eigenvalues --  -11.29096 -11.25246 -11.24534 -11.24342 -11.24122
 Alpha  occ. eigenvalues --  -11.24046 -11.22610  -1.18360  -1.01298  -0.98579
 Alpha  occ. eigenvalues --   -0.89445  -0.88321  -0.75032  -0.72854  -0.68019
 Alpha  occ. eigenvalues --   -0.64294  -0.58870  -0.57443  -0.56113  -0.52432
 Alpha  occ. eigenvalues --   -0.51141  -0.49525  -0.46882  -0.45476  -0.39728
 Alpha  occ. eigenvalues --   -0.29637
 Alpha virt. eigenvalues --    0.03169   0.03762   0.04345   0.05006   0.05750
 Alpha virt. eigenvalues --    0.06496   0.06785   0.06884   0.08564   0.08943
 Alpha virt. eigenvalues --    0.09118   0.11347   0.12074   0.12329   0.13679

 Mulliken charges:
               1
     1  C    1.202802
     2  C   -1.539826
     3  C    0.668758
     4  C    0.187010
     5  C   -0.283895
     6  C    0.292083
     7  C    0.734284
     8  H    0.021783
     9  H   -0.000100
    10  H    0.001395
    11  H   -0.243036
    12  H   -0.142873
    13  H   -0.303402
    14  H   -0.090963
    15  H    0.204727
    16  H   -0.320100
    17  H   -0.388645
 Sum of Mulliken charges =  -0.00000

 Dipole moment (field-independent basis, Debye):
    X=              1.2498    Y=              1.4520    Z=             -1.5146  Tot=              2.4422

 Test job not archived.
 1\1\GINC-SE080\SP\RHF\Aug-CC-pVDZ\C7H10\OHZDE\09-Apr-2025\0\\#t hf aug
 -cc-pvdz iop(5/13=1,5/36=2,99/5=2) pseudo=read geom=check guess=(read,
 tcheck) scf=(maxcycle=1)\\title\\0,1\C,0,2.01950292,0.01830109,0.09334
 731\C,0,0.51362236,-0.0001719,-0.05079348\C,0,-0.35098689,-0.84787977,
 0.90825233\C,0,-1.57719002,-0.46120882,0.08633908\C,0,0.02521588,-0.70
 543544,-1.33562844\C,0,-1.51200621,1.05203716,0.08289783\C,0,-0.220770
 36,1.34980905,0.06489314\H,0,2.48291349,0.57791701,-0.72312788\H,0,2.3
 1897894,0.4868243,1.03328537\H,0,2.41782755,-0.99639426,0.06828063\H,0

 Normal termination of Gaussian 16 at Wed Apr  9 03:53:02 2025.
