 Gaussian 16, Revision C.01,

 ----------------------------------------------------------------------
 #t hf aug-cc-pvdz symm=none int=(grid=ultrafine) guess=(read,tcheck) s
 table=(opt,rrhf)
 ----------------------------------------------------------------------
 -----
 title
 -----
 Symbolic Z-matrix:
 Charge =  0 Multiplicity = 1

 SCF Done:  E(RHF) =  -268.675520489     A.U. after   14 cycles
 Normal termination of Gaussian 16 at Wed Apr  9 14:21:19 2025.
 Gaussian 16:  ES64L-G16RevC.01  3-Jul-2019

 ----------------------------------------------------------------------
 #t hf aug-cc-pvdz iop(5/13=1,5/36=2,99/5=2) pseudo=read geom=check gue
 ss=(read,tcheck) scf=(maxcycle=1)
 ----------------------------------------------------------------------
 -----
 title
 -----
 Structure from the checkpoint file:  "Grambow2020_wb97xd3_006046_reverse_mol1.chk"
 Charge =  0 Multiplicity = 1

                         Standard orientation:
 ---------------------------------------------------------------------
 Center     Atomic      Atomic             Coordinates (Angstroms)
 Number     Number       Type             X           Y           Z
 ---------------------------------------------------------------------
      1          6           0       -1.832052   -0.799184    0.305426
      2          8           0       -0.877086   -0.162070   -0.543662
      3          6           0       -0.448398    1.279512   -0.104602
      4          6           0        0.954575    1.304508    0.308232
      5          6           0        1.492205    0.168727    0.195051
      6          6           0        1.678254   -1.148011   -0.067668
      7          1           0       -2.800428   -0.323358    0.161058
      8          1           0       -1.886645   -1.845067    0.005590
      9          1           0       -1.524423   -0.726699    1.350885
     10          1           0       -0.660500    1.859708   -1.000379
     11          1           0       -1.156007    1.525200    0.687817
     12          1           0        2.180272   -1.451186   -0.981712
     13          1           0        1.699293   -1.866418    0.747055
     14          1           0        0.097623   -0.708934   -0.439653
 ---------------------------------------------------------------------

 SCF Done:  E(RHF) =  -268.761679285     A.U. after    2 cycles

 The electronic state is 1-A.
 Alpha  occ. eigenvalues --  -20.66056 -11.33470 -11.33142 -11.24372 -11.22163
 Alpha  occ. eigenvalues --  -11.18780  -1.40865  -1.08656  -1.00044  -0.96666
 Alpha  occ. eigenvalues --   -0.87935  -0.76394  -0.71627  -0.70324  -0.64957
 Alpha  occ. eigenvalues --   -0.61031  -0.59229  -0.58065  -0.57002  -0.54204
 Alpha  occ. eigenvalues --   -0.42594  -0.34890  -0.30571
 Alpha virt. eigenvalues --    0.02451   0.03897   0.04593   0.05067   0.06330
 Alpha virt. eigenvalues --    0.06652   0.07122   0.08341   0.09702   0.11722
 Alpha virt. eigenvalues --    0.12277   0.13090   0.14317   0.14752   0.14846

 Mulliken charges:
               1
     1  C    0.726563
     2  O   -0.778742
     3  C    0.891142
     4  C   -0.643809
     5  C   -0.159017
     6  C    0.433103
     7  H   -0.157470
     8  H   -0.192341
     9  H   -0.012232
    10  H   -0.103531
    11  H   -0.081275
    12  H   -0.224239
    13  H   -0.246427
    14  H    0.548274
 Sum of Mulliken charges =  -0.00000

 Dipole moment (field-independent basis, Debye):
    X=             -5.0246    Y=             -2.5031    Z=             -0.2986  Tot=              5.6215

 Test job not archived.
 1\1\GINC-SE043\SP\RHF\Aug-CC-pVDZ\C5H8O1\OHZDE\09-Apr-2025\0\\#t hf au
 g-cc-pvdz iop(5/13=1,5/36=2,99/5=2) pseudo=read geom=check guess=(read
 ,tcheck) scf=(maxcycle=1)\\title\\0,1\C,0,-1.60693206,0.75900192,-0.21
 949689\O,0,-0.73133407,-0.31750644,0.11707751\C,0,-0.34384404,-1.26125
 948,-1.07199251\C,0,1.07772619,-1.13941758,-1.39398791\C,0,1.65871304,
 -0.3216272,-0.6287908\C,0,1.88871792,0.58051414,0.35643676\H,0,-2.6023
 9485,0.35674434,-0.39906914\H,0,-1.63124852,1.43670706,0.63307464\H,0,
 -1.24409555,1.2862188,-1.10452023\H,0,-0.63233185,-2.23742602,-0.68740

 Normal termination of Gaussian 16 at Wed Apr  9 14:21:23 2025.
