 Gaussian 16, Revision C.01,

 ----------------------------------------------------------------------
 #t hf aug-cc-pvdz symm=none int=(grid=ultrafine) guess=(read,tcheck) s
 table=(opt,rrhf)
 ----------------------------------------------------------------------
 -----
 title
 -----
 Symbolic Z-matrix:
 Charge =  0 Multiplicity = 1

 SCF Done:  E(RHF) =  -284.600461182     A.U. after   17 cycles
 Normal termination of Gaussian 16 at Wed Apr  9 03:05:38 2025.
 Gaussian 16:  ES64L-G16RevC.01  3-Jul-2019

 ----------------------------------------------------------------------
 #t hf aug-cc-pvdz iop(5/13=1,5/36=2,99/5=2) pseudo=read geom=check gue
 ss=(read,tcheck) scf=(maxcycle=1)
 ----------------------------------------------------------------------
 -----
 title
 -----
 Structure from the checkpoint file:  "Grambow2020_b97d3_006558_forward_mol1.chk"
 Charge =  0 Multiplicity = 1

                         Standard orientation:
 ---------------------------------------------------------------------
 Center     Atomic      Atomic             Coordinates (Angstroms)
 Number     Number       Type             X           Y           Z
 ---------------------------------------------------------------------
      1          8           0        1.819516   -0.563386   -0.196442
      2          6           0        0.997583    0.166963    0.442965
      3          6           0        0.124731    1.229456   -0.305694
      4          7           0       -1.226548    0.656517   -0.106557
      5          6           0       -1.320711   -0.709189   -0.354039
      6          6           0       -0.715769   -0.558738    0.850597
      7          1           0        0.758946   -1.288021   -1.225587
      8          1           0        1.263434    0.442195    1.486291
      9          1           0        0.379296    1.339369   -1.368299
     10          1           0        0.174982    2.209317    0.189372
     11          1           0        0.018333   -1.477974   -1.477789
     12          1           0       -2.017315   -1.293401   -0.945702
     13          1           0       -1.062969   -0.790967    1.856176
 ---------------------------------------------------------------------

 SCF Done:  E(RHF) =  -284.686501113     A.U. after    2 cycles

 The electronic state is 1-A.
 Alpha  occ. eigenvalues --  -20.52180 -15.68408 -11.38211 -11.33670 -11.29531
 Alpha  occ. eigenvalues --  -11.28856  -1.31419  -1.27905  -1.02493  -0.90544
 Alpha  occ. eigenvalues --   -0.83450  -0.77763  -0.72147  -0.67785  -0.63979
 Alpha  occ. eigenvalues --   -0.60498  -0.59729  -0.56679  -0.50529  -0.47597
 Alpha  occ. eigenvalues --   -0.43277  -0.39129  -0.35816
 Alpha virt. eigenvalues --    0.02499   0.02985   0.04349   0.04744   0.06008
 Alpha virt. eigenvalues --    0.06384   0.07770   0.08939   0.09775   0.11273
 Alpha virt. eigenvalues --    0.12000   0.12823   0.13609   0.13842   0.14193

 Mulliken charges:
               1
     1  O   -0.766493
     2  C    0.674223
     3  C    0.720031
     4  N   -0.834171
     5  C    0.335374
     6  C    0.598095
     7  H   -0.034542
     8  H   -0.157169
     9  H   -0.147856
    10  H   -0.147248
    11  H    0.262950
    12  H   -0.199647
    13  H   -0.303547
 Sum of Mulliken charges =  -0.00000

 Dipole moment (field-independent basis, Debye):
    X=             -3.9727    Y=              0.4205    Z=              0.8345  Tot=              4.0811

 Test job not archived.
 1\1\GINC-SE102\SP\RHF\Aug-CC-pVDZ\C4H7N1O1\OHZDE\09-Apr-2025\0\\#t hf
 aug-cc-pvdz iop(5/13=1,5/36=2,99/5=2) pseudo=read geom=check guess=(re
 ad,tcheck) scf=(maxcycle=1)\\title\\0,1\O,0,-1.50398114,-0.70437343,1.
 03506408\C,0,-1.20910153,0.04197066,0.04823039\C,0,-0.24931309,1.26521
 167,0.2319116\N,0,0.90550424,0.82650949,-0.58528341\C,0,1.30569052,-0.
 48783439,-0.36706879\C,0,0.18021608,-0.52951132,-1.12291765\H,0,0.0142
 7822,-1.19843991,1.43485062\H,0,-1.98211679,0.17746224,-0.73856622\H,0
 ,0.02723113,1.45538191,1.2775563\H,0,-0.6746148,2.17742256,-0.20937471

 Normal termination of Gaussian 16 at Wed Apr  9 03:05:42 2025.
