 Gaussian 16, Revision C.01,

 ----------------------------------------------------------------------
 #t hf aug-cc-pvdz symm=none int=(grid=ultrafine) guess=(read,tcheck) s
 table=(opt,rrhf)
 ----------------------------------------------------------------------
 -----
 title
 -----
 Symbolic Z-matrix:
 Charge =  0 Multiplicity = 1

 SCF Done:  E(RHF) =  -306.556819955     A.U. after   15 cycles
 Normal termination of Gaussian 16 at Wed Apr  9 16:23:08 2025.
 Gaussian 16:  ES64L-G16RevC.01  3-Jul-2019

 ----------------------------------------------------------------------
 #t hf aug-cc-pvdz iop(5/13=1,5/36=2,99/5=2) pseudo=read geom=check gue
 ss=(read,tcheck) scf=(maxcycle=1)
 ----------------------------------------------------------------------
 -----
 title
 -----
 Structure from the checkpoint file:  "Grambow2020_wb97xd3_008180_forward_mol1.chk"
 Charge =  0 Multiplicity = 1

                         Standard orientation:
 ---------------------------------------------------------------------
 Center     Atomic      Atomic             Coordinates (Angstroms)
 Number     Number       Type             X           Y           Z
 ---------------------------------------------------------------------
      1          6           0       -1.590217   -0.227042    0.299965
      2          6           0       -0.684361    0.014888   -0.892240
      3          8           0       -0.058577    1.231361   -0.527604
      4          6           0        0.602356    0.707980    0.643785
      5          6           0        1.606416   -0.235532   -0.012529
      6          6           0        0.425369   -1.046136   -0.514442
      7          6           0       -0.367832   -0.359504    1.231675
      8          1           0       -2.233897    0.619353    0.542609
      9          1           0       -2.172183   -1.148433    0.271802
     10          1           0       -1.049629    0.057444   -1.917297
     11          1           0        0.924811    1.508858    1.302299
     12          1           0        2.245313    0.232075   -0.760180
     13          1           0        2.194021   -0.798526    0.712458
     14          1           0        0.513081   -1.973651   -1.078109
     15          1           0        0.096709   -1.475931    0.609970
 ---------------------------------------------------------------------

 SCF Done:  E(RHF) =  -306.644518962     A.U. after    2 cycles

 The electronic state is 1-A.
 Alpha  occ. eigenvalues --  -20.57177 -11.30546 -11.29585 -11.28782 -11.26284
 Alpha  occ. eigenvalues --  -11.24904 -11.23721  -1.37157  -1.12943  -1.03552
 Alpha  occ. eigenvalues --   -0.95667  -0.84810  -0.79936  -0.75581  -0.71174
 Alpha  occ. eigenvalues --   -0.66323  -0.63056  -0.61572  -0.55899  -0.53715
 Alpha  occ. eigenvalues --   -0.51940  -0.51364  -0.49415  -0.45943  -0.43181
 Alpha  occ. eigenvalues --   -0.33219
 Alpha virt. eigenvalues --    0.02968   0.04244   0.04415   0.04745   0.06269
 Alpha virt. eigenvalues --    0.06436   0.06641   0.07871   0.09599   0.10768
 Alpha virt. eigenvalues --    0.12351   0.12877   0.13070   0.13486   0.14322

 Mulliken charges:
               1
     1  C    0.683330
     2  C    0.604442
     3  O   -0.806018
     4  C    0.800621
     5  C    0.570080
     6  C   -0.042305
     7  C   -0.790451
     8  H   -0.154088
     9  H   -0.125859
    10  H   -0.266427
    11  H   -0.248156
    12  H   -0.192141
    13  H   -0.067682
    14  H   -0.261303
    15  H    0.295958
 Sum of Mulliken charges =  -0.00000

 Dipole moment (field-independent basis, Debye):
    X=              0.4761    Y=             -1.5383    Z=             -1.6924  Tot=              2.3361

 Test job not archived.
 1\1\GINC-SE163\SP\RHF\Aug-CC-pVDZ\C6H8O1\OHZDE\09-Apr-2025\0\\#t hf au
 g-cc-pvdz iop(5/13=1,5/36=2,99/5=2) pseudo=read geom=check guess=(read
 ,tcheck) scf=(maxcycle=1)\\title\\0,1\C,0,-1.58050051,-0.21337691,-0.4
 258526\C,0,-0.72667874,-0.40483648,0.8130141\O,0,0.12436686,-1.4610693
 ,0.40746927\C,0,0.75937485,-0.73136363,-0.66360866\C,0,1.53804782,0.30
 528866,0.14145111\C,0,0.20327702,0.85733664,0.6078169\C,0,-0.34142728,
 0.20570308,-1.24373022\H,0,-2.04924957,-1.13096355,-0.78347505\H,0,-2.
 31488945,0.59061576,-0.37382455\H,0,-1.1454913,-0.59967731,1.79922171\

 Normal termination of Gaussian 16 at Wed Apr  9 16:23:13 2025.
