 Gaussian 16, Revision C.01,

 ----------------------------------------------------------------------
 #t hf aug-cc-pvdz symm=none int=(grid=ultrafine) guess=(read,tcheck) s
 table=(opt,rrhf)
 ----------------------------------------------------------------------
 -----
 title
 -----
 Symbolic Z-matrix:
 Charge =  0 Multiplicity = 1

 SCF Done:  E(RHF) =  -375.676195933     A.U. after   14 cycles
 Normal termination of Gaussian 16 at Wed Apr  9 16:10:57 2025.
 Gaussian 16:  ES64L-G16RevC.01  3-Jul-2019

 ----------------------------------------------------------------------
 #t hf aug-cc-pvdz iop(5/13=1,5/36=2,99/5=2) pseudo=read geom=check gue
 ss=(read,tcheck) scf=(maxcycle=1)
 ----------------------------------------------------------------------
 -----
 title
 -----
 Structure from the checkpoint file:  "Grambow2020_wb97xd3_007856_forward_mol1.chk"
 Charge =  0 Multiplicity = 1

                         Standard orientation:
 ---------------------------------------------------------------------
 Center     Atomic      Atomic             Coordinates (Angstroms)
 Number     Number       Type             X           Y           Z
 ---------------------------------------------------------------------
      1          7           0       -2.038298   -0.827816    0.040272
      2          6           0       -0.857563   -0.261878    0.113231
      3          8           0        0.129209   -0.985023   -0.303811
      4          6           0       -0.624852    1.185757    0.470976
      5          8           0        0.092323    1.628931   -0.560135
      6          6           0        1.410338   -0.360860   -0.381319
      7          7           0        2.148297   -0.489834    0.612334
      8          1           0       -2.152041   -1.751478   -0.344925
      9          1           0       -2.847001   -0.312630    0.338594
     10          1           0       -0.140667    1.208181    1.475664
     11          1           0       -1.630990    1.642158    0.613005
     12          1           0        1.595751    0.004946   -1.381182
     13          1           0        3.065155   -0.097004    0.424839
 ---------------------------------------------------------------------

 SCF Done:  E(RHF) =  -375.794160972     A.U. after    2 cycles

 The electronic state is 1-A.
 Alpha  occ. eigenvalues --  -20.66820 -20.44249 -15.72203 -15.62141 -11.43196
 Alpha  occ. eigenvalues --  -11.37003 -11.28219  -1.47312  -1.27765  -1.21357
 Alpha  occ. eigenvalues --   -1.19267  -0.97421  -0.91715  -0.81527  -0.77510
 Alpha  occ. eigenvalues --   -0.76402  -0.74433  -0.67560  -0.64867  -0.59648
 Alpha  occ. eigenvalues --   -0.58172  -0.52365  -0.50890  -0.46241  -0.45265
 Alpha  occ. eigenvalues --   -0.36112  -0.35064
 Alpha virt. eigenvalues --    0.01499   0.03741   0.04638   0.05829   0.06242
 Alpha virt. eigenvalues --    0.07597   0.08954   0.10412   0.11589   0.12074
 Alpha virt. eigenvalues --    0.12748   0.13386   0.14648   0.14997   0.15791

 Mulliken charges:
               1
     1  N   -0.117462
     2  C    0.681823
     3  O   -0.657229
     4  C    0.751446
     5  O   -0.876899
     6  C    0.894552
     7  N   -0.360484
     8  H   -0.020652
     9  H    0.044595
    10  H   -0.006576
    11  H   -0.188401
    12  H   -0.194332
    13  H    0.049617
 Sum of Mulliken charges =   0.00000

 Dipole moment (field-independent basis, Debye):
    X=             -4.0259    Y=             -4.4733    Z=              0.4463  Tot=              6.0347

 Test job not archived.
 1\1\GINC-SE131\SP\RHF\Aug-CC-pVDZ\C3H6N2O2\OHZDE\09-Apr-2025\0\\#t hf
 aug-cc-pvdz iop(5/13=1,5/36=2,99/5=2) pseudo=read geom=check guess=(re
 ad,tcheck) scf=(maxcycle=1)\\title\\0,1\N,0,-2.1170633,-0.16857453,-0.
 20419947\C,0,-0.8125555,-0.12128796,-0.07863078\O,0,-0.25393028,0.9605
 8465,-0.51230374\C,0,0.01038736,-1.13733319,0.67515862\O,0,0.68333482,
 -0.38211315,1.54159867\C,0,1.14241052,1.12026971,-0.26408709\N,0,1.910
 58753,0.73850958,-1.16560071\H,0,-2.63352343,0.60676092,-0.58706999\H,
 0,-2.6111422,-0.97859348,0.12469018\H,0,0.60744402,-1.70710858,-0.0753

 Normal termination of Gaussian 16 at Wed Apr  9 16:11:01 2025.
