 Gaussian 16, Revision C.01,

 ----------------------------------------------------------------------
 #t hf aug-cc-pvdz symm=none int=(grid=ultrafine) guess=(read,tcheck) s
 table=(opt,rrhf)
 ----------------------------------------------------------------------
 -----
 title
 -----
 Symbolic Z-matrix:
 Charge =  0 Multiplicity = 1

 SCF Done:  E(RHF) =  -344.772536456     A.U. after   15 cycles

 1\1\GINC-SE141\Stability\RHF\Aug-CC-pVDZ\C5H10O2\OHZDE\09-Apr-2025\0\\
 #t hf aug-cc-pvdz symm=none int=(grid=ultrafine) guess=(read,tcheck) s
 table=(opt,rrhf)\\title\\0,1\C,0,2.22927291,0.56700411,-0.75435145\C,0
 ,1.12839216,-0.2956583,-0.19363297\C,0,0.32268537,-0.30380141,1.864581
 66\O,0,-0.83076537,0.22140543,1.39528351\C,0,-1.17302447,-0.29687325,0
 .1238957\C,0,-2.43772384,0.32376611,-0.39110004\O,0,-0.09314358,0.0686
 941,-0.70255122\H,0,2.29133263,0.43281644,-1.83630638\H,0,3.188513,0.2
 8858344,-0.31740777\H,0,2.03396444,1.61924642,-0.54619482\H,0,1.328872

 Normal termination of Gaussian 16 at Wed Apr  9 03:34:09 2025.
 Gaussian 16:  ES64L-G16RevC.01  3-Jul-2019

 ----------------------------------------------------------------------
 #t hf aug-cc-pvdz iop(5/13=1,5/36=2,99/5=2) pseudo=read geom=check gue
 ss=(read,tcheck) scf=(maxcycle=1)
 ----------------------------------------------------------------------
 -----
 title
 -----
 Structure from the checkpoint file:  "Grambow2020_wb97xd3_007113_reverse_mol1.chk"
 Charge =  0 Multiplicity = 1

                         Standard orientation:
 ---------------------------------------------------------------------
 Center     Atomic      Atomic             Coordinates (Angstroms)
 Number     Number       Type             X           Y           Z
 ---------------------------------------------------------------------
      1          6           0        2.460261   -0.625748   -0.325284
      2          6           0        1.261825   -0.062446    0.393724
      3          6           0        0.159116    1.799899   -0.054808
      4          8           0       -0.894734    1.056603   -0.459088
      5          6           0       -1.060123   -0.105947    0.330409
      6          6           0       -2.214152   -0.931232   -0.156417
      7          8           0        0.141548   -0.818765    0.155267
      8          1           0        2.678321   -1.629110    0.046468
      9          1           0        3.334678    0.002410   -0.153845
     10          1           0        2.269135   -0.687066   -1.396918
     11          1           0        1.437044    0.136171    1.453500
     12          1           0        1.196892    1.105814   -0.243758
     13          1           0        0.124786    1.919412    1.045636
     14          1           0       -1.161718    0.198523    1.384180
     15          1           0       -2.059091   -1.195446   -1.201916
     16          1           0       -2.299957   -1.841993    0.435264
     17          1           0       -3.136167   -0.358573   -0.063787
 ---------------------------------------------------------------------

 SCF Done:  E(RHF) =  -344.883164959     A.U. after    2 cycles

 The electronic state is 1-A.
 Alpha  occ. eigenvalues --  -20.60647 -20.59844 -11.35999 -11.33941 -11.28957
 Alpha  occ. eigenvalues --  -11.24873 -11.23807  -1.42559  -1.33831  -1.07859
 Alpha  occ. eigenvalues --   -1.00619  -0.90731  -0.85768  -0.83946  -0.75249
 Alpha  occ. eigenvalues --   -0.71249  -0.66524  -0.64739  -0.59989  -0.58657
 Alpha  occ. eigenvalues --   -0.56930  -0.55748  -0.54655  -0.53736  -0.52516
 Alpha  occ. eigenvalues --   -0.48568  -0.46449  -0.32704
 Alpha virt. eigenvalues --    0.03147   0.04208   0.04376   0.05210   0.05949
 Alpha virt. eigenvalues --    0.06448   0.06525   0.07228   0.08649   0.09278
 Alpha virt. eigenvalues --    0.11540   0.12320   0.12905   0.13994   0.14188

 Mulliken charges:
               1
     1  C    0.292301
     2  C   -0.001730
     3  C   -0.027847
     4  O   -0.624526
     5  C    0.919846
     6  C    0.314054
     7  O   -0.687704
     8  H   -0.016103
     9  H   -0.035369
    10  H   -0.020816
    11  H   -0.312245
    12  H    0.359124
    13  H    0.138390
    14  H   -0.363551
    15  H    0.053506
    16  H    0.007545
    17  H    0.005124
 Sum of Mulliken charges =  -0.00000

 Dipole moment (field-independent basis, Debye):
    X=              0.6797    Y=             -2.2238    Z=              2.3821  Tot=              3.3289

 Test job not archived.
 1\1\GINC-SE141\SP\RHF\Aug-CC-pVDZ\C5H10O2\OHZDE\09-Apr-2025\0\\#t hf a
 ug-cc-pvdz iop(5/13=1,5/36=2,99/5=2) pseudo=read geom=check guess=(rea
 d,tcheck) scf=(maxcycle=1)\\title\\0,1\C,0,2.22927291,0.56700411,-0.75
 435145\C,0,1.12839216,-0.2956583,-0.19363297\C,0,0.32268537,-0.3038014
 1,1.86458166\O,0,-0.83076537,0.22140543,1.39528351\C,0,-1.17302447,-0.
 29687325,0.1238957\C,0,-2.43772384,0.32376611,-0.39110004\O,0,-0.09314
 358,0.0686941,-0.70255122\H,0,2.29133263,0.43281644,-1.83630638\H,0,3.
 188513,0.28858344,-0.31740777\H,0,2.03396444,1.61924642,-0.54619482\H,

 Normal termination of Gaussian 16 at Wed Apr  9 03:34:16 2025.
