 Gaussian 16, Revision C.01,

 ----------------------------------------------------------------------
 #t hf aug-cc-pvdz symm=none int=(grid=ultrafine) guess=(read,tcheck) s
 table=(opt,rrhf)
 ----------------------------------------------------------------------
 -----
 title
 -----
 Symbolic Z-matrix:
 Charge =  0 Multiplicity = 1

 SCF Done:  E(RHF) =  -306.574254559     A.U. after   16 cycles
 Normal termination of Gaussian 16 at Wed Apr  9 16:25:08 2025.
 Gaussian 16:  ES64L-G16RevC.01  3-Jul-2019

 ----------------------------------------------------------------------
 #t hf aug-cc-pvdz iop(5/13=1,5/36=2,99/5=2) pseudo=read geom=check gue
 ss=(read,tcheck) scf=(maxcycle=1)
 ----------------------------------------------------------------------
 -----
 title
 -----
 Structure from the checkpoint file:  "Grambow2020_wb97xd3_008217_reverse_mol1.chk"
 Charge =  0 Multiplicity = 1

                         Standard orientation:
 ---------------------------------------------------------------------
 Center     Atomic      Atomic             Coordinates (Angstroms)
 Number     Number       Type             X           Y           Z
 ---------------------------------------------------------------------
      1          6           0        1.053563   -0.948366   -0.511100
      2          8           0        1.625628    0.317034   -0.219583
      3          6           0        0.651615    0.944251    0.577054
      4          6           0       -0.584482    1.359408   -0.154693
      5          6           0       -1.527771    0.452400   -0.372462
      6          6           0       -1.344646   -0.928301    0.207854
      7          6           0        0.053340   -1.223442    0.635189
      8          1           0        0.567108   -0.928394   -1.500647
      9          1           0        1.856727   -1.687228   -0.531463
     10          1           0        1.117808    1.749762    1.146376
     11          1           0       -0.672376    2.378590   -0.512012
     12          1           0       -2.430760    0.684858   -0.927243
     13          1           0       -2.078753   -1.116592    0.996801
     14          1           0       -1.539698   -1.685131   -0.571043
     15          1           0        0.365214    0.132162    1.364844
 ---------------------------------------------------------------------

 SCF Done:  E(RHF) =  -306.665059540     A.U. after    2 cycles

 The electronic state is 1-A.
 Alpha  occ. eigenvalues --  -20.58364 -11.31958 -11.29071 -11.27228 -11.26316
 Alpha  occ. eigenvalues --  -11.25353 -11.25012  -1.36224  -1.11823  -1.02967
 Alpha  occ. eigenvalues --   -0.94104  -0.92679  -0.76563  -0.74573  -0.70068
 Alpha  occ. eigenvalues --   -0.68880  -0.64310  -0.60506  -0.59211  -0.57282
 Alpha  occ. eigenvalues --   -0.54339  -0.51554  -0.48736  -0.45349  -0.38635
 Alpha  occ. eigenvalues --   -0.33307
 Alpha virt. eigenvalues --    0.03086   0.04093   0.04674   0.04816   0.06121
 Alpha virt. eigenvalues --    0.06316   0.07053   0.07601   0.08791   0.10397
 Alpha virt. eigenvalues --    0.11880   0.12294   0.13682   0.13997   0.14548

 Mulliken charges:
               1
     1  C    1.027124
     2  O   -0.753444
     3  C    0.535697
     4  C    0.553050
     5  C    0.005493
     6  C    0.319796
     7  C   -0.774704
     8  H   -0.200716
     9  H   -0.197154
    10  H   -0.241066
    11  H   -0.333068
    12  H   -0.342628
    13  H   -0.052400
    14  H    0.133550
    15  H    0.320471
 Sum of Mulliken charges =  -0.00000

 Dipole moment (field-independent basis, Debye):
    X=             -2.3008    Y=              0.9535    Z=             -1.0804  Tot=              2.7148

 Test job not archived.
 1\1\GINC-SE220\SP\RHF\Aug-CC-pVDZ\C6H8O1\OHZDE\09-Apr-2025\0\\#t hf au
 g-cc-pvdz iop(5/13=1,5/36=2,99/5=2) pseudo=read geom=check guess=(read
 ,tcheck) scf=(maxcycle=1)\\title\\0,1\C,0,-1.37142477,-0.36743355,-0.7
 5056588\O,0,-1.03905076,-1.55131424,-0.04244662\C,0,-0.09342358,-1.116
 39732,0.90273569\C,0,1.23936296,-0.74928773,0.33295148\C,0,1.39414223,
 0.45940679,-0.19143614\C,0,0.24447834,1.43276703,-0.1049353\C,0,-1.063
 69247,0.79513149,0.22094495\H,0,-0.78711356,-0.30417437,-1.6837425\H,0
 ,-2.43206352,-0.41056641,-1.00471011\H,0,-0.03992852,-1.84101144,1.716

 Normal termination of Gaussian 16 at Wed Apr  9 16:25:13 2025.
