 Gaussian 16, Revision C.01,

 ----------------------------------------------------------------------
 #t hf aug-cc-pvdz symm=none int=(grid=ultrafine) guess=(read,tcheck) s
 table=(opt,rrhf)
 ----------------------------------------------------------------------
 -----
 title
 -----
 Symbolic Z-matrix:
 Charge =  0 Multiplicity = 1

 SCF Done:  E(RHF) =  -307.938512835     A.U. after   15 cycles

 1\1\GINC-SE026\Stability\RHF\Aug-CC-pVDZ\C6H10O1\OHZDE\09-Apr-2025\0\\
 #t hf aug-cc-pvdz symm=none int=(grid=ultrafine) guess=(read,tcheck) s
 table=(opt,rrhf)\\title\\0,1\C,0,1.74823724,0.48290848,-0.10388013\C,0
 ,0.6761741,-0.58779702,-0.2840186\C,0,-0.05042824,-0.88866181,1.030163
 74\C,0,-1.2015022,0.10423225,1.08473534\O,0,-1.84803669,0.37912432,2.0
 5842041\C,0,-1.39748446,0.69257992,-0.30624788\C,0,-0.4657893,-0.11600
 35,-1.20936171\H,0,2.52843548,0.14486434,0.58086011\H,0,1.33064134,1.4
 0559898,0.30920245\H,0,2.21997975,0.73056201,-1.0569122\H,0,1.14423648

 Normal termination of Gaussian 16 at Wed Apr  9 16:35:19 2025.
 Gaussian 16:  ES64L-G16RevC.01  3-Jul-2019

 ----------------------------------------------------------------------
 #t hf aug-cc-pvdz iop(5/13=1,5/36=2,99/5=2) pseudo=read geom=check gue
 ss=(read,tcheck) scf=(maxcycle=1)
 ----------------------------------------------------------------------
 -----
 title
 -----
 Structure from the checkpoint file:  "Grambow2020_wb97xd3_008607_reverse_mol2.chk"
 Charge =  0 Multiplicity = 1

                         Standard orientation:
 ---------------------------------------------------------------------
 Center     Atomic      Atomic             Coordinates (Angstroms)
 Number     Number       Type             X           Y           Z
 ---------------------------------------------------------------------
      1          6           0       -1.877705   -0.647517   -0.788259
      2          6           0       -1.171526   -0.197199    0.487165
      3          6           0        0.136808   -0.961411    0.710296
      4          6           0        1.196352   -0.161692   -0.032404
      5          8           0        2.293343   -0.550639   -0.327304
      6          6           0        0.631500    1.218832   -0.339800
      7          6           0       -0.703277    1.271385    0.403897
      8          1           0       -2.169652   -1.697548   -0.724602
      9          1           0       -1.232038   -0.542224   -1.664849
     10          1           0       -2.778538   -0.057233   -0.967721
     11          1           0       -1.852717   -0.329984    1.330106
     12          1           0        0.130799   -2.001479    0.383434
     13          1           0        0.422943   -0.953543    1.767686
     14          1           0       -0.551015    1.663186    1.412908
     15          1           0        1.346200    1.991729   -0.057132
     16          1           0        0.505232    1.286718   -1.423993
     17          1           0       -1.440864    1.911110   -0.082770
 ---------------------------------------------------------------------

 SCF Done:  E(RHF) =  -308.033137261     A.U. after    2 cycles

 The electronic state is 1-A.
 Alpha  occ. eigenvalues --  -20.55702 -11.33575 -11.24920 -11.24246 -11.24189
 Alpha  occ. eigenvalues --  -11.24100 -11.23424  -1.35312  -1.13276  -1.00674
 Alpha  occ. eigenvalues --   -0.96748  -0.90172  -0.78237  -0.73852  -0.68150
 Alpha  occ. eigenvalues --   -0.66365  -0.61747  -0.60749  -0.58452  -0.57097
 Alpha  occ. eigenvalues --   -0.55492  -0.53687  -0.49911  -0.48409  -0.47678
 Alpha  occ. eigenvalues --   -0.47188  -0.40535
 Alpha virt. eigenvalues --    0.02960   0.04147   0.04191   0.04830   0.06288
 Alpha virt. eigenvalues --    0.06420   0.06726   0.06877   0.08171   0.09442
 Alpha virt. eigenvalues --    0.10365   0.12215   0.12767   0.13966   0.14250

 Mulliken charges:
               1
     1  C    0.646304
     2  C   -0.702956
     3  C    0.419903
     4  C   -0.009150
     5  O   -0.514055
     6  C    0.098026
     7  C    0.783687
     8  H   -0.080691
     9  H   -0.024614
    10  H   -0.087679
    11  H   -0.158047
    12  H   -0.082952
    13  H    0.012034
    14  H   -0.125252
    15  H   -0.045245
    16  H   -0.017649
    17  H   -0.111662
 Sum of Mulliken charges =  -0.00000

 Dipole moment (field-independent basis, Debye):
    X=             -3.5522    Y=              1.1890    Z=              0.9454  Tot=              3.8634

 Test job not archived.
 1\1\GINC-SE026\SP\RHF\Aug-CC-pVDZ\C6H10O1\OHZDE\09-Apr-2025\0\\#t hf a
 ug-cc-pvdz iop(5/13=1,5/36=2,99/5=2) pseudo=read geom=check guess=(rea
 d,tcheck) scf=(maxcycle=1)\\title\\0,1\C,0,1.74823724,0.48290848,-0.10
 388013\C,0,0.6761741,-0.58779702,-0.2840186\C,0,-0.05042824,-0.8886618
 1,1.03016374\C,0,-1.2015022,0.10423225,1.08473534\O,0,-1.84803669,0.37
 912432,2.05842041\C,0,-1.39748446,0.69257992,-0.30624788\C,0,-0.465789
 3,-0.1160035,-1.20936171\H,0,2.52843548,0.14486434,0.58086011\H,0,1.33
 064134,1.40559898,0.30920245\H,0,2.21997975,0.73056201,-1.0569122\H,0,

 Normal termination of Gaussian 16 at Wed Apr  9 16:35:25 2025.
