 Gaussian 16, Revision C.01,

 ----------------------------------------------------------------------
 #t hf aug-cc-pvdz symm=none int=(grid=ultrafine) guess=(read,tcheck) s
 table=(opt,rrhf)
 ----------------------------------------------------------------------
 -----
 title
 -----
 Symbolic Z-matrix:
 Charge =  0 Multiplicity = 1

 SCF Done:  E(RHF) =  -283.654170743     A.U. after   15 cycles
 Normal termination of Gaussian 16 at Wed Apr  9 14:19:06 2025.
 Gaussian 16:  ES64L-G16RevC.01  3-Jul-2019

 ----------------------------------------------------------------------
 #t hf aug-cc-pvdz iop(5/13=1,5/36=2,99/5=2) pseudo=read geom=check gue
 ss=(read,tcheck) scf=(maxcycle=1)
 ----------------------------------------------------------------------
 -----
 title
 -----
 Structure from the checkpoint file:  "Grambow2020_b97d3_007169_reverse_mol2.chk"
 Charge =  0 Multiplicity = 1

                         Standard orientation:
 ---------------------------------------------------------------------
 Center     Atomic      Atomic             Coordinates (Angstroms)
 Number     Number       Type             X           Y           Z
 ---------------------------------------------------------------------
      1          6           0       -1.387963    1.270237    0.000166
      2          7           0       -1.721164   -0.144766   -0.003374
      3          6           0        1.536592   -0.112970   -0.000199
      4          8           0        2.543499    0.528754    0.001092
      5          6           0        0.560250   -0.959272   -0.002011
      6          6           0       -0.786514   -1.127942    0.000856
      7          1           0       -0.810536    1.530455    0.899111
      8          1           0       -2.315475    1.852103   -0.018978
      9          1           0       -0.778677    1.522991   -0.878904
     10          1           0       -2.699226   -0.412201    0.015552
     11          1           0       -1.230118   -2.130332    0.005232
 ---------------------------------------------------------------------

 SCF Done:  E(RHF) =  -283.743293341     A.U. after    2 cycles

 The electronic state is 1-A.
 Alpha  occ. eigenvalues --  -20.59625 -15.68711 -11.37117 -11.35744 -11.29600
 Alpha  occ. eigenvalues --  -11.21324  -1.37552  -1.24991  -1.04747  -0.97791
 Alpha  occ. eigenvalues --   -0.87826  -0.74671  -0.72524  -0.68852  -0.63712
 Alpha  occ. eigenvalues --   -0.61293  -0.58996  -0.58770  -0.57588  -0.48859
 Alpha  occ. eigenvalues --   -0.34305  -0.33868
 Alpha virt. eigenvalues --    0.01935   0.03449   0.04904   0.05809   0.06943
 Alpha virt. eigenvalues --    0.07181   0.08961   0.09980   0.11557   0.11942
 Alpha virt. eigenvalues --    0.12836   0.13994   0.14617   0.15408   0.16374

 Mulliken charges:
               1
     1  C    0.796573
     2  N   -0.311463
     3  C   -0.351045
     4  O   -0.357781
     5  C    0.365090
     6  C    0.588969
     7  H   -0.070878
     8  H   -0.208973
     9  H   -0.074887
    10  H   -0.073593
    11  H   -0.302011
 Sum of Mulliken charges =  -0.00000

 Dipole moment (field-independent basis, Debye):
    X=             -6.7463    Y=              0.0498    Z=              0.0329  Tot=              6.7466

 Test job not archived.
 1\1\GINC-SE226\SP\RHF\Aug-CC-pVDZ\C4H5N1O1\OHZDE\09-Apr-2025\0\\#t hf
 aug-cc-pvdz iop(5/13=1,5/36=2,99/5=2) pseudo=read geom=check guess=(re
 ad,tcheck) scf=(maxcycle=1)\\title\\0,1\C,0,-1.16566256,0.2609626,-0.6
 519286\N,0,0.21028901,0.35995605,-1.11043198\C,0,0.48644029,-0.7208919
 3,1.95053242\O,0,-0.05667158,-1.04872205,2.96208012\C,0,1.23592713,-0.
 40479917,0.94662518\C,0,1.27625961,0.03647397,-0.3362942\H,0,-1.409478
 6,-0.77568725,-0.37779466\H,0,-1.83117965,0.59200701,-1.45611087\H,0,-
 1.3207338,0.89140752,0.2348479\H,0,0.38298866,0.66303135,-2.06269543\H

 Normal termination of Gaussian 16 at Wed Apr  9 14:19:09 2025.
