 Gaussian 16, Revision C.01,

 ----------------------------------------------------------------------
 #t hf aug-cc-pvdz symm=none int=(grid=ultrafine) guess=(read,tcheck) s
 table=(opt,rrhf)
 ----------------------------------------------------------------------
 -----
 title
 -----
 Symbolic Z-matrix:
 Charge =  0 Multiplicity = 1

 SCF Done:  E(RHF) =  -343.502607311     A.U. after   15 cycles
 Normal termination of Gaussian 16 at Wed Apr  9 16:36:09 2025.
 Gaussian 16:  ES64L-G16RevC.01  3-Jul-2019

 ----------------------------------------------------------------------
 #t hf aug-cc-pvdz iop(5/13=1,5/36=2,99/5=2) pseudo=read geom=check gue
 ss=(read,tcheck) scf=(maxcycle=1)
 ----------------------------------------------------------------------
 -----
 title
 -----
 Structure from the checkpoint file:  "Grambow2020_wb97xd3_008649_forward_mol1.chk"
 Charge =  0 Multiplicity = 1

                         Standard orientation:
 ---------------------------------------------------------------------
 Center     Atomic      Atomic             Coordinates (Angstroms)
 Number     Number       Type             X           Y           Z
 ---------------------------------------------------------------------
      1          6           0       -1.041423    1.357296    0.116235
      2          6           0       -1.905606   -0.296959    0.148411
      3          8           0       -0.977650   -1.140600   -0.534357
      4          6           0       -0.127916   -0.182533   -0.106181
      5          6           0        0.889358   -0.413239    1.007011
      6          8           0        1.921365    0.142897    0.175636
      7          6           0        1.065333    0.206578   -0.972701
      8          1           0       -0.099203    1.822876    0.445214
      9          1           0       -1.329104    1.773281   -0.843621
     10          1           0       -1.758438    1.640931    0.885015
     11          1           0       -1.818148   -0.563912    1.226343
     12          1           0        0.773220    0.146856    1.936591
     13          1           0        1.042003   -1.475926    1.216456
     14          1           0        1.285952   -0.577274   -1.703731
     15          1           0        1.075523    1.187938   -1.449146
 ---------------------------------------------------------------------

 SCF Done:  E(RHF) =  -343.609168771     A.U. after    2 cycles

 The electronic state is 1-A.
 Alpha  occ. eigenvalues --  -20.60563 -20.59059 -11.36608 -11.31425 -11.31293
 Alpha  occ. eigenvalues --  -11.31137 -11.28223  -1.41921  -1.36956  -1.03950
 Alpha  occ. eigenvalues --   -0.97696  -0.97110  -0.84248  -0.78123  -0.72773
 Alpha  occ. eigenvalues --   -0.71655  -0.68895  -0.63603  -0.61025  -0.60263
 Alpha  occ. eigenvalues --   -0.57880  -0.57091  -0.53133  -0.49068  -0.46287
 Alpha  occ. eigenvalues --   -0.44490  -0.34364
 Alpha virt. eigenvalues --    0.03271   0.04197   0.04490   0.05022   0.06270
 Alpha virt. eigenvalues --    0.06464   0.07161   0.08202   0.09341   0.10602
 Alpha virt. eigenvalues --    0.12121   0.13064   0.13842   0.14074   0.14493

 Mulliken charges:
               1
     1  C    0.679072
     2  C    0.207807
     3  O   -0.718832
     4  C   -0.763431
     5  C    1.014172
     6  O   -0.713587
     7  C    0.930545
     8  H   -0.166577
     9  H    0.001916
    10  H   -0.085536
    11  H    0.024039
    12  H   -0.125858
    13  H   -0.088690
    14  H   -0.078271
    15  H   -0.116768
 Sum of Mulliken charges =  -0.00000

 Dipole moment (field-independent basis, Debye):
    X=              0.7309    Y=              1.4720    Z=              1.1308  Tot=              1.9949

 Test job not archived.
 1\1\GINC-SE100\SP\RHF\Aug-CC-pVDZ\C5H8O2\OHZDE\09-Apr-2025\0\\#t hf au
 g-cc-pvdz iop(5/13=1,5/36=2,99/5=2) pseudo=read geom=check guess=(read
 ,tcheck) scf=(maxcycle=1)\\title\\0,1\C,0,1.28158595,-0.36876551,0.635
 55569\C,0,1.44581275,1.19389443,-0.37217846\O,0,0.45225018,1.01313319,
 -1.38171447\C,0,-0.05864717,0.20807753,-0.42560593\C,0,-1.3121492,0.55
 776027,0.37046109\O,0,-1.85144499,-0.74416144,0.08819982\C,0,-0.796912
 1,-1.06408633,-0.82893319\H,0,0.52852416,-0.91938373,1.22078093\H,0,1.
 91038876,-1.07711374,0.10642716\H,0,1.85954861,0.167074,1.38683296\H,0

 Normal termination of Gaussian 16 at Wed Apr  9 16:36:14 2025.
