 Gaussian 16, Revision C.01,

 ----------------------------------------------------------------------
 #t hf aug-cc-pvdz symm=none int=(grid=ultrafine) guess=(read,tcheck) s
 table=(opt,rrhf)
 ----------------------------------------------------------------------
 -----
 title
 -----
 Symbolic Z-matrix:
 Charge =  0 Multiplicity = 1

 SCF Done:  E(RHF) =  -320.653976022     A.U. after   15 cycles
 Normal termination of Gaussian 16 at Wed Apr  9 14:19:04 2025.
 Gaussian 16:  ES64L-G16RevC.01  3-Jul-2019

 ----------------------------------------------------------------------
 #t hf aug-cc-pvdz iop(5/13=1,5/36=2,99/5=2) pseudo=read geom=check gue
 ss=(read,tcheck) scf=(maxcycle=1)
 ----------------------------------------------------------------------
 -----
 title
 -----
 Structure from the checkpoint file:  "Grambow2020_b97d3_007148_reverse_mol2.chk"
 Charge =  0 Multiplicity = 1

                         Standard orientation:
 ---------------------------------------------------------------------
 Center     Atomic      Atomic             Coordinates (Angstroms)
 Number     Number       Type             X           Y           Z
 ---------------------------------------------------------------------
      1          8           0       -2.105285   -0.397550    0.238723
      2          6           0       -0.952979   -0.090973    0.069142
      3          7           0        0.140385   -0.992805   -0.285414
      4          6           0        1.342028   -0.457782   -0.435454
      5          6           0        1.042850    0.983209   -0.139401
      6          8           0       -0.392014    1.131418    0.160558
      7          1           0       -0.072021   -1.983949   -0.403005
      8          1           0        4.041115   -1.305946    1.528782
      9          1           0        3.546627   -1.198285    0.977271
     10          1           0        1.277727    1.626218   -0.998464
     11          1           0        1.610852    1.333921    0.733344
 ---------------------------------------------------------------------

 SCF Done:  E(RHF) =  -320.756796462     A.U. after    2 cycles

 The electronic state is 1-A.
 Alpha  occ. eigenvalues --  -20.65123 -20.58942 -15.72335 -11.45790 -11.33748
 Alpha  occ. eigenvalues --  -11.31325  -1.45781  -1.36557  -1.25865  -1.03177
 Alpha  occ. eigenvalues --   -0.87838  -0.86486  -0.75485  -0.72609  -0.69100
 Alpha  occ. eigenvalues --   -0.61836  -0.60866  -0.60584  -0.58721  -0.53665
 Alpha  occ. eigenvalues --   -0.51983  -0.48989  -0.40864
 Alpha virt. eigenvalues --    0.03290   0.03969   0.04709   0.06303   0.07656
 Alpha virt. eigenvalues --    0.08456   0.09719   0.10165   0.10555   0.10803
 Alpha virt. eigenvalues --    0.12922   0.13706   0.14478   0.15666   0.16539

 Mulliken charges:
               1
     1  O   -0.374559
     2  C    0.846964
     3  N   -0.294669
     4  C   -0.144539
     5  C    0.783733
     6  O   -0.588815
     7  H   -0.050547
     8  H    0.002347
     9  H    0.010822
    10  H   -0.094315
    11  H   -0.096421
 Sum of Mulliken charges =  -0.00000

 Dipole moment (field-independent basis, Debye):
    X=              2.4240    Y=             -0.0099    Z=             -0.5612  Tot=              2.4881

 Test job not archived.
 1\1\GINC-SE036\SP\RHF\Aug-CC-pVDZ\C3H5N1O2\OHZDE\09-Apr-2025\0\\#t hf
 aug-cc-pvdz iop(5/13=1,5/36=2,99/5=2) pseudo=read geom=check guess=(re
 ad,tcheck) scf=(maxcycle=1)\\title\\0,1\O,0,2.92524481,0.25418219,-0.2
 7230763\C,0,1.73477651,0.3733681,-0.13397646\N,0,0.8616053,-0.49937606
 ,0.64726832\C,0,-0.42608587,-0.19379715,0.68163247\C,0,-0.4439072,1.02
 998796,-0.18764403\O,0,0.92453816,1.31849023,-0.65121692\H,0,1.2819520
 9,-1.29503309,1.12846348\H,0,-2.88946056,-2.27374515,-0.53009458\H,0,-
 2.42708069,-1.85729255,-0.11410657\H,0,-0.80728231,1.90800849,0.363404

 Normal termination of Gaussian 16 at Wed Apr  9 14:19:07 2025.
