 Gaussian 16, Revision C.01,

 ----------------------------------------------------------------------
 #t hf aug-cc-pvdz symm=none int=(grid=ultrafine) guess=(read,tcheck) s
 table=(opt,rrhf)
 ----------------------------------------------------------------------
 -----
 title
 -----
 Symbolic Z-matrix:
 Charge =  0 Multiplicity = 1

 SCF Done:  E(RHF) =  -305.689089441     A.U. after   14 cycles
 Normal termination of Gaussian 16 at Wed Apr  9 14:24:21 2025.
 Gaussian 16:  ES64L-G16RevC.01  3-Jul-2019

 ----------------------------------------------------------------------
 #t hf aug-cc-pvdz iop(5/13=1,5/36=2,99/5=2) pseudo=read geom=check gue
 ss=(read,tcheck) scf=(maxcycle=1)
 ----------------------------------------------------------------------
 -----
 title
 -----
 Structure from the checkpoint file:  "Grambow2020_wb97xd3_006221_forward_mol1.chk"
 Charge =  0 Multiplicity = 1

                         Standard orientation:
 ---------------------------------------------------------------------
 Center     Atomic      Atomic             Coordinates (Angstroms)
 Number     Number       Type             X           Y           Z
 ---------------------------------------------------------------------
      1          6           0       -2.116456   -0.150069    0.309870
      2          8           0       -0.984567   -0.391195   -0.499538
      3          6           0       -0.063213    0.689434   -0.499965
      4          6           0        0.715552    1.006847    0.722138
      5          6           0        1.353427    0.299673   -0.359835
      6          8           0        1.413520   -1.167079    0.216555
      7          1           0       -2.724215    0.662902   -0.102784
      8          1           0       -1.814551    0.112286    1.328564
      9          1           0       -2.708677   -1.064469    0.322625
     10          1           0       -0.316956    1.429436   -1.258236
     11          1           0        1.052363   -0.636849    1.080651
     12          1           0        0.957750    2.014544    1.027490
     13          1           0        2.191608    0.442723   -1.025367
     14          1           0        0.595197   -1.569694   -0.142331
 ---------------------------------------------------------------------

 SCF Done:  E(RHF) =  -305.787323937     A.U. after    2 cycles

 The electronic state is 1-A.
 Alpha  occ. eigenvalues --  -20.66051 -20.57947 -11.31112 -11.29155 -11.27942
 Alpha  occ. eigenvalues --  -11.18639  -1.41285  -1.33893  -1.12700  -0.93736
 Alpha  occ. eigenvalues --   -0.83105  -0.80751  -0.76858  -0.72644  -0.66955
 Alpha  occ. eigenvalues --   -0.63929  -0.62716  -0.62280  -0.59454  -0.51466
 Alpha  occ. eigenvalues --   -0.48135  -0.43780  -0.41692  -0.31664
 Alpha virt. eigenvalues --    0.03578   0.04243   0.04636   0.05412   0.06350
 Alpha virt. eigenvalues --    0.06942   0.07385   0.07965   0.11773   0.12552
 Alpha virt. eigenvalues --    0.12947   0.12985   0.14105   0.15032   0.15248

 Mulliken charges:
               1
     1  C    0.669109
     2  O   -0.778149
     3  C    1.042286
     4  C   -0.213348
     5  C    0.681252
     6  O   -0.539932
     7  H   -0.100254
     8  H   -0.025367
     9  H   -0.228392
    10  H   -0.455417
    11  H    0.485674
    12  H   -0.456542
    13  H   -0.420666
    14  H    0.339745
 Sum of Mulliken charges =  -0.00000

 Dipole moment (field-independent basis, Debye):
    X=             -0.3968    Y=             -0.4286    Z=             -0.9274  Tot=              1.0960

 Test job not archived.
 1\1\GINC-SE168\SP\RHF\Aug-CC-pVDZ\C4H8O2\OHZDE\09-Apr-2025\0\\#t hf au
 g-cc-pvdz iop(5/13=1,5/36=2,99/5=2) pseudo=read geom=check guess=(read
 ,tcheck) scf=(maxcycle=1)\\title\\0,1\C,0,1.64188821,-0.47069031,-0.98
 609809\O,0,0.33584167,0.06044317,-1.06731294\C,0,-0.57249128,-0.562518
 83,-0.17092988\C,0,-0.43808872,-0.35523717,1.291852\C,0,-1.45435448,0.
 36397916,0.56550549\O,0,-0.82788995,1.80974125,0.49834722\H,0,1.661851
 39,-1.50998482,-1.33257247\H,0,2.01221599,-0.43084193,0.04297049\H,0,2
 .27923682,0.13123417,-1.63300593\H,0,-1.02041558,-1.45249851,-0.611683

 Normal termination of Gaussian 16 at Wed Apr  9 14:24:25 2025.
