 Gaussian 16, Revision C.01,

 ----------------------------------------------------------------------
 #t hf aug-cc-pvdz symm=none int=(grid=ultrafine) guess=(read,tcheck) s
 table=(opt,rrhf)
 ----------------------------------------------------------------------
 -----
 title
 -----
 Symbolic Z-matrix:
 Charge =  0 Multiplicity = 1

 SCF Done:  E(RHF) =  -260.189386674     A.U. after   16 cycles
 Normal termination of Gaussian 16 at Wed Apr  9 03:02:32 2025.
 Gaussian 16:  ES64L-G16RevC.01  3-Jul-2019

 ----------------------------------------------------------------------
 #t hf aug-cc-pvdz iop(5/13=1,5/36=2,99/5=2) pseudo=read geom=check gue
 ss=(read,tcheck) scf=(maxcycle=1)
 ----------------------------------------------------------------------
 -----
 title
 -----
 Structure from the checkpoint file:  "Grambow2020_b97d3_006470_reverse_mol2.chk"
 Charge =  0 Multiplicity = 1

                         Standard orientation:
 ---------------------------------------------------------------------
 Center     Atomic      Atomic             Coordinates (Angstroms)
 Number     Number       Type             X           Y           Z
 ---------------------------------------------------------------------
      1          6           0        0.079835    0.427843    0.000407
      2          6           0       -0.147371    1.762706   -0.000289
      3          6           0        2.353442   -0.756558   -0.000195
      4          7           0        1.284420   -0.225195    0.000021
      5          6           0       -1.180515   -0.257338    0.000445
      6          7           0       -2.231899   -0.783365   -0.000336
 ---------------------------------------------------------------------

 SCF Done:  E(RHF) =  -260.261366162     A.U. after    2 cycles

 The electronic state is 1-A.
 Alpha  occ. eigenvalues --  -15.73137 -15.70339 -11.40845 -11.40416 -11.36739
 Alpha  occ. eigenvalues --  -11.35019  -1.31027  -1.23378  -1.14759  -0.93866
 Alpha  occ. eigenvalues --   -0.86038  -0.63608  -0.60156  -0.58105  -0.53797
 Alpha  occ. eigenvalues --   -0.53229  -0.52153  -0.50879  -0.42623
 Alpha virt. eigenvalues --   -0.01769   0.02386   0.05730   0.06108   0.07280
 Alpha virt. eigenvalues --    0.07557   0.08895   0.09666   0.10814   0.11847
 Alpha virt. eigenvalues --    0.12562   0.13227   0.14934   0.15526   0.15828

 Mulliken charges:
               1
     1  C    1.080177
     2  C    0.014581
     3  C   -0.138819
     4  N   -0.407494
     5  C   -0.404873
     6  N   -0.143572
 Sum of Mulliken charges =  -0.00000

 Dipole moment (field-independent basis, Debye):
    X=              1.1472    Y=              1.1038    Z=              0.0015  Tot=              1.5920

 Test job not archived.
 1\1\GINC-SE186\SP\RHF\Aug-CC-pVDZ\C4N2\OHZDE\09-Apr-2025\0\\#t hf aug-
 cc-pvdz iop(5/13=1,5/36=2,99/5=2) pseudo=read geom=check guess=(read,t
 check) scf=(maxcycle=1)\\title\\0,1\C,0,0.08550075,0.05425492,0.396192
 57\C,0,-0.05396416,0.25337281,1.72825303\C,0,2.27588303,-0.20396731,-0
 .91057427\N,0,1.24432768,-0.08610913,-0.3213725\C,0,-1.21628116,0.0073
 5824,-0.2047407\N,0,-2.29922914,-0.02449753,-0.66116314\\Version=ES64L
 -G16RevC.01\State=1-A\HF=-260.2613662\RMSD=4.325e-03\Dipole=0.4784994,
 0.0429952,0.4018597\Quadrupole=-4.0394675,3.3203955,0.719072,0.3270963

 Normal termination of Gaussian 16 at Wed Apr  9 03:02:34 2025.
