 Gaussian 16, Revision C.01,

 ----------------------------------------------------------------------
 #t hf aug-cc-pvdz symm=none int=(grid=ultrafine) guess=(read,tcheck) s
 table=(opt,rrhf)
 ----------------------------------------------------------------------
 -----
 title
 -----
 Symbolic Z-matrix:
 Charge =  0 Multiplicity = 1

 SCF Done:  E(RHF) =  -360.831555787     A.U. after   15 cycles
 Normal termination of Gaussian 16 at Wed Apr  9 14:46:54 2025.
 Gaussian 16:  ES64L-G16RevC.01  3-Jul-2019

 ----------------------------------------------------------------------
 #t hf aug-cc-pvdz iop(5/13=1,5/36=2,99/5=2) pseudo=read geom=check gue
 ss=(read,tcheck) scf=(maxcycle=1)
 ----------------------------------------------------------------------
 -----
 title
 -----
 Structure from the checkpoint file:  "Grambow2020_wb97xd3_006613_reverse_mol1.chk"
 Charge =  0 Multiplicity = 1

                         Standard orientation:
 ---------------------------------------------------------------------
 Center     Atomic      Atomic             Coordinates (Angstroms)
 Number     Number       Type             X           Y           Z
 ---------------------------------------------------------------------
      1          6           0       -2.470355   -0.518771   -0.097299
      2          6           0       -1.057840    0.019624   -0.283334
      3          8           0       -1.065746    1.449016   -0.075137
      4          6           0       -0.067470   -0.694699    0.603296
      5          7           0        1.150771   -1.091414   -0.046839
      6          6           0        2.076676   -0.210466   -0.263396
      7          8           0        1.892413    1.006573    0.128091
      8          1           0       -2.542321   -1.555283   -0.433388
      9          1           0       -3.186052    0.083371   -0.657852
     10          1           0       -2.750953   -0.488058    0.959953
     11          1           0       -0.778384   -0.065907   -1.341149
     12          1           0       -1.217278    1.574857    0.866458
     13          1           0        1.022182    0.946831    0.648395
     14          1           0       -0.481564   -1.556520    1.117489
     15          1           0        1.360831   -2.052504   -0.280513
     16          1           0        3.018738   -0.465730   -0.730755
 ---------------------------------------------------------------------

 SCF Done:  E(RHF) =  -360.945259324     A.U. after    2 cycles

 The electronic state is 1-A.
 Alpha  occ. eigenvalues --  -20.63699 -20.54103 -15.70953 -11.40574 -11.26905
 Alpha  occ. eigenvalues --  -11.20842 -11.19290  -1.43623  -1.29319  -1.25018
 Alpha  occ. eigenvalues --   -1.01242  -0.94717  -0.86395  -0.82135  -0.79657
 Alpha  occ. eigenvalues --   -0.72500  -0.66374  -0.65439  -0.62628  -0.60936
 Alpha  occ. eigenvalues --   -0.58456  -0.57914  -0.52737  -0.51341  -0.48752
 Alpha  occ. eigenvalues --   -0.45672  -0.42581  -0.27005
 Alpha virt. eigenvalues --    0.01986   0.03905   0.04851   0.05039   0.06729
 Alpha virt. eigenvalues --    0.06907   0.07522   0.07790   0.09174   0.09431
 Alpha virt. eigenvalues --    0.10912   0.12944   0.13230   0.13670   0.14697

 Mulliken charges:
               1
     1  C    0.480782
     2  C    0.289600
     3  O   -0.629913
     4  C    0.169407
     5  N   -0.080137
     6  C    0.822661
     7  O   -0.379819
     8  H    0.002110
     9  H   -0.048227
    10  H   -0.046048
    11  H   -0.316437
    12  H    0.157715
    13  H    0.324222
    14  H   -0.490136
    15  H   -0.051610
    16  H   -0.204170
 Sum of Mulliken charges =  -0.00000

 Dipole moment (field-independent basis, Debye):
    X=              3.0364    Y=             -3.8124    Z=             -1.0281  Tot=              4.9811

 Test job not archived.
 1\1\GINC-SE114\SP\RHF\Aug-CC-pVDZ\C4H9N1O2\OHZDE\09-Apr-2025\0\\#t hf
 aug-cc-pvdz iop(5/13=1,5/36=2,99/5=2) pseudo=read geom=check guess=(re
 ad,tcheck) scf=(maxcycle=1)\\title\\0,1\C,0,-1.88963325,-0.93854525,-0
 .50012036\C,0,-0.61179297,-0.11290078,-0.57162689\O,0,-0.92619836,1.20
 110196,-1.08261963\C,0,0.09836547,-0.06800749,0.75911014\N,0,1.5156766
 4,-0.29499004,0.69684221\C,0,2.30115269,0.66375627,0.31723804\O,0,1.79
 362023,1.81366232,0.01970401\H,0,-1.66693122,-1.98957883,-0.30460781\H
 ,0,-2.44548234,-0.8647195,-1.43532088\H,0,-2.53058706,-0.57473618,0.30

 Normal termination of Gaussian 16 at Wed Apr  9 14:47:00 2025.
