 Gaussian 16, Revision C.01,

 ----------------------------------------------------------------------
 #t hf aug-cc-pvdz symm=none int=(grid=ultrafine) guess=(read,tcheck) s
 table=(opt,rrhf)
 ----------------------------------------------------------------------
 -----
 title
 -----
 Symbolic Z-matrix:
 Charge =  0 Multiplicity = 1

 SCF Done:  E(RHF) =  -338.588060456     A.U. after   16 cycles
 Normal termination of Gaussian 16 at Wed Apr  9 03:46:46 2025.
 Gaussian 16:  ES64L-G16RevC.01  3-Jul-2019

 ----------------------------------------------------------------------
 #t hf aug-cc-pvdz iop(5/13=1,5/36=2,99/5=2) pseudo=read geom=check gue
 ss=(read,tcheck) scf=(maxcycle=1)
 ----------------------------------------------------------------------
 -----
 title
 -----
 Structure from the checkpoint file:  "Grambow2020_wb97xd3_007971_reverse_mol2.chk"
 Charge =  0 Multiplicity = 1

                         Standard orientation:
 ---------------------------------------------------------------------
 Center     Atomic      Atomic             Coordinates (Angstroms)
 Number     Number       Type             X           Y           Z
 ---------------------------------------------------------------------
      1          7           0       -1.405424   -1.380434    0.021486
      2          6           0       -0.856147   -0.169607    0.035564
      3          8           0       -1.495638    0.902751    0.055897
      4          6           0        0.049565    1.715404   -0.230652
      5          6           0        0.537564    0.275412   -0.045355
      6          6           0        1.664005   -0.352675    0.690488
      7          7           0        1.613872   -0.378563   -0.763687
      8          1           0       -0.836985   -2.206449    0.038034
      9          1           0       -2.406656   -1.475145    0.029487
     10          1           0        0.115333    2.216394    0.747696
     11          1           0        1.491128   -1.267274    1.251907
     12          1           0        2.422089    0.299379    1.108394
     13          1           0        1.351124   -1.287145   -1.127554
 ---------------------------------------------------------------------

 SCF Done:  E(RHF) =  -338.688334626     A.U. after    2 cycles

 The electronic state is 1-A.
 Alpha  occ. eigenvalues --  -20.60001 -15.70201 -15.64574 -11.40755 -11.29460
 Alpha  occ. eigenvalues --  -11.29021 -11.23815  -1.41475  -1.26520  -1.23718
 Alpha  occ. eigenvalues --   -0.98812  -0.89657  -0.88460  -0.78360  -0.75423
 Alpha  occ. eigenvalues --   -0.74500  -0.68038  -0.65367  -0.60603  -0.57529
 Alpha  occ. eigenvalues --   -0.53160  -0.48545  -0.48042  -0.46171  -0.41542
 Alpha  occ. eigenvalues --   -0.30444
 Alpha virt. eigenvalues --    0.01205   0.03328   0.04041   0.05173   0.06545
 Alpha virt. eigenvalues --    0.06786   0.09756   0.10653   0.11138   0.11327
 Alpha virt. eigenvalues --    0.11814   0.12859   0.13460   0.14716   0.15830

 Mulliken charges:
               1
     1  N   -0.070477
     2  C    0.508319
     3  O   -0.547432
     4  C   -0.132488
     5  C    0.355784
     6  C    1.099831
     7  N   -0.604435
     8  H   -0.006962
     9  H   -0.025100
    10  H   -0.064177
    11  H   -0.264185
    12  H   -0.226042
    13  H   -0.022638
 Sum of Mulliken charges =  -0.00000

 Dipole moment (field-independent basis, Debye):
    X=             -0.7850    Y=             -7.2908    Z=              2.7096  Tot=              7.8175

 Test job not archived.
 1\1\GINC-SE044\SP\RHF\Aug-CC-pVDZ\C4H6N2O1\OHZDE\09-Apr-2025\0\\#t hf
 aug-cc-pvdz iop(5/13=1,5/36=2,99/5=2) pseudo=read geom=check guess=(re
 ad,tcheck) scf=(maxcycle=1)\\title\\0,1\N,0,1.78902776,-0.77781386,-0.
 33840052\C,0,1.00382978,0.24172073,-0.00370867\O,0,1.40897194,1.382417
 23,0.30285871\C,0,-0.2545045,1.73441383,0.79184835\C,0,-0.44604373,0.3
 42113,0.18286173\C,0,-1.45362812,-0.26542022,-0.72295492\N,0,-1.331015
 23,-0.70269972,0.65963682\H,0,1.40127723,-1.66294945,-0.60650971\H,0,2
 .78697771,-0.65451327,-0.35824225\H,0,-0.46715837,2.47332218,0.0036390

 Normal termination of Gaussian 16 at Wed Apr  9 03:46:50 2025.
