 Gaussian 16, Revision C.01,

 ----------------------------------------------------------------------
 #t hf aug-cc-pvdz symm=none int=(grid=ultrafine) guess=(read,tcheck) s
 table=(opt,rrhf)
 ----------------------------------------------------------------------
 -----
 title
 -----
 Symbolic Z-matrix:
 Charge =  0 Multiplicity = 1

 SCF Done:  E(RHF) =  -302.643641301     A.U. after   20 cycles
 Normal termination of Gaussian 16 at Wed Apr  9 04:05:59 2025.
 Gaussian 16:  ES64L-G16RevC.01  3-Jul-2019

 ----------------------------------------------------------------------
 #t hf aug-cc-pvdz iop(5/13=1,5/36=2,99/5=2) pseudo=read geom=check gue
 ss=(read,tcheck) scf=(maxcycle=1)
 ----------------------------------------------------------------------
 -----
 title
 -----
 Structure from the checkpoint file:  "Grambow2020_wb97xd3_009335_reverse_mol1.chk"
 Charge =  0 Multiplicity = 1

                         Standard orientation:
 ---------------------------------------------------------------------
 Center     Atomic      Atomic             Coordinates (Angstroms)
 Number     Number       Type             X           Y           Z
 ---------------------------------------------------------------------
      1          6           0        2.241361   -0.899304   -0.175734
      2          7           0        1.158273    0.074978    0.061065
      3          6           0       -0.017195   -0.408156    0.621656
      4          6           0       -1.301295    0.071466    0.036898
      5          6           0       -2.497620   -0.736159   -0.316244
      6          6           0       -0.884320    1.272975    0.170042
      7          7           0        1.225179    1.241763   -0.334042
      8          1           0        3.177479   -0.357271   -0.266033
      9          1           0        2.030762   -1.452781   -1.090385
     10          1           0        2.291628   -1.595016    0.662021
     11          1           0        0.028423   -1.076397    1.473017
     12          1           0       -2.810562   -1.340260    0.537725
     13          1           0       -2.256668   -1.421650   -1.132282
     14          1           0       -3.330163   -0.099954   -0.614413
     15          1           0       -1.060646    2.321213    0.321483
 ---------------------------------------------------------------------

 SCF Done:  E(RHF) =  -302.734059324     A.U. after    2 cycles

 The electronic state is 1-A.
 Alpha  occ. eigenvalues --  -15.72451 -15.61227 -11.28945 -11.27499 -11.26463
 Alpha  occ. eigenvalues --  -11.26371 -11.24738  -1.32364  -1.11669  -1.02080
 Alpha  occ. eigenvalues --   -0.97710  -0.92099  -0.77380  -0.72615  -0.68677
 Alpha  occ. eigenvalues --   -0.64361  -0.61618  -0.60083  -0.58510  -0.57925
 Alpha  occ. eigenvalues --   -0.54218  -0.52300  -0.48186  -0.40138  -0.33887
 Alpha  occ. eigenvalues --   -0.25395
 Alpha virt. eigenvalues --    0.03067   0.03480   0.04135   0.04726   0.06241
 Alpha virt. eigenvalues --    0.06722   0.07425   0.08217   0.09008   0.11112
 Alpha virt. eigenvalues --    0.11317   0.12249   0.13049   0.14012   0.14602

 Mulliken charges:
               1
     1  C    0.851713
     2  N   -0.201565
     3  C    0.475824
     4  C   -0.259441
     5  C    0.347305
     6  C    0.577584
     7  N   -0.557036
     8  H   -0.192775
     9  H   -0.081019
    10  H   -0.120789
    11  H   -0.458181
    12  H    0.048295
    13  H    0.046521
    14  H   -0.032460
    15  H   -0.443976
 Sum of Mulliken charges =  -0.00000

 Dipole moment (field-independent basis, Debye):
    X=             -1.3219    Y=             -2.3344    Z=              0.8081  Tot=              2.8018

 Test job not archived.
 1\1\GINC-SE143\SP\RHF\Aug-CC-pVDZ\C5H8N2\OHZDE\09-Apr-2025\0\\#t hf au
 g-cc-pvdz iop(5/13=1,5/36=2,99/5=2) pseudo=read geom=check guess=(read
 ,tcheck) scf=(maxcycle=1)\\title\\0,1\C,0,-2.39371094,-0.51978959,-0.1
 875646\N,0,-1.26840223,0.4314648,-0.10286978\C,0,-0.05450742,0.0266674
 8,-0.64324374\C,0,1.17521002,0.30906344,0.14981361\C,0,2.3092154,-0.61
 014428,0.42775285\C,0,0.80376538,1.52899963,0.24469058\N,0,-1.3460793,
 1.48748658,0.5301847\H,0,-3.32044563,0.03274833,-0.06866849\H,0,-2.290
 65896,-1.26652659,0.5992248\H,0,-2.37604219,-1.01550241,-1.15830306\H,

 Normal termination of Gaussian 16 at Wed Apr  9 04:06:05 2025.
