 Gaussian 16, Revision C.01,

 ----------------------------------------------------------------------
 #t hf aug-cc-pvdz symm=none int=(grid=ultrafine) guess=(read,tcheck) s
 table=(opt,rrhf)
 ----------------------------------------------------------------------
 -----
 title
 -----
 Symbolic Z-matrix:
 Charge =  0 Multiplicity = 1

 SCF Done:  E(RHF) =  -268.832749153     A.U. after   14 cycles
 Normal termination of Gaussian 16 at Wed Apr  9 03:14:59 2025.
 Gaussian 16:  ES64L-G16RevC.01  3-Jul-2019

 ----------------------------------------------------------------------
 #t hf aug-cc-pvdz iop(5/13=1,5/36=2,99/5=2) pseudo=read geom=check gue
 ss=(read,tcheck) scf=(maxcycle=1)
 ----------------------------------------------------------------------
 -----
 title
 -----
 Structure from the checkpoint file:  "Grambow2020_b97d3_007033_reverse_mol2.chk"
 Charge =  0 Multiplicity = 1

                         Standard orientation:
 ---------------------------------------------------------------------
 Center     Atomic      Atomic             Coordinates (Angstroms)
 Number     Number       Type             X           Y           Z
 ---------------------------------------------------------------------
      1          6           0        2.453608    0.307797    0.007034
      2          6           0        1.281142   -0.631883   -0.000635
      3          6           0        0.010475   -0.217453   -0.017725
      4          6           0       -0.760150    1.091312   -0.010907
      5          6           0       -1.999602    0.170153    0.019257
      6          8           0       -1.142269   -1.016118   -0.008536
      7          1           0        3.107554    0.147614   -0.864950
      8          1           0        2.121120    1.355680   -0.011283
      9          1           0        3.075122    0.169804    0.906456
     10          1           0       -0.621322    1.721972    0.876598
     11          1           0       -0.660263    1.707166   -0.913782
     12          1           0       -2.601294    0.205659    0.938123
     13          1           0       -2.654798    0.210223   -0.861636
     14          1           0        1.459198   -1.708722    0.016617
 ---------------------------------------------------------------------

 SCF Done:  E(RHF) =  -268.917009766     A.U. after    2 cycles

 The electronic state is 1-A.
 Alpha  occ. eigenvalues --  -20.58387 -11.30369 -11.30111 -11.25590 -11.23449
 Alpha  occ. eigenvalues --  -11.22394  -1.36093  -1.04947  -1.01185  -0.92846
 Alpha  occ. eigenvalues --   -0.84050  -0.72581  -0.68207  -0.66479  -0.64643
 Alpha  occ. eigenvalues --   -0.56490  -0.55223  -0.53971  -0.53135  -0.50548
 Alpha  occ. eigenvalues --   -0.49515  -0.48353  -0.32580
 Alpha virt. eigenvalues --    0.03388   0.04099   0.04728   0.05002   0.06352
 Alpha virt. eigenvalues --    0.06506   0.07553   0.07816   0.09049   0.12470
 Alpha virt. eigenvalues --    0.12794   0.13348   0.13771   0.15481   0.15667

 Mulliken charges:
               1
     1  C    0.260730
     2  C    0.349471
     3  C    0.105213
     4  C    0.021789
     5  C    0.942249
     6  O   -0.841349
     7  H    0.054912
     8  H   -0.099106
     9  H    0.057641
    10  H   -0.022002
    11  H   -0.010457
    12  H   -0.194445
    13  H   -0.193529
    14  H   -0.431117
 Sum of Mulliken charges =  -0.00000

 Dipole moment (field-independent basis, Debye):
    X=             -0.3215    Y=              2.4124    Z=              0.0492  Tot=              2.4342

 Test job not archived.
 1\1\GINC-SE459\SP\RHF\Aug-CC-pVDZ\C5H8O1\OHZDE\09-Apr-2025\0\\#t hf au
 g-cc-pvdz iop(5/13=1,5/36=2,99/5=2) pseudo=read geom=check guess=(read
 ,tcheck) scf=(maxcycle=1)\\title\\0,1\C,0,2.16625058,0.38990789,-0.372
 69035\C,0,0.96377655,0.92152834,0.35475134\C,0,-0.2334647,0.32806742,0
 .32224985\C,0,-0.88695612,-0.88203755,-0.32224131\C,0,-2.1619282,-0.35
 773739,0.37434947\O,0,-1.41058364,0.75814167,0.95169249\H,0,2.99415871
 ,0.16869982,0.31962051\H,0,1.92434947,-0.53668603,-0.91292192\H,0,2.54
 621333,1.11668029,-1.1087003\H,0,-0.9161944,-0.88056598,-1.4194255\H,0

 Normal termination of Gaussian 16 at Wed Apr  9 03:15:03 2025.
