 Gaussian 16, Revision C.01,

 ----------------------------------------------------------------------
 #t hf aug-cc-pvdz symm=none int=(grid=ultrafine) guess=(read,tcheck) s
 table=(opt,rrhf)
 ----------------------------------------------------------------------
 -----
 title
 -----
 Symbolic Z-matrix:
 Charge =  0 Multiplicity = 1

 SCF Done:  E(RHF) =  -375.685222910     A.U. after   14 cycles
 Normal termination of Gaussian 16 at Wed Apr  9 16:11:00 2025.
 Gaussian 16:  ES64L-G16RevC.01  3-Jul-2019

 ----------------------------------------------------------------------
 #t hf aug-cc-pvdz iop(5/13=1,5/36=2,99/5=2) pseudo=read geom=check gue
 ss=(read,tcheck) scf=(maxcycle=1)
 ----------------------------------------------------------------------
 -----
 title
 -----
 Structure from the checkpoint file:  "Grambow2020_wb97xd3_007911_reverse_mol1.chk"
 Charge =  0 Multiplicity = 1

                         Standard orientation:
 ---------------------------------------------------------------------
 Center     Atomic      Atomic             Coordinates (Angstroms)
 Number     Number       Type             X           Y           Z
 ---------------------------------------------------------------------
      1          6           0       -2.482721   -0.791961    0.002982
      2          8           0       -1.056660   -0.802093   -0.004665
      3          6           0       -0.447055    0.359878   -0.002061
      4          7           0       -0.926556    1.574700    0.004329
      5          7           0        0.886172    0.517450   -0.005715
      6          6           0        1.817569   -0.480699    0.001050
      7          8           0        3.008614   -0.303530    0.002848
      8          1           0       -2.789368   -1.833970    0.008715
      9          1           0       -2.865075   -0.300962   -0.893678
     10          1           0       -2.854814   -0.293367    0.899678
     11          1           0       -1.899553    1.827742   -0.005324
     12          1           0        0.371129    1.774243   -0.000965
     13          1           0        1.377992   -1.497060    0.004000
 ---------------------------------------------------------------------

 SCF Done:  E(RHF) =  -375.805745073     A.U. after    2 cycles

 The electronic state is 1-A.
 Alpha  occ. eigenvalues --  -20.66475 -20.53420 -15.64163 -15.62575 -11.42882
 Alpha  occ. eigenvalues --  -11.35334 -11.34054  -1.45714  -1.34159  -1.27409
 Alpha  occ. eigenvalues --   -1.13523  -1.01885  -0.89152  -0.82612  -0.74792
 Alpha  occ. eigenvalues --   -0.74166  -0.72941  -0.65889  -0.63843  -0.60391
 Alpha  occ. eigenvalues --   -0.59580  -0.56668  -0.54912  -0.48719  -0.47331
 Alpha  occ. eigenvalues --   -0.41940  -0.37320
 Alpha virt. eigenvalues --    0.01763   0.03448   0.04343   0.05209   0.06237
 Alpha virt. eigenvalues --    0.07130   0.08769   0.09346   0.12497   0.12968
 Alpha virt. eigenvalues --    0.13451   0.13671   0.14528   0.14611   0.14912

 Mulliken charges:
               1
     1  C    0.809925
     2  O   -0.519348
     3  C    0.611653
     4  N   -0.314442
     5  N   -0.737750
     6  C    0.718260
     7  O   -0.488845
     8  H   -0.248432
     9  H   -0.075646
    10  H   -0.074820
    11  H   -0.030414
    12  H    0.545632
    13  H   -0.195773
 Sum of Mulliken charges =   0.00000

 Dipole moment (field-independent basis, Debye):
    X=             -8.3361    Y=             -0.5702    Z=             -0.0055  Tot=              8.3555

 Test job not archived.
 1\1\GINC-SE174\SP\RHF\Aug-CC-pVDZ\C3H6N2O2\OHZDE\09-Apr-2025\0\\#t hf
 aug-cc-pvdz iop(5/13=1,5/36=2,99/5=2) pseudo=read geom=check guess=(re
 ad,tcheck) scf=(maxcycle=1)\\title\\0,1\C,0,-1.67114459,0.55240284,-0.
 84248724\O,0,-0.87949566,0.20609376,0.29204879\C,0,0.38695947,-0.06507
 349,0.0814293\N,0,1.08419218,-0.07872373,-1.02285125\N,0,1.26060421,-0
 .40391291,1.04281863\C,0,0.99252364,-0.50925432,2.37731607\O,0,1.80308
 457,-0.81109334,3.21508987\H,0,-2.67010249,0.74612509,-0.4624823\H,0,-
 1.70198637,-0.27579172,-1.55270944\H,0,-1.27801101,1.45125066,-1.32063

 Normal termination of Gaussian 16 at Wed Apr  9 16:11:04 2025.
