 Gaussian 16, Revision C.01,

 ----------------------------------------------------------------------
 #t hf aug-cc-pvdz symm=none int=(grid=ultrafine) guess=(read,tcheck) s
 table=(opt,rrhf)
 ----------------------------------------------------------------------
 -----
 title
 -----
 Symbolic Z-matrix:
 Charge =  0 Multiplicity = 1

 SCF Done:  E(RHF) =  -345.867291917     A.U. after   15 cycles

 1\1\GINC-SE229\Stability\RHF\Aug-CC-pVDZ\C5H12O2\OHZDE\09-Apr-2025\0\\
 #t hf aug-cc-pvdz symm=none int=(grid=ultrafine) guess=(read,tcheck) s
 table=(opt,rrhf)\\title\\0,1\C,0,1.05534446,0.91985284,-0.25016995\C,0
 ,2.07203363,-0.14722177,-0.00108232\O,0,1.68279111,-1.39854703,-0.5836
 6473\C,0,0.41433885,-1.76813236,-0.17350789\C,0,-0.6772589,-0.86577183
 ,-0.60714591\O,0,-1.33687453,0.54722653,0.7807297\C,0,-2.28869699,1.42
 382951,0.22570791\H,0,-0.3560827,0.79371611,0.43596617\H,0,1.04183702,
 1.255507,-1.28884638\H,0,1.23260867,1.77973168,0.40292727\H,0,2.217555

 Normal termination of Gaussian 16 at Wed Apr  9 17:09:49 2025.
 Gaussian 16:  ES64L-G16RevC.01  3-Jul-2019

 ----------------------------------------------------------------------
 #t hf aug-cc-pvdz iop(5/13=1,5/36=2,99/5=2) pseudo=read geom=check gue
 ss=(read,tcheck) scf=(maxcycle=1)
 ----------------------------------------------------------------------
 -----
 title
 -----
 Structure from the checkpoint file:  "Grambow2020_wb97xd3_009169_reverse_mol1.chk"
 Charge =  0 Multiplicity = 1

                         Standard orientation:
 ---------------------------------------------------------------------
 Center     Atomic      Atomic             Coordinates (Angstroms)
 Number     Number       Type             X           Y           Z
 ---------------------------------------------------------------------
      1          6           0       -0.361201    1.371098    0.281562
      2          6           0       -1.720832    1.003054   -0.218733
      3          8           0       -2.084999   -0.330245    0.163921
      4          6           0       -1.115623   -1.241660   -0.214797
      5          6           0        0.200534   -1.073496    0.443483
      6          8           0        1.663750   -0.041054   -0.629327
      7          6           0        2.829309    0.161990    0.134016
      8          1           0        0.890904    0.626935   -0.316163
      9          1           0       -0.338110    1.531832    1.361065
     10          1           0        0.003780    2.270610   -0.223429
     11          1           0       -1.759065    1.074749   -1.315986
     12          1           0       -2.530680    1.619182    0.181293
     13          1           0       -1.480277   -2.231792    0.096612
     14          1           0       -0.975534   -1.284343   -1.306428
     15          1           0        0.208963   -0.740892    1.471848
     16          1           0        0.910557   -1.857815    0.211294
     17          1           0        3.327271   -0.796483    0.303825
     18          1           0        2.593577    0.617012    1.104483
     19          1           0        3.525475    0.815494   -0.398357
 ---------------------------------------------------------------------

 SCF Done:  E(RHF) =  -345.979316273     A.U. after    2 cycles

 The electronic state is 1-A.
 Alpha  occ. eigenvalues --  -20.56942 -20.55766 -11.36362 -11.31513 -11.28021
 Alpha  occ. eigenvalues --  -11.26466 -11.16806  -1.34509  -1.30497  -1.05545
 Alpha  occ. eigenvalues --   -0.97939  -0.91533  -0.86016  -0.80094  -0.70202
 Alpha  occ. eigenvalues --   -0.68820  -0.67165  -0.66458  -0.61853  -0.61539
 Alpha  occ. eigenvalues --   -0.59348  -0.55857  -0.54336  -0.50571  -0.49882
 Alpha  occ. eigenvalues --   -0.47594  -0.44440  -0.43381  -0.29059
 Alpha virt. eigenvalues --    0.02785   0.04257   0.04524   0.04897   0.05739
 Alpha virt. eigenvalues --    0.06087   0.06445   0.06665   0.07093   0.07822
 Alpha virt. eigenvalues --    0.09094   0.09677   0.11118   0.12418   0.13495

 Mulliken charges:
               1
     1  C    0.052200
     2  C    0.625064
     3  O   -0.646025
     4  C    0.652244
     5  C    0.688255
     6  O   -0.744006
     7  C    0.812904
     8  H    0.475393
     9  H   -0.292497
    10  H   -0.168836
    11  H   -0.109685
    12  H   -0.252559
    13  H   -0.117364
    14  H   -0.002797
    15  H   -0.108346
    16  H   -0.328452
    17  H   -0.162619
    18  H   -0.145977
    19  H   -0.226897
 Sum of Mulliken charges =  -0.00000

 Dipole moment (field-independent basis, Debye):
    X=              1.6128    Y=             -2.6019    Z=              1.0219  Tot=              3.2273

 Test job not archived.
 1\1\GINC-SE229\SP\RHF\Aug-CC-pVDZ\C5H12O2\OHZDE\09-Apr-2025\0\\#t hf a
 ug-cc-pvdz iop(5/13=1,5/36=2,99/5=2) pseudo=read geom=check guess=(rea
 d,tcheck) scf=(maxcycle=1)\\title\\0,1\C,0,1.05534446,0.91985284,-0.25
 016995\C,0,2.07203363,-0.14722177,-0.00108232\O,0,1.68279111,-1.398547
 03,-0.58366473\C,0,0.41433885,-1.76813236,-0.17350789\C,0,-0.6772589,-
 0.86577183,-0.60714591\O,0,-1.33687453,0.54722653,0.7807297\C,0,-2.288
 69699,1.42382951,0.22570791\H,0,-0.3560827,0.79371611,0.43596617\H,0,1
 .04183702,1.255507,-1.28884638\H,0,1.23260867,1.77973168,0.40292727\H,

 Normal termination of Gaussian 16 at Wed Apr  9 17:09:56 2025.
