 Gaussian 16, Revision C.01,

 ----------------------------------------------------------------------
 #t hf aug-cc-pvdz symm=none int=(grid=ultrafine) guess=(read,tcheck) s
 table=(opt,rrhf)
 ----------------------------------------------------------------------
 -----
 title
 -----
 Symbolic Z-matrix:
 Charge =  0 Multiplicity = 1

 SCF Done:  E(RHF) =  -353.432770387     A.U. after   17 cycles
 Normal termination of Gaussian 16 at Wed Apr  9 14:26:14 2025.
 Gaussian 16:  ES64L-G16RevC.01  3-Jul-2019

 ----------------------------------------------------------------------
 #t hf aug-cc-pvdz iop(5/13=1,5/36=2,99/5=2) pseudo=read geom=check gue
 ss=(read,tcheck) scf=(maxcycle=1)
 ----------------------------------------------------------------------
 -----
 title
 -----
 Structure from the checkpoint file:  "Grambow2020_wb97xd3_006535_forward_mol1.chk"
 Charge =  0 Multiplicity = 1

                         Standard orientation:
 ---------------------------------------------------------------------
 Center     Atomic      Atomic             Coordinates (Angstroms)
 Number     Number       Type             X           Y           Z
 ---------------------------------------------------------------------
      1          8           0        2.183960    0.030166    0.264870
      2          6           0        1.023743    0.042998   -0.035743
      3          7           0        0.317222   -1.141452   -0.309768
      4          7           0       -1.025569   -1.124194   -0.046002
      5          6           0       -1.681652   -0.039275    0.234751
      6          6           0       -0.986824    1.180847   -0.014783
      7          7           0        0.285602    1.222333   -0.209331
      8          1           0       -0.373457   -2.033463    0.324454
      9          1           0       -2.722546   -0.121460    0.510702
     10          1           0       -1.548068    2.109358   -0.103748
 ---------------------------------------------------------------------

 SCF Done:  E(RHF) =  -353.535540052     A.U. after    2 cycles

 The electronic state is 1-A.
 Alpha  occ. eigenvalues --  -20.54729 -15.77008 -15.70352 -15.67155 -11.39796
 Alpha  occ. eigenvalues --  -11.34841 -11.33723  -1.40388  -1.34975  -1.23732
 Alpha  occ. eigenvalues --   -1.13172  -0.95279  -0.93900  -0.79140  -0.75584
 Alpha  occ. eigenvalues --   -0.69535  -0.68108  -0.63501  -0.59191  -0.55668
 Alpha  occ. eigenvalues --   -0.53031  -0.49677  -0.47802  -0.41584  -0.36951
 Alpha virt. eigenvalues --    0.01701   0.02675   0.03248   0.04884   0.07840
 Alpha virt. eigenvalues --    0.08861   0.09492   0.10059   0.11367   0.12336
 Alpha virt. eigenvalues --    0.12968   0.13277   0.13891   0.13984   0.15454

 Mulliken charges:
               1
     1  O   -0.443331
     2  C    0.692758
     3  N   -0.556377
     4  N   -0.353604
     5  C    0.718046
     6  C    0.451066
     7  N   -0.454009
     8  H    0.439057
     9  H   -0.269538
    10  H   -0.224069
 Sum of Mulliken charges =  -0.00000

 Dipole moment (field-independent basis, Debye):
    X=             -6.9693    Y=             -0.6847    Z=              0.9100  Tot=              7.0617

 Test job not archived.
 1\1\GINC-SE173\SP\RHF\Aug-CC-pVDZ\C3H3N3O1\OHZDE\09-Apr-2025\0\\#t hf
 aug-cc-pvdz iop(5/13=1,5/36=2,99/5=2) pseudo=read geom=check guess=(re
 ad,tcheck) scf=(maxcycle=1)\\title\\0,1\O,0,2.26568264,-1.33650347,-0.
 09231707\C,0,1.23311902,-0.78045376,0.15518465\N,0,1.19530718,0.568549
 94,0.55008178\N,0,0.06142996,1.26494151,0.23020625\C,0,-1.01905125,0.6
 9917737,-0.21565065\C,0,-1.06262724,-0.72130093,-0.09694234\N,0,-0.011
 63846,-1.42564104,0.14381452\H,0,1.11648729,1.74112238,0.00802843\H,0,
 -1.84259849,1.32705594,-0.52208553\H,0,-2.02070064,-1.23517893,-0.1523

 Normal termination of Gaussian 16 at Wed Apr  9 14:26:18 2025.
