 Gaussian 16, Revision C.01,

 ----------------------------------------------------------------------
 #t hf aug-cc-pvdz symm=none int=(grid=ultrafine) guess=(read,tcheck) s
 table=(opt,rrhf)
 ----------------------------------------------------------------------
 -----
 title
 -----
 Symbolic Z-matrix:
 Charge =  0 Multiplicity = 1

 SCF Done:  E(RHF) =  -307.019436876     A.U. after   12 cycles

 1\1\GINC-SE163\Stability\RHF\Aug-CC-pVDZ\C4H10O2\OHZDE\09-Apr-2025\0\\
 #t hf aug-cc-pvdz symm=none int=(grid=ultrafine) guess=(read,tcheck) s
 table=(opt,rrhf)\\title\\0,1\C,0,-2.02438134,-0.55197625,0.28800299\C,
 0,-0.64948683,0.02179656,-0.02368957\C,0,0.49645436,-0.94972026,-0.376
 9606\O,0,2.01631943,1.68008162,-1.28972807\C,0,0.2659365,0.43661643,1.
 14852253\O,0,1.39564247,-0.30829764,0.58481032\H,0,-2.49136243,-0.9696
 2184,-0.61581056\H,0,-1.95559179,-1.35509163,1.03685683\H,0,-2.6963096
 2,0.22395532,0.68251471\H,0,-0.70772979,0.82707756,-0.76627396\H,0,0.8

 Normal termination of Gaussian 16 at Wed Apr  9 14:18:25 2025.
 Gaussian 16:  ES64L-G16RevC.01  3-Jul-2019

 ----------------------------------------------------------------------
 #t hf aug-cc-pvdz iop(5/13=1,5/36=2,99/5=2) pseudo=read geom=check gue
 ss=(read,tcheck) scf=(maxcycle=1)
 ----------------------------------------------------------------------
 -----
 title
 -----
 Structure from the checkpoint file:  "Grambow2020_b97d3_007112_reverse_mol2.chk"
 Charge =  0 Multiplicity = 1

                         Standard orientation:
 ---------------------------------------------------------------------
 Center     Atomic      Atomic             Coordinates (Angstroms)
 Number     Number       Type             X           Y           Z
 ---------------------------------------------------------------------
      1          6           0       -2.326085   -0.642616   -0.078259
      2          6           0       -0.816594   -0.449939   -0.110119
      3          6           0       -0.130070    0.226485    1.095269
      4          8           0        2.546229   -0.810380   -0.254297
      5          6           0       -0.235217    0.733832   -0.913140
      6          8           0        0.598126    1.147420    0.219727
      7          1           0       -2.611180   -1.399799    0.666572
      8          1           0       -2.837795    0.296710    0.179284
      9          1           0       -2.702467   -0.977798   -1.055595
     10          1           0       -0.296977   -1.380171   -0.370825
     11          1           0        0.557037   -0.389305    1.690500
     12          1           0       -0.819376    0.775209    1.757020
     13          1           0        3.141889   -0.871873    0.512070
     14          1           0        0.373385    0.496394   -1.795542
     15          1           0       -0.973006    1.513919   -1.161914
     16          1           0        2.061445    0.033821   -0.107519
 ---------------------------------------------------------------------

 SCF Done:  E(RHF) =  -307.116798319     A.U. after    2 cycles

 The electronic state is 1-A.
 Alpha  occ. eigenvalues --  -20.57854 -20.55506 -11.29660 -11.29621 -11.24934
 Alpha  occ. eigenvalues --  -11.24030  -1.34351  -1.28090  -1.05190  -0.93728
 Alpha  occ. eigenvalues --   -0.91608  -0.76888  -0.72043  -0.67935  -0.65517
 Alpha  occ. eigenvalues --   -0.62445  -0.59053  -0.57302  -0.56698  -0.56235
 Alpha  occ. eigenvalues --   -0.51524  -0.50249  -0.47193  -0.46048  -0.43806
 Alpha virt. eigenvalues --    0.03291   0.04307   0.04718   0.04732   0.06421
 Alpha virt. eigenvalues --    0.07006   0.07134   0.07232   0.08455   0.09566
 Alpha virt. eigenvalues --    0.11661   0.13234   0.13999   0.14397   0.15187

 Mulliken charges:
               1
     1  C    0.460018
     2  C   -0.513274
     3  C    1.001632
     4  O   -0.381521
     5  C    0.981203
     6  O   -0.859622
     7  H   -0.003318
     8  H   -0.040093
     9  H   -0.006053
    10  H   -0.147815
    11  H   -0.177032
    12  H   -0.268045
    13  H    0.184547
    14  H   -0.168007
    15  H   -0.268343
    16  H    0.205723
 Sum of Mulliken charges =  -0.00000

 Dipole moment (field-independent basis, Debye):
    X=             -2.1784    Y=             -0.2473    Z=              1.1949  Tot=              2.4969

 Test job not archived.
 1\1\GINC-SE163\SP\RHF\Aug-CC-pVDZ\C4H10O2\OHZDE\09-Apr-2025\0\\#t hf a
 ug-cc-pvdz iop(5/13=1,5/36=2,99/5=2) pseudo=read geom=check guess=(rea
 d,tcheck) scf=(maxcycle=1)\\title\\0,1\C,0,-2.02438134,-0.55197625,0.2
 8800299\C,0,-0.64948683,0.02179656,-0.02368957\C,0,0.49645436,-0.94972
 026,-0.3769606\O,0,2.01631943,1.68008162,-1.28972807\C,0,0.2659365,0.4
 3661643,1.14852253\O,0,1.39564247,-0.30829764,0.58481032\H,0,-2.491362
 43,-0.96962184,-0.61581056\H,0,-1.95559179,-1.35509163,1.03685683\H,0,
 -2.69630962,0.22395532,0.68251471\H,0,-0.70772979,0.82707756,-0.766273

 Normal termination of Gaussian 16 at Wed Apr  9 14:18:29 2025.
