 Gaussian 16, Revision C.01,

 ----------------------------------------------------------------------
 #t hf aug-cc-pvdz symm=none int=(grid=ultrafine) guess=(read,tcheck) s
 table=(opt,rrhf)
 ----------------------------------------------------------------------
 -----
 title
 -----
 Symbolic Z-matrix:
 Charge =  0 Multiplicity = 1

 SCF Done:  E(RHF) =  -357.093255896     A.U. after   18 cycles
 Normal termination of Gaussian 16 at Wed Apr  9 03:58:23 2025.
 Gaussian 16:  ES64L-G16RevC.01  3-Jul-2019

 ----------------------------------------------------------------------
 #t hf aug-cc-pvdz iop(5/13=1,5/36=2,99/5=2) pseudo=read geom=check gue
 ss=(read,tcheck) scf=(maxcycle=1)
 ----------------------------------------------------------------------
 -----
 title
 -----
 Structure from the checkpoint file:  "Grambow2020_wb97xd3_008750_forward_mol1.chk"
 Charge =  0 Multiplicity = 1

                         Standard orientation:
 ---------------------------------------------------------------------
 Center     Atomic      Atomic             Coordinates (Angstroms)
 Number     Number       Type             X           Y           Z
 ---------------------------------------------------------------------
      1          8           0        2.390248    0.005270   -0.364862
      2          6           0        1.273994   -0.185219   -0.128037
      3          6           0        0.178964   -0.087740    0.875518
      4          7           0       -0.545156   -1.146980    0.346596
      5          8           0       -1.532975   -0.623273   -0.325945
      6          6           0       -1.176075    0.715195   -0.550677
      7          6           0       -0.465930    1.122075    0.596118
      8          1           0        0.037382    0.253344   -1.266116
      9          1           0       -1.912958    1.238823   -1.146466
     10          1           0       -0.032228    2.094849    0.755326
 ---------------------------------------------------------------------

 SCF Done:  E(RHF) =  -357.199515557     A.U. after    2 cycles

 The electronic state is 1-A.
 Alpha  occ. eigenvalues --  -20.73107 -20.64859 -15.80607 -11.43339 -11.37181
 Alpha  occ. eigenvalues --  -11.31579 -11.25550  -1.54373  -1.45196  -1.20051
 Alpha  occ. eigenvalues --   -1.11919  -0.90646  -0.87549  -0.80844  -0.77329
 Alpha  occ. eigenvalues --   -0.75481  -0.68088  -0.65845  -0.63931  -0.61746
 Alpha  occ. eigenvalues --   -0.61105  -0.53519  -0.47963  -0.40491  -0.32523
 Alpha virt. eigenvalues --    0.01094   0.02948   0.04436   0.05424   0.06838
 Alpha virt. eigenvalues --    0.08045   0.09625   0.09940   0.09995   0.10502
 Alpha virt. eigenvalues --    0.11935   0.12612   0.14429   0.14940   0.15404

 Mulliken charges:
               1
     1  O   -0.248397
     2  C    0.083915
     3  C   -0.036237
     4  N   -0.026114
     5  O   -0.559684
     6  C    0.345175
     7  C    0.562639
     8  H    0.368783
     9  H   -0.231872
    10  H   -0.258209
 Sum of Mulliken charges =  -0.00000

 Dipole moment (field-independent basis, Debye):
    X=             -2.0053    Y=              1.6881    Z=             -0.5819  Tot=              2.6851

 Test job not archived.
 1\1\GINC-SE396\SP\RHF\Aug-CC-pVDZ\C4H3N1O2\OHZDE\09-Apr-2025\0\\#t hf
 aug-cc-pvdz iop(5/13=1,5/36=2,99/5=2) pseudo=read geom=check guess=(re
 ad,tcheck) scf=(maxcycle=1)\\title\\0,1\O,0,-2.53490567,0.25404983,-0.
 50929038\C,0,-1.40647963,0.0254455,-0.62238012\C,0,-0.05974545,0.54650
 474,-0.98365395\N,0,0.43504873,-0.69249548,-1.36595461\O,0,1.19663504,
 -1.10601368,-0.39057986\C,0,0.83827452,-0.33714753,0.72736495\C,0,0.51
 669463,0.94072649,0.22874537\H,0,-0.5490941,-0.84639627,0.61113352\H,0
 ,1.38327694,-0.63089341,1.61552735\H,0,0.18586199,1.78037882,0.8163397

 Normal termination of Gaussian 16 at Wed Apr  9 03:58:26 2025.
