 Gaussian 16, Revision C.01,

 ----------------------------------------------------------------------
 #t hf aug-cc-pvdz symm=none int=(grid=ultrafine) guess=(read,tcheck) s
 table=(opt,rrhf)
 ----------------------------------------------------------------------
 -----
 title
 -----
 Symbolic Z-matrix:
 Charge =  0 Multiplicity = 1

 SCF Done:  E(RHF) =  -394.422760484     A.U. after   15 cycles
 Normal termination of Gaussian 16 at Wed Apr  9 15:36:41 2025.
 Gaussian 16:  ES64L-G16RevC.01  3-Jul-2019

 ----------------------------------------------------------------------
 #t hf aug-cc-pvdz iop(5/13=1,5/36=2,99/5=2) pseudo=read geom=check gue
 ss=(read,tcheck) scf=(maxcycle=1)
 ----------------------------------------------------------------------
 -----
 title
 -----
 Structure from the checkpoint file:  "Grambow2020_wb97xd3_007198_forward_mol2.chk"
 Charge =  0 Multiplicity = 1

                         Standard orientation:
 ---------------------------------------------------------------------
 Center     Atomic      Atomic             Coordinates (Angstroms)
 Number     Number       Type             X           Y           Z
 ---------------------------------------------------------------------
      1          7           0        1.464872   -1.447097    0.316482
      2          6           0        0.713557   -0.515166   -0.043490
      3          8           0       -0.441034   -0.686160   -0.778519
      4          6           0       -1.589544   -0.196895   -0.241069
      5          8           0       -1.711949    0.150059    0.887666
      6          6           0        1.137822    0.913948    0.192289
      7          8           0        0.581946    1.847631   -0.304307
      8          1           0        1.089948   -2.360503    0.067307
      9          1           0       -2.374983   -0.212751   -1.004496
     10          1           0        2.028215    0.999378    0.836723
 ---------------------------------------------------------------------

 SCF Done:  E(RHF) =  -394.547778155     A.U. after    2 cycles

 The electronic state is 1-A.
 Alpha  occ. eigenvalues --  -20.66597 -20.60968 -20.60237 -15.66716 -11.43029
 Alpha  occ. eigenvalues --  -11.39257 -11.37619  -1.47669  -1.40078  -1.38034
 Alpha  occ. eigenvalues --   -1.23146  -0.97646  -0.92483  -0.78783  -0.77880
 Alpha  occ. eigenvalues --   -0.74792  -0.73764  -0.68702  -0.65679  -0.64276
 Alpha  occ. eigenvalues --   -0.59000  -0.54749  -0.52505  -0.49428  -0.47392
 Alpha  occ. eigenvalues --   -0.46767
 Alpha virt. eigenvalues --    0.03072   0.04319   0.04719   0.05510   0.08191
 Alpha virt. eigenvalues --    0.09328   0.10265   0.10879   0.11256   0.12313
 Alpha virt. eigenvalues --    0.12639   0.14524   0.14668   0.16601   0.17127

 Mulliken charges:
               1
     1  N   -0.268913
     2  C    0.567427
     3  O   -0.647359
     4  C    0.805484
     5  O   -0.356382
     6  C    0.510036
     7  O   -0.415444
     8  H    0.034688
     9  H   -0.144794
    10  H   -0.084744
 Sum of Mulliken charges =  -0.00000

 Dipole moment (field-independent basis, Debye):
    X=              0.0126    Y=             -2.5868    Z=             -1.4037  Tot=              2.9431

 Test job not archived.
 1\1\GINC-SE100\SP\RHF\Aug-CC-pVDZ\C3H3N1O3\OHZDE\09-Apr-2025\0\\#t hf
 aug-cc-pvdz iop(5/13=1,5/36=2,99/5=2) pseudo=read geom=check guess=(re
 ad,tcheck) scf=(maxcycle=1)\\title\\0,1\N,0,-0.92621538,1.4353699,-0.8
 7043655\C,0,-0.48035503,0.36839133,-0.39576509\O,0,0.70241533,-0.22331
 219,-0.78759183\C,0,1.62185748,-0.46131163,0.18466965\O,0,1.58274377,0
 .00021097,1.27777018\C,0,-1.33073063,-0.4312577,0.56099164\O,0,-1.0653
 065,-1.54919329,0.88831356\H,0,-0.27968257,1.86086964,-1.53218602\H,0,
 2.40735579,-1.10942532,-0.21897479\H,0,-2.23208226,0.10965829,0.893209

 Normal termination of Gaussian 16 at Wed Apr  9 15:36:45 2025.
