 Gaussian 16, Revision C.01,

 ----------------------------------------------------------------------
 #t hf aug-cc-pvdz symm=none int=(grid=ultrafine) guess=(read,tcheck) s
 table=(opt,rrhf)
 ----------------------------------------------------------------------
 -----
 title
 -----
 Symbolic Z-matrix:
 Charge =  0 Multiplicity = 1

 SCF Done:  E(RHF) =  -321.248020546     A.U. after   18 cycles
 Normal termination of Gaussian 16 at Wed Apr  9 04:05:31 2025.
 Gaussian 16:  ES64L-G16RevC.01  3-Jul-2019

 ----------------------------------------------------------------------
 #t hf aug-cc-pvdz iop(5/13=1,5/36=2,99/5=2) pseudo=read geom=check gue
 ss=(read,tcheck) scf=(maxcycle=1)
 ----------------------------------------------------------------------
 -----
 title
 -----
 Structure from the checkpoint file:  "Grambow2020_wb97xd3_009375_forward_mol1.chk"
 Charge =  0 Multiplicity = 1

                         Standard orientation:
 ---------------------------------------------------------------------
 Center     Atomic      Atomic             Coordinates (Angstroms)
 Number     Number       Type             X           Y           Z
 ---------------------------------------------------------------------
      1          8           0       -1.510769   -0.779464   -0.000646
      2          6           0        0.386670   -1.242975   -0.000928
      3          6           0        0.906319   -0.267022   -1.043666
      4          6           0        0.885159    0.894418    0.000872
      5          6           0        0.904963   -0.268503    1.043976
      6          6           0       -0.576674    1.360132    0.000325
      7          7           0       -1.324589    0.449290   -0.000084
      8          1           0        1.948486   -0.544691   -1.232165
      9          1           0        0.390358   -0.171914   -1.997424
     10          1           0        1.646624    1.672191    0.000752
     11          1           0        0.387216   -0.175584    1.996913
     12          1           0        1.946964   -0.545623    1.234204
 ---------------------------------------------------------------------

 SCF Done:  E(RHF) =  -321.341110669     A.U. after    2 cycles

 The electronic state is 1-A.
 Alpha  occ. eigenvalues --  -20.65644 -15.79864 -11.32223 -11.31770 -11.28085
 Alpha  occ. eigenvalues --  -11.26647 -11.26638  -1.47312  -1.23171  -1.15171
 Alpha  occ. eigenvalues --   -0.93313  -0.91416  -0.80478  -0.75203  -0.70479
 Alpha  occ. eigenvalues --   -0.70316  -0.64113  -0.62592  -0.57259  -0.56838
 Alpha  occ. eigenvalues --   -0.54882  -0.47744  -0.42908  -0.42368  -0.33924
 Alpha virt. eigenvalues --    0.01224   0.02584   0.04076   0.04810   0.05340
 Alpha virt. eigenvalues --    0.06761   0.08128   0.09650   0.10212   0.10606
 Alpha virt. eigenvalues --    0.12453   0.13249   0.13474   0.13502   0.13985

 Mulliken charges:
               1
     1  O   -0.496144
     2  C   -0.366392
     3  C    0.646654
     4  C    0.411202
     5  C    0.647919
     6  C   -0.147136
     7  N    0.269322
     8  H   -0.091700
     9  H   -0.225918
    10  H   -0.329470
    11  H   -0.225811
    12  H   -0.092526
 Sum of Mulliken charges =  -0.00000

 Dipole moment (field-independent basis, Debye):
    X=              3.0228    Y=              3.0201    Z=              0.0029  Tot=              4.2730

 Test job not archived.
 1\1\GINC-SE333\SP\RHF\Aug-CC-pVDZ\C5H5N1O1\OHZDE\09-Apr-2025\0\\#t hf
 aug-cc-pvdz iop(5/13=1,5/36=2,99/5=2) pseudo=read geom=check guess=(re
 ad,tcheck) scf=(maxcycle=1)\\title\\0,1\O,0,-0.3021655,0.24799154,2.07
 818589\C,0,-1.20266998,-0.10494777,0.38123469\C,0,-0.52082275,0.921206
 69,-0.50865946\C,0,0.73540569,0.00236925,-0.64311315\C,0,-0.25552308,-
 1.12949832,-0.22147174\C,0,1.53361763,0.28473748,0.6363285\N,0,0.83598
 268,0.32664741,1.585306\H,0,-1.06167834,0.91031308,-1.46055297\H,0,-0.
 42744248,1.95141507,-0.16974079\H,0,1.30165139,-0.05313885,-1.57103804

 Normal termination of Gaussian 16 at Wed Apr  9 04:05:35 2025.
