 Gaussian 16, Revision C.01,

 ----------------------------------------------------------------------
 #t hf aug-cc-pvdz symm=none int=(grid=ultrafine) guess=(read,tcheck) s
 table=(opt,rrhf)
 ----------------------------------------------------------------------
 -----
 title
 -----
 Symbolic Z-matrix:
 Charge =  0 Multiplicity = 1

 SCF Done:  E(RHF) =  -323.886241108     A.U. after   13 cycles
 Normal termination of Gaussian 16 at Wed Apr  9 15:55:07 2025.
 Gaussian 16:  ES64L-G16RevC.01  3-Jul-2019

 ----------------------------------------------------------------------
 #t hf aug-cc-pvdz iop(5/13=1,5/36=2,99/5=2) pseudo=read geom=check gue
 ss=(read,tcheck) scf=(maxcycle=1)
 ----------------------------------------------------------------------
 -----
 title
 -----
 Structure from the checkpoint file:  "Grambow2020_wb97xd3_007601_forward_mol2.chk"
 Charge =  0 Multiplicity = 1

                         Standard orientation:
 ---------------------------------------------------------------------
 Center     Atomic      Atomic             Coordinates (Angstroms)
 Number     Number       Type             X           Y           Z
 ---------------------------------------------------------------------
      1          6           0        1.401413    1.461180    0.437103
      2          6           0        1.329391    0.273890   -0.481118
      3          7           0        1.657363   -1.039133    0.072968
      4          6           0        0.295994   -0.779182   -0.390506
      5          6           0       -0.783083   -0.787369    0.654632
      6          6           0       -1.987456    0.037965    0.299280
      7          8           0       -2.116924    0.660727   -0.719087
      8          1           0        1.106419    1.198024    1.452536
      9          1           0        2.422193    1.845367    0.483373
     10          1           0        0.750173    2.261171    0.078838
     11          1           0        1.678248    0.473342   -1.490840
     12          1           0        2.170010   -1.605265   -0.590146
     13          1           0       -0.002723   -1.219265   -1.337148
     14          1           0       -0.403967   -0.436298    1.618874
     15          1           0       -1.130777   -1.809897    0.846338
     16          1           0       -2.793283    0.042025    1.063742
 ---------------------------------------------------------------------

 SCF Done:  E(RHF) =  -323.985405038     A.U. after    2 cycles

 The electronic state is 1-A.
 Alpha  occ. eigenvalues --  -20.57540 -15.62141 -11.34664 -11.27184 -11.26934
 Alpha  occ. eigenvalues --  -11.25331 -11.22728  -1.36691  -1.24562  -1.03609
 Alpha  occ. eigenvalues --   -0.98658  -0.86824  -0.81462  -0.75316  -0.72623
 Alpha  occ. eigenvalues --   -0.68732  -0.64233  -0.61549  -0.59279  -0.57025
 Alpha  occ. eigenvalues --   -0.55961  -0.52439  -0.50190  -0.47741  -0.45336
 Alpha  occ. eigenvalues --   -0.42956  -0.38854
 Alpha virt. eigenvalues --    0.03279   0.03644   0.04176   0.05135   0.06064
 Alpha virt. eigenvalues --    0.06581   0.06998   0.07476   0.09253   0.10576
 Alpha virt. eigenvalues --    0.11423   0.12574   0.13598   0.13994   0.14204

 Mulliken charges:
               1
     1  C    0.383030
     2  C    0.134082
     3  N   -0.669337
     4  C    0.978224
     5  C   -0.204257
     6  C    0.695296
     7  O   -0.475267
     8  H   -0.025752
     9  H    0.010404
    10  H    0.052618
    11  H   -0.385346
    12  H   -0.002510
    13  H   -0.417565
    14  H    0.012427
    15  H    0.055363
    16  H   -0.141410
 Sum of Mulliken charges =  -0.00000

 Dipole moment (field-independent basis, Debye):
    X=              0.4983    Y=             -1.3766    Z=              0.9095  Tot=              1.7235

 Test job not archived.
 1\1\GINC-SE229\SP\RHF\Aug-CC-pVDZ\C5H9N1O1\OHZDE\09-Apr-2025\0\\#t hf
 aug-cc-pvdz iop(5/13=1,5/36=2,99/5=2) pseudo=read geom=check guess=(re
 ad,tcheck) scf=(maxcycle=1)\\title\\0,1\C,0,-1.39561126,-0.12015714,1.
 24546093\C,0,-1.25810635,0.06676316,-0.23916924\N,0,-0.86793596,1.3886
 4366,-0.72805046\C,0,0.03385693,0.25685197,-0.93183024\C,0,1.35313061,
 0.31092792,-0.21532557\C,0,1.96103636,-1.03679256,0.05312613\O,0,1.470
 76184,-2.08639438,-0.26252114\H,0,-0.66958935,0.48140655,1.79171073\H,
 0,-2.38917998,0.1869502,1.57748295\H,0,-1.2540603,-1.16934859,1.513069

 Normal termination of Gaussian 16 at Wed Apr  9 15:55:13 2025.
