 Gaussian 16, Revision C.01,

 ----------------------------------------------------------------------
 #t hf aug-cc-pvdz symm=none int=(grid=ultrafine) guess=(read,tcheck) s
 table=(opt,rrhf)
 ----------------------------------------------------------------------
 -----
 title
 -----
 Symbolic Z-matrix:
 Charge =  0 Multiplicity = 1

 SCF Done:  E(RHF) =  -321.470179795     A.U. after   15 cycles
 Normal termination of Gaussian 16 at Wed Apr  9 03:45:15 2025.
 Gaussian 16:  ES64L-G16RevC.01  3-Jul-2019

 ----------------------------------------------------------------------
 #t hf aug-cc-pvdz iop(5/13=1,5/36=2,99/5=2) pseudo=read geom=check gue
 ss=(read,tcheck) scf=(maxcycle=1)
 ----------------------------------------------------------------------
 -----
 title
 -----
 Structure from the checkpoint file:  "Grambow2020_wb97xd3_007885_reverse_mol1.chk"
 Charge =  0 Multiplicity = 1

                         Standard orientation:
 ---------------------------------------------------------------------
 Center     Atomic      Atomic             Coordinates (Angstroms)
 Number     Number       Type             X           Y           Z
 ---------------------------------------------------------------------
      1          8           0        2.290785    0.178532   -0.007519
      2          6           0        1.197581   -0.164104   -0.003208
      3          6           0       -0.458209   -0.345063   -1.068757
      4          7           0       -0.738853   -1.249595    0.010876
      5          6           0       -0.443092   -0.330336    1.073955
      6          6           0       -0.863295    0.973918    0.685061
      7          6           0       -0.871708    0.964343   -0.691744
      8          1           0       -0.449980   -0.726437   -2.082696
      9          1           0       -1.730139   -1.492755    0.019579
     10          1           0       -0.421556   -0.697282    2.092961
     11          1           0       -0.950302    1.830983    1.336298
     12          1           0       -0.970000    1.811851   -1.353958
 ---------------------------------------------------------------------

 SCF Done:  E(RHF) =  -321.564484128     A.U. after    2 cycles

 The electronic state is 1-A.
 Alpha  occ. eigenvalues --  -20.61928 -15.63564 -11.35846 -11.30361 -11.30331
 Alpha  occ. eigenvalues --  -11.24928 -11.24803  -1.42970  -1.26144  -1.05153
 Alpha  occ. eigenvalues --   -0.97230  -0.83754  -0.76419  -0.76139  -0.73562
 Alpha  occ. eigenvalues --   -0.68530  -0.62774  -0.61179  -0.56627  -0.56331
 Alpha  occ. eigenvalues --   -0.55945  -0.55629  -0.41466  -0.36838  -0.33766
 Alpha virt. eigenvalues --    0.03332   0.03705   0.04258   0.05375   0.05907
 Alpha virt. eigenvalues --    0.08016   0.10538   0.11100   0.11346   0.12460
 Alpha virt. eigenvalues --    0.12538   0.13179   0.13487   0.13725   0.15397

 Mulliken charges:
               1
     1  O   -0.278173
     2  C    0.238551
     3  C    0.565614
     4  N   -0.567590
     5  C    0.567242
     6  C    0.355922
     7  C    0.359125
     8  H   -0.303885
     9  H    0.029860
    10  H   -0.303118
    11  H   -0.332430
    12  H   -0.331118
 Sum of Mulliken charges =  -0.00000

 Dipole moment (field-independent basis, Debye):
    X=             -2.8592    Y=              0.3646    Z=              0.0137  Tot=              2.8824

 Test job not archived.
 1\1\GINC-SE292\SP\RHF\Aug-CC-pVDZ\C5H5N1O1\OHZDE\09-Apr-2025\0\\#t hf
 aug-cc-pvdz iop(5/13=1,5/36=2,99/5=2) pseudo=read geom=check guess=(re
 ad,tcheck) scf=(maxcycle=1)\\title\\0,1\O,0,0.34392629,-1.55896675,2.1
 8748205\C,0,-0.03021987,-1.08050064,1.21609253\C,0,0.32941104,-0.80319
 894,-0.70836872\N,0,-1.07041431,-0.48699259,-0.65313502\C,0,-0.9818575
 7,0.45370344,0.42848312\C,0,0.23629481,1.18184552,0.30681969\C,0,1.078
 88978,0.37337412,-0.42267472\H,0,0.65919049,-1.60895521,-1.35303033\H,
 0,-1.35994047,-0.01393894,-1.51001586\H,0,-1.89591518,0.84133218,0.861

 Normal termination of Gaussian 16 at Wed Apr  9 03:45:19 2025.
