 Gaussian 16, Revision C.01,

 ----------------------------------------------------------------------
 #t hf aug-cc-pvdz symm=none int=(grid=ultrafine) guess=(read,tcheck) s
 table=(opt,rrhf)
 ----------------------------------------------------------------------
 -----
 title
 -----
 Symbolic Z-matrix:
 Charge =  0 Multiplicity = 1

 SCF Done:  E(RHF) =  -337.444281262     A.U. after   16 cycles
 Normal termination of Gaussian 16 at Wed Apr  9 16:43:51 2025.
 Gaussian 16:  ES64L-G16RevC.01  3-Jul-2019

 ----------------------------------------------------------------------
 #t hf aug-cc-pvdz iop(5/13=1,5/36=2,99/5=2) pseudo=read geom=check gue
 ss=(read,tcheck) scf=(maxcycle=1)
 ----------------------------------------------------------------------
 -----
 title
 -----
 Structure from the checkpoint file:  "Grambow2020_wb97xd3_008696_forward_mol1.chk"
 Charge =  0 Multiplicity = 1

                         Standard orientation:
 ---------------------------------------------------------------------
 Center     Atomic      Atomic             Coordinates (Angstroms)
 Number     Number       Type             X           Y           Z
 ---------------------------------------------------------------------
      1          8           0       -2.483221    0.405857    0.016149
      2          6           0       -1.701426   -0.518919    0.009520
      3          6           0       -0.261709   -0.334163   -0.013459
      4          6           0        0.775767   -1.241822   -0.066021
      5          7           0        1.958601   -0.419282   -0.066076
      6          6           0        1.588104    0.859014    0.035646
      7          7           0        0.269189    0.940346   -0.008322
      8          1           0       -2.035054   -1.570061    0.022581
      9          1           0        1.942271   -1.400955    0.580695
     10          1           0        2.246352    1.713018    0.079952
     11          1           0       -0.286760    1.779032   -0.085750
 ---------------------------------------------------------------------

 SCF Done:  E(RHF) =  -337.544241590     A.U. after    2 cycles

 The electronic state is 1-A.
 Alpha  occ. eigenvalues --  -20.57104 -15.73557 -15.67115 -11.37053 -11.35154
 Alpha  occ. eigenvalues --  -11.28020 -11.26079  -1.37125  -1.35240  -1.19255
 Alpha  occ. eigenvalues --   -1.05341  -0.91620  -0.86664  -0.81869  -0.75735
 Alpha  occ. eigenvalues --   -0.70338  -0.66018  -0.65608  -0.63109  -0.55572
 Alpha  occ. eigenvalues --   -0.50850  -0.46493  -0.44786  -0.38297  -0.34860
 Alpha virt. eigenvalues --    0.02037   0.04176   0.04566   0.05480   0.06105
 Alpha virt. eigenvalues --    0.07909   0.09629   0.10596   0.11211   0.11917
 Alpha virt. eigenvalues --    0.12777   0.13695   0.13981   0.14206   0.15815

 Mulliken charges:
               1
     1  O   -0.505537
     2  C    0.758872
     3  C    0.450863
     4  C   -0.413431
     5  N   -0.635654
     6  C    0.793527
     7  N   -0.443391
     8  H   -0.092527
     9  H    0.315054
    10  H   -0.183068
    11  H   -0.044709
 Sum of Mulliken charges =  -0.00000

 Dipole moment (field-independent basis, Debye):
    X=              2.7543    Y=              2.9474    Z=              0.9041  Tot=              4.1341

 Test job not archived.
 1\1\GINC-SE424\SP\RHF\Aug-CC-pVDZ\C4H4N2O1\OHZDE\09-Apr-2025\0\\#t hf
 aug-cc-pvdz iop(5/13=1,5/36=2,99/5=2) pseudo=read geom=check guess=(re
 ad,tcheck) scf=(maxcycle=1)\\title\\0,1\O,0,-2.17714742,-1.58668416,0.
 02341111\C,0,-1.91763448,-0.40415474,-0.00370669\C,0,-0.55930375,0.106
 22239,0.03991012\C,0,-0.06706461,1.39470634,0.06165997\N,0,1.36236662,
 1.22081774,0.10810615\C,0,1.6340741,-0.08511131,0.05931875\N,0,0.50479
 159,-0.77177781,0.0953054\H,0,-2.70261055,0.36807534,-0.06576592\H,0,0
 .9081783,2.05796239,-0.58121467\H,0,2.61567486,-0.53347986,0.05825258\

 Normal termination of Gaussian 16 at Wed Apr  9 16:43:55 2025.
