 Gaussian 16, Revision C.01,

 ----------------------------------------------------------------------
 #t hf aug-cc-pvdz symm=none int=(grid=ultrafine) guess=(read,tcheck) s
 table=(opt,rrhf)
 ----------------------------------------------------------------------
 -----
 title
 -----
 Symbolic Z-matrix:
 Charge =  0 Multiplicity = 1

 SCF Done:  E(RHF) =  -344.875908218     A.U. after   12 cycles

 1\1\GINC-SE226\Stability\RHF\Aug-CC-pVDZ\C5H10O2\OHZDE\09-Apr-2025\0\\
 #t hf aug-cc-pvdz symm=none int=(grid=ultrafine) guess=(read,tcheck) s
 table=(opt,rrhf)\\title\\0,1\C,0,2.05008903,1.10072918,-0.44047\O,0,0.
 65597902,0.94289008,-0.36306651\C,0,0.25508317,-0.3887067,-0.46696104\
 C,0,0.39094478,-1.27584537,0.77919583\O,0,-1.01711923,-1.53853925,0.78
 685614\C,0,-1.25612295,-0.61127945,-0.29271429\C,0,-2.08510535,0.57580
 939,0.12924736\H,0,2.56260396,0.58562573,0.38169336\H,0,2.44243953,0.7
 1663358,-1.39106258\H,0,2.26151893,2.16665128,-0.37235271\H,0,0.666266

 Normal termination of Gaussian 16 at Wed Apr  9 14:57:05 2025.
 Gaussian 16:  ES64L-G16RevC.01  3-Jul-2019

 ----------------------------------------------------------------------
 #t hf aug-cc-pvdz iop(5/13=1,5/36=2,99/5=2) pseudo=read geom=check gue
 ss=(read,tcheck) scf=(maxcycle=1)
 ----------------------------------------------------------------------
 -----
 title
 -----
 Structure from the checkpoint file:  "Grambow2020_wb97xd3_006653_forward_mol2.chk"
 Charge =  0 Multiplicity = 1

                         Standard orientation:
 ---------------------------------------------------------------------
 Center     Atomic      Atomic             Coordinates (Angstroms)
 Number     Number       Type             X           Y           Z
 ---------------------------------------------------------------------
      1          6           0        2.511571   -0.180973   -0.101526
      2          8           0        1.191964   -0.662669   -0.069080
      3          6           0        0.304267    0.229715    0.531175
      4          6           0       -0.186787    1.420947   -0.304415
      5          8           0       -1.548576    0.998268   -0.168090
      6          6           0       -1.165213   -0.221267    0.501367
      7          6           0       -1.492799   -1.455891   -0.300404
      8          1           0        2.592520    0.739857   -0.692690
      9          1           0        2.887416    0.019961    0.910137
     10          1           0        3.127805   -0.950082   -0.564408
     11          1           0        0.661293    0.507510    1.530162
     12          1           0        0.151469    1.390738   -1.345932
     13          1           0       -0.024740    2.420240    0.107434
     14          1           0       -1.630690   -0.270459    1.490813
     15          1           0       -1.141132   -2.350852    0.215796
     16          1           0       -2.574023   -1.528176   -0.428275
     17          1           0       -1.023264   -1.418714   -1.282862
 ---------------------------------------------------------------------

 SCF Done:  E(RHF) =  -344.987014939     A.U. after    2 cycles

 The electronic state is 1-A.
 Alpha  occ. eigenvalues --  -20.58111 -20.56027 -11.29382 -11.29097 -11.28896
 Alpha  occ. eigenvalues --  -11.28503 -11.21930  -1.36439  -1.33328  -1.02652
 Alpha  occ. eigenvalues --   -0.98938  -0.92245  -0.87588  -0.75968  -0.71954
 Alpha  occ. eigenvalues --   -0.68706  -0.66820  -0.64031  -0.60427  -0.59589
 Alpha  occ. eigenvalues --   -0.56547  -0.54465  -0.53180  -0.51360  -0.50015
 Alpha  occ. eigenvalues --   -0.45759  -0.43331  -0.41996
 Alpha virt. eigenvalues --    0.03239   0.04362   0.04673   0.04857   0.06258
 Alpha virt. eigenvalues --    0.06465   0.06809   0.06944   0.07872   0.09268
 Alpha virt. eigenvalues --    0.11594   0.12524   0.13164   0.14228   0.14751

 Mulliken charges:
               1
     1  C    0.696293
     2  O   -0.691643
     3  C    0.554013
     4  C    0.838001
     5  O   -0.846552
     6  C    0.374677
     7  C    0.328068
     8  H   -0.069838
     9  H   -0.065002
    10  H   -0.264823
    11  H   -0.183727
    12  H   -0.204676
    13  H   -0.215731
    14  H   -0.251506
    15  H    0.027077
    16  H   -0.019023
    17  H   -0.005608
 Sum of Mulliken charges =  -0.00000

 Dipole moment (field-independent basis, Debye):
    X=              2.4217    Y=              0.1782    Z=              0.9791  Tot=              2.6182

 Test job not archived.
 1\1\GINC-SE226\SP\RHF\Aug-CC-pVDZ\C5H10O2\OHZDE\09-Apr-2025\0\\#t hf a
 ug-cc-pvdz iop(5/13=1,5/36=2,99/5=2) pseudo=read geom=check guess=(rea
 d,tcheck) scf=(maxcycle=1)\\title\\0,1\C,0,2.05008903,1.10072918,-0.44
 047\O,0,0.65597902,0.94289008,-0.36306651\C,0,0.25508317,-0.3887067,-0
 .46696104\C,0,0.39094478,-1.27584537,0.77919583\O,0,-1.01711923,-1.538
 53925,0.78685614\C,0,-1.25612295,-0.61127945,-0.29271429\C,0,-2.085105
 35,0.57580939,0.12924736\H,0,2.56260396,0.58562573,0.38169336\H,0,2.44
 243953,0.71663358,-1.39106258\H,0,2.26151893,2.16665128,-0.37235271\H,

 Normal termination of Gaussian 16 at Wed Apr  9 14:57:11 2025.
