 Gaussian 16, Revision C.01,

 ----------------------------------------------------------------------
 #t hf aug-cc-pvdz symm=none int=(grid=ultrafine) guess=(read,tcheck) s
 table=(opt,rrhf)
 ----------------------------------------------------------------------
 -----
 title
 -----
 Symbolic Z-matrix:
 Charge =  0 Multiplicity = 1

 SCF Done:  E(RHF) =  -306.505474523     A.U. after   16 cycles
 Normal termination of Gaussian 16 at Wed Apr  9 16:28:09 2025.
 Gaussian 16:  ES64L-G16RevC.01  3-Jul-2019

 ----------------------------------------------------------------------
 #t hf aug-cc-pvdz iop(5/13=1,5/36=2,99/5=2) pseudo=read geom=check gue
 ss=(read,tcheck) scf=(maxcycle=1)
 ----------------------------------------------------------------------
 -----
 title
 -----
 Structure from the checkpoint file:  "Grambow2020_wb97xd3_008446_reverse_mol1.chk"
 Charge =  0 Multiplicity = 1

                         Standard orientation:
 ---------------------------------------------------------------------
 Center     Atomic      Atomic             Coordinates (Angstroms)
 Number     Number       Type             X           Y           Z
 ---------------------------------------------------------------------
      1          6           0       -0.416393    1.303292   -0.554018
      2          6           0       -1.377158    0.151742   -0.387995
      3          6           0       -0.756979   -1.172195   -0.135384
      4          8           0        1.214392   -0.938515   -0.627716
      5          6           0        1.531160   -0.075539    0.257840
      6          6           0        0.569542    0.949461    0.549559
      7          6           0       -1.083200   -0.473147    0.955266
      8          1           0        0.077271    1.363861   -1.529634
      9          1           0       -0.899956    2.259719   -0.348802
     10          1           0       -2.363952    0.203598   -0.845355
     11          1           0       -0.773023   -2.155587   -0.566819
     12          1           0        1.895079    1.029682   -0.172432
     13          1           0        2.258888   -0.303733    1.049255
     14          1           0        0.766698    1.624843    1.377509
     15          1           0       -1.477971   -0.615942    1.946401
 ---------------------------------------------------------------------

 SCF Done:  E(RHF) =  -306.597838781     A.U. after    2 cycles

 The electronic state is 1-A.
 Alpha  occ. eigenvalues --  -20.51683 -11.32361 -11.31603 -11.27858 -11.25544
 Alpha  occ. eigenvalues --  -11.25057 -11.21929  -1.30127  -1.17094  -1.06951
 Alpha  occ. eigenvalues --   -0.95654  -0.80772  -0.77043  -0.74150  -0.71416
 Alpha  occ. eigenvalues --   -0.67347  -0.64853  -0.60524  -0.58148  -0.56488
 Alpha  occ. eigenvalues --   -0.52208  -0.47609  -0.43446  -0.40931  -0.38691
 Alpha  occ. eigenvalues --   -0.32316
 Alpha virt. eigenvalues --    0.02839   0.04087   0.04251   0.04696   0.06055
 Alpha virt. eigenvalues --    0.06159   0.06710   0.07338   0.09424   0.10228
 Alpha virt. eigenvalues --    0.12166   0.12480   0.13014   0.13748   0.14068

 Mulliken charges:
               1
     1  C    0.299374
     2  C    0.284035
     3  C    0.642519
     4  O   -0.668622
     5  C    0.622609
     6  C    0.188232
     7  C    0.308003
     8  H   -0.057396
     9  H   -0.085781
    10  H   -0.332849
    11  H   -0.385363
    12  H    0.247387
    13  H   -0.190395
    14  H   -0.399557
    15  H   -0.472196
 Sum of Mulliken charges =  -0.00000

 Dipole moment (field-independent basis, Debye):
    X=             -0.8440    Y=              2.8742    Z=              1.8956  Tot=              3.5450

 Test job not archived.
 1\1\GINC-SE226\SP\RHF\Aug-CC-pVDZ\C6H8O1\OHZDE\09-Apr-2025\0\\#t hf au
 g-cc-pvdz iop(5/13=1,5/36=2,99/5=2) pseudo=read geom=check guess=(read
 ,tcheck) scf=(maxcycle=1)\\title\\0,1\C,0,0.68020636,1.07666413,0.2840
 4618\C,0,1.36948763,-0.16747215,-0.21965654\C,0,0.62064664,-1.43553398
 ,-0.03937817\O,0,-0.85756315,-0.99378753,1.30340017\C,0,-1.50244108,-0
 .14272121,0.60404444\C,0,-0.73309775,0.7723591,-0.19041804\C,0,0.43105
 995,-0.81766235,-1.20852221\H,0,0.71675207,1.22538956,1.36836335\H,0,1
 .06738304,1.97292253,-0.20330747\H,0,2.45595973,-0.19091227,-0.2879172

 Normal termination of Gaussian 16 at Wed Apr  9 16:28:15 2025.
