 Gaussian 16, Revision C.01,

 ----------------------------------------------------------------------
 #t hf aug-cc-pvdz symm=none int=(grid=ultrafine) guess=(read,tcheck) s
 table=(opt,rrhf)
 ----------------------------------------------------------------------
 -----
 title
 -----
 Symbolic Z-matrix:
 Charge =  0 Multiplicity = 1

 SCF Done:  E(RHF) =  -309.059476620     A.U. after   12 cycles

 1\1\GINC-SE220\Stability\RHF\Aug-CC-pVDZ\C6H12O1\OHZDE\09-Apr-2025\0\\
 #t hf aug-cc-pvdz symm=none int=(grid=ultrafine) guess=(read,tcheck) s
 table=(opt,rrhf)\\title\\0,1\C,0,3.20994267,0.65150146,-0.26482607\C,0
 ,1.94329483,-0.15135011,-0.29511878\O,0,1.38228296,-0.50664161,0.96269
 67\C,0,0.65520838,0.38909221,0.12767551\C,0,-0.65882825,-0.10613709,-0
 .40495683\C,0,-1.75758382,-0.10038537,0.65333117\C,0,-3.09028845,-0.60
 880238,0.12105053\H,0,3.4024837,1.09761678,-1.24297111\H,0,4.05993657,
 0.01649126,-0.0079808\H,0,3.14046389,1.44832269,0.47648617\H,0,1.92015

 Normal termination of Gaussian 16 at Wed Apr  9 15:54:18 2025.
 Gaussian 16:  ES64L-G16RevC.01  3-Jul-2019

 ----------------------------------------------------------------------
 #t hf aug-cc-pvdz iop(5/13=1,5/36=2,99/5=2) pseudo=read geom=check gue
 ss=(read,tcheck) scf=(maxcycle=1)
 ----------------------------------------------------------------------
 -----
 title
 -----
 Structure from the checkpoint file:  "Grambow2020_wb97xd3_007574_reverse_mol2.chk"
 Charge =  0 Multiplicity = 1

                         Standard orientation:
 ---------------------------------------------------------------------
 Center     Atomic      Atomic             Coordinates (Angstroms)
 Number     Number       Type             X           Y           Z
 ---------------------------------------------------------------------
      1          6           0       -3.099446   -0.283136    0.218674
      2          6           0       -1.738767   -0.206788   -0.407912
      3          8           0       -1.065705    1.043315   -0.322503
      4          6           0       -0.515009   -0.069319    0.375361
      5          6           0        0.822744   -0.562810   -0.096366
      6          6           0        1.967385    0.347532    0.337621
      7          6           0        3.325421   -0.143696   -0.144402
      8          1           0       -3.404944   -1.324451    0.341927
      9          1           0       -3.839325    0.215638   -0.410214
     10          1           0       -3.098335    0.200073    1.196326
     11          1           0       -1.645322   -0.679672   -1.385245
     12          1           0        1.778077    1.354967   -0.043273
     13          1           0       -0.627482    0.005376    1.457976
     14          1           0        0.805750   -0.642946   -1.187691
     15          1           0        0.981563   -1.573851    0.295897
     16          1           0        1.970453    0.427386    1.429874
     17          1           0        3.359775   -0.196568   -1.235361
     18          1           0        3.543215   -1.143143    0.240908
     19          1           0        4.128248    0.519968    0.181047
 ---------------------------------------------------------------------

 SCF Done:  E(RHF) =  -309.159025915     A.U. after    2 cycles

 The electronic state is 1-A.
 Alpha  occ. eigenvalues --  -20.57341 -11.29054 -11.28732 -11.23266 -11.23252
 Alpha  occ. eigenvalues --  -11.22775 -11.22252  -1.37451  -1.06446  -1.00454
 Alpha  occ. eigenvalues --   -0.96685  -0.86486  -0.81059  -0.79768  -0.68461
 Alpha  occ. eigenvalues --   -0.66318  -0.62432  -0.59313  -0.58013  -0.55576
 Alpha  occ. eigenvalues --   -0.55242  -0.53346  -0.51191  -0.49458  -0.48882
 Alpha  occ. eigenvalues --   -0.47295  -0.44801  -0.42038
 Alpha virt. eigenvalues --    0.03493   0.04090   0.04277   0.04824   0.05938
 Alpha virt. eigenvalues --    0.06121   0.06200   0.07481   0.08136   0.08523
 Alpha virt. eigenvalues --    0.08798   0.10653   0.11356   0.13165   0.13889

 Mulliken charges:
               1
     1  C    0.283236
     2  C    0.283719
     3  O   -0.791811
     4  C    1.109012
     5  C   -0.118235
     6  C    0.183920
     7  C    0.436013
     8  H    0.040785
     9  H    0.052607
    10  H   -0.036959
    11  H   -0.361753
    12  H   -0.115106
    13  H   -0.410822
    14  H   -0.126239
    15  H   -0.078699
    16  H   -0.147359
    17  H   -0.080237
    18  H   -0.065536
    19  H   -0.056536
 Sum of Mulliken charges =  -0.00000

 Dipole moment (field-independent basis, Debye):
    X=             -0.0634    Y=             -2.1791    Z=              0.5809  Tot=              2.2561

 Test job not archived.
 1\1\GINC-SE220\SP\RHF\Aug-CC-pVDZ\C6H12O1\OHZDE\09-Apr-2025\0\\#t hf a
 ug-cc-pvdz iop(5/13=1,5/36=2,99/5=2) pseudo=read geom=check guess=(rea
 d,tcheck) scf=(maxcycle=1)\\title\\0,1\C,0,3.20994267,0.65150146,-0.26
 482607\C,0,1.94329483,-0.15135011,-0.29511878\O,0,1.38228296,-0.506641
 61,0.9626967\C,0,0.65520838,0.38909221,0.12767551\C,0,-0.65882825,-0.1
 0613709,-0.40495683\C,0,-1.75758382,-0.10038537,0.65333117\C,0,-3.0902
 8845,-0.60880238,0.12105053\H,0,3.4024837,1.09761678,-1.24297111\H,0,4
 .05993657,0.01649126,-0.0079808\H,0,3.14046389,1.44832269,0.47648617\H

 Normal termination of Gaussian 16 at Wed Apr  9 15:54:25 2025.
