 Gaussian 16, Revision C.01,

 ----------------------------------------------------------------------
 #t hf aug-cc-pvdz symm=none int=(grid=ultrafine) guess=(read,tcheck) s
 table=(opt,rrhf)
 ----------------------------------------------------------------------
 -----
 title
 -----
 Symbolic Z-matrix:
 Charge =  0 Multiplicity = 1

 SCF Done:  E(RHF) =  -343.575034015     A.U. after   16 cycles
 Normal termination of Gaussian 16 at Wed Apr  9 15:37:03 2025.
 Gaussian 16:  ES64L-G16RevC.01  3-Jul-2019

 ----------------------------------------------------------------------
 #t hf aug-cc-pvdz iop(5/13=1,5/36=2,99/5=2) pseudo=read geom=check gue
 ss=(read,tcheck) scf=(maxcycle=1)
 ----------------------------------------------------------------------
 -----
 title
 -----
 Structure from the checkpoint file:  "Grambow2020_wb97xd3_007215_forward_mol1.chk"
 Charge =  0 Multiplicity = 1

                         Standard orientation:
 ---------------------------------------------------------------------
 Center     Atomic      Atomic             Coordinates (Angstroms)
 Number     Number       Type             X           Y           Z
 ---------------------------------------------------------------------
      1          8           0       -2.863579   -0.028483   -0.158681
      2          6           0       -1.634170   -0.647348    0.220055
      3          6           0       -0.491150    0.115030   -0.346043
      4          6           0        0.224918    1.060541    0.409457
      5          6           0        1.494586    1.580527   -0.082969
      6          6           0        1.764373   -0.716147   -0.389248
      7          8           0        2.262946   -1.554634    0.195076
      8          1           0       -3.583642   -0.622642    0.061984
      9          1           0       -1.604368   -1.677815   -0.156065
     10          1           0       -1.547767   -0.691324    1.313800
     11          1           0       -0.465361    0.200927   -1.426920
     12          1           0        0.003557    2.174553    0.124081
     13          1           0        0.143378    0.985447    1.491955
     14          1           0        2.122522    2.168803    0.576778
     15          1           0        1.585399    1.771362   -1.144278
 ---------------------------------------------------------------------

 SCF Done:  E(RHF) =  -343.682964540     A.U. after    2 cycles

 The electronic state is 1-A.
 Alpha  occ. eigenvalues --  -20.63194 -20.56556 -11.34403 -11.29495 -11.28647
 Alpha  occ. eigenvalues --  -11.27240 -11.23211  -1.44189  -1.31511  -1.11151
 Alpha  occ. eigenvalues --   -0.98851  -0.86527  -0.78894  -0.76987  -0.70582
 Alpha  occ. eigenvalues --   -0.66921  -0.65505  -0.63114  -0.62297  -0.60153
 Alpha  occ. eigenvalues --   -0.58673  -0.57431  -0.53294  -0.49871  -0.46522
 Alpha  occ. eigenvalues --   -0.45608  -0.26318
 Alpha virt. eigenvalues --    0.03353   0.03858   0.04451   0.05552   0.06040
 Alpha virt. eigenvalues --    0.06405   0.06609   0.07084   0.08827   0.09283
 Alpha virt. eigenvalues --    0.11008   0.12445   0.13292   0.13645   0.14503

 Mulliken charges:
               1
     1  O   -0.559762
     2  C    0.800407
     3  C    0.396059
     4  C   -0.286502
     5  C    0.523120
     6  C    0.299144
     7  O   -0.333836
     8  H    0.115455
     9  H   -0.085603
    10  H   -0.145912
    11  H   -0.294342
    12  H    0.374330
    13  H   -0.199244
    14  H   -0.319126
    15  H   -0.284185
 Sum of Mulliken charges =  -0.00000

 Dipole moment (field-independent basis, Debye):
    X=             -0.3365    Y=              1.4464    Z=              0.6856  Tot=              1.6356

 Test job not archived.
 1\1\GINC-SE332\SP\RHF\Aug-CC-pVDZ\C5H8O2\OHZDE\09-Apr-2025\0\\#t hf au
 g-cc-pvdz iop(5/13=1,5/36=2,99/5=2) pseudo=read geom=check guess=(read
 ,tcheck) scf=(maxcycle=1)\\title\\0,1\O,0,2.60679393,0.53012883,0.5358
 307\C,0,1.70869409,-0.41054103,-0.05276097\C,0,0.31088945,-0.07711102,
 0.32558815\C,0,-0.54100735,0.65020604,-0.52459187\C,0,-1.96973337,0.71
 952543,-0.24376792\C,0,-1.54637243,-1.56365599,-0.02207254\O,0,-1.6591
 7726,-2.47381998,-0.69434262\H,0,3.50226868,0.20288984,0.42976749\H,0,
 1.94730452,-1.42283982,0.29728571\H,0,1.81022841,-0.40559859,-1.146078

 Normal termination of Gaussian 16 at Wed Apr  9 15:37:07 2025.
