 Gaussian 16, Revision C.01,

 ----------------------------------------------------------------------
 #t hf aug-cc-pvdz symm=none int=(grid=ultrafine) guess=(read,tcheck) s
 table=(opt,rrhf)
 ----------------------------------------------------------------------
 -----
 title
 -----
 Symbolic Z-matrix:
 Charge =  0 Multiplicity = 1

 SCF Done:  E(RHF) =  -262.497601811     A.U. after   18 cycles
 Normal termination of Gaussian 16 at Wed Apr  9 14:16:02 2025.
 Gaussian 16:  ES64L-G16RevC.01  3-Jul-2019

 ----------------------------------------------------------------------
 #t hf aug-cc-pvdz iop(5/13=1,5/36=2,99/5=2) pseudo=read geom=check gue
 ss=(read,tcheck) scf=(maxcycle=1)
 ----------------------------------------------------------------------
 -----
 title
 -----
 Structure from the checkpoint file:  "Grambow2020_b97d3_006903_forward_mol1.chk"
 Charge =  0 Multiplicity = 1

                         Standard orientation:
 ---------------------------------------------------------------------
 Center     Atomic      Atomic             Coordinates (Angstroms)
 Number     Number       Type             X           Y           Z
 ---------------------------------------------------------------------
      1          6           0       -1.218282    0.628871   -0.160600
      2          6           0       -1.065390   -0.790905    0.157069
      3          7           0        0.135891   -1.310829   -0.005054
      4          7           0        1.232041   -0.627055   -0.242930
      5          6           0        1.176367    0.693839    0.189141
      6          6           0       -0.001989    1.362882   -0.082830
      7          1           0       -2.060985    1.021648   -0.740353
      8          1           0       -1.840188   -1.429170    0.579263
      9          1           0        2.117565    1.152471    0.488281
     10          1           0       -1.136158    1.452112    0.792014
 ---------------------------------------------------------------------

 SCF Done:  E(RHF) =  -262.569797857     A.U. after    2 cycles

 The electronic state is 1-A.
 Alpha  occ. eigenvalues --  -15.70150 -15.69808 -11.31979 -11.31098 -11.30679
 Alpha  occ. eigenvalues --  -11.27723  -1.32698  -1.12225  -1.10041  -0.91926
 Alpha  occ. eigenvalues --   -0.85693  -0.72232  -0.70407  -0.68661  -0.63926
 Alpha  occ. eigenvalues --   -0.58736  -0.50307  -0.49558  -0.42597  -0.36873
 Alpha  occ. eigenvalues --   -0.34812
 Alpha virt. eigenvalues --    0.02487   0.03115   0.04293   0.04436   0.05515
 Alpha virt. eigenvalues --    0.08192   0.09453   0.09897   0.11464   0.11983
 Alpha virt. eigenvalues --    0.12449   0.13744   0.14608   0.14715   0.15716

 Mulliken charges:
               1
     1  C    0.354731
     2  C    0.677910
     3  N   -0.339340
     4  N   -0.505448
     5  C    0.968029
     6  C   -0.914450
     7  H   -0.117369
     8  H   -0.219799
     9  H   -0.194617
    10  H    0.290354
 Sum of Mulliken charges =  -0.00000

 Dipole moment (field-independent basis, Debye):
    X=             -2.9719    Y=              0.9128    Z=              1.4670  Tot=              3.4377

 Test job not archived.
 1\1\GINC-SE159\SP\RHF\Aug-CC-pVDZ\C4H4N2\OHZDE\09-Apr-2025\0\\#t hf au
 g-cc-pvdz iop(5/13=1,5/36=2,99/5=2) pseudo=read geom=check guess=(read
 ,tcheck) scf=(maxcycle=1)\\title\\0,1\C,0,0.53457265,0.92049903,0.1027
 2282\C,0,1.22519171,-0.31798371,-0.25680578\N,0,0.6372488,-1.44795569,
 0.08549127\N,0,-0.58811664,-1.55554421,0.54655717\C,0,-1.42150125,-0.5
 0377882,0.18076246\C,0,-0.8681831,0.75902699,0.27704919\H,0,1.04788827
 ,1.78109514,0.54591359\H,0,2.14232972,-0.38143266,-0.84056382\H,0,-2.4
 8113054,-0.73111815,0.07501509\H,0,-0.19162562,1.46011108,-0.77670799\

 Normal termination of Gaussian 16 at Wed Apr  9 14:16:05 2025.
