 Gaussian 16, Revision C.01,

 ----------------------------------------------------------------------
 #t hf aug-cc-pvdz symm=none int=(grid=ultrafine) guess=(read,tcheck) s
 table=(opt,rrhf)
 ----------------------------------------------------------------------
 -----
 title
 -----
 Symbolic Z-matrix:
 Charge =  0 Multiplicity = 1

 SCF Done:  E(RHF) =  -373.216984554     A.U. after   16 cycles
 Normal termination of Gaussian 16 at Wed Apr  9 03:27:00 2025.
 Gaussian 16:  ES64L-G16RevC.01  3-Jul-2019

 ----------------------------------------------------------------------
 #t hf aug-cc-pvdz iop(5/13=1,5/36=2,99/5=2) pseudo=read geom=check gue
 ss=(read,tcheck) scf=(maxcycle=1)
 ----------------------------------------------------------------------
 -----
 title
 -----
 Structure from the checkpoint file:  "Grambow2020_wb97xd3_006703_reverse_mol1.chk"
 Charge =  0 Multiplicity = 1

                         Standard orientation:
 ---------------------------------------------------------------------
 Center     Atomic      Atomic             Coordinates (Angstroms)
 Number     Number       Type             X           Y           Z
 ---------------------------------------------------------------------
      1          8           0        2.425266   -0.401296    0.004004
      2          6           0        1.621795    0.605271   -0.003706
      3          6           0        0.173111    0.310292   -0.001311
      4          7           0       -0.791974    1.171476    0.000856
      5          6           0       -1.886323    0.357627    0.001808
      6          7           0       -1.612902   -0.913276   -0.000216
      7          8           0       -0.247032   -0.955918   -0.002151
      8          1           0        2.860803    0.696255   -0.003798
      9          1           0       -2.904040    0.714919    0.003742
 ---------------------------------------------------------------------

 SCF Done:  E(RHF) =  -373.328566113     A.U. after    2 cycles

 The electronic state is 1-A.
 Alpha  occ. eigenvalues --  -20.70517 -20.65429 -15.72654 -15.67818 -11.39114
 Alpha  occ. eigenvalues --  -11.37704 -11.34431  -1.52319  -1.43753  -1.25963
 Alpha  occ. eigenvalues --   -1.17349  -0.95303  -0.89522  -0.83413  -0.79664
 Alpha  occ. eigenvalues --   -0.72785  -0.72178  -0.64535  -0.62878  -0.60801
 Alpha  occ. eigenvalues --   -0.54951  -0.50067  -0.49656  -0.42838  -0.41086
 Alpha virt. eigenvalues --    0.01576   0.03317   0.03404   0.07651   0.08068
 Alpha virt. eigenvalues --    0.08816   0.10248   0.11637   0.11832   0.13534
 Alpha virt. eigenvalues --    0.13559   0.13744   0.16092   0.17159   0.17509

 Mulliken charges:
               1
     1  O   -0.522008
     2  C    0.127976
     3  C    0.483375
     4  N   -0.461022
     5  C    0.864715
     6  N   -0.111423
     7  O   -0.593492
     8  H    0.351422
     9  H   -0.139542
 Sum of Mulliken charges =  -0.00000

 Dipole moment (field-independent basis, Debye):
    X=             -0.3768    Y=              1.8653    Z=             -0.0038  Tot=              1.9030

 Test job not archived.
 1\1\GINC-SE220\SP\RHF\Aug-CC-pVDZ\C3H2N2O2\OHZDE\09-Apr-2025\0\\#t hf
 aug-cc-pvdz iop(5/13=1,5/36=2,99/5=2) pseudo=read geom=check guess=(re
 ad,tcheck) scf=(maxcycle=1)\\title\\0,1\O,0,-2.48536338,-0.47568483,-0
 .16614525\C,0,-1.64672475,0.49012514,-0.01548211\C,0,-0.21109476,0.137
 75665,0.00700119\N,0,0.7840089,0.95358937,0.13820977\C,0,1.84684026,0.
 10030775,0.09077944\N,0,1.5272889,-1.15092878,-0.05839302\O,0,0.162007
 13,-1.13724875,-0.11533198\H,0,-2.88038303,0.63150025,-0.05446524\H,0,
 2.87604774,0.41347721,0.1686622\\Version=ES64L-G16RevC.01\State=1-A\HF

 Normal termination of Gaussian 16 at Wed Apr  9 03:27:04 2025.
