 Gaussian 16, Revision C.01,

 ----------------------------------------------------------------------
 #t hf aug-cc-pvdz symm=none int=(grid=ultrafine) guess=(read,tcheck) s
 table=(opt,rrhf)
 ----------------------------------------------------------------------
 -----
 title
 -----
 Symbolic Z-matrix:
 Charge =  0 Multiplicity = 1

 SCF Done:  E(RHF) =  -322.646105004     A.U. after   14 cycles
 Normal termination of Gaussian 16 at Wed Apr  9 16:05:58 2025.
 Gaussian 16:  ES64L-G16RevC.01  3-Jul-2019

 ----------------------------------------------------------------------
 #t hf aug-cc-pvdz iop(5/13=1,5/36=2,99/5=2) pseudo=read geom=check gue
 ss=(read,tcheck) scf=(maxcycle=1)
 ----------------------------------------------------------------------
 -----
 title
 -----
 Structure from the checkpoint file:  "Grambow2020_wb97xd3_007749_reverse_mol2.chk"
 Charge =  0 Multiplicity = 1

                         Standard orientation:
 ---------------------------------------------------------------------
 Center     Atomic      Atomic             Coordinates (Angstroms)
 Number     Number       Type             X           Y           Z
 ---------------------------------------------------------------------
      1          6           0       -3.336857   -0.166077   -0.110577
      2          6           0       -2.017643   -0.779324   -0.018342
      3          6           0       -0.941085   -1.301101    0.048482
      4          6           0        3.189545   -1.448277    0.131300
      5          7           0        2.685990   -0.438183   -0.143563
      6          8           0        0.979171    1.732811   -0.422596
      7          6           0        0.199814    1.606060    0.485472
      8          1           0       -3.648456    0.233592    0.855459
      9          1           0       -3.337463    0.646420   -0.838636
     10          1           0       -4.075704   -0.903638   -0.426062
     11          1           0        0.012868   -1.775737    0.094780
     12          1           0        2.201156    0.434083   -0.359648
     13          1           0        0.385450    0.915220    1.323518
     14          1           0       -0.735794    2.187164    0.518285
 ---------------------------------------------------------------------

 SCF Done:  E(RHF) =  -322.753083771     A.U. after    2 cycles

 The electronic state is 1-A.
 Alpha  occ. eigenvalues --  -20.61744 -15.64673 -11.38068 -11.28384 -11.27610
 Alpha  occ. eigenvalues --  -11.26157 -11.24635  -1.40474  -1.21314  -1.06917
 Alpha  occ. eigenvalues --   -0.97406  -0.89616  -0.84469  -0.73333  -0.72563
 Alpha  occ. eigenvalues --   -0.69500  -0.64127  -0.61148  -0.61095  -0.58641
 Alpha  occ. eigenvalues --   -0.49879  -0.49790  -0.48876  -0.46892  -0.40626
 Alpha  occ. eigenvalues --   -0.40530
 Alpha virt. eigenvalues --    0.02326   0.03798   0.04589   0.05047   0.06069
 Alpha virt. eigenvalues --    0.06636   0.06905   0.08517   0.09347   0.10385
 Alpha virt. eigenvalues --    0.11407   0.12386   0.13346   0.13431   0.13588

 Mulliken charges:
               1
     1  C    0.223897
     2  C   -1.246426
     3  C    1.447343
     4  C   -0.241988
     5  N   -0.055062
     6  O   -0.408276
     7  C    0.782567
     8  H    0.047835
     9  H    0.035173
    10  H    0.007540
    11  H   -0.525352
    12  H    0.263822
    13  H   -0.127677
    14  H   -0.203397
 Sum of Mulliken charges =  -0.00000

 Dipole moment (field-independent basis, Debye):
    X=             -4.9445    Y=              2.9165    Z=              1.5458  Tot=              5.9450

 Test job not archived.
 1\1\GINC-SE041\SP\RHF\Aug-CC-pVDZ\C5H7N1O1\OHZDE\09-Apr-2025\0\\#t hf
 aug-cc-pvdz iop(5/13=1,5/36=2,99/5=2) pseudo=read geom=check guess=(re
 ad,tcheck) scf=(maxcycle=1)\\title\\0,1\C,0,-2.65895575,-0.14190873,-0
 .69101528\C,0,-1.3502766,-0.76961927,-0.55594786\C,0,-0.28020646,-1.30
 004644,-0.45956312\C,0,3.7869089,-1.50446985,0.25276508\N,0,3.29786074
 ,-0.45289839,0.18616249\O,0,1.58089653,1.727422,0.23660923\C,0,0.67170
 343,1.36295735,0.93559773\H,0,-3.13475013,-0.02087149,0.28316427\H,0,-
 2.57246429,0.8397056,-1.1591762\H,0,-3.31116974,-0.75678151,-1.3122794

 Normal termination of Gaussian 16 at Wed Apr  9 16:06:03 2025.
