 Gaussian 16, Revision C.01,

 ----------------------------------------------------------------------
 #t hf aug-cc-pvdz symm=none int=(grid=ultrafine) guess=(read,tcheck) s
 table=(opt,rrhf)
 ----------------------------------------------------------------------
 -----
 title
 -----
 Symbolic Z-matrix:
 Charge =  0 Multiplicity = 1

 SCF Done:  E(RHF) =  -358.554118456     A.U. after   16 cycles
 Normal termination of Gaussian 16 at Wed Apr  9 03:28:05 2025.
 Gaussian 16:  ES64L-G16RevC.01  3-Jul-2019

 ----------------------------------------------------------------------
 #t hf aug-cc-pvdz iop(5/13=1,5/36=2,99/5=2) pseudo=read geom=check gue
 ss=(read,tcheck) scf=(maxcycle=1)
 ----------------------------------------------------------------------
 -----
 title
 -----
 Structure from the checkpoint file:  "Grambow2020_wb97xd3_006778_reverse_mol2.chk"
 Charge =  0 Multiplicity = 1

                         Standard orientation:
 ---------------------------------------------------------------------
 Center     Atomic      Atomic             Coordinates (Angstroms)
 Number     Number       Type             X           Y           Z
 ---------------------------------------------------------------------
      1          8           0        2.852154   -0.498546   -0.304961
      2          6           0        1.879274   -0.056030    0.134963
      3          6           0        0.760315    0.433275    0.612855
      4          6           0       -0.227989    1.202516   -0.255712
      5          7           0       -1.628536    0.874858   -0.082985
      6          6           0       -2.037098   -0.314017   -0.013239
      7          8           0       -1.340599   -1.463742   -0.037706
      8          1           0       -0.395434   -1.260529    0.029820
      9          1           0        0.637889    0.408266    1.688798
     10          1           0        0.042967    1.076944   -1.309923
     11          1           0       -0.122175    2.265630   -0.035307
     12          1           0       -3.102943   -0.510486    0.075639
 ---------------------------------------------------------------------

 SCF Done:  E(RHF) =  -358.666979771     A.U. after    2 cycles

 The electronic state is 1-A.
 Alpha  occ. eigenvalues --  -20.65973 -20.61894 -15.61794 -11.41013 -11.35673
 Alpha  occ. eigenvalues --  -11.30066 -11.26918  -1.45958  -1.39510  -1.19862
 Alpha  occ. eigenvalues --   -1.09006  -0.95815  -0.85537  -0.78152  -0.71923
 Alpha  occ. eigenvalues --   -0.70560  -0.70261  -0.67888  -0.64597  -0.62484
 Alpha  occ. eigenvalues --   -0.59683  -0.58245  -0.56381  -0.42196  -0.40919
 Alpha  occ. eigenvalues --   -0.37677
 Alpha virt. eigenvalues --    0.03095   0.04405   0.04415   0.05098   0.07293
 Alpha virt. eigenvalues --    0.07818   0.09517   0.10485   0.10670   0.11330
 Alpha virt. eigenvalues --    0.12719   0.13372   0.13851   0.14361   0.15440

 Mulliken charges:
               1
     1  O   -0.220219
     2  C   -0.523170
     3  C    0.895453
     4  C    0.680993
     5  N   -0.383379
     6  C    0.586983
     7  O   -0.378260
     8  H    0.188675
     9  H   -0.299908
    10  H   -0.161386
    11  H   -0.111869
    12  H   -0.273912
 Sum of Mulliken charges =  -0.00000

 Dipole moment (field-independent basis, Debye):
    X=              0.2258    Y=              0.5554    Z=              0.8352  Tot=              1.0281

 Test job not archived.
 1\1\GINC-SE071\SP\RHF\Aug-CC-pVDZ\C4H5N1O2\OHZDE\09-Apr-2025\0\\#t hf
 aug-cc-pvdz iop(5/13=1,5/36=2,99/5=2) pseudo=read geom=check guess=(re
 ad,tcheck) scf=(maxcycle=1)\\title\\0,1\O,0,2.76030591,0.59144327,-1.3
 7094031\C,0,1.94360278,0.52618256,-0.55571846\C,0,0.99883125,0.4404734
 3,0.34978219\C,0,-0.40389778,0.98902324,0.1166973\N,0,-1.50393284,0.14
 360947,0.5337419\C,0,-1.53699686,-1.08952906,0.28177381\O,0,-0.6301003
 7,-1.86308657,-0.34009699\H,0,0.18557473,-1.35450635,-0.46343341\H,0,1
 .29772116,0.10550872,1.33554555\H,0,-0.52361027,1.23725308,-0.94377326

 Normal termination of Gaussian 16 at Wed Apr  9 03:28:09 2025.
