 Gaussian 16, Revision C.01,

 ----------------------------------------------------------------------
 #t hf aug-cc-pvdz symm=none int=(grid=ultrafine) guess=(read,tcheck) s
 table=(opt,rrhf)
 ----------------------------------------------------------------------
 -----
 title
 -----
 Symbolic Z-matrix:
 Charge =  0 Multiplicity = 1

 SCF Done:  E(RHF) =  -359.571909190     A.U. after   16 cycles
 Normal termination of Gaussian 16 at Wed Apr  9 03:52:39 2025.
 Gaussian 16:  ES64L-G16RevC.01  3-Jul-2019

 ----------------------------------------------------------------------
 #t hf aug-cc-pvdz iop(5/13=1,5/36=2,99/5=2) pseudo=read geom=check gue
 ss=(read,tcheck) scf=(maxcycle=1)
 ----------------------------------------------------------------------
 -----
 title
 -----
 Structure from the checkpoint file:  "Grambow2020_wb97xd3_008378_forward_mol1.chk"
 Charge =  0 Multiplicity = 1

                         Standard orientation:
 ---------------------------------------------------------------------
 Center     Atomic      Atomic             Coordinates (Angstroms)
 Number     Number       Type             X           Y           Z
 ---------------------------------------------------------------------
      1          8           0        0.382970    1.783607    0.340480
      2          6           0        0.692391    0.663310   -0.425167
      3          6           0        1.781801   -0.229230    0.178609
      4          7           0        0.969703   -1.415765   -0.150140
      5          6           0       -0.215615   -0.612530   -0.319553
      6          6           0       -1.368232   -0.557261    0.474903
      7          8           0       -2.295551    0.042911   -0.181940
      8          1           0       -0.299619    2.292383   -0.102389
      9          1           0        0.892607    0.933569   -1.464902
     10          1           0        1.860283   -0.023614    1.251766
     11          1           0        2.771380   -0.206336   -0.280977
     12          1           0        0.930557   -2.159245    0.533202
     13          1           0       -1.411701   -0.175570   -1.079089
     14          1           0       -1.572852   -0.948710    1.472301
 ---------------------------------------------------------------------

 SCF Done:  E(RHF) =  -359.681103784     A.U. after    2 cycles

 The electronic state is 1-A.
 Alpha  occ. eigenvalues --  -20.59758 -20.58938 -15.62189 -11.36274 -11.31528
 Alpha  occ. eigenvalues --  -11.26982 -11.25419  -1.38211  -1.34898  -1.22025
 Alpha  occ. eigenvalues --   -0.98088  -0.96552  -0.85215  -0.79770  -0.75479
 Alpha  occ. eigenvalues --   -0.72542  -0.66544  -0.64888  -0.59788  -0.58671
 Alpha  occ. eigenvalues --   -0.57754  -0.55992  -0.51205  -0.50022  -0.45263
 Alpha  occ. eigenvalues --   -0.42085  -0.31410
 Alpha virt. eigenvalues --    0.03190   0.03628   0.04364   0.05192   0.06147
 Alpha virt. eigenvalues --    0.06716   0.07368   0.08052   0.10833   0.11195
 Alpha virt. eigenvalues --    0.11887   0.13605   0.13983   0.14311   0.14431

 Mulliken charges:
               1
     1  O   -0.571603
     2  C    0.599587
     3  C    0.780149
     4  N   -0.614803
     5  C   -0.509414
     6  C    0.906771
     7  O   -0.656632
     8  H    0.164989
     9  H   -0.158464
    10  H   -0.153023
    11  H   -0.154651
    12  H   -0.061608
    13  H    0.558551
    14  H   -0.129848
 Sum of Mulliken charges =   0.00000

 Dipole moment (field-independent basis, Debye):
    X=              1.0054    Y=             -0.5355    Z=              1.0958  Tot=              1.5806

 Test job not archived.
 1\1\GINC-SE342\SP\RHF\Aug-CC-pVDZ\C4H7N1O2\OHZDE\09-Apr-2025\0\\#t hf
 aug-cc-pvdz iop(5/13=1,5/36=2,99/5=2) pseudo=read geom=check guess=(re
 ad,tcheck) scf=(maxcycle=1)\\title\\0,1\O,0,-0.89391592,-1.42360862,0.
 80320248\C,0,-0.78387434,-0.48351408,-0.21715842\C,0,-1.30197534,0.910
 06221,0.15365605\N,0,-0.10633867,1.50405553,-0.47329726\C,0,0.58907968
 ,0.2412826,-0.44750905\C,0,1.69413901,-0.14492417,0.32218459\O,0,2.186
 12515,-1.22440148,-0.17203031\H,0,-0.55554319,-2.26730739,0.49564909\H
 ,0,-1.20628377,-0.85870476,-1.15256051\H,0,-1.32907353,1.00427419,1.24

 Normal termination of Gaussian 16 at Wed Apr  9 03:52:43 2025.
