 Gaussian 16, Revision C.01,

 ----------------------------------------------------------------------
 #t hf aug-cc-pvdz symm=none int=(grid=ultrafine) guess=(read,tcheck) s
 table=(opt,rrhf)
 ----------------------------------------------------------------------
 -----
 title
 -----
 Symbolic Z-matrix:
 Charge =  0 Multiplicity = 1

 SCF Done:  E(RHF) =  -338.753415312     A.U. after   14 cycles
 Normal termination of Gaussian 16 at Wed Apr  9 03:26:43 2025.
 Gaussian 16:  ES64L-G16RevC.01  3-Jul-2019

 ----------------------------------------------------------------------
 #t hf aug-cc-pvdz iop(5/13=1,5/36=2,99/5=2) pseudo=read geom=check gue
 ss=(read,tcheck) scf=(maxcycle=1)
 ----------------------------------------------------------------------
 -----
 title
 -----
 Structure from the checkpoint file:  "Grambow2020_wb97xd3_006698_reverse_mol2.chk"
 Charge =  0 Multiplicity = 1

                         Standard orientation:
 ---------------------------------------------------------------------
 Center     Atomic      Atomic             Coordinates (Angstroms)
 Number     Number       Type             X           Y           Z
 ---------------------------------------------------------------------
      1          6           0       -2.411013   -0.546642   -0.000009
      2          6           0       -1.044729    0.016273   -0.000455
      3          6           0       -0.554101    1.253114   -0.000562
      4          7           0        0.833439    1.142811    0.001214
      5          6           0        1.188658   -0.178956    0.000303
      6          7           0        2.359942   -0.650755   -0.000628
      7          8           0        0.010608   -0.881453    0.000598
      8          1           0       -2.583827   -1.154975    0.890216
      9          1           0       -3.142140    0.260684   -0.016260
     10          1           0       -2.572908   -1.179324   -0.875067
     11          1           0       -1.065804    2.199448    0.000101
     12          1           0        1.508464    1.881471   -0.002673
     13          1           0        2.344793   -1.662820   -0.000865
 ---------------------------------------------------------------------

 SCF Done:  E(RHF) =  -338.859383513     A.U. after    2 cycles

 The electronic state is 1-A.
 Alpha  occ. eigenvalues --  -20.63204 -15.66551 -15.57673 -11.38422 -11.31053
 Alpha  occ. eigenvalues --  -11.28801 -11.25575  -1.43776  -1.23071  -1.16318
 Alpha  occ. eigenvalues --   -1.05056  -0.95529  -0.85442  -0.82945  -0.72864
 Alpha  occ. eigenvalues --   -0.68444  -0.67582  -0.61558  -0.60879  -0.58726
 Alpha  occ. eigenvalues --   -0.58567  -0.56210  -0.51310  -0.43096  -0.42808
 Alpha  occ. eigenvalues --   -0.29991
 Alpha virt. eigenvalues --    0.02706   0.03517   0.04745   0.05598   0.06099
 Alpha virt. eigenvalues --    0.06857   0.09512   0.09570   0.11994   0.12256
 Alpha virt. eigenvalues --    0.12859   0.13822   0.14657   0.14764   0.16462

 Mulliken charges:
               1
     1  C    0.246568
     2  C    0.155626
     3  C    0.759286
     4  N   -0.429156
     5  C    0.573914
     6  N   -0.332839
     7  O   -0.716657
     8  H    0.066899
     9  H    0.005200
    10  H    0.062177
    11  H   -0.258606
    12  H   -0.120246
    13  H   -0.012164
 Sum of Mulliken charges =  -0.00000

 Dipole moment (field-independent basis, Debye):
    X=             -3.4557    Y=              2.1298    Z=             -0.0051  Tot=              4.0593

 Test job not archived.
 1\1\GINC-SE105\SP\RHF\Aug-CC-pVDZ\C4H6N2O1\OHZDE\09-Apr-2025\0\\#t hf
 aug-cc-pvdz iop(5/13=1,5/36=2,99/5=2) pseudo=read geom=check guess=(re
 ad,tcheck) scf=(maxcycle=1)\\title\\0,1\C,0,-2.03468965,0.50881872,-0.
 13402529\C,0,-0.65276733,-0.01381537,-0.16140942\C,0,-0.12538345,-1.23
 524511,-0.13981189\N,0,1.25744081,-1.08472961,-0.19059906\C,0,1.572563
 4,0.24618985,-0.24159556\N,0,2.72854739,0.75166333,-0.29356181\O,0,0.3
 74498,0.91375931,-0.22450188\H,0,-2.25412429,1.08362332,-1.03617984\H,
 0,-2.74029261,-0.31852844,-0.06916867\H,0,-2.18747878,1.16367823,0.726

 Normal termination of Gaussian 16 at Wed Apr  9 03:26:47 2025.
