 Gaussian 16, Revision C.01,

 ----------------------------------------------------------------------
 #t hf aug-cc-pvdz symm=none int=(grid=ultrafine) guess=(read,tcheck) s
 table=(opt,rrhf)
 ----------------------------------------------------------------------
 -----
 title
 -----
 Symbolic Z-matrix:
 Charge =  0 Multiplicity = 1

 SCF Done:  E(RHF) =  -359.532222713     A.U. after   15 cycles
 Normal termination of Gaussian 16 at Wed Apr  9 03:45:32 2025.
 Gaussian 16:  ES64L-G16RevC.01  3-Jul-2019

 ----------------------------------------------------------------------
 #t hf aug-cc-pvdz iop(5/13=1,5/36=2,99/5=2) pseudo=read geom=check gue
 ss=(read,tcheck) scf=(maxcycle=1)
 ----------------------------------------------------------------------
 -----
 title
 -----
 Structure from the checkpoint file:  "Grambow2020_wb97xd3_007888_forward_mol1.chk"
 Charge =  0 Multiplicity = 1

                         Standard orientation:
 ---------------------------------------------------------------------
 Center     Atomic      Atomic             Coordinates (Angstroms)
 Number     Number       Type             X           Y           Z
 ---------------------------------------------------------------------
      1          6           0        0.506319    1.462963    0.019089
      2          6           0        0.376078   -0.016871   -0.166320
      3          7           0        1.358681   -0.830423   -0.098807
      4          8           0        2.536736   -0.192142    0.199994
      5          6           0       -0.896451   -0.731241   -0.539149
      6          6           0       -2.098228   -0.250151    0.736539
      7          8           0       -1.971818    0.181258   -0.587518
      8          1           0        1.194040    1.877181   -0.720315
      9          1           0       -0.460474    1.950929   -0.086749
     10          1           0        0.930171    1.685853    1.000349
     11          1           0        3.182130   -0.902981    0.187616
     12          1           0       -1.417817   -1.256404    0.686899
     13          1           0       -3.074601   -0.684119    0.943136
     14          1           0       -1.709866    0.441368    1.479953
 ---------------------------------------------------------------------

 SCF Done:  E(RHF) =  -359.641732181     A.U. after    2 cycles

 The electronic state is 1-A.
 Alpha  occ. eigenvalues --  -20.62479 -20.61124 -15.70177 -11.34256 -11.32684
 Alpha  occ. eigenvalues --  -11.28892 -11.24139  -1.41010  -1.40373  -1.16013
 Alpha  occ. eigenvalues --   -0.98374  -0.95879  -0.91300  -0.77131  -0.72254
 Alpha  occ. eigenvalues --   -0.71934  -0.66436  -0.63736  -0.63236  -0.60772
 Alpha  occ. eigenvalues --   -0.56822  -0.55388  -0.55216  -0.51487  -0.45146
 Alpha  occ. eigenvalues --   -0.40656  -0.35029
 Alpha virt. eigenvalues --    0.03072   0.03879   0.04577   0.05196   0.06387
 Alpha virt. eigenvalues --    0.07087   0.07680   0.08993   0.10093   0.11581
 Alpha virt. eigenvalues --    0.12818   0.13160   0.13744   0.14576   0.15574

 Mulliken charges:
               1
     1  C    0.491078
     2  C    0.132821
     3  N   -0.222017
     4  O   -0.503965
     5  C   -0.136397
     6  C    0.789654
     7  O   -0.633795
     8  H    0.004931
     9  H   -0.125261
    10  H    0.075997
    11  H    0.182487
    12  H    0.260612
    13  H   -0.219427
    14  H   -0.096718
 Sum of Mulliken charges =  -0.00000

 Dipole moment (field-independent basis, Debye):
    X=              0.0641    Y=              0.8316    Z=              2.9037  Tot=              3.0211

 Test job not archived.
 1\1\GINC-SE328\SP\RHF\Aug-CC-pVDZ\C4H7N1O2\OHZDE\09-Apr-2025\0\\#t hf
 aug-cc-pvdz iop(5/13=1,5/36=2,99/5=2) pseudo=read geom=check guess=(re
 ad,tcheck) scf=(maxcycle=1)\\title\\0,1\C,0,-0.93711927,-1.03526053,0.
 21872052\C,0,-0.51270391,0.32508933,-0.24015611\N,0,-1.17034034,1.3933
 7906,0.00110164\O,0,-2.28801197,1.15028129,0.76018792\C,0,0.68325252,0
 .60798205,-1.11096848\C,0,2.09456603,-0.11491578,-0.22287703\O,0,1.406
 38078,-0.58051949,-1.34752464\H,0,-1.92147062,-1.27980028,-0.18440078\
 H,0,-0.22533065,-1.79105922,-0.10704899\H,0,-1.03022715,-1.05609217,1.

 Normal termination of Gaussian 16 at Wed Apr  9 03:45:37 2025.
