 Gaussian 16, Revision C.01,

 ----------------------------------------------------------------------
 #t hf aug-cc-pvdz symm=none int=(grid=ultrafine) guess=(read,tcheck) s
 table=(opt,rrhf)
 ----------------------------------------------------------------------
 -----
 title
 -----
 Symbolic Z-matrix:
 Charge =  0 Multiplicity = 1

 SCF Done:  E(RHF) =  -264.989886545     A.U. after   14 cycles
 Normal termination of Gaussian 16 at Wed Apr  9 14:15:13 2025.
 Gaussian 16:  ES64L-G16RevC.01  3-Jul-2019

 ----------------------------------------------------------------------
 #t hf aug-cc-pvdz iop(5/13=1,5/36=2,99/5=2) pseudo=read geom=check gue
 ss=(read,tcheck) scf=(maxcycle=1)
 ----------------------------------------------------------------------
 -----
 title
 -----
 Structure from the checkpoint file:  "Grambow2020_b97d3_006849_reverse_mol2.chk"
 Charge =  0 Multiplicity = 1

                         Standard orientation:
 ---------------------------------------------------------------------
 Center     Atomic      Atomic             Coordinates (Angstroms)
 Number     Number       Type             X           Y           Z
 ---------------------------------------------------------------------
      1          6           0       -1.464856   -0.679826    0.001949
      2          7           0       -0.102897   -1.157736    0.066213
      3          6           0        0.712483    0.060714    0.419420
      4          6           0        2.098960    0.012455   -0.221628
      5          6           0       -0.093734    1.312380    0.065239
      6          7           0       -1.286795    0.820710   -0.182746
      7          1           0       -2.004217   -0.838574    0.949353
      8          1           0       -2.039131   -1.123699   -0.821876
      9          1           0       -2.091516    1.414012   -0.385011
     10          1           0        0.178585   -1.432430   -0.879235
     11          1           0        0.830504    0.089488    1.519204
     12          1           0        2.697116    0.869868    0.108612
     13          1           0        2.620482   -0.914564    0.052864
     14          1           0        2.018901    0.060745   -1.318066
 ---------------------------------------------------------------------

 SCF Done:  E(RHF) =  -265.068285659     A.U. after    2 cycles

 The electronic state is 1-A.
 Alpha  occ. eigenvalues --  -15.66824 -15.62322 -11.31357 -11.26779 -11.25293
 Alpha  occ. eigenvalues --  -11.23141  -1.26235  -1.13470  -1.02429  -0.91340
 Alpha  occ. eigenvalues --   -0.84687  -0.76974  -0.68151  -0.67098  -0.60783
 Alpha  occ. eigenvalues --   -0.59897  -0.56871  -0.52292  -0.51347  -0.49305
 Alpha  occ. eigenvalues --   -0.44106  -0.40057  -0.34582
 Alpha virt. eigenvalues --    0.02923   0.03878   0.04291   0.04949   0.06809
 Alpha virt. eigenvalues --    0.07076   0.07395   0.08773   0.10980   0.11432
 Alpha virt. eigenvalues --    0.12410   0.12851   0.14543   0.14793   0.15078

 Mulliken charges:
               1
     1  C    1.049104
     2  N   -0.705586
     3  C    0.167968
     4  C    0.549888
     5  C   -0.200913
     6  N   -0.272019
     7  H   -0.172226
     8  H   -0.160030
     9  H   -0.102987
    10  H    0.084917
    11  H   -0.148400
    12  H   -0.052886
    13  H    0.004982
    14  H   -0.041813
 Sum of Mulliken charges =  -0.00000

 Dipole moment (field-independent basis, Debye):
    X=             -1.8931    Y=             -1.5329    Z=             -0.9974  Tot=              2.6322

 Test job not archived.
 1\1\GINC-SE026\SP\RHF\Aug-CC-pVDZ\C4H8N2\OHZDE\09-Apr-2025\0\\#t hf au
 g-cc-pvdz iop(5/13=1,5/36=2,99/5=2) pseudo=read geom=check guess=(read
 ,tcheck) scf=(maxcycle=1)\\title\\0,1\C,0,1.63467674,0.13648316,0.4319
 1777\N,0,0.63306068,-0.85178923,0.10398116\C,0,-0.44880315,-0.07722158
 ,-0.60583439\C,0,-1.83290138,-0.66048007,-0.32357736\C,0,-0.3119738,1.
 40363076,-0.24465609\N,0,0.85683114,1.44277185,0.35450422\H,0,2.436323
 12,0.17929529,-0.32254564\H,0,2.07815285,-0.01225381,1.42524994\H,0,1.
 28462976,2.31617456,0.66215669\H,0,0.22370509,-1.18708716,0.98065958\H

 Normal termination of Gaussian 16 at Wed Apr  9 14:15:17 2025.
