 Gaussian 16, Revision C.01,

 ----------------------------------------------------------------------
 #t hf aug-cc-pvdz symm=none int=(grid=ultrafine) guess=(read,tcheck) s
 table=(opt,rrhf)
 ----------------------------------------------------------------------
 -----
 title
 -----
 Symbolic Z-matrix:
 Charge =  0 Multiplicity = 1

 SCF Done:  E(RHF) =  -262.680155744     A.U. after   14 cycles
 Normal termination of Gaussian 16 at Wed Apr  9 14:16:00 2025.
 Gaussian 16:  ES64L-G16RevC.01  3-Jul-2019

 ----------------------------------------------------------------------
 #t hf aug-cc-pvdz iop(5/13=1,5/36=2,99/5=2) pseudo=read geom=check gue
 ss=(read,tcheck) scf=(maxcycle=1)
 ----------------------------------------------------------------------
 -----
 title
 -----
 Structure from the checkpoint file:  "Grambow2020_b97d3_006896_forward_mol2.chk"
 Charge =  0 Multiplicity = 1

                         Standard orientation:
 ---------------------------------------------------------------------
 Center     Atomic      Atomic             Coordinates (Angstroms)
 Number     Number       Type             X           Y           Z
 ---------------------------------------------------------------------
      1          6           0       -0.706265    1.180465    0.001124
      2          6           0       -1.326330   -0.078150   -0.000160
      3          7           0       -0.658563   -1.244581   -0.000826
      4          7           0        0.680732   -1.233255    0.001016
      5          6           0        1.326960   -0.055166   -0.000214
      6          6           0        0.685169    1.191991   -0.001025
      7          1           0       -1.294595    2.097426    0.002250
      8          1           0       -2.412984   -0.174981   -0.001276
      9          1           0        2.415958   -0.130729    0.001226
     10          1           0        1.259237    2.118286   -0.001881
 ---------------------------------------------------------------------

 SCF Done:  E(RHF) =  -262.754380890     A.U. after    2 cycles

 The electronic state is 1-A.
 Alpha  occ. eigenvalues --  -15.68182 -15.68111 -11.29970 -11.29960 -11.28715
 Alpha  occ. eigenvalues --  -11.28600  -1.30191  -1.09975  -1.09377  -0.89458
 Alpha  occ. eigenvalues --   -0.88257  -0.73003  -0.69849  -0.66708  -0.60399
 Alpha  occ. eigenvalues --   -0.58877  -0.57360  -0.47785  -0.40362  -0.40190
 Alpha  occ. eigenvalues --   -0.38270
 Alpha virt. eigenvalues --    0.02544   0.03438   0.05018   0.05843   0.07008
 Alpha virt. eigenvalues --    0.08421   0.10596   0.10787   0.12369   0.12601
 Alpha virt. eigenvalues --    0.13257   0.13713   0.13809   0.14929   0.14943

 Mulliken charges:
               1
     1  C    0.499078
     2  C    0.588090
     3  N   -0.441424
     4  N   -0.440889
     5  C    0.587646
     6  C    0.497046
     7  H   -0.369238
     8  H   -0.276156
     9  H   -0.274841
    10  H   -0.369312
 Sum of Mulliken charges =  -0.00000

 Dipole moment (field-independent basis, Debye):
    X=             -0.0383    Y=              4.2778    Z=             -0.0001  Tot=              4.2779

 Test job not archived.
 1\1\GINC-SE083\SP\RHF\Aug-CC-pVDZ\C4H4N2\OHZDE\09-Apr-2025\0\\#t hf au
 g-cc-pvdz iop(5/13=1,5/36=2,99/5=2) pseudo=read geom=check guess=(read
 ,tcheck) scf=(maxcycle=1)\\title\\0,1\C,0,0.67294238,0.83350588,-0.091
 73735\C,0,1.3307985,-0.40550479,-0.11763263\N,0,0.70453989,-1.59075343
 ,-0.02037226\N,0,-0.62825695,-1.6193452,0.10876861\C,0,-1.30927624,-0.
 46149292,0.14187926\C,0,-0.7113379,0.80368181,0.04647829\H,0,1.2282498
 4,1.76712798,-0.17500812\H,0,2.41499365,-0.46988255,-0.22044848\H,0,-2
 .39022824,-0.56943626,0.24920604\H,0,-1.31242493,1.71209949,0.07886663

 Normal termination of Gaussian 16 at Wed Apr  9 14:16:03 2025.
