 Gaussian 16, Revision C.01,

 ----------------------------------------------------------------------
 #t hf aug-cc-pvdz symm=none int=(grid=ultrafine) guess=(read,tcheck) s
 table=(opt,rrhf)
 ----------------------------------------------------------------------
 -----
 title
 -----
 Symbolic Z-matrix:
 Charge =  0 Multiplicity = 1

 SCF Done:  E(RHF) =  -302.791195406     A.U. after   15 cycles
 Normal termination of Gaussian 16 at Wed Apr  9 16:57:22 2025.
 Gaussian 16:  ES64L-G16RevC.01  3-Jul-2019

 ----------------------------------------------------------------------
 #t hf aug-cc-pvdz iop(5/13=1,5/36=2,99/5=2) pseudo=read geom=check gue
 ss=(read,tcheck) scf=(maxcycle=1)
 ----------------------------------------------------------------------
 -----
 title
 -----
 Structure from the checkpoint file:  "Grambow2020_wb97xd3_009084_reverse_mol1.chk"
 Charge =  0 Multiplicity = 1

                         Standard orientation:
 ---------------------------------------------------------------------
 Center     Atomic      Atomic             Coordinates (Angstroms)
 Number     Number       Type             X           Y           Z
 ---------------------------------------------------------------------
      1          6           0        1.943409   -0.282917    0.850498
      2          7           0        0.966699   -0.603095   -0.713336
      3          6           0        1.018819    0.773225   -0.457042
      4          6           0       -0.240534    1.200844   -0.042980
      5          6           0       -0.993332    0.035196   -0.034015
      6          6           0       -2.428892   -0.144655    0.327175
      7          7           0       -0.252644   -1.026755   -0.405683
      8          1           0        2.617699   -1.097021    0.615863
      9          1           0        1.183801   -0.550873    1.574779
     10          1           0        2.506140    0.595900    1.157617
     11          1           0        1.838528    1.354106   -0.852936
     12          1           0       -0.553831    2.202571    0.200873
     13          1           0       -3.035902    0.682171   -0.042467
     14          1           0       -2.550869   -0.190488    1.411686
     15          1           0       -2.800773   -1.077572   -0.094099
 ---------------------------------------------------------------------

 SCF Done:  E(RHF) =  -302.879965787     A.U. after    2 cycles

 The electronic state is 1-A.
 Alpha  occ. eigenvalues --  -15.68690 -15.62147 -11.30567 -11.29829 -11.27420
 Alpha  occ. eigenvalues --  -11.23321 -11.22209  -1.32362  -1.08234  -1.04047
 Alpha  occ. eigenvalues --   -0.96594  -0.91761  -0.79549  -0.74762  -0.68866
 Alpha  occ. eigenvalues --   -0.63120  -0.61617  -0.59178  -0.58377  -0.55512
 Alpha  occ. eigenvalues --   -0.54807  -0.52710  -0.47469  -0.40062  -0.36780
 Alpha  occ. eigenvalues --   -0.33665
 Alpha virt. eigenvalues --    0.02696   0.03703   0.03934   0.05066   0.06276
 Alpha virt. eigenvalues --    0.06599   0.07411   0.08050   0.10177   0.11744
 Alpha virt. eigenvalues --    0.12256   0.12399   0.12701   0.13590   0.14266

 Mulliken charges:
               1
     1  C    0.644016
     2  N   -0.617991
     3  C    0.661736
     4  C    0.482517
     5  C   -0.286893
     6  C    0.460108
     7  N   -0.638851
     8  H   -0.071374
     9  H   -0.105668
    10  H   -0.017691
    11  H   -0.239951
    12  H   -0.335822
    13  H    0.036918
    14  H    0.088906
    15  H   -0.059961
 Sum of Mulliken charges =  -0.00000

 Dipole moment (field-independent basis, Debye):
    X=              1.2322    Y=              2.7150    Z=              2.0203  Tot=              3.6016

 Test job not archived.
 1\1\GINC-SE232\SP\RHF\Aug-CC-pVDZ\C5H8N2\OHZDE\09-Apr-2025\0\\#t hf au
 g-cc-pvdz iop(5/13=1,5/36=2,99/5=2) pseudo=read geom=check guess=(read
 ,tcheck) scf=(maxcycle=1)\\title\\0,1\C,0,2.09107279,-0.09622894,0.408
 99964\N,0,1.03131211,-0.26155318,-1.12450182\C,0,0.847822,1.00393937,-
 0.5522075\C,0,-0.41814406,1.05572316,0.02651745\C,0,-0.93009183,-0.214
 59999,-0.19643744\C,0,-2.25812505,-0.76680095,0.19731497\N,0,-0.045075
 5,-0.98882167,-0.85356871\H,0,2.8788258,-0.67849452,-0.05240771\H,0,1.
 47834117,-0.67051436,1.09320995\H,0,2.50595875,0.79131896,0.88169174\H

 Normal termination of Gaussian 16 at Wed Apr  9 16:57:27 2025.
