 Gaussian 16, Revision C.01,

 ----------------------------------------------------------------------
 #t hf aug-cc-pvdz symm=none int=(grid=ultrafine) guess=(read,tcheck) s
 table=(opt,rrhf)
 ----------------------------------------------------------------------
 -----
 title
 -----
 Symbolic Z-matrix:
 Charge =  0 Multiplicity = 1

 SCF Done:  E(RHF) =  -306.519703804     A.U. after   16 cycles
 Normal termination of Gaussian 16 at Wed Apr  9 16:28:10 2025.
 Gaussian 16:  ES64L-G16RevC.01  3-Jul-2019

 ----------------------------------------------------------------------
 #t hf aug-cc-pvdz iop(5/13=1,5/36=2,99/5=2) pseudo=read geom=check gue
 ss=(read,tcheck) scf=(maxcycle=1)
 ----------------------------------------------------------------------
 -----
 title
 -----
 Structure from the checkpoint file:  "Grambow2020_wb97xd3_008460_reverse_mol1.chk"
 Charge =  0 Multiplicity = 1

                         Standard orientation:
 ---------------------------------------------------------------------
 Center     Atomic      Atomic             Coordinates (Angstroms)
 Number     Number       Type             X           Y           Z
 ---------------------------------------------------------------------
      1          6           0        1.169911   -0.581218   -0.861832
      2          6           0        0.812929    0.862938   -0.418479
      3          6           0       -0.625144    1.170360   -0.198871
      4          8           0       -1.568355    0.322364    0.054432
      5          6           0       -1.510660   -1.009141   -0.020453
      6          6           0        0.943316   -0.943409    0.598565
      7          6           0        1.011168    0.354180    0.994592
      8          1           0        0.581998   -1.040896   -1.654936
      9          1           0        2.224136   -0.634839   -1.138637
     10          1           0        1.364809    1.710263   -0.822706
     11          1           0       -0.907811    2.177500    0.084690
     12          1           0       -1.055242   -1.451745   -0.887924
     13          1           0       -2.432545   -1.445002    0.342118
     14          1           0        0.995768   -1.880085    1.133529
     15          1           0        0.966604    0.863626    1.947288
 ---------------------------------------------------------------------

 SCF Done:  E(RHF) =  -306.614144378     A.U. after    2 cycles

 The electronic state is 1-A.
 Alpha  occ. eigenvalues --  -20.66821 -11.32685 -11.26823 -11.25632 -11.25089
 Alpha  occ. eigenvalues --  -11.24834 -11.23747  -1.43800  -1.16755  -1.02375
 Alpha  occ. eigenvalues --   -0.91867  -0.90141  -0.79347  -0.74222  -0.71972
 Alpha  occ. eigenvalues --   -0.68570  -0.67450  -0.63998  -0.60121  -0.56215
 Alpha  occ. eigenvalues --   -0.54568  -0.49696  -0.48296  -0.46382  -0.35188
 Alpha  occ. eigenvalues --   -0.24318
 Alpha virt. eigenvalues --    0.03221   0.04208   0.04314   0.04578   0.06104
 Alpha virt. eigenvalues --    0.06191   0.06815   0.08306   0.08582   0.11152
 Alpha virt. eigenvalues --    0.11754   0.12576   0.13053   0.13783   0.13928

 Mulliken charges:
               1
     1  C    0.535405
     2  C    0.449780
     3  C    0.606057
     4  O   -0.339089
     5  C    0.730247
     6  C    0.542981
     7  C   -0.009252
     8  H   -0.184306
     9  H   -0.167229
    10  H   -0.339250
    11  H   -0.405642
    12  H   -0.338731
    13  H   -0.351212
    14  H   -0.382115
    15  H   -0.347645
 Sum of Mulliken charges =  -0.00000

 Dipole moment (field-independent basis, Debye):
    X=              1.2446    Y=              1.0098    Z=             -0.6975  Tot=              1.7479

 Test job not archived.
 1\1\GINC-SE219\SP\RHF\Aug-CC-pVDZ\C6H8O1\OHZDE\09-Apr-2025\0\\#t hf au
 g-cc-pvdz iop(5/13=1,5/36=2,99/5=2) pseudo=read geom=check guess=(read
 ,tcheck) scf=(maxcycle=1)\\title\\0,1\C,0,0.69356412,1.20297347,0.1839
 9436\C,0,1.2062415,-0.23758438,-0.08347627\C,0,0.3866187,-1.35966172,0
 .44562897\O,0,-0.8703699,-1.32480357,0.74840148\C,0,-1.65687894,-0.250
 71949,0.84633037\C,0,-0.29337325,0.91761945,-0.93842048\C,0,0.41833018
 ,-0.15399804,-1.37464389\H,0,0.35059526,1.45397581,1.18665503\H,0,1.45
 293931,1.9284646,-0.11248406\H,0,2.27384972,-0.45078126,-0.05723649\H,

 Normal termination of Gaussian 16 at Wed Apr  9 16:28:16 2025.
