 Gaussian 16, Revision C.01,

 ----------------------------------------------------------------------
 #t hf aug-cc-pvdz symm=none int=(grid=ultrafine) guess=(read,tcheck) s
 table=(opt,rrhf)
 ----------------------------------------------------------------------
 -----
 title
 -----
 Symbolic Z-matrix:
 Charge =  0 Multiplicity = 1

 SCF Done:  E(RHF) =  -343.565999481     A.U. after   14 cycles
 Normal termination of Gaussian 16 at Wed Apr  9 03:27:20 2025.
 Gaussian 16:  ES64L-G16RevC.01  3-Jul-2019

 ----------------------------------------------------------------------
 #t hf aug-cc-pvdz iop(5/13=1,5/36=2,99/5=2) pseudo=read geom=check gue
 ss=(read,tcheck) scf=(maxcycle=1)
 ----------------------------------------------------------------------
 -----
 title
 -----
 Structure from the checkpoint file:  "Grambow2020_wb97xd3_006723_forward_mol1.chk"
 Charge =  0 Multiplicity = 1

                         Standard orientation:
 ---------------------------------------------------------------------
 Center     Atomic      Atomic             Coordinates (Angstroms)
 Number     Number       Type             X           Y           Z
 ---------------------------------------------------------------------
      1          8           0        2.525002    0.151750   -0.177793
      2          6           0        1.405364   -0.692553   -0.032779
      3          6           0        0.253062    0.032100    0.612590
      4          8           0       -0.219039    1.155553   -0.185229
      5          6           0       -1.550311    0.717540   -0.061262
      6          6           0       -1.784688   -0.976360   -0.645042
      7          6           0       -1.161170   -0.586070    0.621354
      8          1           0        2.265682    0.891848   -0.732244
      9          1           0        1.098679   -1.111942   -0.997653
     10          1           0        1.710221   -1.519604    0.612645
     11          1           0        0.546368    0.407196    1.596447
     12          1           0       -2.273879    1.385827    0.398722
     13          1           0       -1.035762   -0.988699   -1.448924
     14          1           0       -2.116163    0.404661   -1.048475
     15          1           0       -1.616389   -0.895651    1.554494
 ---------------------------------------------------------------------

 SCF Done:  E(RHF) =  -343.671269921     A.U. after    2 cycles

 The electronic state is 1-A.
 Alpha  occ. eigenvalues --  -20.60221 -20.57989 -11.34846 -11.31404 -11.29738
 Alpha  occ. eigenvalues --  -11.27026 -11.26772  -1.39447  -1.33325  -1.12253
 Alpha  occ. eigenvalues --   -1.02435  -0.90423  -0.85132  -0.78515  -0.73248
 Alpha  occ. eigenvalues --   -0.71649  -0.67549  -0.65006  -0.61251  -0.60148
 Alpha  occ. eigenvalues --   -0.58600  -0.54186  -0.51363  -0.49062  -0.46921
 Alpha  occ. eigenvalues --   -0.44135  -0.35942
 Alpha virt. eigenvalues --    0.03157   0.04097   0.04233   0.05040   0.06239
 Alpha virt. eigenvalues --    0.06453   0.06954   0.08921   0.10032   0.10873
 Alpha virt. eigenvalues --    0.11675   0.12957   0.14223   0.14298   0.14669

 Mulliken charges:
               1
     1  O   -0.539017
     2  C    0.803086
     3  C    0.412144
     4  O   -0.792866
     5  C    0.527677
     6  C   -0.402260
     7  C    0.663454
     8  H    0.151475
     9  H   -0.111114
    10  H   -0.066252
    11  H   -0.262822
    12  H   -0.245792
    13  H   -0.005524
    14  H    0.182084
    15  H   -0.314272
 Sum of Mulliken charges =   0.00000

 Dipole moment (field-independent basis, Debye):
    X=             -0.8033    Y=              0.5859    Z=              0.9125  Tot=              1.3495

 Test job not archived.
 1\1\GINC-SE435\SP\RHF\Aug-CC-pVDZ\C5H8O2\OHZDE\09-Apr-2025\0\\#t hf au
 g-cc-pvdz iop(5/13=1,5/36=2,99/5=2) pseudo=read geom=check guess=(read
 ,tcheck) scf=(maxcycle=1)\\title\\0,1\O,0,2.42697691,0.78728412,0.8010
 0674\C,0,1.62278096,0.14375166,-0.16159454\C,0,0.37794374,-0.43210161,
 0.46145934\O,0,-0.47757935,0.58945882,1.04970824\C,0,-1.60390617,0.061
 4166,0.3923888\C,0,-1.38895551,-0.02528638,-1.39962277\C,0,-0.7859267,
 -0.93210731,-0.42039243\H,0,1.90972875,1.49708036,1.18966094\H,0,1.359
 17356,0.8266546,-0.97711851\H,0,2.21766428,-0.67017574,-0.5824979\H,0,

 Normal termination of Gaussian 16 at Wed Apr  9 03:27:25 2025.
