 Gaussian 16, Revision C.01,

 ----------------------------------------------------------------------
 #t hf aug-cc-pvdz symm=none int=(grid=ultrafine) guess=(read,tcheck) s
 table=(opt,rrhf)
 ----------------------------------------------------------------------
 -----
 title
 -----
 Symbolic Z-matrix:
 Charge =  0 Multiplicity = 1

 SCF Done:  E(RHF) =  -302.821536600     A.U. after   15 cycles
 Normal termination of Gaussian 16 at Wed Apr  9 15:31:56 2025.
 Gaussian 16:  ES64L-G16RevC.01  3-Jul-2019

 ----------------------------------------------------------------------
 #t hf aug-cc-pvdz iop(5/13=1,5/36=2,99/5=2) pseudo=read geom=check gue
 ss=(read,tcheck) scf=(maxcycle=1)
 ----------------------------------------------------------------------
 -----
 title
 -----
 Structure from the checkpoint file:  "Grambow2020_wb97xd3_006955_reverse_mol2.chk"
 Charge =  0 Multiplicity = 1

                         Standard orientation:
 ---------------------------------------------------------------------
 Center     Atomic      Atomic             Coordinates (Angstroms)
 Number     Number       Type             X           Y           Z
 ---------------------------------------------------------------------
      1          6           0       -1.548581   -1.230195   -0.569041
      2          6           0       -0.907239    0.014816   -0.006763
      3          6           0       -1.574869    1.316456   -0.370739
      4          7           0       -0.377364   -0.032407    1.377616
      5          6           0        0.520759   -0.006456    0.271317
      6          6           0        1.761334    0.024825   -0.065180
      7          7           0        2.932647   -0.087265   -0.421123
      8          1           0       -1.556120   -1.195765   -1.659849
      9          1           0       -2.583929   -1.309581   -0.227848
     10          1           0       -1.006235   -2.126297   -0.264712
     11          1           0       -2.621576    1.303428   -0.057709
     12          1           0       -1.074496    2.148762    0.121552
     13          1           0       -1.543205    1.474560   -1.450596
     14          1           0       -0.441632   -0.972795    1.758950
     15          1           0        3.431794    0.798719   -0.472802
 ---------------------------------------------------------------------

 SCF Done:  E(RHF) =  -302.912845590     A.U. after    2 cycles

 The electronic state is 1-A.
 Alpha  occ. eigenvalues --  -15.64646 -15.64333 -11.31817 -11.30389 -11.27774
 Alpha  occ. eigenvalues --  -11.24496 -11.23623  -1.26959  -1.20179  -1.02785
 Alpha  occ. eigenvalues --   -0.96977  -0.95515  -0.82424  -0.73117  -0.68890
 Alpha  occ. eigenvalues --   -0.64901  -0.61298  -0.59286  -0.55731  -0.54568
 Alpha  occ. eigenvalues --   -0.52974  -0.52112  -0.48541  -0.46219  -0.40328
 Alpha  occ. eigenvalues --   -0.32823
 Alpha virt. eigenvalues --    0.03203   0.03873   0.04579   0.04828   0.06005
 Alpha virt. eigenvalues --    0.07167   0.07532   0.07701   0.09856   0.10469
 Alpha virt. eigenvalues --    0.12022   0.12159   0.13401   0.14035   0.14456

 Mulliken charges:
               1
     1  C    0.572044
     2  C   -0.651439
     3  C    0.394937
     4  N   -0.719182
     5  C    1.230193
     6  C   -0.989946
     7  N   -0.092572
     8  H    0.055393
     9  H    0.028186
    10  H   -0.083067
    11  H    0.025808
    12  H    0.031387
    13  H    0.083541
    14  H    0.045679
    15  H    0.069039
 Sum of Mulliken charges =  -0.00000

 Dipole moment (field-independent basis, Debye):
    X=             -1.8286    Y=              0.1871    Z=             -0.7061  Tot=              1.9691

 Test job not archived.
 1\1\GINC-SE454\SP\RHF\Aug-CC-pVDZ\C5H8N2\OHZDE\09-Apr-2025\0\\#t hf au
 g-cc-pvdz iop(5/13=1,5/36=2,99/5=2) pseudo=read geom=check guess=(read
 ,tcheck) scf=(maxcycle=1)\\title\\0,1\C,0,-0.92404668,1.44107264,-0.28
 679465\C,0,-0.44334557,0.01381637,-0.18987352\C,0,-1.3436693,-0.930150
 7,0.56565238\N,0,0.21319711,-0.58788636,-1.3757955\C,0,0.98881388,-0.2
 3936688,-0.23205143\C,0,2.17136514,-0.25900798,0.2723502\N,0,3.3072725
 ,-0.13399272,0.72547194\H,0,-1.03813647,1.87334134,0.70881142\H,0,-1.8
 967513,1.47978501,-0.78379258\H,0,-0.21797354,2.05920414,-0.84278728\H

 Normal termination of Gaussian 16 at Wed Apr  9 15:32:01 2025.
