 Gaussian 16, Revision C.01,

 ----------------------------------------------------------------------
 #t hf aug-cc-pvdz symm=none int=(grid=ultrafine) guess=(read,tcheck) s
 table=(opt,rrhf)
 ----------------------------------------------------------------------
 -----
 title
 -----
 Symbolic Z-matrix:
 Charge =  0 Multiplicity = 1

 SCF Done:  E(RHF) =  -305.315259157     A.U. after   18 cycles
 Normal termination of Gaussian 16 at Wed Apr  9 16:15:01 2025.
 Gaussian 16:  ES64L-G16RevC.01  3-Jul-2019

 ----------------------------------------------------------------------
 #t hf aug-cc-pvdz iop(5/13=1,5/36=2,99/5=2) pseudo=read geom=check gue
 ss=(read,tcheck) scf=(maxcycle=1)
 ----------------------------------------------------------------------
 -----
 title
 -----
 Structure from the checkpoint file:  "Grambow2020_wb97xd3_008022_reverse_mol1.chk"
 Charge =  0 Multiplicity = 1

                         Standard orientation:
 ---------------------------------------------------------------------
 Center     Atomic      Atomic             Coordinates (Angstroms)
 Number     Number       Type             X           Y           Z
 ---------------------------------------------------------------------
      1          8           0        1.944897   -1.193233    0.116771
      2          6           0        0.572013   -1.357903   -0.091840
      3          6           0       -0.205490   -0.057986   -0.029764
      4          6           0        0.461174    1.164261    0.044451
      5          6           0        0.843887    2.359503   -0.214634
      6          6           0       -1.617174   -0.131201    0.006247
      7          6           0       -2.815024   -0.221685    0.022693
      8          1           0        2.289607   -0.576228   -0.535464
      9          1           0        0.356407   -1.810082   -1.071056
     10          1           0        0.215613   -2.055387    0.668457
     11          1           0        0.815059    0.664876    1.040956
     12          1           0        1.205323    3.081643    0.507285
     13          1           0       -3.877499   -0.288890    0.032744
 ---------------------------------------------------------------------

 SCF Done:  E(RHF) =  -305.410532767     A.U. after    2 cycles

 The electronic state is 1-A.
 Alpha  occ. eigenvalues --  -20.59943 -11.34288 -11.32762 -11.28011 -11.27579
 Alpha  occ. eigenvalues --  -11.26625 -11.23620  -1.35903  -1.14369  -1.04968
 Alpha  occ. eigenvalues --   -1.00010  -0.91122  -0.81571  -0.74945  -0.72401
 Alpha  occ. eigenvalues --   -0.68641  -0.64912  -0.63061  -0.58005  -0.54940
 Alpha  occ. eigenvalues --   -0.50663  -0.45559  -0.42870  -0.39454  -0.29052
 Alpha virt. eigenvalues --    0.01803   0.03077   0.03929   0.04680   0.05115
 Alpha virt. eigenvalues --    0.06313   0.07331   0.09216   0.09669   0.10584
 Alpha virt. eigenvalues --    0.11128   0.12050   0.12646   0.13202   0.14013

 Mulliken charges:
               1
     1  O   -0.553863
     2  C    0.963118
     3  C   -0.294232
     4  C   -0.206136
     5  C   -0.251929
     6  C   -0.152031
     7  C    0.741897
     8  H    0.218464
     9  H    0.058372
    10  H   -0.036539
    11  H    0.310404
    12  H   -0.291319
    13  H   -0.506206
 Sum of Mulliken charges =  -0.00000

 Dipole moment (field-independent basis, Debye):
    X=             -1.9310    Y=             -2.1201    Z=              0.8603  Tot=              2.9939

 Test job not archived.
 1\1\GINC-SE226\SP\RHF\Aug-CC-pVDZ\C6H6O1\OHZDE\09-Apr-2025\0\\#t hf au
 g-cc-pvdz iop(5/13=1,5/36=2,99/5=2) pseudo=read geom=check guess=(read
 ,tcheck) scf=(maxcycle=1)\\title\\0,1\O,0,1.98769161,-1.05771826,-0.01
 332776\C,0,1.40420392,0.10304843,0.50397904\C,0,-0.09662811,0.16391076
 ,0.29916956\C,0,-0.79044029,-0.94029286,-0.1939797\C,0,-1.64004561,-1.
 89308727,-0.30601146\C,0,-0.75347298,1.38639206,0.57046876\C,0,-1.2880
 4442,2.43276928,0.8207298\H,0,1.57247194,-1.82490379,0.3915807\H,0,1.5
 8133834,0.20560003,1.5846829\H,0,1.89292574,0.94930737,0.01761104\H,0,

 Normal termination of Gaussian 16 at Wed Apr  9 16:15:30 2025.
