 Gaussian 16, Revision C.01,

 ----------------------------------------------------------------------
 #t hf aug-cc-pvdz symm=none int=(grid=ultrafine) guess=(read,tcheck) s
 table=(opt,rrhf)
 ----------------------------------------------------------------------
 -----
 title
 -----
 Symbolic Z-matrix:
 Charge =  0 Multiplicity = 1

 SCF Done:  E(RHF) =  -360.886427467     A.U. after   14 cycles
 Normal termination of Gaussian 16 at Wed Apr  9 03:58:46 2025.
 Gaussian 16:  ES64L-G16RevC.01  3-Jul-2019

 ----------------------------------------------------------------------
 #t hf aug-cc-pvdz iop(5/13=1,5/36=2,99/5=2) pseudo=read geom=check gue
 ss=(read,tcheck) scf=(maxcycle=1)
 ----------------------------------------------------------------------
 -----
 title
 -----
 Structure from the checkpoint file:  "Grambow2020_wb97xd3_008734_reverse_mol2.chk"
 Charge =  0 Multiplicity = 1

                         Standard orientation:
 ---------------------------------------------------------------------
 Center     Atomic      Atomic             Coordinates (Angstroms)
 Number     Number       Type             X           Y           Z
 ---------------------------------------------------------------------
      1          6           0        2.720466   -0.482511   -0.019838
      2          6           0        1.356963    0.093706    0.331389
      3          8           0        1.175696    1.381059   -0.230871
      4          6           0        0.247153   -0.783633   -0.204836
      5          6           0       -1.979603   -0.165804   -0.543720
      6          8           0       -1.002975   -0.378301    0.335112
      7          7           0       -3.052576    0.217422    0.133825
      8          1           0        2.825517   -0.582412   -1.102083
      9          1           0        2.867340   -1.462014    0.439996
     10          1           0        3.515815    0.175327    0.336559
     11          1           0        1.248077    0.144910    1.423630
     12          1           0        1.784999    1.990519    0.188023
     13          1           0        0.199024   -0.717356   -1.293578
     14          1           0        0.422663   -1.821231    0.091842
     15          1           0       -3.057210    0.328758    1.140804
     16          1           0       -3.889831    0.428938   -0.373861
 ---------------------------------------------------------------------

 SCF Done:  E(RHF) =  -361.002061950     A.U. after    2 cycles

 The electronic state is 1-A.
 Alpha  occ. eigenvalues --  -20.59641 -20.57008 -15.64135 -11.29764 -11.29246
 Alpha  occ. eigenvalues --  -11.28444 -11.23283  -1.38278  -1.32567  -1.18173
 Alpha  occ. eigenvalues --   -1.04414  -0.94827  -0.83738  -0.79976  -0.72870
 Alpha  occ. eigenvalues --   -0.71909  -0.68476  -0.64574  -0.63004  -0.61255
 Alpha  occ. eigenvalues --   -0.56297  -0.55604  -0.53307  -0.51965  -0.48389
 Alpha  occ. eigenvalues --   -0.45705  -0.42581  -0.35797
 Alpha virt. eigenvalues --    0.03244   0.03849   0.04727   0.04888   0.05916
 Alpha virt. eigenvalues --    0.06308   0.07277   0.07729   0.09397   0.11502
 Alpha virt. eigenvalues --    0.12516   0.13150   0.13972   0.14809   0.15050

 Mulliken charges:
               1
     1  C    0.466567
     2  C    0.040197
     3  O   -0.592972
     4  C    0.935455
     5  C    0.128761
     6  O   -0.641761
     7  N    0.014040
     8  H    0.035233
     9  H   -0.014836
    10  H   -0.091975
    11  H   -0.130607
    12  H    0.133679
    13  H   -0.082570
    14  H   -0.181818
    15  H   -0.031650
    16  H    0.014257
 Sum of Mulliken charges =  -0.00000

 Dipole moment (field-independent basis, Debye):
    X=              0.8699    Y=             -0.0188    Z=              2.4823  Tot=              2.6304

 Test job not archived.
 1\1\GINC-SE108\SP\RHF\Aug-CC-pVDZ\C4H9N1O2\OHZDE\09-Apr-2025\0\\#t hf
 aug-cc-pvdz iop(5/13=1,5/36=2,99/5=2) pseudo=read geom=check guess=(re
 ad,tcheck) scf=(maxcycle=1)\\title\\0,1\C,0,-2.31175786,-0.41190498,-0
 .86379854\C,0,-0.89288526,0.13620424,-0.89383093\O,0,-0.84940284,1.490
 29152,-0.48051649\C,0,0.00485714,-0.64153061,0.04325285\C,0,2.06067436
 ,0.05559978,0.90500899\O,0,1.36406333,-0.2900342,-0.17507189\N,0,3.287
 76584,0.36361144,0.50931281\H,0,-2.7167833,-0.36777618,0.14925434\H,0,
 -2.34449651,-1.44663462,-1.21123201\H,0,-2.96231673,0.1780203,-1.51272

 Normal termination of Gaussian 16 at Wed Apr  9 03:58:51 2025.
