 Gaussian 16, Revision C.01,

 ----------------------------------------------------------------------
 #t hf aug-cc-pvdz symm=none int=(grid=ultrafine) guess=(read,tcheck) s
 table=(opt,rrhf)
 ----------------------------------------------------------------------
 -----
 title
 -----
 Symbolic Z-matrix:
 Charge =  0 Multiplicity = 1

 SCF Done:  E(RHF) =  -302.700046743     A.U. after   17 cycles
 Normal termination of Gaussian 16 at Wed Apr  9 16:56:25 2025.
 Gaussian 16:  ES64L-G16RevC.01  3-Jul-2019

 ----------------------------------------------------------------------
 #t hf aug-cc-pvdz iop(5/13=1,5/36=2,99/5=2) pseudo=read geom=check gue
 ss=(read,tcheck) scf=(maxcycle=1)
 ----------------------------------------------------------------------
 -----
 title
 -----
 Structure from the checkpoint file:  "Grambow2020_wb97xd3_009080_forward_mol1.chk"
 Charge =  0 Multiplicity = 1

                         Standard orientation:
 ---------------------------------------------------------------------
 Center     Atomic      Atomic             Coordinates (Angstroms)
 Number     Number       Type             X           Y           Z
 ---------------------------------------------------------------------
      1          6           0        1.749161   -0.871120    0.559048
      2          7           0        1.134792   -0.192344   -0.450516
      3          6           0        0.950650    1.198826   -0.190295
      4          6           0       -0.316913    1.314247    0.178940
      5          6           0       -0.858381   -0.068326    0.076498
      6          6           0       -2.320178   -0.376602    0.147199
      7          7           0       -0.044291   -0.799379   -0.725016
      8          1           0        2.690004   -0.473690    0.928293
      9          1           0        1.597830   -1.942038    0.556187
     10          1           0       -0.026107   -0.501483    1.227818
     11          1           0        1.799036    1.862352   -0.156801
     12          1           0       -0.843932    2.175342    0.556363
     13          1           0       -2.850070    0.093243   -0.683721
     14          1           0       -2.747407   -0.001246    1.077661
     15          1           0       -2.478889   -1.452572    0.094581
 ---------------------------------------------------------------------

 SCF Done:  E(RHF) =  -302.788101303     A.U. after    2 cycles

 The electronic state is 1-A.
 Alpha  occ. eigenvalues --  -15.72177 -15.61394 -11.31274 -11.30064 -11.28492
 Alpha  occ. eigenvalues --  -11.25827 -11.23446  -1.35460  -1.10921  -1.06196
 Alpha  occ. eigenvalues --   -0.98479  -0.89379  -0.79125  -0.76997  -0.70097
 Alpha  occ. eigenvalues --   -0.68258  -0.63545  -0.59883  -0.58120  -0.56963
 Alpha  occ. eigenvalues --   -0.53082  -0.51791  -0.45362  -0.40908  -0.36382
 Alpha  occ. eigenvalues --   -0.29420
 Alpha virt. eigenvalues --    0.02965   0.03684   0.04134   0.05190   0.06267
 Alpha virt. eigenvalues --    0.06609   0.07140   0.08167   0.08775   0.10205
 Alpha virt. eigenvalues --    0.11041   0.12170   0.12780   0.13137   0.14296

 Mulliken charges:
               1
     1  C    0.805978
     2  N   -0.448763
     3  C    0.742402
     4  C    0.463448
     5  C   -0.719638
     6  C    0.650466
     7  N   -0.711797
     8  H   -0.284215
     9  H   -0.259180
    10  H    0.346866
    11  H   -0.279342
    12  H   -0.351598
    13  H    0.069399
    14  H    0.036119
    15  H   -0.060144
 Sum of Mulliken charges =  -0.00000

 Dipole moment (field-independent basis, Debye):
    X=              0.7560    Y=              1.9497    Z=              1.4437  Tot=              2.5410

 Test job not archived.
 1\1\GINC-SE112\SP\RHF\Aug-CC-pVDZ\C5H8N2\OHZDE\09-Apr-2025\0\\#t hf au
 g-cc-pvdz iop(5/13=1,5/36=2,99/5=2) pseudo=read geom=check guess=(read
 ,tcheck) scf=(maxcycle=1)\\title\\0,1\C,0,2.06298533,-0.5106171,0.1494
 4937\N,0,1.2154138,-0.038125,-0.80751314\C,0,0.82885609,1.32336098,-0.
 62337513\C,0,-0.38111739,1.2670408,-0.08563373\C,0,-0.68419283,-0.1882
 0036,-0.01074861\C,0,-2.04918063,-0.72024183,0.29029116\N,0,0.13351798
 ,-0.85059614,-0.86642758\H,0,2.96070201,0.06643501,0.35092997\H,0,2.09
 987705,-1.58735477,0.24457698\H,0,0.35202532,-0.37087561,1.0374518\H,0

 Normal termination of Gaussian 16 at Wed Apr  9 16:56:30 2025.
