 Gaussian 16, Revision C.01,

 ----------------------------------------------------------------------
 #t hf aug-cc-pvdz symm=none int=(grid=ultrafine) guess=(read,tcheck) s
 table=(opt,rrhf)
 ----------------------------------------------------------------------
 -----
 title
 -----
 Symbolic Z-matrix:
 Charge =  0 Multiplicity = 1

 SCF Done:  E(RHF) =  -299.600907216     A.U. after   14 cycles
 Normal termination of Gaussian 16 at Wed Apr  9 14:20:03 2025.
 Gaussian 16:  ES64L-G16RevC.01  3-Jul-2019

 ----------------------------------------------------------------------
 #t hf aug-cc-pvdz iop(5/13=1,5/36=2,99/5=2) pseudo=read geom=check gue
 ss=(read,tcheck) scf=(maxcycle=1)
 ----------------------------------------------------------------------
 -----
 title
 -----
 Structure from the checkpoint file:  "Grambow2020_b97d3_007183_reverse_mol2.chk"
 Charge =  0 Multiplicity = 1

                         Standard orientation:
 ---------------------------------------------------------------------
 Center     Atomic      Atomic             Coordinates (Angstroms)
 Number     Number       Type             X           Y           Z
 ---------------------------------------------------------------------
      1          6           0       -2.715548   -1.076847    0.002517
      2          6           0       -1.669314   -0.057995   -0.007047
      3          7           0       -0.835262    0.767130   -0.000026
      4          8           0        0.037308    1.622242    0.000999
      5          6           0        2.562322   -0.174616    0.002309
      6          7           0        3.381784   -1.005057   -0.001800
      7          1           0       -3.654975   -0.670476   -0.398983
      8          1           0       -2.421643   -1.938334   -0.613950
      9          1           0       -2.902204   -1.432805    1.025858
     10          1           0        1.789942    0.585921    0.005199
 ---------------------------------------------------------------------

 SCF Done:  E(RHF) =  -299.696273945     A.U. after    2 cycles

 The electronic state is 1-A.
 Alpha  occ. eigenvalues --  -20.60503 -15.82336 -15.64484 -11.35769 -11.32771
 Alpha  occ. eigenvalues --  -11.28210  -1.45082  -1.21808  -1.17695  -1.05756
 Alpha  occ. eigenvalues --   -0.78601  -0.75570  -0.70942  -0.69573  -0.69372
 Alpha  occ. eigenvalues --   -0.63302  -0.63275  -0.54728  -0.46623  -0.46608
 Alpha  occ. eigenvalues --   -0.42393  -0.42208
 Alpha virt. eigenvalues --    0.01543   0.04131   0.04427   0.05410   0.07548
 Alpha virt. eigenvalues --    0.08911   0.09388   0.11231   0.11901   0.12205
 Alpha virt. eigenvalues --    0.12879   0.13697   0.14214   0.15852   0.16907

 Mulliken charges:
               1
     1  C    0.299109
     2  C   -0.194568
     3  N    0.259335
     4  O   -0.680904
     5  C    0.423629
     6  N   -0.350738
     7  H    0.096369
     8  H    0.097654
     9  H    0.098192
    10  H   -0.048078
 Sum of Mulliken charges =  -0.00000

 Dipole moment (field-independent basis, Debye):
    X=             -7.4777    Y=             -1.7234    Z=              0.0108  Tot=              7.6738

 Test job not archived.
 1\1\GINC-SE054\SP\RHF\Aug-CC-pVDZ\C3H4N2O1\OHZDE\09-Apr-2025\0\\#t hf
 aug-cc-pvdz iop(5/13=1,5/36=2,99/5=2) pseudo=read geom=check guess=(re
 ad,tcheck) scf=(maxcycle=1)\\title\\0,1\C,0,-2.1179363,-0.12105837,-0.
 58022671\C,0,-0.67927165,-0.29210536,-0.76392461\N,0,0.47575405,-0.419
 60082,-0.92573772\O,0,1.67915372,-0.55590851,-1.08650258\C,0,2.7197578
 4,0.55663149,1.61234881\N,0,2.91587674,1.00087281,2.67317572\H,0,-2.67
 563144,-0.80984703,-1.23092563\H,0,-2.40152373,-0.32619237,0.46191949\
 H,0,-2.42147328,0.9071089,-0.82417438\H,0,2.52217006,0.14485026,0.6292

 Normal termination of Gaussian 16 at Wed Apr  9 14:20:07 2025.
