 Gaussian 16, Revision C.01,

 ----------------------------------------------------------------------
 #t hf aug-cc-pvdz symm=none int=(grid=ultrafine) guess=(read,tcheck) s
 table=(opt,rrhf)
 ----------------------------------------------------------------------
 -----
 title
 -----
 Symbolic Z-matrix:
 Charge =  0 Multiplicity = 1

 SCF Done:  E(RHF) =  -322.522172317     A.U. after   16 cycles
 Normal termination of Gaussian 16 at Wed Apr  9 15:35:00 2025.
 Gaussian 16:  ES64L-G16RevC.01  3-Jul-2019

 ----------------------------------------------------------------------
 #t hf aug-cc-pvdz iop(5/13=1,5/36=2,99/5=2) pseudo=read geom=check gue
 ss=(read,tcheck) scf=(maxcycle=1)
 ----------------------------------------------------------------------
 -----
 title
 -----
 Structure from the checkpoint file:  "Grambow2020_wb97xd3_007016_forward_mol1.chk"
 Charge =  0 Multiplicity = 1

                         Standard orientation:
 ---------------------------------------------------------------------
 Center     Atomic      Atomic             Coordinates (Angstroms)
 Number     Number       Type             X           Y           Z
 ---------------------------------------------------------------------
      1          6           0       -2.156948    0.282967    0.043461
      2          6           0       -0.865325   -0.345227    0.516198
      3          6           0       -0.168836   -1.216709   -0.505939
      4          6           0        1.147982   -0.852150   -0.518375
      5          7           0        1.492643   -0.197707    0.808945
      6          6           0        0.398147    0.520419    0.363066
      7          8           0        0.617377    1.410007   -0.552407
      8          1           0       -2.933790   -0.476642   -0.053971
      9          1           0       -2.023696    0.768959   -0.923723
     10          1           0       -2.503119    1.035300    0.754222
     11          1           0       -0.937775   -0.751638    1.524771
     12          1           0       -0.655453   -1.609289   -1.390862
     13          1           0        1.201416    0.455634   -1.198660
     14          1           0        2.334777    0.345765    0.654391
 ---------------------------------------------------------------------

 SCF Done:  E(RHF) =  -322.616022819     A.U. after    2 cycles

 The electronic state is 1-A.
 Alpha  occ. eigenvalues --  -20.58868 -15.66284 -11.40586 -11.28652 -11.28426
 Alpha  occ. eigenvalues --  -11.26874 -11.24702  -1.40541  -1.24310  -1.10350
 Alpha  occ. eigenvalues --   -0.99607  -0.90088  -0.79849  -0.75214  -0.69880
 Alpha  occ. eigenvalues --   -0.68729  -0.66336  -0.61886  -0.58119  -0.56655
 Alpha  occ. eigenvalues --   -0.54821  -0.53827  -0.49485  -0.47393  -0.37700
 Alpha  occ. eigenvalues --   -0.34517
 Alpha virt. eigenvalues --    0.03210   0.04245   0.04498   0.04829   0.06489
 Alpha virt. eigenvalues --    0.06720   0.07564   0.07747   0.08751   0.11264
 Alpha virt. eigenvalues --    0.12215   0.12289   0.13253   0.13885   0.14775

 Mulliken charges:
               1
     1  C    0.674407
     2  C   -0.245179
     3  C    0.792229
     4  C   -0.506595
     5  N   -0.523300
     6  C    0.434599
     7  O   -0.807415
     8  H    0.004384
     9  H   -0.009820
    10  H   -0.044850
    11  H   -0.149819
    12  H   -0.330616
    13  H    0.638224
    14  H    0.073751
 Sum of Mulliken charges =  -0.00000

 Dipole moment (field-independent basis, Debye):
    X=             -1.7609    Y=             -0.2514    Z=              0.6994  Tot=              1.9113

 Test job not archived.
 1\1\GINC-SE219\SP\RHF\Aug-CC-pVDZ\C5H7N1O1\OHZDE\09-Apr-2025\0\\#t hf
 aug-cc-pvdz iop(5/13=1,5/36=2,99/5=2) pseudo=read geom=check guess=(re
 ad,tcheck) scf=(maxcycle=1)\\title\\0,1\C,0,-1.82447667,0.17172004,0.1
 5758163\C,0,-0.50783236,0.26037639,-0.58064985\C,0,0.53526053,1.135541
 89,0.0791869\C,0,1.70488849,0.42928519,0.09466949\N,0,1.66296525,-0.62
 125406,-1.00236051\C,0,0.50810048,-0.85579998,-0.27868267\O,0,0.639749
 51,-1.49734808,0.83872666\H,0,-2.36242498,1.11808675,0.08698123\H,0,-1
 .66636457,-0.05966822,1.21155038\H,0,-2.45423004,-0.61094907,-0.268868

 Normal termination of Gaussian 16 at Wed Apr  9 15:35:05 2025.
