 Gaussian 16, Revision C.01,

 ----------------------------------------------------------------------
 #t hf aug-cc-pvdz symm=none int=(grid=ultrafine) guess=(read,tcheck) s
 table=(opt,rrhf)
 ----------------------------------------------------------------------
 -----
 title
 -----
 Symbolic Z-matrix:
 Charge =  0 Multiplicity = 1

 SCF Done:  E(RHF) =  -284.706158203     A.U. after   14 cycles
 Normal termination of Gaussian 16 at Wed Apr  9 03:05:49 2025.
 Gaussian 16:  ES64L-G16RevC.01  3-Jul-2019

 ----------------------------------------------------------------------
 #t hf aug-cc-pvdz iop(5/13=1,5/36=2,99/5=2) pseudo=read geom=check gue
 ss=(read,tcheck) scf=(maxcycle=1)
 ----------------------------------------------------------------------
 -----
 title
 -----
 Structure from the checkpoint file:  "Grambow2020_b97d3_006564_reverse_mol2.chk"
 Charge =  0 Multiplicity = 1

                         Standard orientation:
 ---------------------------------------------------------------------
 Center     Atomic      Atomic             Coordinates (Angstroms)
 Number     Number       Type             X           Y           Z
 ---------------------------------------------------------------------
      1          8           0        1.845909   -0.556062   -0.219731
      2          6           0        0.881832    0.241657    0.471220
      3          6           0        0.104902    1.353340   -0.259717
      4          7           0       -1.181222    0.556154   -0.076774
      5          6           0       -1.192095   -0.911935   -0.457935
      6          6           0       -0.478774   -0.456001    0.767914
      7          1           0        1.616386   -0.482847   -1.166038
      8          1           0        1.396776    0.539504    1.397644
      9          1           0        0.330070    1.444698   -1.335536
     10          1           0       -2.072019    0.975441    0.199774
     11          1           0       -0.637328   -1.143598   -1.365941
     12          1           0       -2.144872   -1.426225   -0.313684
     13          1           0       -0.882918   -0.713929    1.750151
 ---------------------------------------------------------------------

 SCF Done:  E(RHF) =  -284.790113862     A.U. after    2 cycles

 The electronic state is 1-A.
 Alpha  occ. eigenvalues --  -20.56683 -15.72014 -11.32094 -11.31354 -11.29223
 Alpha  occ. eigenvalues --  -11.19764  -1.32789  -1.29335  -0.99326  -0.97278
 Alpha  occ. eigenvalues --   -0.85757  -0.80142  -0.72891  -0.66830  -0.64542
 Alpha  occ. eigenvalues --   -0.62223  -0.59433  -0.55310  -0.53340  -0.49317
 Alpha  occ. eigenvalues --   -0.46737  -0.43337  -0.27279
 Alpha virt. eigenvalues --    0.02034   0.03531   0.04194   0.04910   0.06764
 Alpha virt. eigenvalues --    0.07353   0.07593   0.09727   0.10648   0.12382
 Alpha virt. eigenvalues --    0.13471   0.13526   0.13919   0.14603   0.15473

 Mulliken charges:
               1
     1  O   -0.651750
     2  C    0.602404
     3  C    0.299325
     4  N   -0.516645
     5  C    0.931090
     6  C    0.605487
     7  H    0.185134
     8  H   -0.225064
     9  H   -0.311838
    10  H   -0.060042
    11  H   -0.316642
    12  H   -0.252384
    13  H   -0.289074
 Sum of Mulliken charges =  -0.00000

 Dipole moment (field-independent basis, Debye):
    X=             -4.7591    Y=             -3.1796    Z=             -0.2959  Tot=              5.7312

 Test job not archived.
 1\1\GINC-SE131\SP\RHF\Aug-CC-pVDZ\C4H7N1O1\OHZDE\09-Apr-2025\0\\#t hf
 aug-cc-pvdz iop(5/13=1,5/36=2,99/5=2) pseudo=read geom=check guess=(re
 ad,tcheck) scf=(maxcycle=1)\\title\\0,1\O,0,-1.40842098,-1.19805345,0.
 93412652\C,0,-1.1869875,-0.15448755,-0.01726725\C,0,-0.62423253,1.2106
 4971,0.42254562\N,0,0.64964613,0.92359983,-0.36353565\C,0,1.34415646,-
 0.41071187,-0.1687186\C,0,0.06467857,-0.3298373,-0.92753507\H,0,-0.838
 79611,-0.98178752,1.69720825\H,0,-2.1172603,-0.12803431,-0.60551402\H,
 0,-0.3834005,1.28777897,1.49608358\H,0,1.12219533,1.61733715,-0.947680

 Normal termination of Gaussian 16 at Wed Apr  9 03:05:53 2025.
