 Gaussian 16, Revision C.01,

 ----------------------------------------------------------------------
 #t hf aug-cc-pvdz symm=none int=(grid=ultrafine) guess=(read,tcheck) s
 table=(opt,rrhf)
 ----------------------------------------------------------------------
 -----
 title
 -----
 Symbolic Z-matrix:
 Charge =  0 Multiplicity = 1

 SCF Done:  E(RHF) =  -306.521695056     A.U. after   17 cycles
 Normal termination of Gaussian 16 at Wed Apr  9 16:25:11 2025.
 Gaussian 16:  ES64L-G16RevC.01  3-Jul-2019

 ----------------------------------------------------------------------
 #t hf aug-cc-pvdz iop(5/13=1,5/36=2,99/5=2) pseudo=read geom=check gue
 ss=(read,tcheck) scf=(maxcycle=1)
 ----------------------------------------------------------------------
 -----
 title
 -----
 Structure from the checkpoint file:  "Grambow2020_wb97xd3_008224_forward_mol1.chk"
 Charge =  0 Multiplicity = 1

                         Standard orientation:
 ---------------------------------------------------------------------
 Center     Atomic      Atomic             Coordinates (Angstroms)
 Number     Number       Type             X           Y           Z
 ---------------------------------------------------------------------
      1          6           0       -1.621632    0.806927   -0.414056
      2          8           0       -1.770420   -0.598617   -0.172603
      3          6           0       -0.572031   -0.590366    0.652672
      4          6           0        0.559350   -1.043068   -0.209044
      5          6           0        1.838611   -0.499635   -0.156652
      6          6           0        2.093583    0.840954   -0.072539
      7          6           0       -0.384181    0.848537    0.436574
      8          1           0       -1.557106    1.060836   -1.475699
      9          1           0       -2.454000    1.361379    0.038749
     10          1           0       -0.731581   -1.092500    1.611043
     11          1           0        0.339021   -1.897840   -0.847207
     12          1           0        2.679818   -1.194370   -0.203430
     13          1           0        3.037944    1.217034    0.311199
     14          1           0        1.473187    1.536289   -0.612597
     15          1           0       -0.106121    1.618017    1.137038
 ---------------------------------------------------------------------

 SCF Done:  E(RHF) =  -306.615170737     A.U. after    2 cycles

 The electronic state is 1-A.
 Alpha  occ. eigenvalues --  -20.57118 -11.30526 -11.29876 -11.26991 -11.26015
 Alpha  occ. eigenvalues --  -11.25175 -11.24357  -1.35758  -1.09517  -1.00330
 Alpha  occ. eigenvalues --   -0.97020  -0.88708  -0.76872  -0.73872  -0.70742
 Alpha  occ. eigenvalues --   -0.66895  -0.65150  -0.61834  -0.59025  -0.56161
 Alpha  occ. eigenvalues --   -0.53189  -0.49996  -0.49286  -0.45363  -0.36579
 Alpha  occ. eigenvalues --   -0.26715
 Alpha virt. eigenvalues --    0.03350   0.03928   0.04515   0.04626   0.05251
 Alpha virt. eigenvalues --    0.06017   0.06373   0.06983   0.07843   0.10680
 Alpha virt. eigenvalues --    0.11324   0.12268   0.12807   0.13860   0.14456

 Mulliken charges:
               1
     1  C    0.824572
     2  O   -0.824178
     3  C    1.016066
     4  C    0.117688
     5  C    0.325656
     6  C    0.559194
     7  C   -0.031207
     8  H   -0.198009
     9  H   -0.155480
    10  H   -0.220886
    11  H   -0.331245
    12  H   -0.339028
    13  H   -0.295476
    14  H   -0.143008
    15  H   -0.304659
 Sum of Mulliken charges =  -0.00000

 Dipole moment (field-independent basis, Debye):
    X=              0.9905    Y=              1.3754    Z=              0.6825  Tot=              1.8272

 Test job not archived.
 1\1\GINC-SE043\SP\RHF\Aug-CC-pVDZ\C6H8O1\OHZDE\09-Apr-2025\0\\#t hf au
 g-cc-pvdz iop(5/13=1,5/36=2,99/5=2) pseudo=read geom=check guess=(read
 ,tcheck) scf=(maxcycle=1)\\title\\0,1\C,0,-1.61612544,-0.85988873,-0.7
 174087\O,0,-0.77506333,-1.93768007,-0.28500465\C,0,-0.11630758,-1.0519
 4879,0.66304771\C,0,1.14043736,-0.57154751,0.01704109\C,0,1.62455478,0
 .72704079,0.13481697\C,0,0.84024083,1.84323778,0.04416218\C,0,-0.95888
 075,0.07765943,0.25502228\H,0,-1.54938742,-0.66045711,-1.79048456\H,0,
 -2.66213913,-1.06355239,-0.45347502\H,0,-0.05395758,-1.4943684,1.66126

 Normal termination of Gaussian 16 at Wed Apr  9 16:25:17 2025.
