 Gaussian 16, Revision C.01,

 ----------------------------------------------------------------------
 #t hf aug-cc-pvdz symm=none int=(grid=ultrafine) guess=(read,tcheck) s
 table=(opt,rrhf)
 ----------------------------------------------------------------------
 -----
 title
 -----
 Symbolic Z-matrix:
 Charge =  0 Multiplicity = 1

 SCF Done:  E(RHF) =  -308.914281860     A.U. after   15 cycles

 1\1\GINC-SE461\Stability\RHF\Aug-CC-pVDZ\C6H12O1\OHZDE\09-Apr-2025\0\\
 #t hf aug-cc-pvdz symm=none int=(grid=ultrafine) guess=(read,tcheck) s
 table=(opt,rrhf)\\title\\0,1\C,0,-0.91260647,-1.62386346,-0.77005669\C
 ,0,-0.72190575,-0.15459442,-0.48899276\C,0,-0.88842488,0.34829703,0.82
 457844\C,0,-0.78678635,1.74673319,1.00259547\O,0,1.02446032,1.70216016
 ,-0.30701717\C,0,0.99326858,0.46438032,-0.65986652\C,0,1.92617389,-0.4
 8606047,0.08834907\H,0,-1.95995274,-1.86958108,-0.96076279\H,0,-0.3427
 3783,-1.91922762,-1.65403917\H,0,-0.57023588,-2.23998241,0.06398786\H,

 Normal termination of Gaussian 16 at Wed Apr  9 03:27:42 2025.
 Gaussian 16:  ES64L-G16RevC.01  3-Jul-2019

 ----------------------------------------------------------------------
 #t hf aug-cc-pvdz iop(5/13=1,5/36=2,99/5=2) pseudo=read geom=check gue
 ss=(read,tcheck) scf=(maxcycle=1)
 ----------------------------------------------------------------------
 -----
 title
 -----
 Structure from the checkpoint file:  "Grambow2020_wb97xd3_006728_reverse_mol1.chk"
 Charge =  0 Multiplicity = 1

                         Standard orientation:
 ---------------------------------------------------------------------
 Center     Atomic      Atomic             Coordinates (Angstroms)
 Number     Number       Type             X           Y           Z
 ---------------------------------------------------------------------
      1          6           0        2.085609   -0.802429   -0.155793
      2          6           0        0.603579   -0.697578   -0.414072
      3          6           0       -0.323846   -1.141019    0.560270
      4          6           0       -1.694622   -1.100771    0.218223
      5          8           0       -1.344991    0.943279   -0.616823
      6          6           0       -0.066279    1.005662   -0.480521
      7          6           0        0.457946    1.777986    0.728685
      8          1           0        2.479006   -1.783365   -0.432712
      9          1           0        2.627674   -0.056911   -0.742125
     10          1           0        2.323003   -0.630832    0.896181
     11          1           0        0.318214   -0.968595   -1.428652
     12          1           0       -0.069325   -1.124585    1.615075
     13          1           0       -1.063646   -2.249383    0.415538
     14          1           0       -2.451824   -1.028015    0.987302
     15          1           0       -1.992584   -1.196696   -0.813593
     16          1           0        0.502915    1.268589   -1.392804
     17          1           0       -0.038410    1.443269    1.642070
     18          1           0        1.540469    1.696383    0.852959
     19          1           0        0.210110    2.832797    0.594587
 ---------------------------------------------------------------------

 SCF Done:  E(RHF) =  -309.010740644     A.U. after    2 cycles

 The electronic state is 1-A.
 Alpha  occ. eigenvalues --  -20.46224 -11.31815 -11.31436 -11.27903 -11.23885
 Alpha  occ. eigenvalues --  -11.23392 -11.20378  -1.24309  -1.14114  -1.02804
 Alpha  occ. eigenvalues --   -0.95349  -0.89071  -0.80921  -0.75019  -0.69177
 Alpha  occ. eigenvalues --   -0.65435  -0.62330  -0.60647  -0.57486  -0.57062
 Alpha  occ. eigenvalues --   -0.54855  -0.53733  -0.51736  -0.50538  -0.49907
 Alpha  occ. eigenvalues --   -0.42287  -0.35863  -0.32314
 Alpha virt. eigenvalues --    0.02649   0.03894   0.04052   0.04818   0.06003
 Alpha virt. eigenvalues --    0.06166   0.06458   0.06655   0.07427   0.08835
 Alpha virt. eigenvalues --    0.08911   0.09543   0.10188   0.11914   0.12989

 Mulliken charges:
               1
     1  C    0.640401
     2  C   -0.233593
     3  C    0.378946
     4  C    0.511712
     5  O   -0.877868
     6  C    0.583370
     7  C    0.288333
     8  H   -0.082591
     9  H    0.015655
    10  H   -0.040816
    11  H   -0.154310
    12  H   -0.320681
    13  H    0.197301
    14  H   -0.225589
    15  H   -0.242828
    16  H   -0.223834
    17  H   -0.077193
    18  H   -0.082923
    19  H   -0.053491
 Sum of Mulliken charges =   0.00000

 Dipole moment (field-independent basis, Debye):
    X=              1.3814    Y=             -4.4990    Z=              2.1100  Tot=              5.1577

 Test job not archived.
 1\1\GINC-SE461\SP\RHF\Aug-CC-pVDZ\C6H12O1\OHZDE\09-Apr-2025\0\\#t hf a
 ug-cc-pvdz iop(5/13=1,5/36=2,99/5=2) pseudo=read geom=check guess=(rea
 d,tcheck) scf=(maxcycle=1)\\title\\0,1\C,0,-0.91260647,-1.62386346,-0.
 77005669\C,0,-0.72190575,-0.15459442,-0.48899276\C,0,-0.88842488,0.348
 29703,0.82457844\C,0,-0.78678635,1.74673319,1.00259547\O,0,1.02446032,
 1.70216016,-0.30701717\C,0,0.99326858,0.46438032,-0.65986652\C,0,1.926
 17389,-0.48606047,0.08834907\H,0,-1.95995274,-1.86958108,-0.96076279\H
 ,0,-0.34273783,-1.91922762,-1.65403917\H,0,-0.57023588,-2.23998241,0.0

 Normal termination of Gaussian 16 at Wed Apr  9 03:27:48 2025.
