 Gaussian 16, Revision C.01,

 ----------------------------------------------------------------------
 #t hf aug-cc-pvdz symm=none int=(grid=ultrafine) guess=(read,tcheck) s
 table=(opt,rrhf)
 ----------------------------------------------------------------------
 -----
 title
 -----
 Symbolic Z-matrix:
 Charge =  0 Multiplicity = 1

 SCF Done:  E(RHF) =  -152.308570458     A.U. after   17 cycles
 Normal termination of Gaussian 16 at Wed Apr  9 03:07:34 2025.
 Gaussian 16:  ES64L-G16RevC.01  3-Jul-2019

 ----------------------------------------------------------------------
 #t hf aug-cc-pvdz iop(5/13=1,5/36=2,99/5=2) pseudo=read geom=check gue
 ss=(read,tcheck) scf=(maxcycle=1)
 ----------------------------------------------------------------------
 -----
 title
 -----
 Structure from the checkpoint file:  "Grambow2020_b97d3_006637_reverse_mol1.chk"
 Charge =  0 Multiplicity = 1

                         Standard orientation:
 ---------------------------------------------------------------------
 Center     Atomic      Atomic             Coordinates (Angstroms)
 Number     Number       Type             X           Y           Z
 ---------------------------------------------------------------------
      1          6           0        0.264273   -0.528690    0.000020
      2          6           0        1.381625    0.102295   -0.004283
      3          6           0       -1.131864   -0.548596    0.000302
      4          6           0       -0.985557    0.753035    0.001401
      5          1           0        2.458776    0.107465    0.019213
      6          1           0        0.370361    1.224265   -0.003849
 ---------------------------------------------------------------------

 SCF Done:  E(RHF) =  -152.351529170     A.U. after    2 cycles

 The electronic state is 1-A.
 Alpha  occ. eigenvalues --  -11.37829 -11.32556 -11.30704 -11.27214  -1.20755
 Alpha  occ. eigenvalues --   -1.02454  -0.77133  -0.74015  -0.61478  -0.53946
 Alpha  occ. eigenvalues --   -0.47077  -0.41286  -0.35955
 Alpha virt. eigenvalues --    0.02806   0.03260   0.06012   0.06216   0.06490
 Alpha virt. eigenvalues --    0.07627   0.09885   0.10980   0.11742   0.13910
 Alpha virt. eigenvalues --    0.13921   0.15401   0.16348   0.16671   0.16833

 Mulliken charges:
               1
     1  C    0.050347
     2  C    0.170373
     3  C   -0.331996
     4  C   -0.188188
     5  H   -0.254913
     6  H    0.554376
 Sum of Mulliken charges =  -0.00000

 Dipole moment (field-independent basis, Debye):
    X=              3.2187    Y=              0.6964    Z=              0.0362  Tot=              3.2934

 Test job not archived.
 1\1\GINC-SE336\SP\RHF\Aug-CC-pVDZ\C4H2\OHZDE\09-Apr-2025\0\\#t hf aug-
 cc-pvdz iop(5/13=1,5/36=2,99/5=2) pseudo=read geom=check guess=(read,t
 check) scf=(maxcycle=1)\\title\\0,1\C,0,0.05831668,-0.68434709,-0.2956
 4744\C,0,0.8668492,0.045961,0.38226084\C,0,-1.10379865,-0.84897855,-1.
 05194086\C,0,-1.24377979,0.43088625,-0.81110555\H,0,1.75335381,0.15805
 572,0.9842401\H,0,-0.20341725,1.03096666,-0.02488109\\Version=ES64L-G1
 6RevC.01\State=1-A\HF=-152.3515292\RMSD=8.249e-03\Dipole=0.995219,0.39
 4968,0.7296939\Quadrupole=0.8553963,-0.3608506,-0.4945457,-0.4061669,1

 Normal termination of Gaussian 16 at Wed Apr  9 03:07:35 2025.
