 Gaussian 16, Revision C.01,

 ----------------------------------------------------------------------
 #t hf aug-cc-pvdz symm=none int=(grid=ultrafine) guess=(read,tcheck) s
 table=(opt,rrhf)
 ----------------------------------------------------------------------
 -----
 title
 -----
 Symbolic Z-matrix:
 Charge =  0 Multiplicity = 1

 SCF Done:  E(RHF) =  -376.831065075     A.U. after   15 cycles
 Normal termination of Gaussian 16 at Wed Apr  9 03:58:43 2025.
 Gaussian 16:  ES64L-G16RevC.01  3-Jul-2019

 ----------------------------------------------------------------------
 #t hf aug-cc-pvdz iop(5/13=1,5/36=2,99/5=2) pseudo=read geom=check gue
 ss=(read,tcheck) scf=(maxcycle=1)
 ----------------------------------------------------------------------
 -----
 title
 -----
 Structure from the checkpoint file:  "Grambow2020_wb97xd3_008748_reverse_mol1.chk"
 Charge =  0 Multiplicity = 1

                         Standard orientation:
 ---------------------------------------------------------------------
 Center     Atomic      Atomic             Coordinates (Angstroms)
 Number     Number       Type             X           Y           Z
 ---------------------------------------------------------------------
      1          7           0       -2.613114   -0.654462   -0.236233
      2          6           0       -1.468416    0.084202   -0.002484
      3          8           0       -1.462962    1.297904   -0.032917
      4          7           0       -0.354377   -0.668531    0.272259
      5          6           0        0.849418   -0.054204    0.741897
      6          6           0        1.569635    0.739321   -0.185942
      7          8           0        2.887184   -0.506208   -0.447154
      8          1           0       -3.356598   -0.118401   -0.648362
      9          1           0       -2.515778   -1.590108   -0.590008
     10          1           0       -0.491024   -1.642548    0.474586
     11          1           0        2.070076   -0.784979    0.388603
     12          1           0        0.822043    0.313468    1.765588
     13          1           0        2.163030    1.571730    0.172770
     14          1           0        1.239754    0.812277   -1.213520
     15          1           0        3.743337   -0.249963   -0.082100
 ---------------------------------------------------------------------

 SCF Done:  E(RHF) =  -376.949958260     A.U. after    2 cycles

 The electronic state is 1-A.
 Alpha  occ. eigenvalues --  -20.57410 -20.52181 -15.64017 -15.63977 -11.38194
 Alpha  occ. eigenvalues --  -11.33002 -11.23505  -1.35380  -1.29865  -1.20254
 Alpha  occ. eigenvalues --   -1.15610  -1.02419  -0.85193  -0.78025  -0.74768
 Alpha  occ. eigenvalues --   -0.72899  -0.70862  -0.65785  -0.62888  -0.61939
 Alpha  occ. eigenvalues --   -0.58248  -0.57194  -0.54303  -0.52412  -0.45509
 Alpha  occ. eigenvalues --   -0.42328  -0.40163  -0.34380
 Alpha virt. eigenvalues --    0.03013   0.03394   0.04493   0.05228   0.06128
 Alpha virt. eigenvalues --    0.06547   0.07768   0.08619   0.11740   0.12491
 Alpha virt. eigenvalues --    0.12828   0.13563   0.14123   0.15019   0.15483

 Mulliken charges:
               1
     1  N   -0.172772
     2  C    0.782648
     3  O   -0.501386
     4  N   -0.372523
     5  C    0.388929
     6  C    0.591299
     7  O   -0.634458
     8  H    0.020275
     9  H   -0.031709
    10  H   -0.107457
    11  H    0.618480
    12  H   -0.248379
    13  H   -0.211195
    14  H   -0.277823
    15  H    0.156072
 Sum of Mulliken charges =   0.00000

 Dipole moment (field-independent basis, Debye):
    X=              1.0072    Y=             -2.1559    Z=             -0.0363  Tot=              2.3798

 Test job not archived.
 1\1\GINC-SE249\SP\RHF\Aug-CC-pVDZ\C3H8N2O2\OHZDE\09-Apr-2025\0\\#t hf
 aug-cc-pvdz iop(5/13=1,5/36=2,99/5=2) pseudo=read geom=check guess=(re
 ad,tcheck) scf=(maxcycle=1)\\title\\0,1\N,0,2.73997732,0.5900737,-0.53
 626498\C,0,1.51387659,0.72853626,0.08671242\O,0,1.37751022,1.35743336,
 1.11623718\N,0,0.47595811,0.10602463,-0.56010994\C,0,-0.87928735,0.332
 38091,-0.16116897\C,0,-1.2813375,-0.21151656,1.0845478\O,0,-2.24448924
 ,-1.57982217,0.33917152\H,0,3.51554622,0.85168625,0.04685758\H,0,2.895
 14853,-0.21696263,-1.11478006\H,0,0.63922254,-0.21463656,-1.49757387\H

 Normal termination of Gaussian 16 at Wed Apr  9 03:58:49 2025.
