 Gaussian 16, Revision C.01,

 ----------------------------------------------------------------------
 #t hf aug-cc-pvdz symm=none int=(grid=ultrafine) guess=(read,tcheck) s
 table=(opt,rrhf)
 ----------------------------------------------------------------------
 -----
 title
 -----
 Symbolic Z-matrix:
 Charge =  0 Multiplicity = 1

 SCF Done:  E(RHF) =  -322.770484432     A.U. after   14 cycles
 Normal termination of Gaussian 16 at Wed Apr  9 15:35:01 2025.
 Gaussian 16:  ES64L-G16RevC.01  3-Jul-2019

 ----------------------------------------------------------------------
 #t hf aug-cc-pvdz iop(5/13=1,5/36=2,99/5=2) pseudo=read geom=check gue
 ss=(read,tcheck) scf=(maxcycle=1)
 ----------------------------------------------------------------------
 -----
 title
 -----
 Structure from the checkpoint file:  "Grambow2020_wb97xd3_007008_forward_mol2.chk"
 Charge =  0 Multiplicity = 1

                         Standard orientation:
 ---------------------------------------------------------------------
 Center     Atomic      Atomic             Coordinates (Angstroms)
 Number     Number       Type             X           Y           Z
 ---------------------------------------------------------------------
      1          6           0       -1.869793   -0.749473   -0.397992
      2          6           0       -0.623343   -0.482099    0.441513
      3          6           0        0.526922   -1.427718    0.227212
      4          6           0        1.595940   -0.728693   -0.141621
      5          7           0        1.307091    0.639829   -0.203619
      6          6           0       -0.009523    0.881335    0.108819
      7          8           0       -0.554058    1.957820    0.105161
      8          1           0       -2.335409   -1.692560   -0.108998
      9          1           0       -1.616151   -0.805599   -1.458124
     10          1           0       -2.592060    0.055436   -0.259076
     11          1           0       -0.907283   -0.447190    1.499496
     12          1           0        0.484837   -2.497803    0.356503
     13          1           0        2.591440   -1.077059   -0.373273
     14          1           0        1.936237    1.363308   -0.500072
 ---------------------------------------------------------------------

 SCF Done:  E(RHF) =  -322.869832628     A.U. after    2 cycles

 The electronic state is 1-A.
 Alpha  occ. eigenvalues --  -20.54155 -15.66266 -11.36366 -11.29701 -11.25867
 Alpha  occ. eigenvalues --  -11.23992 -11.23565  -1.35693  -1.24631  -1.07707
 Alpha  occ. eigenvalues --   -0.99625  -0.91005  -0.80070  -0.78923  -0.71301
 Alpha  occ. eigenvalues --   -0.65557  -0.62758  -0.61897  -0.60254  -0.58431
 Alpha  occ. eigenvalues --   -0.54187  -0.52367  -0.50140  -0.48483  -0.42946
 Alpha  occ. eigenvalues --   -0.33051
 Alpha virt. eigenvalues --    0.02802   0.03635   0.04596   0.05025   0.06271
 Alpha virt. eigenvalues --    0.06818   0.07848   0.09511   0.11097   0.11798
 Alpha virt. eigenvalues --    0.12513   0.13303   0.13726   0.14539   0.15108

 Mulliken charges:
               1
     1  C    0.571273
     2  C   -0.943752
     3  C    0.813954
     4  C    0.568657
     5  N   -0.411160
     6  C    0.664182
     7  O   -0.511452
     8  H   -0.045310
     9  H   -0.011920
    10  H   -0.030687
    11  H    0.051619
    12  H   -0.322380
    13  H   -0.271096
    14  H   -0.121927
 Sum of Mulliken charges =  -0.00000

 Dipole moment (field-independent basis, Debye):
    X=              2.3742    Y=             -3.1113    Z=             -0.3458  Tot=              3.9290

 Test job not archived.
 1\1\GINC-SE141\SP\RHF\Aug-CC-pVDZ\C5H7N1O1\OHZDE\09-Apr-2025\0\\#t hf
 aug-cc-pvdz iop(5/13=1,5/36=2,99/5=2) pseudo=read geom=check guess=(re
 ad,tcheck) scf=(maxcycle=1)\\title\\0,1\C,0,-1.77700081,0.13781305,0.2
 5251949\C,0,-0.44127808,0.24526269,-0.47836744\C,0,0.5833202,1.1452224
 6,0.15684993\C,0,1.68182581,0.43883361,0.40539247\N,0,1.52989908,-0.89
 118358,-0.00461023\C,0,0.27714033,-1.10672197,-0.52763271\O,0,-0.15287
 903,-2.15986475,-0.92928625\H,0,-2.30945618,1.08941167,0.22645056\H,0,
 -1.62391285,-0.13834323,1.2973473\H,0,-2.39842284,-0.62489134,-0.21754

 Normal termination of Gaussian 16 at Wed Apr  9 15:35:08 2025.
