 Gaussian 16, Revision C.01,

 ----------------------------------------------------------------------
 #t hf aug-cc-pvdz symm=none int=(grid=ultrafine) guess=(read,tcheck) s
 table=(opt,rrhf)
 ----------------------------------------------------------------------
 -----
 title
 -----
 Symbolic Z-matrix:
 Charge =  0 Multiplicity = 1

 SCF Done:  E(RHF) =  -302.744207720     A.U. after   16 cycles
 Normal termination of Gaussian 16 at Wed Apr  9 03:34:28 2025.
 Gaussian 16:  ES64L-G16RevC.01  3-Jul-2019

 ----------------------------------------------------------------------
 #t hf aug-cc-pvdz iop(5/13=1,5/36=2,99/5=2) pseudo=read geom=check gue
 ss=(read,tcheck) scf=(maxcycle=1)
 ----------------------------------------------------------------------
 -----
 title
 -----
 Structure from the checkpoint file:  "Grambow2020_wb97xd3_007170_reverse_mol2.chk"
 Charge =  0 Multiplicity = 1

                         Standard orientation:
 ---------------------------------------------------------------------
 Center     Atomic      Atomic             Coordinates (Angstroms)
 Number     Number       Type             X           Y           Z
 ---------------------------------------------------------------------
      1          6           0       -1.464710    1.698220   -0.099288
      2          6           0       -1.251880    0.244504   -0.150442
      3          6           0       -1.696292   -1.155613   -0.107394
      4          7           0       -0.330955   -0.632009   -0.145916
      5          6           0        0.941338   -1.033438   -0.100474
      6          6           0        1.942391   -0.050025   -0.093377
      7          7           0        2.741227    0.784852   -0.083801
      8          1           0       -2.072453    2.037189   -0.940751
      9          1           0       -0.502181    2.207864   -0.134574
     10          1           0       -1.977549    1.985806    0.821614
     11          1           0       -0.422491    0.087957    2.899170
     12          1           0       -1.995895   -1.619351    0.833372
     13          1           0       -2.033085   -1.666799   -1.008757
     14          1           0        0.160976   -0.235758    2.564076
     15          1           0        1.145690   -2.088702   -0.120286
 ---------------------------------------------------------------------

 SCF Done:  E(RHF) =  -302.840655387     A.U. after    2 cycles

 The electronic state is 1-A.
 Alpha  occ. eigenvalues --  -15.76259 -15.60477 -11.33565 -11.32788 -11.27979
 Alpha  occ. eigenvalues --  -11.27181 -11.26535  -1.37001  -1.16737  -1.08630
 Alpha  occ. eigenvalues --   -1.02952  -0.90008  -0.82636  -0.71508  -0.71175
 Alpha  occ. eigenvalues --   -0.68851  -0.62913  -0.60613  -0.59624  -0.56030
 Alpha  occ. eigenvalues --   -0.53622  -0.52603  -0.50692  -0.45833  -0.44093
 Alpha  occ. eigenvalues --   -0.27296
 Alpha virt. eigenvalues --    0.02337   0.03105   0.04090   0.05042   0.06253
 Alpha virt. eigenvalues --    0.07063   0.07731   0.08818   0.09023   0.09548
 Alpha virt. eigenvalues --    0.10947   0.11192   0.12284   0.13230   0.14172

 Mulliken charges:
               1
     1  C    0.238495
     2  C   -0.682315
     3  C    0.993464
     4  N   -0.186345
     5  C    1.118956
     6  C   -0.701543
     7  N   -0.209060
     8  H    0.070225
     9  H   -0.002685
    10  H    0.074034
    11  H   -0.067361
    12  H   -0.194782
    13  H   -0.194807
    14  H    0.134462
    15  H   -0.390737
 Sum of Mulliken charges =   0.00000

 Dipole moment (field-independent basis, Debye):
    X=             -6.6989    Y=             -1.5067    Z=             -0.0997  Tot=              6.8670

 Test job not archived.
 1\1\GINC-SE435\SP\RHF\Aug-CC-pVDZ\C5H8N2\OHZDE\09-Apr-2025\0\\#t hf au
 g-cc-pvdz iop(5/13=1,5/36=2,99/5=2) pseudo=read geom=check guess=(read
 ,tcheck) scf=(maxcycle=1)\\title\\0,1\C,0,-1.66653529,-1.04387695,0.23
 602531\C,0,-0.8144367,0.14169198,0.40794354\C,0,-0.56964932,1.58801864
 ,0.49683365\N,0,0.4049982,0.49791554,0.45775816\C,0,1.72081805,0.27671
 503,0.41740125\C,0,2.16235383,-1.05027194,0.30160381\N,0,2.49188755,-2
 .15323507,0.20095868\H,0,-2.37765581,-1.14054402,1.05899229\H,0,-1.043
 74279,-1.9375067,0.20439916\H,0,-2.23673826,-0.9836202,-0.69403179\H,0

 Normal termination of Gaussian 16 at Wed Apr  9 03:34:33 2025.
