 Gaussian 16, Revision C.01,

 ----------------------------------------------------------------------
 #t hf aug-cc-pvdz symm=none int=(grid=ultrafine) guess=(read,tcheck) s
 table=(opt,rrhf)
 ----------------------------------------------------------------------
 -----
 title
 -----
 Symbolic Z-matrix:
 Charge =  0 Multiplicity = 1

 SCF Done:  E(RHF) =  -354.656059081     A.U. after   15 cycles
 Normal termination of Gaussian 16 at Wed Apr  9 15:42:44 2025.
 Gaussian 16:  ES64L-G16RevC.01  3-Jul-2019

 ----------------------------------------------------------------------
 #t hf aug-cc-pvdz iop(5/13=1,5/36=2,99/5=2) pseudo=read geom=check gue
 ss=(read,tcheck) scf=(maxcycle=1)
 ----------------------------------------------------------------------
 -----
 title
 -----
 Structure from the checkpoint file:  "Grambow2020_wb97xd3_007312_reverse_mol1.chk"
 Charge =  0 Multiplicity = 1

                         Standard orientation:
 ---------------------------------------------------------------------
 Center     Atomic      Atomic             Coordinates (Angstroms)
 Number     Number       Type             X           Y           Z
 ---------------------------------------------------------------------
      1          8           0       -2.425711   -0.445661   -0.159986
      2          6           0       -1.589631    0.644082    0.117829
      3          6           0       -0.139644    0.289516    0.022531
      4          7           0        0.254746   -0.996904    0.070087
      5          7           0        1.565393   -1.001573   -0.055047
      6          6           0        1.931557    0.369532   -0.084702
      7          7           0        0.851271    1.164864   -0.049855
      8          1           0       -1.963147   -1.251310    0.091808
      9          1           0       -1.774324    1.048575    1.122766
     10          1           0       -1.806682    1.441665   -0.594998
     11          1           0        2.109770   -0.332169    0.950022
     12          1           0        2.926518    0.675037   -0.379947
 ---------------------------------------------------------------------

 SCF Done:  E(RHF) =  -354.757655047     A.U. after    2 cycles

 The electronic state is 1-A.
 Alpha  occ. eigenvalues --  -20.57918 -15.74593 -15.67670 -15.65391 -11.35956
 Alpha  occ. eigenvalues --  -11.33632 -11.31066  -1.40991  -1.33890  -1.19627
 Alpha  occ. eigenvalues --   -1.11620  -0.97034  -0.86204  -0.81911  -0.74345
 Alpha  occ. eigenvalues --   -0.70579  -0.67452  -0.64883  -0.63128  -0.56972
 Alpha  occ. eigenvalues --   -0.53857  -0.48877  -0.47788  -0.45982  -0.43502
 Alpha  occ. eigenvalues --   -0.42871
 Alpha virt. eigenvalues --    0.02584   0.03591   0.04345   0.05932   0.06645
 Alpha virt. eigenvalues --    0.08771   0.09208   0.09596   0.12179   0.12590
 Alpha virt. eigenvalues --    0.13139   0.13429   0.14043   0.15443   0.15880

 Mulliken charges:
               1
     1  O   -0.525674
     2  C    0.873285
     3  C    0.019926
     4  N   -0.447402
     5  N   -0.621518
     6  C    0.866894
     7  N   -0.577830
     8  H    0.178733
     9  H    0.043200
    10  H   -0.032874
    11  H    0.314834
    12  H   -0.091572
 Sum of Mulliken charges =  -0.00000

 Dipole moment (field-independent basis, Debye):
    X=              2.8205    Y=              1.0354    Z=              1.1529  Tot=              3.2181

 Test job not archived.
 1\1\GINC-SE097\SP\RHF\Aug-CC-pVDZ\C3H5N3O1\OHZDE\09-Apr-2025\0\\#t hf
 aug-cc-pvdz iop(5/13=1,5/36=2,99/5=2) pseudo=read geom=check guess=(re
 ad,tcheck) scf=(maxcycle=1)\\title\\0,1\O,0,-2.30647585,0.91359117,-0.
 44031641\C,0,-1.64092411,-0.24994508,-0.03169081\C,0,-0.15424255,-0.08
 554192,-0.02858042\N,0,0.42525089,0.91250632,-0.72195473\N,0,1.7226463
 6,0.81855715,-0.51844866\C,0,1.88287012,-0.35550627,0.26308072\N,0,0.6
 9708557,-0.90172739,0.57347233\H,0,-1.73100117,1.39232979,-1.0453584\H
 ,0,-1.88619352,-1.10357951,-0.6788187\H,0,-1.97100561,-0.50539219,0.97

 Normal termination of Gaussian 16 at Wed Apr  9 15:42:48 2025.
