 Gaussian 16, Revision C.01,

 ----------------------------------------------------------------------
 #t hf aug-cc-pvdz symm=none int=(grid=ultrafine) guess=(read,tcheck) s
 table=(opt,rrhf)
 ----------------------------------------------------------------------
 -----
 title
 -----
 Symbolic Z-matrix:
 Charge =  0 Multiplicity = 1

 SCF Done:  E(RHF) =  -286.611149798     A.U. after   16 cycles
 Normal termination of Gaussian 16 at Wed Apr  9 16:14:12 2025.
 Gaussian 16:  ES64L-G16RevC.01  3-Jul-2019

 ----------------------------------------------------------------------
 #t hf aug-cc-pvdz iop(5/13=1,5/36=2,99/5=2) pseudo=read geom=check gue
 ss=(read,tcheck) scf=(maxcycle=1)
 ----------------------------------------------------------------------
 -----
 title
 -----
 Structure from the checkpoint file:  "Grambow2020_wb97xd3_007998_forward_mol1.chk"
 Charge =  0 Multiplicity = 1

                         Standard orientation:
 ---------------------------------------------------------------------
 Center     Atomic      Atomic             Coordinates (Angstroms)
 Number     Number       Type             X           Y           Z
 ---------------------------------------------------------------------
      1          6           0        1.548550    1.450659    0.018301
      2          6           0        2.068819    0.184836   -0.100920
      3          6           0        1.744316   -1.004950   -0.121681
      4          6           0        0.457089   -1.500336   -0.001313
      5          6           0       -0.854002    0.046207    0.456633
      6          6           0       -1.915689    0.923515   -0.150907
      7          7           0       -1.995960   -0.504689   -0.304192
      8          1           0        1.459339    2.070347   -0.870807
      9          1           0        1.707782    2.008481    0.937914
     10          1           0        0.295294    0.768867    0.138339
     11          1           0        0.187629   -2.059119    0.891111
     12          1           0       -0.065149   -1.826218   -0.894486
     13          1           0       -0.933391   -0.024796    1.539177
     14          1           0       -1.685291    1.470382   -1.058929
     15          1           0       -2.604571    1.425941    0.521623
     16          1           0       -2.684422   -0.900660    0.324717
 ---------------------------------------------------------------------

 SCF Done:  E(RHF) =  -286.698466545     A.U. after    2 cycles

 The electronic state is 1-A.
 Alpha  occ. eigenvalues --  -15.63010 -11.30408 -11.27153 -11.26949 -11.25866
 Alpha  occ. eigenvalues --  -11.25707 -11.22402  -1.23879  -1.10604  -0.99308
 Alpha  occ. eigenvalues --   -0.89647  -0.88255  -0.81577  -0.70645  -0.67560
 Alpha  occ. eigenvalues --   -0.63618  -0.62765  -0.62454  -0.60030  -0.54438
 Alpha  occ. eigenvalues --   -0.50100  -0.48683  -0.42464  -0.37214  -0.34599
 Alpha  occ. eigenvalues --   -0.33255
 Alpha virt. eigenvalues --    0.02807   0.03699   0.04604   0.04624   0.06473
 Alpha virt. eigenvalues --    0.06692   0.07185   0.07394   0.08402   0.09749
 Alpha virt. eigenvalues --    0.09989   0.11442   0.12495   0.12988   0.13800

 Mulliken charges:
               1
     1  C    0.380428
     2  C   -0.314430
     3  C   -0.608410
     4  C    0.844704
     5  C    0.109806
     6  C    0.971845
     7  N   -0.583641
     8  H    0.098551
     9  H    0.083786
    10  H   -0.137367
    11  H    0.038407
    12  H   -0.014861
    13  H   -0.400019
    14  H   -0.291238
    15  H   -0.203819
    16  H    0.026258
 Sum of Mulliken charges =  -0.00000

 Dipole moment (field-independent basis, Debye):
    X=             -2.2558    Y=              1.1579    Z=              1.6024  Tot=              2.9995

 Test job not archived.
 1\1\GINC-SE173\SP\RHF\Aug-CC-pVDZ\C6H9N1\OHZDE\09-Apr-2025\0\\#t hf au
 g-cc-pvdz iop(5/13=1,5/36=2,99/5=2) pseudo=read geom=check guess=(read
 ,tcheck) scf=(maxcycle=1)\\title\\0,1\C,0,1.7473303,0.79367451,1.14318
 397\C,0,2.11225927,-0.47264897,0.75530301\C,0,1.67631659,-1.48883933,0
 .20882847\C,0,0.39175578,-1.66535038,-0.27655401\C,0,-0.79210204,-0.04
 124689,0.25376492\C,0,-1.41964546,1.20611412,-0.3085822\N,0,-1.6106880
 2,-0.0531173,-0.97757041\H,0,2.08558608,1.64362489,0.5552626\H,0,1.607
 08934,1.00837232,2.1998041\H,0,0.47087549,0.43625344,0.60206057\H,0,-0

 Normal termination of Gaussian 16 at Wed Apr  9 16:14:18 2025.
