 Gaussian 16, Revision C.01,

 ----------------------------------------------------------------------
 #t hf aug-cc-pvdz symm=none int=(grid=ultrafine) guess=(read,tcheck) s
 table=(opt,rrhf)
 ----------------------------------------------------------------------
 -----
 title
 -----
 Symbolic Z-matrix:
 Charge =  0 Multiplicity = 1

 SCF Done:  E(RHF) =  -287.853579153     A.U. after   17 cycles

 1\1\GINC-SE016\Stability\RHF\Aug-CC-pVDZ\C6H11N1\OHZDE\09-Apr-2025\0\\
 #t hf aug-cc-pvdz symm=none int=(grid=ultrafine) guess=(read,tcheck) s
 table=(opt,rrhf)\\title\\0,1\C,0,2.30610853,-0.76650624,0.39312541\C,0
 ,0.84218481,-0.87083116,-0.04317648\C,0,0.1951846,0.44996903,0.2007263
 8\C,0,-1.78024894,-0.17776226,-0.14962844\C,0,-1.07601974,1.17644977,-
 1.1154461\C,0,-0.07056876,0.90518271,1.49620268\N,0,-0.24425117,1.3621
 0167,2.5474799\H,0,2.83399276,-0.00554746,-0.18136107\H,0,2.80405454,-
 1.72596747,0.24588942\H,0,2.38314584,-0.50784883,1.4505\H,0,0.37013096

 Normal termination of Gaussian 16 at Wed Apr  9 03:40:53 2025.
 Gaussian 16:  ES64L-G16RevC.01  3-Jul-2019

 ----------------------------------------------------------------------
 #t hf aug-cc-pvdz iop(5/13=1,5/36=2,99/5=2) pseudo=read geom=check gue
 ss=(read,tcheck) scf=(maxcycle=1)
 ----------------------------------------------------------------------
 -----
 title
 -----
 Structure from the checkpoint file:  "Grambow2020_wb97xd3_007526_forward_mol1.chk"
 Charge =  0 Multiplicity = 1

                         Standard orientation:
 ---------------------------------------------------------------------
 Center     Atomic      Atomic             Coordinates (Angstroms)
 Number     Number       Type             X           Y           Z
 ---------------------------------------------------------------------
      1          6           0        2.451830   -0.452235   -0.170690
      2          6           0        1.079512   -0.855541    0.375571
      3          6           0        0.047961   -0.040181   -0.327069
      4          6           0       -1.570238   -0.584721    0.899324
      5          6           0       -1.647804   -0.872169   -0.882246
      6          6           0       -0.093379    1.329253   -0.080538
      7          7           0       -0.203255    2.478079    0.030141
      8          1           0        2.520846   -0.645372   -1.241059
      9          1           0        3.232635   -1.018310    0.339307
     10          1           0        2.644280    0.608943   -0.004129
     11          1           0        1.082070   -0.742140    1.470560
     12          1           0        0.908592   -1.916018    0.167191
     13          1           0       -0.853699   -0.169598    1.596645
     14          1           0       -2.471568    0.016673    0.970000
     15          1           0       -1.736369   -1.618876    1.189078
     16          1           0       -2.642753   -1.289584   -0.677091
     17          1           0       -1.799163   -0.049732   -1.570981
     18          1           0       -1.069376   -1.668973   -1.336617
 ---------------------------------------------------------------------

 SCF Done:  E(RHF) =  -287.942877992     A.U. after    2 cycles

 The electronic state is 1-A.
 Alpha  occ. eigenvalues --  -15.62128 -11.29682 -11.29084 -11.28702 -11.27150
 Alpha  occ. eigenvalues --  -11.25921 -11.23668  -1.17908  -1.09384  -1.02958
 Alpha  occ. eigenvalues --   -0.93276  -0.90993  -0.84593  -0.66901  -0.65046
 Alpha  occ. eigenvalues --   -0.63773  -0.62308  -0.57048  -0.56711  -0.56460
 Alpha  occ. eigenvalues --   -0.53488  -0.52144  -0.50271  -0.49950  -0.47326
 Alpha  occ. eigenvalues --   -0.44201  -0.30628
 Alpha virt. eigenvalues --    0.02570   0.03421   0.03856   0.04995   0.05861
 Alpha virt. eigenvalues --    0.06155   0.06397   0.07247   0.07961   0.08486
 Alpha virt. eigenvalues --    0.08894   0.09764   0.11507   0.12729   0.13051

 Mulliken charges:
               1
     1  C    0.415787
     2  C    0.412206
     3  C    0.152366
     4  C    0.705482
     5  C    0.816529
     6  C   -0.837230
     7  N   -0.244607
     8  H   -0.036544
     9  H   -0.032433
    10  H   -0.090547
    11  H   -0.144256
    12  H   -0.195285
    13  H   -0.408091
    14  H   -0.029648
    15  H   -0.081740
    16  H   -0.292638
    17  H   -0.061850
    18  H   -0.047502
 Sum of Mulliken charges =  -0.00000

 Dipole moment (field-independent basis, Debye):
    X=             -1.0535    Y=             -5.0095    Z=              0.7192  Tot=              5.1694

 Test job not archived.
 1\1\GINC-SE016\SP\RHF\Aug-CC-pVDZ\C6H11N1\OHZDE\09-Apr-2025\0\\#t hf a
 ug-cc-pvdz iop(5/13=1,5/36=2,99/5=2) pseudo=read geom=check guess=(rea
 d,tcheck) scf=(maxcycle=1)\\title\\0,1\C,0,2.30610853,-0.76650624,0.39
 312541\C,0,0.84218481,-0.87083116,-0.04317648\C,0,0.1951846,0.44996903
 ,0.20072638\C,0,-1.78024894,-0.17776226,-0.14962844\C,0,-1.07601974,1.
 17644977,-1.1154461\C,0,-0.07056876,0.90518271,1.49620268\N,0,-0.24425
 117,1.36210167,2.5474799\H,0,2.83399276,-0.00554746,-0.18136107\H,0,2.
 80405454,-1.72596747,0.24588942\H,0,2.38314584,-0.50784883,1.4505\H,0,

 Normal termination of Gaussian 16 at Wed Apr  9 03:40:59 2025.
