 Gaussian 16, Revision C.01,

 ----------------------------------------------------------------------
 #t hf aug-cc-pvdz symm=none int=(grid=ultrafine) guess=(read,tcheck) s
 table=(opt,rrhf)
 ----------------------------------------------------------------------
 -----
 title
 -----
 Symbolic Z-matrix:
 Charge =  0 Multiplicity = 1

 SCF Done:  E(RHF) =  -343.563257492     A.U. after   15 cycles
 Normal termination of Gaussian 16 at Wed Apr  9 16:01:06 2025.
 Gaussian 16:  ES64L-G16RevC.01  3-Jul-2019

 ----------------------------------------------------------------------
 #t hf aug-cc-pvdz iop(5/13=1,5/36=2,99/5=2) pseudo=read geom=check gue
 ss=(read,tcheck) scf=(maxcycle=1)
 ----------------------------------------------------------------------
 -----
 title
 -----
 Structure from the checkpoint file:  "Grambow2020_wb97xd3_007679_forward_mol1.chk"
 Charge =  0 Multiplicity = 1

                         Standard orientation:
 ---------------------------------------------------------------------
 Center     Atomic      Atomic             Coordinates (Angstroms)
 Number     Number       Type             X           Y           Z
 ---------------------------------------------------------------------
      1          6           0        1.764561   -0.838226    0.307499
      2          6           0        0.643274   -0.477672   -0.641885
      3          6           0       -0.749799   -1.039284   -0.394223
      4          8           0       -1.091085   -0.706678    0.954826
      5          6           0       -1.415856    0.312771   -0.453941
      6          6           0       -0.018206    0.941341   -0.566117
      7          8           0        0.396081    1.860576    0.391344
      8          1           0        2.058639   -1.882688    0.184681
      9          1           0        1.471026   -0.693401    1.347460
     10          1           0        2.639314   -0.214880    0.115756
     11          1           0        0.939854   -0.672816   -1.674564
     12          1           0       -1.137031   -1.993655   -0.737977
     13          1           0       -1.994113   -0.106480    0.763859
     14          1           0        0.030647    1.445358   -1.535572
     15          1           0        0.207855    1.493798    1.259015
 ---------------------------------------------------------------------

 SCF Done:  E(RHF) =  -343.666199262     A.U. after    2 cycles

 The electronic state is 1-A.
 Alpha  occ. eigenvalues --  -20.63537 -20.58299 -11.31358 -11.30523 -11.28702
 Alpha  occ. eigenvalues --  -11.25416 -11.23265  -1.39952  -1.33919  -1.11050
 Alpha  occ. eigenvalues --   -0.98916  -0.90263  -0.84799  -0.79356  -0.74918
 Alpha  occ. eigenvalues --   -0.67502  -0.64344  -0.64139  -0.61106  -0.56904
 Alpha  occ. eigenvalues --   -0.55746  -0.53511  -0.52526  -0.50671  -0.45394
 Alpha  occ. eigenvalues --   -0.44826  -0.37187
 Alpha virt. eigenvalues --    0.03145   0.04143   0.04388   0.04981   0.06388
 Alpha virt. eigenvalues --    0.06816   0.07108   0.07735   0.08271   0.11885
 Alpha virt. eigenvalues --    0.12702   0.13263   0.13607   0.14219   0.14690

 Mulliken charges:
               1
     1  C    0.531899
     2  C   -0.628305
     3  C    1.026121
     4  O   -0.804765
     5  C   -0.588175
     6  C    0.993934
     7  O   -0.576752
     8  H   -0.015281
     9  H   -0.024181
    10  H    0.009299
    11  H   -0.102128
    12  H   -0.280339
    13  H    0.457036
    14  H   -0.144383
    15  H    0.146019
 Sum of Mulliken charges =   0.00000

 Dipole moment (field-independent basis, Debye):
    X=              0.7501    Y=             -2.0201    Z=             -0.8642  Tot=              2.3216

 Test job not archived.
 1\1\GINC-SE131\SP\RHF\Aug-CC-pVDZ\C5H8O2\OHZDE\09-Apr-2025\0\\#t hf au
 g-cc-pvdz iop(5/13=1,5/36=2,99/5=2) pseudo=read geom=check guess=(read
 ,tcheck) scf=(maxcycle=1)\\title\\0,1\C,0,1.61839949,-0.53107146,0.028
 3035\C,0,0.4245276,0.19385251,0.60948248\C,0,-0.20241943,1.33950533,-0
 .1727022\O,0,-0.49427508,0.83204568,-1.47820577\C,0,-1.59487499,0.7648
 1731,-0.09489875\C,0,-0.99063213,-0.47920674,0.57473131\O,0,-1.1627891
 2,-1.72529679,-0.01770522\H,0,2.50846761,0.10107631,0.05349297\H,0,1.4
 4449051,-0.822815,-1.00769799\H,0,1.8286963,-1.43571627,0.60093846\H,0

 Normal termination of Gaussian 16 at Wed Apr  9 16:01:12 2025.
