 Gaussian 16, Revision C.01,

 ----------------------------------------------------------------------
 #t hf aug-cc-pvdz symm=none int=(grid=ultrafine) guess=(read,tcheck) s
 table=(opt,rrhf)
 ----------------------------------------------------------------------
 -----
 title
 -----
 Symbolic Z-matrix:
 Charge =  0 Multiplicity = 1

 SCF Done:  E(RHF) =  -344.804528263     A.U. after   13 cycles

 1\1\GINC-SE229\Stability\RHF\Aug-CC-pVDZ\C5H10O2\OHZDE\09-Apr-2025\0\\
 #t hf aug-cc-pvdz symm=none int=(grid=ultrafine) guess=(read,tcheck) s
 table=(opt,rrhf)\\title\\0,1\C,0,-1.94838363,0.27610464,0.06090766\C,0
 ,-0.56424841,0.28519704,0.64109617\O,0,-0.54025976,0.79839207,1.934812
 79\C,0,0.34572093,-0.83059727,0.27493028\C,0,0.56473836,0.54729128,-0.
 32948718\C,0,1.87433875,0.51551498,0.42869679\O,0,1.5358452,-0.7491721
 1,1.05247557\H,0,-2.3419791,1.29243054,0.00809835\H,0,-1.94789411,-0.1
 452413,-0.94594547\H,0,-2.61260556,-0.31863219,0.68916626\H,0,-0.17803

 Normal termination of Gaussian 16 at Wed Apr  9 03:33:38 2025.
 Gaussian 16:  ES64L-G16RevC.01  3-Jul-2019

 ----------------------------------------------------------------------
 #t hf aug-cc-pvdz iop(5/13=1,5/36=2,99/5=2) pseudo=read geom=check gue
 ss=(read,tcheck) scf=(maxcycle=1)
 ----------------------------------------------------------------------
 -----
 title
 -----
 Structure from the checkpoint file:  "Grambow2020_wb97xd3_007056_reverse_mol2.chk"
 Charge =  0 Multiplicity = 1

                         Standard orientation:
 ---------------------------------------------------------------------
 Center     Atomic      Atomic             Coordinates (Angstroms)
 Number     Number       Type             X           Y           Z
 ---------------------------------------------------------------------
      1          6           0       -2.122677    0.271148    0.050679
      2          6           0       -0.716467   -0.253016    0.031814
      3          8           0       -0.674454   -1.644367    0.026777
      4          6           0        0.297571    0.516715   -0.733928
      5          6           0        0.309794    0.561580    0.785843
      6          6           0        1.658199   -0.113064    0.653301
      7          8           0        1.515088   -0.219870   -0.785874
      8          1           0       -2.639166   -0.066684    0.950531
      9          1           0       -2.133731    1.362467    0.037040
     10          1           0       -2.669463   -0.095567   -0.818893
     11          1           0       -0.348372    4.169661   -0.206155
     12          1           0        0.103968   -1.903815   -0.478585
     13          1           0        0.111591    1.254989   -1.504968
     14          1           0       -0.050660    3.490217   -0.134473
     15          1           0        0.058844    1.355425    1.475244
     16          1           0        1.781594   -1.088219    1.131390
     17          1           0        2.501808    0.535255    0.895397
 ---------------------------------------------------------------------

 SCF Done:  E(RHF) =  -344.916336244     A.U. after    2 cycles

 The electronic state is 1-A.
 Alpha  occ. eigenvalues --  -20.58400 -20.57444 -11.30595 -11.30229 -11.30211
 Alpha  occ. eigenvalues --  -11.24821 -11.23518  -1.38418  -1.32579  -1.11703
 Alpha  occ. eigenvalues --   -0.98484  -0.94672  -0.80047  -0.76990  -0.74299
 Alpha  occ. eigenvalues --   -0.70668  -0.66111  -0.62540  -0.60438  -0.59613
 Alpha  occ. eigenvalues --   -0.57676  -0.56015  -0.55223  -0.52951  -0.50604
 Alpha  occ. eigenvalues --   -0.49170  -0.40629  -0.38673
 Alpha virt. eigenvalues --    0.03556   0.04103   0.04541   0.05103   0.06085
 Alpha virt. eigenvalues --    0.06539   0.06961   0.07241   0.08027   0.10368
 Alpha virt. eigenvalues --    0.10714   0.12693   0.13129   0.14139   0.14332

 Mulliken charges:
               1
     1  C    0.634974
     2  C   -0.286600
     3  O   -0.728196
     4  C    1.067633
     5  C    0.228754
     6  C    1.020616
     7  O   -0.850449
     8  H    0.044479
     9  H   -0.073235
    10  H    0.047973
    11  H    0.023837
    12  H    0.174906
    13  H   -0.412231
    14  H   -0.031419
    15  H   -0.483973
    16  H   -0.161102
    17  H   -0.215966
 Sum of Mulliken charges =  -0.00000

 Dipole moment (field-independent basis, Debye):
    X=             -0.0287    Y=              2.0100    Z=              0.8070  Tot=              2.1661

 Test job not archived.
 1\1\GINC-SE229\SP\RHF\Aug-CC-pVDZ\C5H10O2\OHZDE\09-Apr-2025\0\\#t hf a
 ug-cc-pvdz iop(5/13=1,5/36=2,99/5=2) pseudo=read geom=check guess=(rea
 d,tcheck) scf=(maxcycle=1)\\title\\0,1\C,0,-1.94838363,0.27610464,0.06
 090766\C,0,-0.56424841,0.28519704,0.64109617\O,0,-0.54025976,0.7983920
 7,1.93481279\C,0,0.34572093,-0.83059727,0.27493028\C,0,0.56473836,0.54
 729128,-0.32948718\C,0,1.87433875,0.51551498,0.42869679\O,0,1.5358452,
 -0.74917211,1.05247557\H,0,-2.3419791,1.29243054,0.00809835\H,0,-1.947
 89411,-0.1452413,-0.94594547\H,0,-2.61260556,-0.31863219,0.68916626\H,

 Normal termination of Gaussian 16 at Wed Apr  9 03:33:44 2025.
