 Gaussian 16, Revision C.01,

 ----------------------------------------------------------------------
 #t hf aug-cc-pvdz symm=none int=(grid=ultrafine) guess=(read,tcheck) s
 table=(opt,rrhf)
 ----------------------------------------------------------------------
 -----
 title
 -----
 Symbolic Z-matrix:
 Charge =  0 Multiplicity = 1

 SCF Done:  E(RHF) =  -305.679013355     A.U. after   14 cycles
 Normal termination of Gaussian 16 at Wed Apr  9 03:21:02 2025.
 Gaussian 16:  ES64L-G16RevC.01  3-Jul-2019

 ----------------------------------------------------------------------
 #t hf aug-cc-pvdz iop(5/13=1,5/36=2,99/5=2) pseudo=read geom=check gue
 ss=(read,tcheck) scf=(maxcycle=1)
 ----------------------------------------------------------------------
 -----
 title
 -----
 Structure from the checkpoint file:  "Grambow2020_wb97xd3_006143_reverse_mol1.chk"
 Charge =  0 Multiplicity = 1

                         Standard orientation:
 ---------------------------------------------------------------------
 Center     Atomic      Atomic             Coordinates (Angstroms)
 Number     Number       Type             X           Y           Z
 ---------------------------------------------------------------------
      1          8           0       -2.322053   -0.402510   -0.007381
      2          6           0       -1.245232    0.296784   -0.307682
      3          6           0       -0.014591    0.158455    0.548572
      4          6           0        0.805760   -1.066692    0.106328
      5          8           0        1.843265   -0.229072   -0.422504
      6          6           0        1.217873    0.949426    0.099258
      7          1           0       -2.258587    0.995337    0.084419
      8          1           0       -1.570093    1.669609   -0.057590
      9          1           0       -1.002783    0.457052   -1.374974
     10          1           0       -0.283147    0.197283    1.601382
     11          1           0        1.161622   -1.690848    0.929386
     12          1           0        0.351399   -1.701637   -0.658688
     13          1           0        1.797642    1.393403    0.913023
     14          1           0        1.051387    1.704623   -0.676736
 ---------------------------------------------------------------------

 SCF Done:  E(RHF) =  -305.775452049     A.U. after    2 cycles

 The electronic state is 1-A.
 Alpha  occ. eigenvalues --  -20.57979 -20.52543 -11.38161 -11.30958 -11.30689
 Alpha  occ. eigenvalues --  -11.26669  -1.36636  -1.32075  -1.06052  -0.95739
 Alpha  occ. eigenvalues --   -0.90156  -0.79045  -0.75178  -0.70952  -0.68597
 Alpha  occ. eigenvalues --   -0.63827  -0.61085  -0.59168  -0.58077  -0.50139
 Alpha  occ. eigenvalues --   -0.49341  -0.45307  -0.42412  -0.41612
 Alpha virt. eigenvalues --    0.02755   0.04014   0.04602   0.04702   0.06447
 Alpha virt. eigenvalues --    0.06602   0.07152   0.07872   0.10439   0.12004
 Alpha virt. eigenvalues --    0.12969   0.13392   0.13825   0.14443   0.14770

 Mulliken charges:
               1
     1  O   -0.849905
     2  C    0.633737
     3  C   -0.082479
     4  C    0.886712
     5  O   -0.780252
     6  C    1.038565
     7  H    0.135971
     8  H    0.149808
     9  H   -0.115045
    10  H   -0.230828
    11  H   -0.191723
    12  H   -0.185960
    13  H   -0.187323
    14  H   -0.221279
 Sum of Mulliken charges =  -0.00000

 Dipole moment (field-independent basis, Debye):
    X=              1.1024    Y=              2.9202    Z=              0.7994  Tot=              3.2221

 Test job not archived.
 1\1\GINC-SE340\SP\RHF\Aug-CC-pVDZ\C4H8O2\OHZDE\09-Apr-2025\0\\#t hf au
 g-cc-pvdz iop(5/13=1,5/36=2,99/5=2) pseudo=read geom=check guess=(read
 ,tcheck) scf=(maxcycle=1)\\title\\0,1\O,0,2.04701796,1.16139647,-0.230
 3557\C,0,1.25385708,0.11088191,-0.15256406\C,0,-0.14257905,0.28035514,
 0.38411919\C,0,-1.08705886,0.75894703,-0.73322146\O,0,-1.75861039,-0.5
 0830834,-0.7609782\C,0,-1.02766041,-0.96988769,0.38132863\H,0,2.275816
 85,0.08356311,0.63703069\H,0,1.80738874,-0.74163397,0.85716172\H,0,1.3
 1074885,-0.6515689,-0.95194644\H,0,-0.12714934,0.8859507,1.28692296\H,

 Normal termination of Gaussian 16 at Wed Apr  9 03:21:05 2025.
