 Gaussian 16, Revision C.01,

 ----------------------------------------------------------------------
 #t hf aug-cc-pvdz symm=none int=(grid=ultrafine) guess=(read,tcheck) s
 table=(opt,rrhf)
 ----------------------------------------------------------------------
 -----
 title
 -----
 Symbolic Z-matrix:
 Charge =  0 Multiplicity = 1

 SCF Done:  E(RHF) =  -231.749540355     A.U. after   15 cycles
 Normal termination of Gaussian 16 at Wed Apr  9 14:21:19 2025.
 Gaussian 16:  ES64L-G16RevC.01  3-Jul-2019

 ----------------------------------------------------------------------
 #t hf aug-cc-pvdz iop(5/13=1,5/36=2,99/5=2) pseudo=read geom=check gue
 ss=(read,tcheck) scf=(maxcycle=1)
 ----------------------------------------------------------------------
 -----
 title
 -----
 Structure from the checkpoint file:  "Grambow2020_wb97xd3_006054_reverse_mol2.chk"
 Charge =  0 Multiplicity = 1

                         Standard orientation:
 ---------------------------------------------------------------------
 Center     Atomic      Atomic             Coordinates (Angstroms)
 Number     Number       Type             X           Y           Z
 ---------------------------------------------------------------------
      1          6           0       -1.318034    0.106801    0.702496
      2          6           0       -0.782377   -0.712373   -0.496586
      3          6           0       -0.620485    0.818662   -0.373117
      4          6           0        0.843981    1.073562   -0.103247
      5          6           0        1.394621   -0.330277    0.248230
      6          6           0        0.427016   -1.399195   -0.149120
      7          1           0       -0.836447   -0.022018    1.664046
      8          1           0       -2.398195    0.139046    0.743985
      9          1           0       -1.550579   -1.173492   -1.103163
     10          1           0       -1.184155    1.464637   -1.033782
     11          1           0        0.990149    1.797263    0.701795
     12          1           0        2.340089   -0.544116   -0.258916
     13          1           0        1.636919   -0.475237    1.308433
     14          1           0        1.333890    1.470839   -0.994328
 ---------------------------------------------------------------------

 SCF Done:  E(RHF) =  -231.817072744     A.U. after    2 cycles

 The electronic state is 1-A.
 Alpha  occ. eigenvalues --  -11.26449 -11.25644 -11.24966 -11.24180 -11.23858
 Alpha  occ. eigenvalues --  -11.23446  -1.18672  -1.02589  -0.95678  -0.85625
 Alpha  occ. eigenvalues --   -0.78188  -0.73427  -0.68085  -0.62610  -0.58337
 Alpha  occ. eigenvalues --   -0.56294  -0.53043  -0.51636  -0.48348  -0.44350
 Alpha  occ. eigenvalues --   -0.42197  -0.33199
 Alpha virt. eigenvalues --    0.03158   0.04139   0.04324   0.05070   0.06415
 Alpha virt. eigenvalues --    0.06550   0.06781   0.08081   0.08957   0.10164
 Alpha virt. eigenvalues --    0.11588   0.12883   0.14447   0.14546   0.14666

 Mulliken charges:
               1
     1  C    0.708204
     2  C    0.516839
     3  C    0.466584
     4  C    0.437272
     5  C    0.267323
     6  C   -0.691340
     7  H   -0.366984
     8  H   -0.320274
     9  H   -0.358779
    10  H   -0.372541
    11  H   -0.071188
    12  H   -0.072713
    13  H   -0.036366
    14  H   -0.106037
 Sum of Mulliken charges =  -0.00000

 Dipole moment (field-independent basis, Debye):
    X=             -0.8159    Y=              2.8606    Z=              0.3136  Tot=              2.9912

 Test job not archived.
 1\1\GINC-SE232\SP\RHF\Aug-CC-pVDZ\C6H8\OHZDE\09-Apr-2025\0\\#t hf aug-
 cc-pvdz iop(5/13=1,5/36=2,99/5=2) pseudo=read geom=check guess=(read,t
 check) scf=(maxcycle=1)\\title\\0,1\C,0,1.24962276,-0.61809753,-0.5256
 8394\C,0,0.9509785,-0.06814837,0.88999286\C,0,0.6356904,0.70831091,-0.
 40739971\C,0,-0.86849104,0.71278125,-0.54841\C,0,-1.32995208,-0.341997
 66,0.48696401\C,0,-0.22567432,-0.67605538,1.4386516\H,0,0.66104775,-1.
 45429904,-0.88268172\H,0,2.3077972,-0.69399773,-0.73547734\H,0,1.83018
 612,0.12570103,1.49008886\H,0,1.2191619,1.58626172,-0.65285608\H,0,-1.

 Normal termination of Gaussian 16 at Wed Apr  9 14:21:24 2025.
