 Gaussian 16, Revision C.01,

 ----------------------------------------------------------------------
 #t hf aug-cc-pvdz symm=none int=(grid=ultrafine) guess=(read,tcheck) s
 table=(opt,rrhf)
 ----------------------------------------------------------------------
 -----
 title
 -----
 Symbolic Z-matrix:
 Charge =  0 Multiplicity = 1

 SCF Done:  E(RHF) =  -264.829058001     A.U. after   18 cycles
 Normal termination of Gaussian 16 at Wed Apr  9 03:08:00 2025.
 Gaussian 16:  ES64L-G16RevC.01  3-Jul-2019

 ----------------------------------------------------------------------
 #t hf aug-cc-pvdz iop(5/13=1,5/36=2,99/5=2) pseudo=read geom=check gue
 ss=(read,tcheck) scf=(maxcycle=1)
 ----------------------------------------------------------------------
 -----
 title
 -----
 Structure from the checkpoint file:  "Grambow2020_b97d3_006633_reverse_mol1.chk"
 Charge =  0 Multiplicity = 1

                         Standard orientation:
 ---------------------------------------------------------------------
 Center     Atomic      Atomic             Coordinates (Angstroms)
 Number     Number       Type             X           Y           Z
 ---------------------------------------------------------------------
      1          6           0       -2.250484   -0.510631   -0.247121
      2          6           0       -1.207033   -0.067592    0.655921
      3          6           0        0.046958    0.344053   -0.284601
      4          7           0        0.480672    1.666285   -0.061533
      5          6           0        1.080089   -0.924773   -0.125891
      6          7           0        2.269493   -0.795431    0.116003
      7          1           0       -2.799552    0.218909   -0.840867
      8          1           0       -2.369883   -1.563241   -0.501859
      9          1           0        0.455856   -1.829204   -0.331485
     10          1           0       -1.467815    0.863406    1.175274
     11          1           0       -0.888405   -0.825035    1.382976
     12          1           0       -0.245763    0.231320   -1.343709
     13          1           0        0.909551    1.773473    0.858604
     14          1           0        1.137671    1.988043   -0.770069
 ---------------------------------------------------------------------

 SCF Done:  E(RHF) =  -264.906629456     A.U. after    2 cycles

 The electronic state is 1-A.
 Alpha  occ. eigenvalues --  -15.63600 -15.58694 -11.33849 -11.32620 -11.28782
 Alpha  occ. eigenvalues --  -11.26048  -1.19903  -1.11513  -1.08204  -0.91805
 Alpha  occ. eigenvalues --   -0.84666  -0.74844  -0.69828  -0.67753  -0.62973
 Alpha  occ. eigenvalues --   -0.60406  -0.57287  -0.55081  -0.53292  -0.48679
 Alpha  occ. eigenvalues --   -0.40805  -0.40062  -0.24158
 Alpha virt. eigenvalues --   -0.02943   0.02527   0.03817   0.03985   0.04921
 Alpha virt. eigenvalues --    0.06266   0.06977   0.07387   0.07989   0.10489
 Alpha virt. eigenvalues --    0.12500   0.13198   0.13460   0.14146   0.14596

 Mulliken charges:
               1
     1  C    0.514501
     2  C    0.420633
     3  C    0.149921
     4  N   -0.372123
     5  C    0.580051
     6  N   -0.599451
     7  H   -0.182244
     8  H   -0.198606
     9  H   -0.130946
    10  H   -0.037567
    11  H   -0.121079
    12  H   -0.104840
    13  H    0.058305
    14  H    0.023444
 Sum of Mulliken charges =  -0.00000

 Dipole moment (field-independent basis, Debye):
    X=             -5.7364    Y=              1.3467    Z=             -0.5269  Tot=              5.9159

 Test job not archived.
 1\1\GINC-SE116\SP\RHF\Aug-CC-pVDZ\C4H8N2\OHZDE\09-Apr-2025\0\\#t hf au
 g-cc-pvdz iop(5/13=1,5/36=2,99/5=2) pseudo=read geom=check guess=(read
 ,tcheck) scf=(maxcycle=1)\\title\\0,1\C,0,-1.73162716,-0.3973296,0.877
 38683\C,0,-0.7736836,-0.73603675,-0.15614069\C,0,0.54095838,0.16179587
 ,0.14741135\N,0,1.70837649,-0.61567424,0.28466662\C,0,0.45098885,1.365
 72746,-0.96834975\N,0,1.38954257,1.69742612,-1.6747617\H,0,-1.5862493,
 -0.76386478,1.89264825\H,0,-2.48419177,0.37491576,0.72111929\H,0,-0.58
 415493,1.77511876,-0.86439437\H,0,-0.41511967,-1.77008673,-0.07450553\

 Normal termination of Gaussian 16 at Wed Apr  9 03:08:04 2025.
