 Gaussian 16, Revision C.01,

 ----------------------------------------------------------------------
 #t hf aug-cc-pvdz symm=none int=(grid=ultrafine) guess=(read,tcheck) s
 table=(opt,rrhf)
 ----------------------------------------------------------------------
 -----
 title
 -----
 Symbolic Z-matrix:
 Charge =  0 Multiplicity = 1

 SCF Done:  E(RHF) =  -305.689490307     A.U. after   16 cycles
 Normal termination of Gaussian 16 at Wed Apr  9 14:18:18 2025.
 Gaussian 16:  ES64L-G16RevC.01  3-Jul-2019

 ----------------------------------------------------------------------
 #t hf aug-cc-pvdz iop(5/13=1,5/36=2,99/5=2) pseudo=read geom=check gue
 ss=(read,tcheck) scf=(maxcycle=1)
 ----------------------------------------------------------------------
 -----
 title
 -----
 Structure from the checkpoint file:  "Grambow2020_b97d3_007092_forward_mol1.chk"
 Charge =  0 Multiplicity = 1

                         Standard orientation:
 ---------------------------------------------------------------------
 Center     Atomic      Atomic             Coordinates (Angstroms)
 Number     Number       Type             X           Y           Z
 ---------------------------------------------------------------------
      1          6           0        2.410631   -0.295178    0.174307
      2          6           0        0.784688   -0.192599   -0.459522
      3          6           0        0.839232    1.198943   -0.060489
      4          8           0       -0.034381   -0.997242    0.144403
      5          6           0       -1.762643    0.254464    0.362051
      6          8           0       -2.719665   -0.116241   -0.281174
      7          1           0        3.154046    0.365086   -0.281858
      8          1           0        2.389932   -0.216709    1.263468
      9          1           0        2.595414   -1.331766   -0.126092
     10          1           0        0.978238   -0.337306   -1.545420
     11          1           0        0.691835    1.449336    0.990507
     12          1           0       -1.017008    1.048293   -0.073462
     13          1           0        1.285668    1.966857   -0.696550
     14          1           0       -1.677211    0.170295    1.465504
 ---------------------------------------------------------------------

 SCF Done:  E(RHF) =  -305.785539281     A.U. after    2 cycles

 The electronic state is 1-A.
 Alpha  occ. eigenvalues --  -20.53573 -20.49825 -11.37231 -11.34018 -11.33948
 Alpha  occ. eigenvalues --  -11.30368  -1.32119  -1.27935  -1.08040  -0.95859
 Alpha  occ. eigenvalues --   -0.84374  -0.81345  -0.71889  -0.65914  -0.65448
 Alpha  occ. eigenvalues --   -0.62550  -0.61077  -0.59418  -0.57562  -0.55892
 Alpha  occ. eigenvalues --   -0.49951  -0.41384  -0.40355  -0.37403
 Alpha virt. eigenvalues --    0.00536   0.01778   0.03379   0.04422   0.04887
 Alpha virt. eigenvalues --    0.06161   0.06550   0.06967   0.07509   0.11231
 Alpha virt. eigenvalues --    0.12033   0.12999   0.13624   0.14181   0.14468

 Mulliken charges:
               1
     1  C    0.233698
     2  C    0.637285
     3  C    0.433876
     4  O   -0.806446
     5  C    0.773495
     6  O   -0.502037
     7  H   -0.048096
     8  H   -0.064694
     9  H    0.004228
    10  H   -0.142250
    11  H   -0.059094
    12  H   -0.114807
    13  H   -0.264660
    14  H   -0.080497
 Sum of Mulliken charges =  -0.00000

 Dipole moment (field-independent basis, Debye):
    X=              7.5173    Y=              5.2589    Z=              0.7583  Tot=              9.2055

 Test job not archived.
 1\1\GINC-SE141\SP\RHF\Aug-CC-pVDZ\C4H8O2\OHZDE\09-Apr-2025\0\\#t hf au
 g-cc-pvdz iop(5/13=1,5/36=2,99/5=2) pseudo=read geom=check guess=(read
 ,tcheck) scf=(maxcycle=1)\\title\\0,1\C,0,-0.56072803,1.78341142,0.477
 76784\C,0,0.07499989,0.48027068,-0.49877049\C,0,-0.92319714,-0.3426342
 9,0.15316492\O,0,1.33255373,0.2578014,-0.2704782\C,0,1.37820231,-1.886
 58453,-0.24697216\O,0,2.0094205,-2.37278647,-1.15923515\H,0,-1.6206348
 ,2.01944252,0.3451519\H,0,-0.29205024,1.62757681,1.52485146\H,0,0.0570
 246,2.57628602,0.04345032\H,0,-0.23687373,0.81318339,-1.51340272\H,0,-

 Normal termination of Gaussian 16 at Wed Apr  9 14:18:22 2025.
