 Gaussian 16, Revision C.01,

 ----------------------------------------------------------------------
 #t hf aug-cc-pvdz symm=none int=(grid=ultrafine) guess=(read,tcheck) s
 table=(opt,rrhf)
 ----------------------------------------------------------------------
 -----
 title
 -----
 Symbolic Z-matrix:
 Charge =  0 Multiplicity = 1

 SCF Done:  E(RHF) =  -269.532216110     A.U. after   17 cycles
 Normal termination of Gaussian 16 at Wed Apr  9 14:40:48 2025.
 Gaussian 16:  ES64L-G16RevC.01  3-Jul-2019

 ----------------------------------------------------------------------
 #t hf aug-cc-pvdz iop(5/13=1,5/36=2,99/5=2) pseudo=read geom=check gue
 ss=(read,tcheck) scf=(maxcycle=1)
 ----------------------------------------------------------------------
 -----
 title
 -----
 Structure from the checkpoint file:  "Grambow2020_wb97xd3_006590_forward_mol1.chk"
 Charge =  0 Multiplicity = 1

                         Standard orientation:
 ---------------------------------------------------------------------
 Center     Atomic      Atomic             Coordinates (Angstroms)
 Number     Number       Type             X           Y           Z
 ---------------------------------------------------------------------
      1          6           0        2.187018   -0.184642   -0.507553
      2          6           0        1.020541   -0.185325    0.471627
      3          6           0        0.156361    1.395404    0.244986
      4          6           0       -1.171670    1.172829   -0.119814
      5          6           0       -1.974899    0.236048   -0.311361
      6          6           0        0.075471   -1.206848    0.318626
      7          6           0       -1.125374   -1.392437    0.029997
      8          1           0        1.821516   -0.225780   -1.534680
      9          1           0        2.791890    0.715772   -0.387549
     10          1           0        2.832599   -1.047289   -0.341250
     11          1           0        1.360525   -0.086663    1.503194
     12          1           0        0.281336    1.901149    1.201217
     13          1           0        0.758345    1.876474   -0.524935
     14          1           0       -2.986669    0.019691   -0.596568
     15          1           0       -1.864237   -2.163525   -0.078474
 ---------------------------------------------------------------------

 SCF Done:  E(RHF) =  -269.616180631     A.U. after    2 cycles

 The electronic state is 1-A.
 Alpha  occ. eigenvalues --  -11.27915 -11.27026 -11.25186 -11.25162 -11.24128
 Alpha  occ. eigenvalues --  -11.24016 -11.23709  -1.11685  -1.03827  -1.00656
 Alpha  occ. eigenvalues --   -0.93572  -0.86154  -0.75428  -0.68333  -0.65575
 Alpha  occ. eigenvalues --   -0.63409  -0.59566  -0.58732  -0.55679  -0.53928
 Alpha  occ. eigenvalues --   -0.52652  -0.42245  -0.41929  -0.34616  -0.30256
 Alpha virt. eigenvalues --    0.03362   0.03869   0.04709   0.04930   0.05484
 Alpha virt. eigenvalues --    0.05870   0.07102   0.07229   0.08041   0.10869
 Alpha virt. eigenvalues --    0.11137   0.11544   0.12730   0.13016   0.14307

 Mulliken charges:
               1
     1  C    0.586425
     2  C   -0.284822
     3  C    0.395787
     4  C   -0.779026
     5  C    0.842389
     6  C   -0.796901
     7  C    1.020475
     8  H   -0.001784
     9  H   -0.068475
    10  H   -0.091293
    11  H    0.001547
    12  H    0.051803
    13  H   -0.064292
    14  H   -0.408611
    15  H   -0.403222
 Sum of Mulliken charges =  -0.00000

 Dipole moment (field-independent basis, Debye):
    X=              0.9588    Y=              0.2205    Z=              0.1143  Tot=              0.9904

 Test job not archived.
 1\1\GINC-SE113\SP\RHF\Aug-CC-pVDZ\C7H8\OHZDE\09-Apr-2025\0\\#t hf aug-
 cc-pvdz iop(5/13=1,5/36=2,99/5=2) pseudo=read geom=check guess=(read,t
 check) scf=(maxcycle=1)\\title\\0,1\C,0,-0.91195243,-1.60542713,-0.745
 70143\C,0,0.13529504,-0.93021578,0.12998461\C,0,0.96354522,0.30255921,
 -0.91459317\C,0,0.82067822,1.57685501,-0.36500896\C,0,0.3340794,2.1471
 2568,0.63371012\C,0,-0.33500175,-0.26747483,1.27001605\C,0,-0.42196091
 ,0.87293342,1.77169885\H,0,-1.70344132,-0.9004883,-1.00431375\H,0,-0.4
 6238265,-1.97967252,-1.66702901\H,0,-1.36490859,-2.45005898,-0.2260681

 Normal termination of Gaussian 16 at Wed Apr  9 14:40:53 2025.
