 Gaussian 16, Revision C.01,

 ----------------------------------------------------------------------
 #t hf aug-cc-pvdz symm=none int=(grid=ultrafine) guess=(read,tcheck) s
 table=(opt,rrhf)
 ----------------------------------------------------------------------
 -----
 title
 -----
 Symbolic Z-matrix:
 Charge =  0 Multiplicity = 1

 SCF Done:  E(RHF) =  -322.482613834     A.U. after   16 cycles
 Normal termination of Gaussian 16 at Wed Apr  9 16:03:02 2025.
 Gaussian 16:  ES64L-G16RevC.01  3-Jul-2019

 ----------------------------------------------------------------------
 #t hf aug-cc-pvdz iop(5/13=1,5/36=2,99/5=2) pseudo=read geom=check gue
 ss=(read,tcheck) scf=(maxcycle=1)
 ----------------------------------------------------------------------
 -----
 title
 -----
 Structure from the checkpoint file:  "Grambow2020_wb97xd3_007719_forward_mol1.chk"
 Charge =  0 Multiplicity = 1

                         Standard orientation:
 ---------------------------------------------------------------------
 Center     Atomic      Atomic             Coordinates (Angstroms)
 Number     Number       Type             X           Y           Z
 ---------------------------------------------------------------------
      1          6           0       -2.337074    0.384226   -0.180197
      2          7           0       -1.543397   -0.641872   -0.074926
      3          6           0       -0.252589   -0.387097   -0.006628
      4          8           0        0.712728   -1.310153   -0.116026
      5          6           0        1.620878   -0.258832    0.344891
      6          6           0        1.627068    0.939379   -0.531769
      7          6           0        0.491426    0.732407    0.460540
      8          1           0       -2.064600    1.284573   -0.723951
      9          1           0       -3.388151    0.243722    0.055826
     10          1           0       -1.684393    1.534212    1.214360
     11          1           0        2.372815   -0.568562    1.054620
     12          1           0        1.451990    0.832169   -1.598249
     13          1           0        2.363298    1.690538   -0.267926
     14          1           0       -0.847267    1.497189    1.196992
 ---------------------------------------------------------------------

 SCF Done:  E(RHF) =  -322.583599752     A.U. after    2 cycles

 The electronic state is 1-A.
 Alpha  occ. eigenvalues --  -20.62566 -15.65255 -11.38398 -11.36044 -11.30896
 Alpha  occ. eigenvalues --  -11.27437 -11.21447  -1.43442  -1.25387  -1.13419
 Alpha  occ. eigenvalues --   -0.97847  -0.89018  -0.84079  -0.75042  -0.72724
 Alpha  occ. eigenvalues --   -0.69025  -0.67490  -0.64435  -0.59576  -0.57444
 Alpha  occ. eigenvalues --   -0.56602  -0.51776  -0.45560  -0.43257  -0.39654
 Alpha  occ. eigenvalues --   -0.31174
 Alpha virt. eigenvalues --    0.03006   0.03696   0.04455   0.04713   0.05586
 Alpha virt. eigenvalues --    0.06327   0.07373   0.08190   0.10053   0.10892
 Alpha virt. eigenvalues --    0.11117   0.12090   0.12637   0.13394   0.14453

 Mulliken charges:
               1
     1  C    0.747965
     2  N   -0.438410
     3  C    0.239889
     4  O   -0.752187
     5  C    0.881981
     6  C    0.594416
     7  C   -0.222922
     8  H   -0.157667
     9  H   -0.234938
    10  H   -0.053810
    11  H   -0.353504
    12  H   -0.294750
    13  H   -0.258101
    14  H    0.302037
 Sum of Mulliken charges =  -0.00000

 Dipole moment (field-independent basis, Debye):
    X=             -0.7284    Y=              1.8222    Z=             -1.5312  Tot=              2.4891

 Test job not archived.
 1\1\GINC-SE097\SP\RHF\Aug-CC-pVDZ\C5H7N1O1\OHZDE\09-Apr-2025\0\\#t hf
 aug-cc-pvdz iop(5/13=1,5/36=2,99/5=2) pseudo=read geom=check guess=(re
 ad,tcheck) scf=(maxcycle=1)\\title\\0,1\C,0,2.11996049,0.59595053,0.54
 522313\N,0,1.57282574,-0.58243524,0.46819677\C,0,0.29690238,-0.6223604
 2,0.14233371\O,0,-0.47748741,-1.71262228,0.22886147\C,0,-1.45891615,-0
 .94416848,-0.5384287\C,0,-1.86677169,0.31927146,0.1261431\C,0,-0.53843
 5,0.2468933,-0.61377581\H,0,1.57883319,1.47389883,0.88716174\H,0,3.204
 1233,0.65895068,0.51635208\H,0,1.55086743,1.40507154,-1.10241313\H,0,-

 Normal termination of Gaussian 16 at Wed Apr  9 16:03:06 2025.
