 Gaussian 16, Revision C.01,

 ----------------------------------------------------------------------
 #t hf aug-cc-pvdz symm=none int=(grid=ultrafine) guess=(read,tcheck) s
 table=(opt,rrhf)
 ----------------------------------------------------------------------
 -----
 title
 -----
 Symbolic Z-matrix:
 Charge =  0 Multiplicity = 1

 SCF Done:  E(RHF) =  -374.484512158     A.U. after   15 cycles
 Normal termination of Gaussian 16 at Wed Apr  9 15:44:42 2025.
 Gaussian 16:  ES64L-G16RevC.01  3-Jul-2019

 ----------------------------------------------------------------------
 #t hf aug-cc-pvdz iop(5/13=1,5/36=2,99/5=2) pseudo=read geom=check gue
 ss=(read,tcheck) scf=(maxcycle=1)
 ----------------------------------------------------------------------
 -----
 title
 -----
 Structure from the checkpoint file:  "Grambow2020_wb97xd3_007328_reverse_mol1.chk"
 Charge =  0 Multiplicity = 1

                         Standard orientation:
 ---------------------------------------------------------------------
 Center     Atomic      Atomic             Coordinates (Angstroms)
 Number     Number       Type             X           Y           Z
 ---------------------------------------------------------------------
      1          7           0        2.286121   -0.404117   -0.217186
      2          6           0        1.031581   -0.260554    0.100944
      3          6           0        0.715218    1.133186    0.083697
      4          8           0       -0.717579    1.150442   -0.107202
      5          6           0       -1.192313   -0.094212   -0.000472
      6          8           0       -2.325962   -0.437035   -0.111364
      7          7           0       -0.093995   -0.982692    0.223567
      8          1           0        2.837310   -1.223357    0.004607
      9          1           0        2.098639    0.882356   -0.488514
     10          1           0        0.955051    1.639171    1.019308
     11          1           0       -0.214479   -1.968282    0.063448
 ---------------------------------------------------------------------

 SCF Done:  E(RHF) =  -374.600881206     A.U. after    2 cycles

 The electronic state is 1-A.
 Alpha  occ. eigenvalues --  -20.63229 -20.57077 -15.71479 -15.66315 -11.44561
 Alpha  occ. eigenvalues --  -11.38503 -11.28043  -1.45795  -1.36168  -1.29164
 Alpha  occ. eigenvalues --   -1.20650  -0.99749  -0.87764  -0.85756  -0.80279
 Alpha  occ. eigenvalues --   -0.72724  -0.69153  -0.68552  -0.62217  -0.60751
 Alpha  occ. eigenvalues --   -0.58238  -0.53003  -0.51860  -0.49744  -0.43509
 Alpha  occ. eigenvalues --   -0.35513
 Alpha virt. eigenvalues --    0.01871   0.03953   0.04506   0.05495   0.08907
 Alpha virt. eigenvalues --    0.09842   0.10258   0.10802   0.11933   0.12375
 Alpha virt. eigenvalues --    0.13147   0.14106   0.14450   0.15808   0.16996

 Mulliken charges:
               1
     1  N   -0.399965
     2  C    0.439103
     3  C    0.301938
     4  O   -0.558730
     5  C    0.716433
     6  O   -0.394978
     7  N   -0.372859
     8  H   -0.028326
     9  H    0.513001
    10  H   -0.137121
    11  H   -0.078495
 Sum of Mulliken charges =  -0.00000

 Dipole moment (field-independent basis, Debye):
    X=              4.4877    Y=             -3.2889    Z=              1.2767  Tot=              5.7084

 Test job not archived.
 1\1\GINC-SE042\SP\RHF\Aug-CC-pVDZ\C3H4N2O2\OHZDE\09-Apr-2025\0\\#t hf
 aug-cc-pvdz iop(5/13=1,5/36=2,99/5=2) pseudo=read geom=check guess=(re
 ad,tcheck) scf=(maxcycle=1)\\title\\0,1\N,0,-1.80002637,-0.4151882,0.0
 6020805\C,0,-0.53259829,-0.18889324,-0.13499744\C,0,-0.24349203,1.1520
 4163,0.26650413\O,0,1.17590259,1.1229293,0.53875251\C,0,1.67875583,-0.
 04810223,0.13656977\O,0,2.8106212,-0.40443377,0.21960285\N,0,0.6112064
 5,-0.84962681,-0.37703516\H,0,-2.32279145,-1.14877577,-0.40100822\H,0,
 -1.65173197,0.75491321,0.670661\H,0,-0.44021244,1.88591541,-0.51556929

 Normal termination of Gaussian 16 at Wed Apr  9 15:44:46 2025.
