 Gaussian 16, Revision C.01,

 ----------------------------------------------------------------------
 #t hf aug-cc-pvdz symm=none int=(grid=ultrafine) guess=(read,tcheck) s
 table=(opt,rrhf)
 ----------------------------------------------------------------------
 -----
 title
 -----
 Symbolic Z-matrix:
 Charge =  0 Multiplicity = 1

 SCF Done:  E(RHF) =  -286.812090979     A.U. after   15 cycles
 Normal termination of Gaussian 16 at Wed Apr  9 15:36:13 2025.
 Gaussian 16:  ES64L-G16RevC.01  3-Jul-2019

 ----------------------------------------------------------------------
 #t hf aug-cc-pvdz iop(5/13=1,5/36=2,99/5=2) pseudo=read geom=check gue
 ss=(read,tcheck) scf=(maxcycle=1)
 ----------------------------------------------------------------------
 -----
 title
 -----
 Structure from the checkpoint file:  "Grambow2020_wb97xd3_007180_forward_mol1.chk"
 Charge =  0 Multiplicity = 1

                         Standard orientation:
 ---------------------------------------------------------------------
 Center     Atomic      Atomic             Coordinates (Angstroms)
 Number     Number       Type             X           Y           Z
 ---------------------------------------------------------------------
      1          6           0       -2.485897   -0.567289   -0.116528
      2          6           0       -1.125282    0.021757    0.109050
      3          6           0       -0.728367    1.399600   -0.051661
      4          6           0        0.708299    1.286856   -0.048861
      5          6           0        1.110315   -0.021453   -0.022379
      6          6           0        2.476891   -0.615510   -0.033041
      7          7           0        0.002678   -0.805596    0.065253
      8          1           0       -2.675544   -1.433337    0.521951
      9          1           0       -3.239645    0.191484    0.084880
     10          1           0       -2.590947   -0.876034   -1.157969
     11          1           0       -1.146012    0.717420    1.116475
     12          1           0        1.391968    2.122715   -0.101778
     13          1           0        2.589129   -1.332978   -0.848904
     14          1           0        3.221423    0.167625   -0.161976
     15          1           0        2.687457   -1.136128    0.904142
     16          1           0        0.007674   -1.805364    0.166937
 ---------------------------------------------------------------------

 SCF Done:  E(RHF) =  -286.897468833     A.U. after    2 cycles

 The electronic state is 1-A.
 Alpha  occ. eigenvalues --  -15.66568 -11.29772 -11.29278 -11.25533 -11.24319
 Alpha  occ. eigenvalues --  -11.21242 -11.20598  -1.27651  -1.06886  -1.03750
 Alpha  occ. eigenvalues --   -0.98529  -0.89522  -0.78250  -0.75428  -0.69367
 Alpha  occ. eigenvalues --   -0.63814  -0.60078  -0.59458  -0.58199  -0.55954
 Alpha  occ. eigenvalues --   -0.54770  -0.53617  -0.50408  -0.40140  -0.33188
 Alpha  occ. eigenvalues --   -0.33065
 Alpha virt. eigenvalues --    0.02428   0.03458   0.04195   0.04787   0.06097
 Alpha virt. eigenvalues --    0.06614   0.06712   0.07915   0.08534   0.10720
 Alpha virt. eigenvalues --    0.11631   0.12369   0.13092   0.13561   0.13798

 Mulliken charges:
               1
     1  C    0.767188
     2  C    0.268780
     3  C   -1.367517
     4  C    0.862436
     5  C   -0.283915
     6  C    0.559671
     7  N   -0.565091
     8  H   -0.027196
     9  H   -0.025927
    10  H    0.047516
    11  H    0.271233
    12  H   -0.419172
    13  H    0.025797
    14  H   -0.023877
    15  H    0.066904
    16  H   -0.156829
 Sum of Mulliken charges =  -0.00000

 Dipole moment (field-independent basis, Debye):
    X=              1.6506    Y=             -4.9455    Z=              0.6608  Tot=              5.2554

 Test job not archived.
 1\1\GINC-SE229\SP\RHF\Aug-CC-pVDZ\C6H9N1\OHZDE\09-Apr-2025\0\\#t hf au
 g-cc-pvdz iop(5/13=1,5/36=2,99/5=2) pseudo=read geom=check guess=(read
 ,tcheck) scf=(maxcycle=1)\\title\\0,1\C,0,-2.52717837,-0.21269021,-0.0
 5152803\C,0,-1.11863241,0.27152268,0.1235995\C,0,-0.62480079,1.6156231
 6,-0.05344585\C,0,0.79838139,1.39459151,-0.10268378\C,0,1.10104498,0.0
 5960288,-0.08891127\C,0,2.41751083,-0.63604781,-0.14835135\N,0,-0.0587
 8093,-0.63867571,0.04005795\H,0,-2.75842035,-1.06274466,0.59468793\H,0
 ,-3.21359283,0.60063203,0.17602321\H,0,-2.69304531,-0.5112691,-1.08801

 Normal termination of Gaussian 16 at Wed Apr  9 15:36:21 2025.
