 Gaussian 16, Revision C.01,

 ----------------------------------------------------------------------
 #t hf aug-cc-pvdz symm=none int=(grid=ultrafine) guess=(read,tcheck) s
 table=(opt,rrhf)
 ----------------------------------------------------------------------
 -----
 title
 -----
 Symbolic Z-matrix:
 Charge =  0 Multiplicity = 1

 SCF Done:  E(RHF) =  -343.636909162     A.U. after   15 cycles
 Normal termination of Gaussian 16 at Wed Apr  9 15:05:01 2025.
 Gaussian 16:  ES64L-G16RevC.01  3-Jul-2019

 ----------------------------------------------------------------------
 #t hf aug-cc-pvdz iop(5/13=1,5/36=2,99/5=2) pseudo=read geom=check gue
 ss=(read,tcheck) scf=(maxcycle=1)
 ----------------------------------------------------------------------
 -----
 title
 -----
 Structure from the checkpoint file:  "Grambow2020_wb97xd3_006671_reverse_mol1.chk"
 Charge =  0 Multiplicity = 1

                         Standard orientation:
 ---------------------------------------------------------------------
 Center     Atomic      Atomic             Coordinates (Angstroms)
 Number     Number       Type             X           Y           Z
 ---------------------------------------------------------------------
      1          6           0       -1.583239   -0.943805   -0.656102
      2          6           0       -0.736680    0.002606    0.153308
      3          8           0       -1.171842    1.300614    0.095428
      4          6           0       -0.060693   -0.435136    1.323925
      5          6           0        1.584340   -1.116072   -0.215864
      6          6           0        0.934075    0.092967   -0.256228
      7          8           0        1.302294    1.255355   -0.392310
      8          1           0       -2.605546   -0.920838   -0.273652
      9          1           0       -1.603944   -0.620855   -1.696185
     10          1           0       -1.218892   -1.969428   -0.609104
     11          1           0       -0.374929    1.819675   -0.155567
     12          1           0        0.296050    0.308143    2.025355
     13          1           0       -0.041530   -1.466750    1.637652
     14          1           0        2.646087   -1.159437   -0.433972
     15          1           0        1.032275   -2.041623   -0.213708
 ---------------------------------------------------------------------

 SCF Done:  E(RHF) =  -343.743961444     A.U. after    2 cycles

 The electronic state is 1-A.
 Alpha  occ. eigenvalues --  -20.57622 -20.52284 -11.34356 -11.33803 -11.33686
 Alpha  occ. eigenvalues --  -11.26410 -11.25189  -1.36796  -1.31104  -1.11979
 Alpha  occ. eigenvalues --   -1.00313  -0.97114  -0.82609  -0.76742  -0.72319
 Alpha  occ. eigenvalues --   -0.69090  -0.66864  -0.63121  -0.61456  -0.58365
 Alpha  occ. eigenvalues --   -0.57774  -0.56462  -0.55448  -0.51415  -0.49238
 Alpha  occ. eigenvalues --   -0.39629  -0.33720
 Alpha virt. eigenvalues --    0.02123   0.03505   0.04145   0.04945   0.06068
 Alpha virt. eigenvalues --    0.06522   0.06920   0.07484   0.07992   0.09814
 Alpha virt. eigenvalues --    0.11561   0.13034   0.13442   0.14527   0.14824

 Mulliken charges:
               1
     1  C    0.627073
     2  C   -0.086932
     3  O   -0.627757
     4  C    0.796972
     5  C    0.916825
     6  C   -0.063410
     7  O   -0.719015
     8  H    0.053045
     9  H    0.047966
    10  H   -0.091350
    11  H    0.215369
    12  H   -0.178445
    13  H   -0.316985
    14  H   -0.275855
    15  H   -0.297502
 Sum of Mulliken charges =  -0.00000

 Dipole moment (field-independent basis, Debye):
    X=             -1.0476    Y=             -4.7735    Z=              1.9535  Tot=              5.2631

 Test job not archived.
 1\1\GINC-SE114\SP\RHF\Aug-CC-pVDZ\C5H8O2\OHZDE\09-Apr-2025\0\\#t hf au
 g-cc-pvdz iop(5/13=1,5/36=2,99/5=2) pseudo=read geom=check guess=(read
 ,tcheck) scf=(maxcycle=1)\\title\\0,1\C,0,-1.53185417,-0.77656031,-0.0
 1353741\C,0,-0.62609522,0.42500819,0.04418404\O,0,-1.16324208,1.535375
 41,-0.55255659\C,0,0.28588379,0.60596785,1.11864749\C,0,1.66626877,-0.
 78660678,-0.18366874\C,0,0.92845084,0.26034884,-0.67940604\O,0,1.17450
 792,1.19451012,-1.43574505\H,0,-2.4647727,-0.54267204,0.50305408\H,0,-
 1.76885102,-1.00891622,-1.05100607\H,0,-1.08710481,-1.65379676,0.45498

 Normal termination of Gaussian 16 at Wed Apr  9 15:05:06 2025.
