 Gaussian 16, Revision C.01,

 ----------------------------------------------------------------------
 #t hf aug-cc-pvdz symm=none int=(grid=ultrafine) guess=(read,tcheck) s
 table=(opt,rrhf)
 ----------------------------------------------------------------------
 -----
 title
 -----
 Symbolic Z-matrix:
 Charge =  0 Multiplicity = 1

 SCF Done:  E(RHF) =  -343.520808169     A.U. after   15 cycles
 Normal termination of Gaussian 16 at Wed Apr  9 03:27:22 2025.
 Gaussian 16:  ES64L-G16RevC.01  3-Jul-2019

 ----------------------------------------------------------------------
 #t hf aug-cc-pvdz iop(5/13=1,5/36=2,99/5=2) pseudo=read geom=check gue
 ss=(read,tcheck) scf=(maxcycle=1)
 ----------------------------------------------------------------------
 -----
 title
 -----
 Structure from the checkpoint file:  "Grambow2020_wb97xd3_006722_reverse_mol1.chk"
 Charge =  0 Multiplicity = 1

                         Standard orientation:
 ---------------------------------------------------------------------
 Center     Atomic      Atomic             Coordinates (Angstroms)
 Number     Number       Type             X           Y           Z
 ---------------------------------------------------------------------
      1          8           0       -2.671134    0.040062   -0.432293
      2          6           0       -1.327902   -0.594567    0.674776
      3          6           0       -0.292392   -0.006624   -0.077579
      4          8           0        0.428668    1.133509    0.429669
      5          6           0        1.599547    0.661894   -0.227165
      6          6           0        2.046330   -0.650480    0.313744
      7          6           0        0.934961   -0.593248   -0.713801
      8          1           0       -3.137089    0.799322   -0.058448
      9          1           0       -1.641704   -0.160308    1.617720
     10          1           0       -1.564950   -1.640264    0.530133
     11          1           0       -1.528164    0.317721   -0.768403
     12          1           0        2.228785    1.386746   -0.725152
     13          1           0        1.829632   -0.906637    1.344726
     14          1           0        2.997710   -1.005187   -0.064398
     15          1           0        0.992242   -1.081818   -1.675039
 ---------------------------------------------------------------------

 SCF Done:  E(RHF) =  -343.627389516     A.U. after    2 cycles

 The electronic state is 1-A.
 Alpha  occ. eigenvalues --  -20.56630 -20.56585 -11.33215 -11.29385 -11.26585
 Alpha  occ. eigenvalues --  -11.24666 -11.23876  -1.35899  -1.28620  -1.10827
 Alpha  occ. eigenvalues --   -1.03848  -0.87522  -0.81968  -0.75452  -0.72480
 Alpha  occ. eigenvalues --   -0.69599  -0.66741  -0.63355  -0.61740  -0.57713
 Alpha  occ. eigenvalues --   -0.54575  -0.52440  -0.51384  -0.49091  -0.45695
 Alpha  occ. eigenvalues --   -0.39159  -0.31361
 Alpha virt. eigenvalues --    0.03336   0.04001   0.04577   0.04880   0.05858
 Alpha virt. eigenvalues --    0.06375   0.06823   0.09220   0.09751   0.10744
 Alpha virt. eigenvalues --    0.12005   0.13106   0.13267   0.14213   0.14988

 Mulliken charges:
               1
     1  O   -0.611309
     2  C    0.478258
     3  C   -0.237641
     4  O   -0.789388
     5  C    0.832956
     6  C    0.743260
     7  C    0.560524
     8  H    0.165755
     9  H   -0.167373
    10  H   -0.200730
    11  H    0.627682
    12  H   -0.366549
    13  H   -0.325786
    14  H   -0.327147
    15  H   -0.382512
 Sum of Mulliken charges =  -0.00000

 Dipole moment (field-independent basis, Debye):
    X=              0.6194    Y=             -1.3178    Z=              0.8950  Tot=              1.7091

 Test job not archived.
 1\1\GINC-SE343\SP\RHF\Aug-CC-pVDZ\C5H8O2\OHZDE\09-Apr-2025\0\\#t hf au
 g-cc-pvdz iop(5/13=1,5/36=2,99/5=2) pseudo=read geom=check guess=(read
 ,tcheck) scf=(maxcycle=1)\\title\\0,1\O,0,2.50726369,-0.26598032,1.160
 0912\C,0,1.54213534,0.29542341,-0.31841512\C,0,0.2919375,0.0096855,0.2
 6412636\O,0,-0.58012492,1.07432404,0.69212387\C,0,-1.70162008,0.270412
 58,0.34458787\C,0,-1.7419847,-0.02136307,-1.11409694\C,0,-0.85404009,-
 0.84185364,-0.20162048\H,0,2.84048288,0.46916189,1.69101474\H,0,1.8956
 6996,1.31780337,-0.39554702\H,0,1.98640022,-0.41467652,-1.00323774\H,0

 Normal termination of Gaussian 16 at Wed Apr  9 03:27:26 2025.
