 Gaussian 16, Revision C.01,

 ----------------------------------------------------------------------
 #t hf aug-cc-pvdz symm=none int=(grid=ultrafine) guess=(read,tcheck) s
 table=(opt,rrhf)
 ----------------------------------------------------------------------
 -----
 title
 -----
 Symbolic Z-matrix:
 Charge =  0 Multiplicity = 1

 SCF Done:  E(RHF) =  -324.907694714     A.U. after   16 cycles
 Normal termination of Gaussian 16 at Wed Apr  9 16:21:23 2025.
 Gaussian 16:  ES64L-G16RevC.01  3-Jul-2019

 ----------------------------------------------------------------------
 #t hf aug-cc-pvdz iop(5/13=1,5/36=2,99/5=2) pseudo=read geom=check gue
 ss=(read,tcheck) scf=(maxcycle=1)
 ----------------------------------------------------------------------
 -----
 title
 -----
 Structure from the checkpoint file:  "Grambow2020_wb97xd3_008110_forward_mol1.chk"
 Charge =  0 Multiplicity = 1

                         Standard orientation:
 ---------------------------------------------------------------------
 Center     Atomic      Atomic             Coordinates (Angstroms)
 Number     Number       Type             X           Y           Z
 ---------------------------------------------------------------------
      1          6           0       -2.374165   -0.327879    0.057752
      2          7           0       -1.112985    0.142447    0.576368
      3          6           0        0.151794   -0.525647    0.128060
      4          8           0        0.049723   -1.511059   -0.577936
      5          6           0        1.249706    0.251730    0.486367
      6          6           0        2.629053   -0.074203    0.016136
      7          6           0       -0.374254    1.677297   -0.581643
      8          1           0       -2.886532    0.473366   -0.490832
      9          1           0       -3.035653   -0.674942    0.852078
     10          1           0       -2.172539   -1.152530   -0.626710
     11          1           0       -1.113741    0.354612    1.563043
     12          1           0        1.135922    0.929894    1.324427
     13          1           0        2.590183   -0.852235   -0.746989
     14          1           0        3.276133   -0.430255    0.824688
     15          1           0        3.124131    0.801039   -0.420791
     16          1           0        0.492678    2.313598   -0.480209
     17          1           0       -0.407559    1.141163   -1.521587
     18          1           0       -1.302712    2.179841   -0.328237
 ---------------------------------------------------------------------

 SCF Done:  E(RHF) =  -325.011607165     A.U. after    2 cycles

 The electronic state is 1-A.
 Alpha  occ. eigenvalues --  -20.50787 -15.65777 -11.35406 -11.33115 -11.26913
 Alpha  occ. eigenvalues --  -11.20578 -11.19087  -1.32125  -1.18787  -1.02398
 Alpha  occ. eigenvalues --   -0.96915  -0.93357  -0.85200  -0.74668  -0.67397
 Alpha  occ. eigenvalues --   -0.66381  -0.63758  -0.63100  -0.60314  -0.58834
 Alpha  occ. eigenvalues --   -0.55357  -0.54610  -0.51974  -0.51309  -0.48929
 Alpha  occ. eigenvalues --   -0.43806  -0.41151  -0.25679
 Alpha virt. eigenvalues --    0.02102   0.03158   0.03867   0.04836   0.06140
 Alpha virt. eigenvalues --    0.06472   0.06755   0.06941   0.07581   0.08621
 Alpha virt. eigenvalues --    0.09333   0.09595   0.11496   0.12473   0.13263

 Mulliken charges:
               1
     1  C    0.809761
     2  N   -0.557647
     3  C    0.429726
     4  O   -0.608744
     5  C    0.410584
     6  C    0.174048
     7  C    0.802118
     8  H   -0.161393
     9  H   -0.189677
    10  H   -0.137443
    11  H   -0.026383
    12  H   -0.541976
    13  H   -0.090284
    14  H    0.010322
    15  H   -0.011495
    16  H   -0.177129
    17  H   -0.025805
    18  H   -0.108585
 Sum of Mulliken charges =  -0.00000

 Dipole moment (field-independent basis, Debye):
    X=             -2.8886    Y=              5.0634    Z=              1.2854  Tot=              5.9694

 Test job not archived.
 1\1\GINC-SE174\SP\RHF\Aug-CC-pVDZ\C5H11N1O1\OHZDE\09-Apr-2025\0\\#t hf
  aug-cc-pvdz iop(5/13=1,5/36=2,99/5=2) pseudo=read geom=check guess=(r
 ead,tcheck) scf=(maxcycle=1)\\title\\0,1\C,0,2.23291061,0.99543182,0.0
 8978428\N,0,1.06557838,0.40942571,-0.5223256\C,0,0.34972541,-0.6980901
 9,0.19038553\O,0,0.85070656,-1.12800215,1.21218812\C,0,-0.89532594,-0.
 91006875,-0.39529388\C,0,-1.90208414,-1.83034645,0.21255039\C,0,-0.632
 43638,1.45384816,-0.00424906\H,0,2.07247189,2.06546962,0.27615903\H,0,
 3.11799312,0.88707549,-0.53779846\H,0,2.40479061,0.4922391,1.04185889\

 Normal termination of Gaussian 16 at Wed Apr  9 16:21:30 2025.
