 Gaussian 16, Revision C.01,

 ----------------------------------------------------------------------
 #t hf aug-cc-pvdz symm=none int=(grid=ultrafine) guess=(read,tcheck) s
 table=(opt,rrhf)
 ----------------------------------------------------------------------
 -----
 title
 -----
 Symbolic Z-matrix:
 Charge =  0 Multiplicity = 1

 SCF Done:  E(RHF) =  -305.712940274     A.U. after   15 cycles
 Normal termination of Gaussian 16 at Wed Apr  9 14:26:26 2025.
 Gaussian 16:  ES64L-G16RevC.01  3-Jul-2019

 ----------------------------------------------------------------------
 #t hf aug-cc-pvdz iop(5/13=1,5/36=2,99/5=2) pseudo=read geom=check gue
 ss=(read,tcheck) scf=(maxcycle=1)
 ----------------------------------------------------------------------
 -----
 title
 -----
 Structure from the checkpoint file:  "Grambow2020_wb97xd3_006282_forward_mol1.chk"
 Charge =  0 Multiplicity = 1

                         Standard orientation:
 ---------------------------------------------------------------------
 Center     Atomic      Atomic             Coordinates (Angstroms)
 Number     Number       Type             X           Y           Z
 ---------------------------------------------------------------------
      1          6           0        2.162667    0.238341   -0.210434
      2          6           0        0.938147   -0.151157    0.556581
      3          6           0       -0.747846    1.345436    0.113585
      4          8           0       -1.513423    0.328043   -0.415179
      5          6           0       -1.139743   -0.926598    0.120526
      6          8           0        0.219895   -1.070189   -0.129961
      7          1           0        2.588719    1.156832    0.191479
      8          1           0        2.900529   -0.555631   -0.067146
      9          1           0        1.993127    0.343060   -1.286826
     10          1           0        0.221139    0.739107    0.947162
     11          1           0       -1.216962    1.842834    0.969615
     12          1           0       -0.399591    2.032480   -0.653345
     13          1           0       -1.335443   -0.962793    1.200853
     14          1           0       -1.682645   -1.694859   -0.422220
 ---------------------------------------------------------------------

 SCF Done:  E(RHF) =  -305.812575658     A.U. after    2 cycles

 The electronic state is 1-A.
 Alpha  occ. eigenvalues --  -20.61039 -20.59520 -11.35629 -11.30883 -11.30400
 Alpha  occ. eigenvalues --  -11.23483  -1.42467  -1.33744  -1.04249  -0.95956
 Alpha  occ. eigenvalues --   -0.88264  -0.83046  -0.73113  -0.71318  -0.66732
 Alpha  occ. eigenvalues --   -0.63963  -0.61681  -0.57901  -0.56167  -0.54684
 Alpha  occ. eigenvalues --   -0.53617  -0.49869  -0.46819  -0.29410
 Alpha virt. eigenvalues --    0.03599   0.04527   0.04736   0.05236   0.06443
 Alpha virt. eigenvalues --    0.06618   0.07587   0.07801   0.10337   0.10995
 Alpha virt. eigenvalues --    0.11862   0.13780   0.14196   0.15221   0.15605

 Mulliken charges:
               1
     1  C    0.413040
     2  C   -0.068683
     3  C    0.596480
     4  O   -0.626655
     5  C    1.030186
     6  O   -0.560552
     7  H   -0.018435
     8  H   -0.027389
     9  H   -0.028181
    10  H    0.101976
    11  H   -0.192358
    12  H   -0.282315
    13  H   -0.039093
    14  H   -0.298020
 Sum of Mulliken charges =   0.00000

 Dipole moment (field-independent basis, Debye):
    X=              0.1240    Y=              0.6984    Z=              0.5344  Tot=              0.8881

 Test job not archived.
 1\1\GINC-SE168\SP\RHF\Aug-CC-pVDZ\C4H8O2\OHZDE\09-Apr-2025\0\\#t hf au
 g-cc-pvdz iop(5/13=1,5/36=2,99/5=2) pseudo=read geom=check guess=(read
 ,tcheck) scf=(maxcycle=1)\\title\\0,1\C,0,-1.87313862,0.25393909,0.535
 56542\C,0,-0.39937775,0.37151695,0.76723987\C,0,0.69200653,-1.26911658
 ,-0.41420431\O,0,1.35886749,-0.30469569,-1.13944827\C,0,1.44859357,0.9
 088028,-0.41825938\O,0,0.14626083,1.26617498,-0.08932966\H,0,-2.264462
 03,-0.64279262,1.01454181\H,0,-2.3459436,1.11504716,1.01547321\H,0,-2.
 15498322,0.26771237,-0.5221227\H,0,0.24440259,-0.65057893,0.7767947\H,

 Normal termination of Gaussian 16 at Wed Apr  9 14:26:30 2025.
