 Gaussian 16, Revision C.01,

 ----------------------------------------------------------------------
 #t hf aug-cc-pvdz symm=none int=(grid=ultrafine) guess=(read,tcheck) s
 table=(opt,rrhf)
 ----------------------------------------------------------------------
 -----
 title
 -----
 Symbolic Z-matrix:
 Charge =  0 Multiplicity = 1

 SCF Done:  E(RHF) =  -344.918779060     A.U. after   14 cycles

 1\1\GINC-SE042\Stability\RHF\Aug-CC-pVDZ\C5H10O2\OHZDE\09-Apr-2025\0\\
 #t hf aug-cc-pvdz symm=none int=(grid=ultrafine) guess=(read,tcheck) s
 table=(opt,rrhf)\\title\\0,1\C,0,-2.21433595,-1.3316288,-1.32267088\C,
 0,0.09129141,0.80722077,0.6540858\C,0,0.19011006,-0.48229422,1.4240901
 9\O,0,0.72445541,-1.47671303,1.0158992\C,0,0.93175903,0.81379738,-0.60
 575745\C,0,2.40653534,0.93839514,-0.33024007\O,0,2.87751329,1.15829224
 ,0.75139612\H,0,-2.85121448,-1.04624408,-0.48591128\H,0,-1.96915219,-0
 .44847968,-1.9122694\H,0,-2.74716355,-2.04411001,-1.95005369\H,0,-0.96

 Normal termination of Gaussian 16 at Wed Apr  9 16:10:11 2025.
 Gaussian 16:  ES64L-G16RevC.01  3-Jul-2019

 ----------------------------------------------------------------------
 #t hf aug-cc-pvdz iop(5/13=1,5/36=2,99/5=2) pseudo=read geom=check gue
 ss=(read,tcheck) scf=(maxcycle=1)
 ----------------------------------------------------------------------
 -----
 title
 -----
 Structure from the checkpoint file:  "Grambow2020_wb97xd3_007835_reverse_mol2.chk"
 Charge =  0 Multiplicity = 1

                         Standard orientation:
 ---------------------------------------------------------------------
 Center     Atomic      Atomic             Coordinates (Angstroms)
 Number     Number       Type             X           Y           Z
 ---------------------------------------------------------------------
      1          6           0        3.351992   -0.686871   -0.195252
      2          6           0       -0.065618    0.069359    1.048220
      3          6           0        0.257046    1.358027    0.340589
      4          8           0        0.347015    1.473385   -0.850886
      5          6           0       -0.495425   -1.035467    0.105743
      6          6           0       -1.883162   -0.836156   -0.442766
      7          8           0       -2.641052    0.018256   -0.074402
      8          1           0        3.572933   -0.090718    0.689628
      9          1           0        2.876915   -1.621059    0.103563
     10          1           0        4.281182   -0.908927   -0.717211
     11          1           0        0.831144   -0.213857    1.610341
     12          1           0       -0.838579    0.282085    1.791643
     13          1           0        0.437031    2.227539    1.004229
     14          1           0        2.689167   -0.128072   -0.854551
     15          1           0       -0.486034   -2.011324    0.603472
     16          1           0        0.188370   -1.121964   -0.743139
     17          1           0       -2.188825   -1.560187   -1.224877
 ---------------------------------------------------------------------

 SCF Done:  E(RHF) =  -345.031595653     A.U. after    2 cycles

 The electronic state is 1-A.
 Alpha  occ. eigenvalues --  -20.57765 -20.57745 -11.34945 -11.34924 -11.26150
 Alpha  occ. eigenvalues --  -11.26083 -11.22515  -1.37257  -1.36736  -1.08336
 Alpha  occ. eigenvalues --   -0.96325  -0.94723  -0.82285  -0.76541  -0.70620
 Alpha  occ. eigenvalues --   -0.70366  -0.66230  -0.64711  -0.59342  -0.58939
 Alpha  occ. eigenvalues --   -0.55696  -0.55527  -0.55241  -0.54575  -0.51968
 Alpha  occ. eigenvalues --   -0.51882  -0.44019  -0.43987
 Alpha virt. eigenvalues --    0.02795   0.03828   0.04219   0.04794   0.06069
 Alpha virt. eigenvalues --    0.06484   0.06719   0.07739   0.08763   0.09480
 Alpha virt. eigenvalues --    0.10755   0.10995   0.11630   0.12757   0.13638

 Mulliken charges:
               1
     1  C    0.730829
     2  C    0.196121
     3  C    0.607334
     4  O   -0.482584
     5  C   -0.035690
     6  C    0.615228
     7  O   -0.470476
     8  H   -0.161598
     9  H   -0.171377
    10  H   -0.205605
    11  H   -0.020204
    12  H   -0.024197
    13  H   -0.166717
    14  H   -0.178342
    15  H   -0.007841
    16  H   -0.093047
    17  H   -0.131835
 Sum of Mulliken charges =  -0.00000

 Dipole moment (field-independent basis, Debye):
    X=              2.0657    Y=             -2.8177    Z=              2.3332  Tot=              4.2013

 Test job not archived.
 1\1\GINC-SE042\SP\RHF\Aug-CC-pVDZ\C5H10O2\OHZDE\09-Apr-2025\0\\#t hf a
 ug-cc-pvdz iop(5/13=1,5/36=2,99/5=2) pseudo=read geom=check guess=(rea
 d,tcheck) scf=(maxcycle=1)\\title\\0,1\C,0,-2.21433595,-1.3316288,-1.3
 2267088\C,0,0.09129141,0.80722077,0.6540858\C,0,0.19011006,-0.48229422
 ,1.42409019\O,0,0.72445541,-1.47671303,1.0158992\C,0,0.93175903,0.8137
 9738,-0.60575745\C,0,2.40653534,0.93839514,-0.33024007\O,0,2.87751329,
 1.15829224,0.75139612\H,0,-2.85121448,-1.04624408,-0.48591128\H,0,-1.9
 6915219,-0.44847968,-1.9122694\H,0,-2.74716355,-2.04411001,-1.95005369

 Normal termination of Gaussian 16 at Wed Apr  9 16:10:17 2025.
