 Gaussian 16, Revision C.01,

 ----------------------------------------------------------------------
 #t hf aug-cc-pvdz symm=none int=(grid=ultrafine) guess=(read,tcheck) s
 table=(opt,rrhf)
 ----------------------------------------------------------------------
 -----
 title
 -----
 Symbolic Z-matrix:
 Charge =  0 Multiplicity = 1

 SCF Done:  E(RHF) =  -338.632718658     A.U. after   17 cycles
 Normal termination of Gaussian 16 at Wed Apr  9 16:27:00 2025.
 Gaussian 16:  ES64L-G16RevC.01  3-Jul-2019

 ----------------------------------------------------------------------
 #t hf aug-cc-pvdz iop(5/13=1,5/36=2,99/5=2) pseudo=read geom=check gue
 ss=(read,tcheck) scf=(maxcycle=1)
 ----------------------------------------------------------------------
 -----
 title
 -----
 Structure from the checkpoint file:  "Grambow2020_wb97xd3_008315_forward_mol1.chk"
 Charge =  0 Multiplicity = 1

                         Standard orientation:
 ---------------------------------------------------------------------
 Center     Atomic      Atomic             Coordinates (Angstroms)
 Number     Number       Type             X           Y           Z
 ---------------------------------------------------------------------
      1          6           0        2.438313    0.127650   -0.021447
      2          8           0        1.357060   -0.782653    0.045957
      3          6           0        0.128634   -0.228294    0.028645
      4          6           0       -1.028491   -1.104935   -0.025460
      5          7           0       -2.179529   -0.565121    0.035592
      6          6           0       -1.131772    1.741754   -0.178702
      7          7           0       -0.125238    1.020946    0.026579
      8          1           0        2.394166    0.718132   -0.940338
      9          1           0        3.343910   -0.473666   -0.009146
     10          1           0        2.431979    0.805397    0.836726
     11          1           0       -0.840289   -2.172703   -0.143417
     12          1           0       -2.930093   -1.238836   -0.078650
     13          1           0       -1.562887    2.215080    0.713753
 ---------------------------------------------------------------------

 SCF Done:  E(RHF) =  -338.737843975     A.U. after    2 cycles

 The electronic state is 1-A.
 Alpha  occ. eigenvalues --  -20.61738 -15.67087 -15.64101 -11.35385 -11.31332
 Alpha  occ. eigenvalues --  -11.30157 -11.28555  -1.40109  -1.26222  -1.18694
 Alpha  occ. eigenvalues --   -1.01862  -0.94248  -0.87445  -0.75723  -0.71778
 Alpha  occ. eigenvalues --   -0.69175  -0.68156  -0.66287  -0.61075  -0.56451
 Alpha  occ. eigenvalues --   -0.54034  -0.50088  -0.48183  -0.45962  -0.44337
 Alpha  occ. eigenvalues --   -0.29663
 Alpha virt. eigenvalues --    0.03166   0.03686   0.04536   0.05687   0.06169
 Alpha virt. eigenvalues --    0.06812   0.08037   0.09412   0.11059   0.11366
 Alpha virt. eigenvalues --    0.12043   0.12918   0.14377   0.14675   0.15082

 Mulliken charges:
               1
     1  C    0.722713
     2  O   -0.565380
     3  C    0.135092
     4  C    0.969914
     5  N   -0.374097
     6  C    0.157845
     7  N   -0.154504
     8  H   -0.058589
     9  H   -0.266360
    10  H   -0.064432
    11  H   -0.310280
    12  H    0.018007
    13  H   -0.209929
 Sum of Mulliken charges =  -0.00000

 Dipole moment (field-independent basis, Debye):
    X=              1.3714    Y=             -1.9145    Z=              1.0375  Tot=              2.5735

 Test job not archived.
 1\1\GINC-SE229\SP\RHF\Aug-CC-pVDZ\C4H6N2O1\OHZDE\09-Apr-2025\0\\#t hf
 aug-cc-pvdz iop(5/13=1,5/36=2,99/5=2) pseudo=read geom=check guess=(re
 ad,tcheck) scf=(maxcycle=1)\\title\\0,1\C,0,2.21658811,0.26978129,-0.4
 5602461\O,0,1.23459774,-0.7022917,-0.15094638\C,0,-0.02336415,-0.23644
 56,-0.01993733\C,0,-1.10098008,-1.19103195,0.17466903\N,0,-2.26980575,
 -0.72740878,0.3719441\C,0,-1.45553955,1.61711635,-0.1808301\N,0,-0.374
 75229,0.987506,-0.07932318\H,0,1.98823985,0.77182039,-1.39984215\H,0,3
 .15944834,-0.2651136,-0.53812769\H,0,2.28370086,1.01916841,0.33754768\

 Normal termination of Gaussian 16 at Wed Apr  9 16:27:04 2025.
