 Gaussian 16, Revision C.01,

 ----------------------------------------------------------------------
 #t hf aug-cc-pvdz symm=none int=(grid=ultrafine) guess=(read,tcheck) s
 table=(opt,rrhf)
 ----------------------------------------------------------------------
 -----
 title
 -----
 Symbolic Z-matrix:
 Charge =  0 Multiplicity = 1

 SCF Done:  E(RHF) =  -381.697212853     A.U. after   16 cycles

 1\1\GINC-SE173\Stability\RHF\Aug-CC-pVDZ\C4H10O3\OHZDE\09-Apr-2025\0\\
 #t hf aug-cc-pvdz symm=none int=(grid=ultrafine) guess=(read,tcheck) s
 table=(opt,rrhf)\\title\\0,1\C,0,2.84173518,0.33467347,-0.42841882\O,0
 ,1.77197602,-0.05609126,0.39319815\C,0,0.56048663,-0.14312614,-0.30654
 789\C,0,-0.52918355,-0.47546128,0.68941025\O,0,-0.81542717,0.37367093,
 1.57000932\C,0,-2.21771248,-0.55312295,-0.61353253\O,0,-2.84649026,0.5
 2428856,-0.47466421\H,0,3.73272649,0.37533345,0.19590166\H,0,2.6668091
 8,1.32522523,-0.86758557\H,0,3.00865529,-0.3845648,-1.24112696\H,0,0.3

 Normal termination of Gaussian 16 at Wed Apr  9 16:48:49 2025.
 Gaussian 16:  ES64L-G16RevC.01  3-Jul-2019

 ----------------------------------------------------------------------
 #t hf aug-cc-pvdz iop(5/13=1,5/36=2,99/5=2) pseudo=read geom=check gue
 ss=(read,tcheck) scf=(maxcycle=1)
 ----------------------------------------------------------------------
 -----
 title
 -----
 Structure from the checkpoint file:  "Grambow2020_wb97xd3_008927_forward_mol1.chk"
 Charge =  0 Multiplicity = 1

                         Standard orientation:
 ---------------------------------------------------------------------
 Center     Atomic      Atomic             Coordinates (Angstroms)
 Number     Number       Type             X           Y           Z
 ---------------------------------------------------------------------
      1          6           0        3.027263   -0.414025   -0.337470
      2          8           0        1.937673    0.307770    0.176283
      3          6           0        0.736888   -0.412524    0.111329
      4          6           0       -0.374601    0.491064    0.599060
      5          8           0       -0.661914    1.507955   -0.080498
      6          6           0       -2.041992   -0.827004    0.405871
      7          8           0       -2.655587   -0.502268   -0.639839
      8          1           0        3.908160    0.219288   -0.246741
      9          1           0        2.875727   -0.667234   -1.394627
     10          1           0        3.196235   -1.342074    0.224521
     11          1           0        0.517347   -0.716974   -0.923608
     12          1           0        0.797818   -1.317185    0.734660
     13          1           0       -0.576513    0.532180    1.673402
     14          1           0       -1.644721    1.304431   -0.985731
     15          1           0       -2.484302   -0.583811    1.377088
     16          1           0       -1.351532   -1.674004    0.361525
     17          1           0       -2.284940    0.712659   -1.140809
 ---------------------------------------------------------------------

 SCF Done:  E(RHF) =  -381.821714959     A.U. after    2 cycles

 The electronic state is 1-A.
 Alpha  occ. eigenvalues --  -20.61993 -20.61594 -20.58669 -11.33750 -11.33741
 Alpha  occ. eigenvalues --  -11.30983 -11.29301  -1.38198  -1.36572  -1.35030
 Alpha  occ. eigenvalues --   -1.02429  -0.92697  -0.88518  -0.82896  -0.74462
 Alpha  occ. eigenvalues --   -0.71808  -0.70288  -0.68735  -0.67073  -0.66056
 Alpha  occ. eigenvalues --   -0.65477  -0.59418  -0.56413  -0.51922  -0.51623
 Alpha  occ. eigenvalues --   -0.48307  -0.46382  -0.45313  -0.36778
 Alpha virt. eigenvalues --    0.02466   0.03350   0.04326   0.04708   0.05351
 Alpha virt. eigenvalues --    0.06170   0.06641   0.07890   0.08512   0.08922
 Alpha virt. eigenvalues --    0.09688   0.11227   0.11269   0.14181   0.14349

 Mulliken charges:
               1
     1  C    0.643898
     2  O   -0.639530
     3  C    0.625976
     4  C    0.516872
     5  O   -0.610561
     6  C    0.723140
     7  O   -0.554649
     8  H   -0.255887
     9  H   -0.062652
    10  H   -0.050128
    11  H   -0.135423
    12  H   -0.199552
    13  H   -0.136263
    14  H    0.219762
    15  H   -0.112703
    16  H   -0.128784
    17  H    0.156485
 Sum of Mulliken charges =   0.00000

 Dipole moment (field-independent basis, Debye):
    X=              1.8259    Y=             -3.4060    Z=              2.0185  Tot=              4.3599

 Test job not archived.
 1\1\GINC-SE173\SP\RHF\Aug-CC-pVDZ\C4H10O3\OHZDE\09-Apr-2025\0\\#t hf a
 ug-cc-pvdz iop(5/13=1,5/36=2,99/5=2) pseudo=read geom=check guess=(rea
 d,tcheck) scf=(maxcycle=1)\\title\\0,1\C,0,2.84173518,0.33467347,-0.42
 841882\O,0,1.77197602,-0.05609126,0.39319815\C,0,0.56048663,-0.1431261
 4,-0.30654789\C,0,-0.52918355,-0.47546128,0.68941025\O,0,-0.81542717,0
 .37367093,1.57000932\C,0,-2.21771248,-0.55312295,-0.61353253\O,0,-2.84
 649026,0.52428856,-0.47466421\H,0,3.73272649,0.37533345,0.19590166\H,0
 ,2.66680918,1.32522523,-0.86758557\H,0,3.00865529,-0.3845648,-1.241126

 Normal termination of Gaussian 16 at Wed Apr  9 16:48:59 2025.
