 Gaussian 16, Revision C.01,

 ----------------------------------------------------------------------
 #t hf aug-cc-pvdz symm=none int=(grid=ultrafine) guess=(read,tcheck) s
 table=(opt,rrhf)
 ----------------------------------------------------------------------
 -----
 title
 -----
 Symbolic Z-matrix:
 Charge =  0 Multiplicity = 1

 SCF Done:  E(RHF) =  -359.607680894     A.U. after   15 cycles
 Normal termination of Gaussian 16 at Wed Apr  9 15:39:58 2025.
 Gaussian 16:  ES64L-G16RevC.01  3-Jul-2019

 ----------------------------------------------------------------------
 #t hf aug-cc-pvdz iop(5/13=1,5/36=2,99/5=2) pseudo=read geom=check gue
 ss=(read,tcheck) scf=(maxcycle=1)
 ----------------------------------------------------------------------
 -----
 title
 -----
 Structure from the checkpoint file:  "Grambow2020_wb97xd3_007279_reverse_mol1.chk"
 Charge =  0 Multiplicity = 1

                         Standard orientation:
 ---------------------------------------------------------------------
 Center     Atomic      Atomic             Coordinates (Angstroms)
 Number     Number       Type             X           Y           Z
 ---------------------------------------------------------------------
      1          8           0        1.575102   -1.258691    0.180148
      2          6           0        0.458813   -0.669322   -0.392645
      3          6           0       -0.898000   -1.157187    0.066388
      4          7           0       -1.724587   -0.102290   -0.174220
      5          6           0       -1.066210    1.058768    0.109904
      6          6           0        0.347587    0.831221   -0.100386
      7          8           0        1.304948    1.573781   -0.034003
      8          1           0        2.198984   -0.540620    0.350057
      9          1           0        0.467449   -0.770504   -1.492840
     10          1           0       -1.259773   -2.162004   -0.112827
     11          1           0       -0.606610   -0.725994    1.459798
     12          1           0       -2.719534   -0.179586   -0.048761
     13          1           0       -0.526852    0.185411    1.621324
     14          1           0       -1.575099    2.007730    0.174059
 ---------------------------------------------------------------------

 SCF Done:  E(RHF) =  -359.717283521     A.U. after    2 cycles

 The electronic state is 1-A.
 Alpha  occ. eigenvalues --  -20.58648 -20.54434 -15.71200 -11.34329 -11.31879
 Alpha  occ. eigenvalues --  -11.31640 -11.30109  -1.36622  -1.32880  -1.30000
 Alpha  occ. eigenvalues --   -1.03381  -1.00211  -0.84703  -0.79430  -0.75726
 Alpha  occ. eigenvalues --   -0.72885  -0.69570  -0.64184  -0.63920  -0.61632
 Alpha  occ. eigenvalues --   -0.60898  -0.56727  -0.53836  -0.48627  -0.45076
 Alpha  occ. eigenvalues --   -0.41934  -0.32127
 Alpha virt. eigenvalues --    0.02018   0.03466   0.04295   0.05236   0.06499
 Alpha virt. eigenvalues --    0.06913   0.08277   0.09371   0.09435   0.11308
 Alpha virt. eigenvalues --    0.12253   0.12606   0.14067   0.14565   0.14877

 Mulliken charges:
               1
     1  O   -0.592013
     2  C    0.364165
     3  C    0.353086
     4  N   -0.249225
     5  C    0.594818
     6  C    0.076259
     7  O   -0.590275
     8  H    0.184581
     9  H    0.025942
    10  H   -0.203336
    11  H    0.357809
    12  H   -0.076543
    13  H    0.048891
    14  H   -0.294160
 Sum of Mulliken charges =  -0.00000

 Dipole moment (field-independent basis, Debye):
    X=             -5.3116    Y=             -1.7320    Z=             -1.0936  Tot=              5.6928

 Test job not archived.
 1\1\GINC-SE232\SP\RHF\Aug-CC-pVDZ\C4H7N1O2\OHZDE\09-Apr-2025\0\\#t hf
 aug-cc-pvdz iop(5/13=1,5/36=2,99/5=2) pseudo=read geom=check guess=(re
 ad,tcheck) scf=(maxcycle=1)\\title\\0,1\O,0,2.1680714,-0.06051419,-0.0
 6258203\C,0,0.85624288,0.06370395,0.36779731\C,0,0.03477761,1.18986971
 ,-0.22094046\N,0,-1.25012296,0.7550162,-0.1031369\C,0,-1.29508121,-0.5
 8658181,-0.34877646\C,0,-0.01379371,-1.14945982,0.02040149\O,0,0.39315
 168,-2.29247825,0.03609153\H,0,2.32070311,-1.00676413,-0.18521157\H,0,
 0.79972938,0.18104007,1.46496623\H,0,0.25465098,2.23666559,-0.05203701

 Normal termination of Gaussian 16 at Wed Apr  9 15:40:03 2025.
