 Gaussian 16, Revision C.01,

 ----------------------------------------------------------------------
 #t hf aug-cc-pvdz symm=none int=(grid=ultrafine) guess=(read,tcheck) s
 table=(opt,rrhf)
 ----------------------------------------------------------------------
 -----
 title
 -----
 Symbolic Z-matrix:
 Charge =  0 Multiplicity = 1

 SCF Done:  E(RHF) =  -306.873183395     A.U. after   15 cycles

 1\1\GINC-SE042\Stability\RHF\Aug-CC-pVDZ\C4H10O2\OHZDE\09-Apr-2025\0\\
 #t hf aug-cc-pvdz symm=none int=(grid=ultrafine) guess=(read,tcheck) s
 table=(opt,rrhf)\\title\\0,1\C,0,2.65088233,-0.42905988,-0.79927562\O,
 0,1.70414682,-0.31717827,0.24708269\C,0,0.38695949,-0.09572339,-0.2518
 6809\C,0,-0.50997263,-0.04872449,0.97023735\C,0,-2.26036481,0.99298452
 ,-0.13131683\O,0,-1.00137174,-1.28967701,1.22204146\H,0,2.4383558,-1.2
 9062879,-1.46040474\H,0,2.68526457,0.48387896,-1.42460656\H,0,3.630163
 01,-0.57353936,-0.32663299\H,0,0.09986406,-0.90949797,-0.95098577\H,0,

 Normal termination of Gaussian 16 at Wed Apr  9 03:06:30 2025.
 Gaussian 16:  ES64L-G16RevC.01  3-Jul-2019

 ----------------------------------------------------------------------
 #t hf aug-cc-pvdz iop(5/13=1,5/36=2,99/5=2) pseudo=read geom=check gue
 ss=(read,tcheck) scf=(maxcycle=1)
 ----------------------------------------------------------------------
 -----
 title
 -----
 Structure from the checkpoint file:  "Grambow2020_b97d3_006575_forward_mol1.chk"
 Charge =  0 Multiplicity = 1

                         Standard orientation:
 ---------------------------------------------------------------------
 Center     Atomic      Atomic             Coordinates (Angstroms)
 Number     Number       Type             X           Y           Z
 ---------------------------------------------------------------------
      1          6           0        2.685313   -0.346822    0.146973
      2          8           0        1.519630    0.245524   -0.395245
      3          6           0        0.332513   -0.325826    0.149999
      4          6           0       -0.815539    0.437128   -0.482549
      5          6           0       -2.404728   -1.164457    0.038852
      6          8           0       -1.160798    1.482130    0.313445
      7          1           0        2.759493   -0.191177    1.240057
      8          1           0        2.724576   -1.435792   -0.048677
      9          1           0        3.541762    0.133513   -0.341933
     10          1           0        0.336450   -0.234714    1.256842
     11          1           0        0.256219   -1.398617   -0.103831
     12          1           0       -1.715749   -0.283096   -0.861744
     13          1           0       -3.423799   -0.790734   -0.114841
     14          1           0       -2.119675   -1.113142    1.093160
     15          1           0       -2.242797   -2.158567   -0.389350
     16          1           0       -1.772497    2.050946   -0.194937
 ---------------------------------------------------------------------

 SCF Done:  E(RHF) =  -306.972952354     A.U. after    2 cycles

 The electronic state is 1-A.
 Alpha  occ. eigenvalues --  -20.61639 -20.57302 -11.31557 -11.29322 -11.28481
 Alpha  occ. eigenvalues --  -11.24645  -1.37201  -1.33025  -1.01483  -0.93790
 Alpha  occ. eigenvalues --   -0.89167  -0.81934  -0.72993  -0.66399  -0.66181
 Alpha  occ. eigenvalues --   -0.65355  -0.61027  -0.58184  -0.56529  -0.55818
 Alpha  occ. eigenvalues --   -0.54406  -0.50227  -0.49404  -0.43915  -0.30496
 Alpha virt. eigenvalues --    0.03349   0.04126   0.04696   0.05211   0.05925
 Alpha virt. eigenvalues --    0.06690   0.06964   0.07790   0.09383   0.09820
 Alpha virt. eigenvalues --    0.11265   0.12127   0.12558   0.14143   0.14731

 Mulliken charges:
               1
     1  C    0.621058
     2  O   -0.686378
     3  C    0.795630
     4  C    0.249984
     5  C    0.203926
     6  O   -0.500693
     7  H   -0.046874
     8  H   -0.041190
     9  H   -0.235188
    10  H   -0.167615
    11  H   -0.204919
    12  H    0.270427
    13  H   -0.216190
    14  H   -0.085090
    15  H   -0.172424
    16  H    0.215536
 Sum of Mulliken charges =  -0.00000

 Dipole moment (field-independent basis, Debye):
    X=             -0.7851    Y=             -1.0321    Z=              0.6706  Tot=              1.4599

 Test job not archived.
 1\1\GINC-SE042\SP\RHF\Aug-CC-pVDZ\C4H10O2\OHZDE\09-Apr-2025\0\\#t hf a
 ug-cc-pvdz iop(5/13=1,5/36=2,99/5=2) pseudo=read geom=check guess=(rea
 d,tcheck) scf=(maxcycle=1)\\title\\0,1\C,0,2.65088233,-0.42905988,-0.7
 9927562\O,0,1.70414682,-0.31717827,0.24708269\C,0,0.38695949,-0.095723
 39,-0.25186809\C,0,-0.50997263,-0.04872449,0.97023735\C,0,-2.26036481,
 0.99298452,-0.13131683\O,0,-1.00137174,-1.28967701,1.22204146\H,0,2.43
 83558,-1.29062879,-1.46040474\H,0,2.68526457,0.48387896,-1.42460656\H,
 0,3.63016301,-0.57353936,-0.32663299\H,0,0.09986406,-0.90949797,-0.950

 Normal termination of Gaussian 16 at Wed Apr  9 03:06:35 2025.
