 Gaussian 16, Revision C.01,

 ----------------------------------------------------------------------
 #t hf aug-cc-pvdz symm=none int=(grid=ultrafine) guess=(read,tcheck) s
 table=(opt,rrhf)
 ----------------------------------------------------------------------
 -----
 title
 -----
 Symbolic Z-matrix:
 Charge =  0 Multiplicity = 1

 SCF Done:  E(RHF) =  -323.765685485     A.U. after   15 cycles
 Normal termination of Gaussian 16 at Wed Apr  9 15:23:07 2025.
 Gaussian 16:  ES64L-G16RevC.01  3-Jul-2019

 ----------------------------------------------------------------------
 #t hf aug-cc-pvdz iop(5/13=1,5/36=2,99/5=2) pseudo=read geom=check gue
 ss=(read,tcheck) scf=(maxcycle=1)
 ----------------------------------------------------------------------
 -----
 title
 -----
 Structure from the checkpoint file:  "Grambow2020_wb97xd3_006868_reverse_mol2.chk"
 Charge =  0 Multiplicity = 1

                         Standard orientation:
 ---------------------------------------------------------------------
 Center     Atomic      Atomic             Coordinates (Angstroms)
 Number     Number       Type             X           Y           Z
 ---------------------------------------------------------------------
      1          6           0       -2.875659   -0.559574   -0.004873
      2          7           0       -1.695308    0.263898    0.026889
      3          6           0        2.177645   -1.422653    0.012856
      4          6           0       -0.563413   -0.319082   -0.013379
      5          6           0        0.658766    0.424245   -0.007311
      6          8           0        1.816609   -0.180850   -0.008766
      7          6           0        0.706957    1.910900    0.000654
      8          1           0       -3.492623   -0.280052   -0.862827
      9          1           0       -3.475665   -0.370154    0.889044
     10          1           0       -2.660760   -1.636370   -0.061502
     11          1           0        3.242553   -1.578016   -0.008337
     12          1           0        1.450134   -2.218551    0.054748
     13          1           0       -0.495941   -1.414005   -0.065372
     14          1           0        1.739178    2.250749   -0.076309
     15          1           0        0.132659    2.324791   -0.831178
     16          1           0        0.268972    2.318101    0.915949
 ---------------------------------------------------------------------

 SCF Done:  E(RHF) =  -323.867997580     A.U. after    2 cycles

 The electronic state is 1-A.
 Alpha  occ. eigenvalues --  -20.71339 -15.61793 -11.30026 -11.29877 -11.28824
 Alpha  occ. eigenvalues --  -11.25585 -11.23158  -1.47218  -1.20134  -1.07901
 Alpha  occ. eigenvalues --   -0.96805  -0.94388  -0.85986  -0.76171  -0.72746
 Alpha  occ. eigenvalues --   -0.71470  -0.68074  -0.62643  -0.58939  -0.58154
 Alpha  occ. eigenvalues --   -0.56962  -0.55694  -0.55181  -0.50814  -0.43171
 Alpha  occ. eigenvalues --   -0.40106  -0.23813
 Alpha virt. eigenvalues --    0.03069   0.03298   0.03985   0.04441   0.05718
 Alpha virt. eigenvalues --    0.05781   0.06559   0.07773   0.08267   0.08539
 Alpha virt. eigenvalues --    0.11415   0.12540   0.12952   0.13216   0.13374

 Mulliken charges:
               1
     1  C    0.719587
     2  N   -0.688263
     3  C    0.717501
     4  C    1.108158
     5  C   -0.531359
     6  O   -0.192538
     7  C    0.572085
     8  H   -0.145824
     9  H   -0.148872
    10  H   -0.086214
    11  H   -0.419057
    12  H   -0.278595
    13  H   -0.569800
    14  H   -0.182247
    15  H    0.057001
    16  H    0.068437
 Sum of Mulliken charges =  -0.00000

 Dipole moment (field-independent basis, Debye):
    X=              0.3005    Y=             -1.5014    Z=             -0.0643  Tot=              1.5326

 Test job not archived.
 1\1\GINC-SE226\SP\RHF\Aug-CC-pVDZ\C5H9N1O1\OHZDE\09-Apr-2025\0\\#t hf
 aug-cc-pvdz iop(5/13=1,5/36=2,99/5=2) pseudo=read geom=check guess=(re
 ad,tcheck) scf=(maxcycle=1)\\title\\0,1\C,0,1.28695754,0.60762104,-2.3
 8143039\N,0,0.34860692,0.80863001,-1.30838024\C,0,-0.17499918,-2.07002
 36,1.73852172\C,0,0.27275332,-0.09097114,-0.40969314\C,0,-0.61769716,0
 .0391549,0.70226955\O,0,-0.71948761,-0.90509654,1.59936032\C,0,-1.4782
 5975,1.23264988,0.92028501\H,0,1.99462613,1.44029993,-2.40812186\H,0,0
 .75501451,0.61619482,-3.33638518\H,0,1.85191218,-0.33235018,-2.3029490

 Normal termination of Gaussian 16 at Wed Apr  9 15:23:13 2025.
