 Gaussian 16, Revision C.01,

 ----------------------------------------------------------------------
 #t hf aug-cc-pvdz symm=none int=(grid=ultrafine) guess=(read,tcheck) s
 table=(opt,rrhf)
 ----------------------------------------------------------------------
 -----
 title
 -----
 Symbolic Z-matrix:
 Charge =  0 Multiplicity = 1

 SCF Done:  E(RHF) =  -305.733216074     A.U. after   15 cycles
 Normal termination of Gaussian 16 at Wed Apr  9 14:18:18 2025.
 Gaussian 16:  ES64L-G16RevC.01  3-Jul-2019

 ----------------------------------------------------------------------
 #t hf aug-cc-pvdz iop(5/13=1,5/36=2,99/5=2) pseudo=read geom=check gue
 ss=(read,tcheck) scf=(maxcycle=1)
 ----------------------------------------------------------------------
 -----
 title
 -----
 Structure from the checkpoint file:  "Grambow2020_b97d3_007100_forward_mol1.chk"
 Charge =  0 Multiplicity = 1

                         Standard orientation:
 ---------------------------------------------------------------------
 Center     Atomic      Atomic             Coordinates (Angstroms)
 Number     Number       Type             X           Y           Z
 ---------------------------------------------------------------------
      1          6           0       -0.808689    1.899335    0.244213
      2          6           0       -0.629696   -0.361776   -0.527079
      3          6           0       -1.983778   -0.851887   -0.088366
      4          8           0        0.306013   -0.914979    0.347907
      5          6           0        1.621346   -0.523136    0.225792
      6          8           0        2.022910    0.420198   -0.409265
      7          1           0       -1.812997    2.214958   -0.047034
      8          1           0       -0.731616    1.562416    1.278625
      9          1           0       -0.005697    2.571903   -0.064994
     10          1           0       -0.515706    0.866387   -0.653396
     11          1           0       -2.042087   -1.916405   -0.368262
     12          1           0       -2.774940   -0.319992   -0.629583
     13          1           0       -2.172713   -0.796711    0.997154
     14          1           0        2.229270   -1.199525    0.850992
 ---------------------------------------------------------------------

 SCF Done:  E(RHF) =  -305.832116191     A.U. after    2 cycles

 The electronic state is 1-A.
 Alpha  occ. eigenvalues --  -20.64433 -20.58818 -11.41351 -11.32583 -11.25814
 Alpha  occ. eigenvalues --  -11.24647  -1.43188  -1.34893  -1.04214  -0.93917
 Alpha  occ. eigenvalues --   -0.90741  -0.77101  -0.74998  -0.69205  -0.66963
 Alpha  occ. eigenvalues --   -0.60660  -0.58881  -0.57853  -0.56891  -0.56263
 Alpha  occ. eigenvalues --   -0.52683  -0.51795  -0.48859  -0.31101
 Alpha virt. eigenvalues --    0.03330   0.04201   0.04687   0.05504   0.06047
 Alpha virt. eigenvalues --    0.06904   0.07415   0.07917   0.09180   0.10085
 Alpha virt. eigenvalues --    0.10832   0.13777   0.14421   0.14724   0.15420

 Mulliken charges:
               1
     1  C    0.194271
     2  C   -0.003094
     3  C    0.406153
     4  O   -0.498806
     5  C    0.718128
     6  O   -0.349327
     7  H   -0.122746
     8  H   -0.091871
     9  H   -0.113418
    10  H    0.141377
    11  H   -0.026067
    12  H   -0.016938
    13  H   -0.047045
    14  H   -0.190617
 Sum of Mulliken charges =  -0.00000

 Dipole moment (field-independent basis, Debye):
    X=             -1.5434    Y=             -1.0934    Z=              1.9027  Tot=              2.6829

 Test job not archived.
 1\1\GINC-SE015\SP\RHF\Aug-CC-pVDZ\C4H8O2\OHZDE\09-Apr-2025\0\\#t hf au
 g-cc-pvdz iop(5/13=1,5/36=2,99/5=2) pseudo=read geom=check guess=(read
 ,tcheck) scf=(maxcycle=1)\\title\\0,1\C,0,-0.12028389,1.70804445,-0.34
 911605\C,0,-0.21193025,-0.68504888,-0.4143643\C,0,-1.55574588,-0.87177
 564,0.23794654\O,0,0.75093696,-1.05818481,0.52416756\C,0,2.07779275,-0
 .8678068,0.20516117\O,0,2.49768587,-0.20237436,-0.70879611\H,0,-1.1164
 9123,2.03403693,-0.65632595\H,0,0.0249176,1.68230868,0.73149316\H,0,0.
 70509708,2.16714532,-0.89750142\H,0,-0.00433707,0.43174178,-0.91137138

 Normal termination of Gaussian 16 at Wed Apr  9 14:18:22 2025.
