 Gaussian 16, Revision C.01,

 ----------------------------------------------------------------------
 #t hf aug-cc-pvdz symm=none int=(grid=ultrafine) guess=(read,tcheck) s
 table=(opt,rrhf)
 ----------------------------------------------------------------------
 -----
 title
 -----
 Symbolic Z-matrix:
 Charge =  0 Multiplicity = 1

 SCF Done:  E(RHF) =  -245.654125500     A.U. after   18 cycles
 Normal termination of Gaussian 16 at Wed Apr  9 14:20:01 2025.
 Gaussian 16:  ES64L-G16RevC.01  3-Jul-2019

 ----------------------------------------------------------------------
 #t hf aug-cc-pvdz iop(5/13=1,5/36=2,99/5=2) pseudo=read geom=check gue
 ss=(read,tcheck) scf=(maxcycle=1)
 ----------------------------------------------------------------------
 -----
 title
 -----
 Structure from the checkpoint file:  "Grambow2020_b97d3_007197_forward_mol1.chk"
 Charge =  0 Multiplicity = 1

                         Standard orientation:
 ---------------------------------------------------------------------
 Center     Atomic      Atomic             Coordinates (Angstroms)
 Number     Number       Type             X           Y           Z
 ---------------------------------------------------------------------
      1          8           0       -1.574456   -0.673516   -0.187066
      2          6           0       -0.886893    0.196863    0.363498
      3          6           0        0.625552    0.141404    0.600352
      4          6           0        1.402782   -0.792088   -0.088703
      5          7           0        0.337117    1.151181   -0.560483
      6          1           0       -1.292030    1.044411    0.950962
      7          1           0        1.066204    0.667936    1.448978
      8          1           0        2.478858   -0.879079    0.060442
      9          1           0        0.929951   -1.433833   -0.832459
     10          1           0        0.204198    0.653355   -1.458904
 ---------------------------------------------------------------------

 SCF Done:  E(RHF) =  -245.726534872     A.U. after    2 cycles

 The electronic state is 1-A.
 Alpha  occ. eigenvalues --  -20.50473 -15.66026 -11.37718 -11.35197 -11.30444
 Alpha  occ. eigenvalues --   -1.30392  -1.18782  -1.01552  -0.89273  -0.79072
 Alpha  occ. eigenvalues --   -0.72964  -0.65256  -0.62225  -0.59459  -0.56886
 Alpha  occ. eigenvalues --   -0.53085  -0.43708  -0.40330  -0.34580
 Alpha virt. eigenvalues --   -0.00475   0.02142   0.03721   0.05089   0.06575
 Alpha virt. eigenvalues --    0.06729   0.09496   0.11474   0.11493   0.12986
 Alpha virt. eigenvalues --    0.13445   0.14009   0.14676   0.16213   0.17455

 Mulliken charges:
               1
     1  O   -0.671616
     2  C    0.764570
     3  C    0.688144
     4  C    0.585733
     5  N   -0.763671
     6  H   -0.057023
     7  H   -0.302193
     8  H   -0.168261
     9  H   -0.170761
    10  H    0.095079
 Sum of Mulliken charges =  -0.00000

 Dipole moment (field-independent basis, Debye):
    X=              5.4675    Y=             -0.7581    Z=              1.1181  Tot=              5.6319

 Test job not archived.
 1\1\GINC-SE222\SP\RHF\Aug-CC-pVDZ\C3H5N1O1\OHZDE\09-Apr-2025\0\\#t hf
 aug-cc-pvdz iop(5/13=1,5/36=2,99/5=2) pseudo=read geom=check guess=(re
 ad,tcheck) scf=(maxcycle=1)\\title\\0,1\O,0,0.95958189,-0.89557565,1.5
 5338322\C,0,1.14154588,-0.2656893,0.50288142\C,0,0.13186563,-0.0920820
 8,-0.63600892\C,0,-1.21610993,-0.38646533,-0.42015397\N,0,0.23554435,1
 .25688859,0.15133527\H,0,2.12738903,0.08608804,0.13962669\H,0,0.481430
 42,0.04865282,-1.66049625\H,0,-1.96643313,-0.29415984,-1.20516802\H,0,
 -1.54385431,-0.68232936,0.57665378\H,0,-0.34965283,1.23221511,1.005497

 Normal termination of Gaussian 16 at Wed Apr  9 14:20:04 2025.
