 Gaussian 16, Revision C.01,

 ----------------------------------------------------------------------
 #t hf aug-cc-pvdz symm=none int=(grid=ultrafine) guess=(read,tcheck) s
 table=(opt,rrhf)
 ----------------------------------------------------------------------
 -----
 title
 -----
 Symbolic Z-matrix:
 Charge =  0 Multiplicity = 1

 SCF Done:  E(RHF) =  -232.925604163     A.U. after   13 cycles
 Normal termination of Gaussian 16 at Wed Apr  9 03:06:59 2025.
 Gaussian 16:  ES64L-G16RevC.01  3-Jul-2019

 ----------------------------------------------------------------------
 #t hf aug-cc-pvdz iop(5/13=1,5/36=2,99/5=2) pseudo=read geom=check gue
 ss=(read,tcheck) scf=(maxcycle=1)
 ----------------------------------------------------------------------
 -----
 title
 -----
 Structure from the checkpoint file:  "Grambow2020_b97d3_006597_reverse_mol2.chk"
 Charge =  0 Multiplicity = 1

                         Standard orientation:
 ---------------------------------------------------------------------
 Center     Atomic      Atomic             Coordinates (Angstroms)
 Number     Number       Type             X           Y           Z
 ---------------------------------------------------------------------
      1          6           0        1.689016   -0.937609   -0.701064
      2          6           0        1.787531   -0.666065    0.779254
      3          6           0        1.325966    0.317584    0.056899
      4          6           0       -1.997390   -0.626652    0.219831
      5          6           0       -3.128438    0.014414   -0.101499
      6          6           0        0.784581    1.685254   -0.103105
      7          1           0        0.892786   -1.590379   -1.088005
      8          1           0        2.599810   -0.957004   -1.316767
      9          1           0        1.380901    2.253629   -0.833533
     10          1           0        2.070999   -1.074242    1.743341
     11          1           0       -1.503677   -0.483210    1.181415
     12          1           0       -1.510902   -1.315241   -0.472166
     13          1           0       -3.614261    0.704779    0.590214
     14          1           0       -3.615256   -0.129241   -1.067616
     15          1           0        0.777427    2.231571    0.850066
     16          1           0       -0.245427    1.637787   -0.488837
 ---------------------------------------------------------------------

 SCF Done:  E(RHF) =  -233.001294551     A.U. after    2 cycles

 The electronic state is 1-A.
 Alpha  occ. eigenvalues --  -11.25729 -11.24689 -11.24432 -11.24366 -11.24322
 Alpha  occ. eigenvalues --  -11.24269  -1.14554  -1.02398  -0.97925  -0.80942
 Alpha  occ. eigenvalues --   -0.79056  -0.72490  -0.64154  -0.63453  -0.60716
 Alpha  occ. eigenvalues --   -0.58712  -0.58604  -0.55842  -0.50575  -0.47095
 Alpha  occ. eigenvalues --   -0.41058  -0.37758  -0.34297
 Alpha virt. eigenvalues --    0.03419   0.04174   0.04559   0.04693   0.06005
 Alpha virt. eigenvalues --    0.06412   0.07028   0.07599   0.08315   0.09583
 Alpha virt. eigenvalues --    0.10344   0.11216   0.12606   0.13398   0.14074

 Mulliken charges:
               1
     1  C    0.562703
     2  C    0.448096
     3  C   -0.530018
     4  C    0.656843
     5  C    0.518191
     6  C    0.171402
     7  H   -0.219094
     8  H   -0.167396
     9  H    0.036270
    10  H   -0.388929
    11  H   -0.334380
    12  H   -0.346329
    13  H   -0.260417
    14  H   -0.243691
    15  H    0.033108
    16  H    0.063641
 Sum of Mulliken charges =   0.00000

 Dipole moment (field-independent basis, Debye):
    X=             -0.2415    Y=              0.8411    Z=              0.2776  Tot=              0.9180

 Test job not archived.
 1\1\GINC-SE113\SP\RHF\Aug-CC-pVDZ\C6H10\OHZDE\09-Apr-2025\0\\#t hf aug
 -cc-pvdz iop(5/13=1,5/36=2,99/5=2) pseudo=read geom=check guess=(read,
 tcheck) scf=(maxcycle=1)\\title\\0,1\C,0,-2.03538711,0.25012558,0.7564
 0023\C,0,-2.09727296,-0.42817325,-0.58928302\C,0,-1.27769467,0.5837263
 5,-0.50710077\C,0,1.46623265,-1.24214501,0.54165099\C,0,2.76629686,-0.
 93411471,0.63351905\C,0,-0.27070532,1.50516053,-1.07820004\H,0,-1.5128
 1435,-0.23622043,1.59317958\H,0,-2.86172979,0.89817273,1.08229047\H,0,
 -0.58600193,2.55172754,-0.94606828\H,0,-2.55372666,-1.22601622,-1.1650

 Normal termination of Gaussian 16 at Wed Apr  9 03:07:04 2025.
