 Gaussian 16, Revision C.01,

 ----------------------------------------------------------------------
 #t hf aug-cc-pvdz symm=none int=(grid=ultrafine) guess=(read,tcheck) s
 table=(opt,rrhf)
 ----------------------------------------------------------------------
 -----
 title
 -----
 Symbolic Z-matrix:
 Charge =  0 Multiplicity = 1

 SCF Done:  E(RHF) =  -322.514795208     A.U. after   17 cycles
 Normal termination of Gaussian 16 at Wed Apr  9 15:46:03 2025.
 Gaussian 16:  ES64L-G16RevC.01  3-Jul-2019

 ----------------------------------------------------------------------
 #t hf aug-cc-pvdz iop(5/13=1,5/36=2,99/5=2) pseudo=read geom=check gue
 ss=(read,tcheck) scf=(maxcycle=1)
 ----------------------------------------------------------------------
 -----
 title
 -----
 Structure from the checkpoint file:  "Grambow2020_wb97xd3_007354_forward_mol1.chk"
 Charge =  0 Multiplicity = 1

                         Standard orientation:
 ---------------------------------------------------------------------
 Center     Atomic      Atomic             Coordinates (Angstroms)
 Number     Number       Type             X           Y           Z
 ---------------------------------------------------------------------
      1          8           0        0.853138    1.445038    0.280091
      2          6           0        1.000850    0.408644   -0.606783
      3          6           0        1.344335   -0.878221    0.084877
      4          7           0       -0.170384   -1.049312    0.147177
      5          6           0       -1.031977   -0.402742    0.945453
      6          6           0       -1.623659    0.418253   -0.179302
      7          6           0       -0.426093   -0.131472   -0.986264
      8          1           0        1.755735   -1.676977   -0.524799
      9          1           0        1.843015   -0.821515    1.056486
     10          1           0        1.007833    1.169598    1.198323
     11          1           0       -1.013567   -0.357653    2.024485
     12          1           0       -1.671876    1.492898   -0.023846
     13          1           0       -2.573717    0.055305   -0.575446
     14          1           0       -0.560579   -0.563555   -1.974058
 ---------------------------------------------------------------------

 SCF Done:  E(RHF) =  -322.609057846     A.U. after    2 cycles

 The electronic state is 1-A.
 Alpha  occ. eigenvalues --  -20.57674 -15.70431 -11.30148 -11.30068 -11.28794
 Alpha  occ. eigenvalues --  -11.26001 -11.25752  -1.35644  -1.29182  -1.06120
 Alpha  occ. eigenvalues --   -0.97566  -0.89627  -0.82189  -0.74008  -0.71094
 Alpha  occ. eigenvalues --   -0.70204  -0.65665  -0.64930  -0.57984  -0.54883
 Alpha  occ. eigenvalues --   -0.54622  -0.51671  -0.49515  -0.45550  -0.43663
 Alpha  occ. eigenvalues --   -0.23527
 Alpha virt. eigenvalues --    0.03044   0.03693   0.04093   0.05404   0.06064
 Alpha virt. eigenvalues --    0.06417   0.06752   0.07894   0.09501   0.11219
 Alpha virt. eigenvalues --    0.11354   0.12503   0.13546   0.13769   0.14444

 Mulliken charges:
               1
     1  O   -0.493176
     2  C   -0.244131
     3  C    0.951844
     4  N   -0.788607
     5  C    0.568532
     6  C    0.526273
     7  C    0.687199
     8  H   -0.245035
     9  H   -0.212105
    10  H    0.155356
    11  H   -0.382520
    12  H   -0.080321
    13  H   -0.088806
    14  H   -0.354504
 Sum of Mulliken charges =  -0.00000

 Dipole moment (field-independent basis, Debye):
    X=             -1.6960    Y=             -2.3381    Z=              2.1741  Tot=              3.6152

 Test job not archived.
 1\1\GINC-SE174\SP\RHF\Aug-CC-pVDZ\C5H7N1O1\OHZDE\09-Apr-2025\0\\#t hf
 aug-cc-pvdz iop(5/13=1,5/36=2,99/5=2) pseudo=read geom=check guess=(re
 ad,tcheck) scf=(maxcycle=1)\\title\\0,1\O,0,0.72527368,1.57524377,0.46
 244334\C,0,1.12898695,0.69263257,-0.50734484\C,0,1.55578864,-0.6237994
 ,0.07338139\N,0,0.08434382,-0.98469236,-0.10587063\C,0,-0.95462621,-0.
 56046891,0.6277611\C,0,-1.50438184,0.32555604,-0.46856178\C,0,-0.14788
 986,0.03861697,-1.15057692\H,0,2.14954161,-1.27771659,-0.5581372\H,0,1
 .91198479,-0.63741677,1.10723897\H,0,0.79681564,1.20025449,1.35531183\

 Normal termination of Gaussian 16 at Wed Apr  9 15:46:07 2025.
