 Gaussian 16, Revision C.01,

 ----------------------------------------------------------------------
 #t hf aug-cc-pvdz symm=none int=(grid=ultrafine) guess=(read,tcheck) s
 table=(opt,rrhf)
 ----------------------------------------------------------------------
 -----
 title
 -----
 Symbolic Z-matrix:
 Charge =  0 Multiplicity = 1

 SCF Done:  E(RHF) =  -323.670066530     A.U. after   16 cycles
 Normal termination of Gaussian 16 at Wed Apr  9 15:16:08 2025.
 Gaussian 16:  ES64L-G16RevC.01  3-Jul-2019

 ----------------------------------------------------------------------
 #t hf aug-cc-pvdz iop(5/13=1,5/36=2,99/5=2) pseudo=read geom=check gue
 ss=(read,tcheck) scf=(maxcycle=1)
 ----------------------------------------------------------------------
 -----
 title
 -----
 Structure from the checkpoint file:  "Grambow2020_wb97xd3_006827_forward_mol1.chk"
 Charge =  0 Multiplicity = 1

                         Standard orientation:
 ---------------------------------------------------------------------
 Center     Atomic      Atomic             Coordinates (Angstroms)
 Number     Number       Type             X           Y           Z
 ---------------------------------------------------------------------
      1          6           0       -1.631571   -1.562883    0.294496
      2          6           0       -0.898314   -0.388695   -0.294491
      3          6           0       -1.504529    1.035804   -0.363313
      4          6           0       -0.221558    1.581606    0.391540
      5          6           0        0.299090    0.207898    0.106628
      6          7           0        1.342054   -0.397139   -0.434975
      7          8           0        2.556572   -0.275968    0.254513
      8          1           0       -2.313696   -2.011123   -0.430239
      9          1           0       -2.229301   -1.258776    1.162200
     10          1           0       -0.935261   -2.340252    0.615253
     11          1           0        0.313018   -1.130834   -0.922861
     12          1           0       -1.596136    1.452060   -1.367009
     13          1           0       -2.445178    1.171228    0.175992
     14          1           0       -0.441950    1.768922    1.441975
     15          1           0        0.324664    2.422600   -0.035414
     16          1           0        3.218177   -0.328479   -0.440333
 ---------------------------------------------------------------------

 SCF Done:  E(RHF) =  -323.768256247     A.U. after    2 cycles

 The electronic state is 1-A.
 Alpha  occ. eigenvalues --  -20.60968 -15.68054 -11.29990 -11.25608 -11.24743
 Alpha  occ. eigenvalues --  -11.23563 -11.22262  -1.37213  -1.19715  -1.07294
 Alpha  occ. eigenvalues --   -0.98594  -0.87316  -0.84989  -0.72897  -0.69559
 Alpha  occ. eigenvalues --   -0.67042  -0.63823  -0.62077  -0.57435  -0.56564
 Alpha  occ. eigenvalues --   -0.54694  -0.52202  -0.48973  -0.47449  -0.47027
 Alpha  occ. eigenvalues --   -0.38012  -0.30932
 Alpha virt. eigenvalues --    0.03460   0.04249   0.04417   0.04702   0.06207
 Alpha virt. eigenvalues --    0.06930   0.07205   0.07540   0.08095   0.10568
 Alpha virt. eigenvalues --    0.11944   0.13189   0.13621   0.13752   0.14427

 Mulliken charges:
               1
     1  C    0.525890
     2  C   -0.902135
     3  C    0.709597
     4  C    0.356479
     5  C    0.309881
     6  N   -0.426872
     7  O   -0.518008
     8  H   -0.007179
     9  H    0.027773
    10  H   -0.073584
    11  H    0.365393
    12  H   -0.163885
    13  H   -0.192896
    14  H   -0.054568
    15  H   -0.126866
    16  H    0.170978
 Sum of Mulliken charges =   0.00000

 Dipole moment (field-independent basis, Debye):
    X=             -0.6135    Y=              0.8854    Z=             -0.2607  Tot=              1.1083

 Test job not archived.
 1\1\GINC-SE129\SP\RHF\Aug-CC-pVDZ\C5H9N1O1\OHZDE\09-Apr-2025\0\\#t hf
 aug-cc-pvdz iop(5/13=1,5/36=2,99/5=2) pseudo=read geom=check guess=(re
 ad,tcheck) scf=(maxcycle=1)\\title\\0,1\C,0,-1.6654279,-1.12613659,0.1
 606199\C,0,-0.57084512,-0.22847809,-0.34867994\C,0,-0.72863961,1.30833
 283,-0.47010367\C,0,0.57986224,1.4781632,0.40892815\C,0,0.70443097,0.0
 0615713,0.17017724\N,0,1.57361911,-0.88732025,-0.26958245\O,0,2.700015
 26,-1.10567368,0.53582629\H,0,-2.37628967,-1.37549047,-0.62928708\H,0,
 -2.22876678,-0.64145198,0.96709456\H,0,-1.25809552,-2.06357832,0.54444

 Normal termination of Gaussian 16 at Wed Apr  9 15:16:14 2025.
