 Gaussian 16, Revision C.01,

 ----------------------------------------------------------------------
 #t hf aug-cc-pvdz symm=none int=(grid=ultrafine) guess=(read,tcheck) s
 table=(opt,rrhf)
 ----------------------------------------------------------------------
 -----
 title
 -----
 Symbolic Z-matrix:
 Charge =  0 Multiplicity = 1

 SCF Done:  E(RHF) =  -268.718367684     A.U. after   16 cycles
 Normal termination of Gaussian 16 at Wed Apr  9 03:16:41 2025.
 Gaussian 16:  ES64L-G16RevC.01  3-Jul-2019

 ----------------------------------------------------------------------
 #t hf aug-cc-pvdz iop(5/13=1,5/36=2,99/5=2) pseudo=read geom=check gue
 ss=(read,tcheck) scf=(maxcycle=1)
 ----------------------------------------------------------------------
 -----
 title
 -----
 Structure from the checkpoint file:  "Grambow2020_b97d3_007081_forward_mol1.chk"
 Charge =  0 Multiplicity = 1

                         Standard orientation:
 ---------------------------------------------------------------------
 Center     Atomic      Atomic             Coordinates (Angstroms)
 Number     Number       Type             X           Y           Z
 ---------------------------------------------------------------------
      1          6           0        2.217562    0.045016   -0.022079
      2          6           0        0.719436    0.093524   -0.004897
      3          6           0       -0.084363    1.184442    0.026107
      4          6           0       -1.518019    1.009762    0.112388
      5          8           0       -1.494091   -0.818997   -0.120232
      6          6           0       -0.081089   -1.185669    0.028442
      7          1           0        2.623223   -0.454105    0.875172
      8          1           0        2.645103    1.055051   -0.063610
      9          1           0        2.593138   -0.518781   -0.893401
     10          1           0        0.315387    2.201916    0.026451
     11          1           0       -2.088468    1.339678   -0.768582
     12          1           0       -1.846072   -0.340703    0.754990
     13          1           0        0.162313   -1.881006   -0.791768
     14          1           0        0.026937   -1.732528    0.982835
 ---------------------------------------------------------------------

 SCF Done:  E(RHF) =  -268.799146509     A.U. after    2 cycles

 The electronic state is 1-A.
 Alpha  occ. eigenvalues --  -20.61601 -11.30870 -11.27081 -11.24915 -11.24384
 Alpha  occ. eigenvalues --  -11.24172  -1.34680  -1.08675  -0.99253  -0.94064
 Alpha  occ. eigenvalues --   -0.81873  -0.75787  -0.70645  -0.66434  -0.60368
 Alpha  occ. eigenvalues --   -0.58662  -0.57346  -0.55312  -0.53438  -0.52411
 Alpha  occ. eigenvalues --   -0.48968  -0.42130  -0.29001
 Alpha virt. eigenvalues --    0.03335   0.04397   0.04649   0.04999   0.06278
 Alpha virt. eigenvalues --    0.06869   0.07611   0.08150   0.09862   0.10921
 Alpha virt. eigenvalues --    0.12700   0.12968   0.13778   0.14504   0.14710

 Mulliken charges:
               1
     1  C    0.411621
     2  C   -0.694142
     3  C    0.274404
     4  C   -0.051345
     5  O   -0.732251
     6  C    0.746202
     7  H    0.052265
     8  H   -0.089681
     9  H    0.044317
    10  H   -0.343951
    11  H   -0.084997
    12  H    0.529479
    13  H   -0.053776
    14  H   -0.008145
 Sum of Mulliken charges =  -0.00000

 Dipole moment (field-independent basis, Debye):
    X=              1.9992    Y=             -0.2985    Z=             -0.1009  Tot=              2.0239

 Test job not archived.
 1\1\GINC-SE016\SP\RHF\Aug-CC-pVDZ\C5H8O1\OHZDE\09-Apr-2025\0\\#t hf au
 g-cc-pvdz iop(5/13=1,5/36=2,99/5=2) pseudo=read geom=check guess=(read
 ,tcheck) scf=(maxcycle=1)\\title\\0,1\C,0,-1.83344446,0.30260717,-0.48
 589866\C,0,-0.38729596,0.14052744,-0.12615714\C,0,0.6389841,0.9909017,
 -0.37267123\C,0,1.98443279,0.60860193,-0.0026169\O,0,1.4961188,-0.9124
 2251,0.91775133\C,0,0.08785198,-1.11714527,0.55997814\H,0,-2.17354372,
 -0.48077348,-1.18546122\H,0,-2.01589209,1.27532183,-0.96047798\H,0,-2.
 48123407,0.23258973,0.40494018\H,0,0.49242999,1.94821814,-0.87974275\H

 Normal termination of Gaussian 16 at Wed Apr  9 03:16:45 2025.
