 Gaussian 16, Revision C.01,

 ----------------------------------------------------------------------
 #t hf aug-cc-pvdz symm=none int=(grid=ultrafine) guess=(read,tcheck) s
 table=(opt,rrhf)
 ----------------------------------------------------------------------
 -----
 title
 -----
 Symbolic Z-matrix:
 Charge =  0 Multiplicity = 1

 SCF Done:  E(RHF) =  -306.589103603     A.U. after   14 cycles
 Normal termination of Gaussian 16 at Wed Apr  9 16:25:05 2025.
 Gaussian 16:  ES64L-G16RevC.01  3-Jul-2019

 ----------------------------------------------------------------------
 #t hf aug-cc-pvdz iop(5/13=1,5/36=2,99/5=2) pseudo=read geom=check gue
 ss=(read,tcheck) scf=(maxcycle=1)
 ----------------------------------------------------------------------
 -----
 title
 -----
 Structure from the checkpoint file:  "Grambow2020_wb97xd3_008214_forward_mol1.chk"
 Charge =  0 Multiplicity = 1

                         Standard orientation:
 ---------------------------------------------------------------------
 Center     Atomic      Atomic             Coordinates (Angstroms)
 Number     Number       Type             X           Y           Z
 ---------------------------------------------------------------------
      1          6           0       -1.486448    0.652357   -0.362809
      2          8           0       -1.402507   -0.782248   -0.383546
      3          6           0       -0.338833   -0.775477    0.585577
      4          6           0        0.890357   -1.334906   -0.116450
      5          6           0        1.679347   -0.188505   -0.349227
      6          6           0        1.044950    1.162057   -0.023316
      7          6           0       -0.298592    0.777238    0.595433
      8          1           0       -1.350154    1.082002   -1.360180
      9          1           0       -2.445211    0.984315    0.045341
     10          1           0       -0.612018   -1.300797    1.503847
     11          1           0        2.012582   -0.803105    0.628565
     12          1           0        2.576255   -0.237345   -0.964097
     13          1           0        1.668775    1.754745    0.647852
     14          1           0        0.933686    1.740251   -0.944028
     15          1           0       -0.508539    1.281329    1.535818
 ---------------------------------------------------------------------

 SCF Done:  E(RHF) =  -306.679306574     A.U. after    2 cycles

 The electronic state is 1-A.
 Alpha  occ. eigenvalues --  -20.56985 -11.29372 -11.29366 -11.28010 -11.25546
 Alpha  occ. eigenvalues --  -11.25187 -11.24761  -1.35370  -1.14084  -1.02125
 Alpha  occ. eigenvalues --   -0.94927  -0.91598  -0.76814  -0.74040  -0.71003
 Alpha  occ. eigenvalues --   -0.65505  -0.62795  -0.60871  -0.59180  -0.57234
 Alpha  occ. eigenvalues --   -0.51128  -0.49713  -0.47047  -0.46039  -0.43203
 Alpha  occ. eigenvalues --   -0.34718
 Alpha virt. eigenvalues --    0.02680   0.03931   0.04224   0.05102   0.05964
 Alpha virt. eigenvalues --    0.06365   0.06760   0.07970   0.09366   0.10738
 Alpha virt. eigenvalues --    0.11178   0.12387   0.13855   0.13901   0.14849

 Mulliken charges:
               1
     1  C    0.997492
     2  O   -0.836149
     3  C    0.825971
     4  C   -0.927874
     5  C    0.468941
     6  C    0.518066
     7  C    0.041685
     8  H   -0.246667
     9  H   -0.215043
    10  H   -0.263067
    11  H    0.240061
    12  H   -0.197118
    13  H   -0.100768
    14  H   -0.083311
    15  H   -0.222220
 Sum of Mulliken charges =  -0.00000

 Dipole moment (field-independent basis, Debye):
    X=              1.4437    Y=              4.2917    Z=              1.5799  Tot=              4.7957

 Test job not archived.
 1\1\GINC-SE219\SP\RHF\Aug-CC-pVDZ\C6H8O1\OHZDE\09-Apr-2025\0\\#t hf au
 g-cc-pvdz iop(5/13=1,5/36=2,99/5=2) pseudo=read geom=check guess=(read
 ,tcheck) scf=(maxcycle=1)\\title\\0,1\C,0,-1.55462841,-0.39906784,-0.6
 5651731\O,0,-0.8629897,-1.64637878,-0.47926437\C,0,-0.06871993,-1.1016
 9995,0.5898974\C,0,1.3739183,-1.10853435,0.10465459\C,0,1.62218835,0.2
 4882408,-0.19007709\C,0,0.42904981,1.19934878,-0.11511732\C,0,-0.69860
 895,0.30533722,0.39983064\H,0,-1.4626041,-0.02523095,-1.68106428\H,0,-
 2.61363345,-0.49696562,-0.40169774\H,0,-0.22947321,-1.62718628,1.53426

 Normal termination of Gaussian 16 at Wed Apr  9 16:25:10 2025.
