 Gaussian 16, Revision C.01,

 ----------------------------------------------------------------------
 #t hf aug-cc-pvdz symm=none int=(grid=ultrafine) guess=(read,tcheck) s
 table=(opt,rrhf)
 ----------------------------------------------------------------------
 -----
 title
 -----
 Symbolic Z-matrix:
 Charge =  0 Multiplicity = 1

 SCF Done:  E(RHF) =  -268.657900898     A.U. after   17 cycles
 Normal termination of Gaussian 16 at Wed Apr  9 14:18:19 2025.
 Gaussian 16:  ES64L-G16RevC.01  3-Jul-2019

 ----------------------------------------------------------------------
 #t hf aug-cc-pvdz iop(5/13=1,5/36=2,99/5=2) pseudo=read geom=check gue
 ss=(read,tcheck) scf=(maxcycle=1)
 ----------------------------------------------------------------------
 -----
 title
 -----
 Structure from the checkpoint file:  "Grambow2020_b97d3_007087_forward_mol1.chk"
 Charge =  0 Multiplicity = 1

                         Standard orientation:
 ---------------------------------------------------------------------
 Center     Atomic      Atomic             Coordinates (Angstroms)
 Number     Number       Type             X           Y           Z
 ---------------------------------------------------------------------
      1          6           0       -2.373076    0.337742    0.157236
      2          6           0       -1.279516   -0.585418   -0.452664
      3          6           0       -0.052008   -0.480902    0.381208
      4          8           0        1.917298   -0.989350   -0.167063
      5          6           0        1.006841    0.406979    0.116102
      6          6           0        1.174888    1.671996   -0.093346
      7          1           0       -2.606005    0.053520    1.192425
      8          1           0       -3.291337    0.254076   -0.440199
      9          1           0       -2.024518    1.376897    0.145204
     10          1           0       -1.061814   -0.262153   -1.477704
     11          1           0       -1.645310   -1.623025   -0.465518
     12          1           0       -0.042100   -1.054242    1.314195
     13          1           0        2.387025   -1.178755    0.678490
     14          1           0        2.082899    2.246110   -0.261602
 ---------------------------------------------------------------------

 SCF Done:  E(RHF) =  -268.738942369     A.U. after    2 cycles

 The electronic state is 1-A.
 Alpha  occ. eigenvalues --  -20.57200 -11.38651 -11.28487 -11.28171 -11.26844
 Alpha  occ. eigenvalues --  -11.20298  -1.26644  -1.12149  -1.02023  -0.93778
 Alpha  occ. eigenvalues --   -0.86091  -0.75457  -0.67417  -0.64789  -0.62982
 Alpha  occ. eigenvalues --   -0.59248  -0.57039  -0.55398  -0.53951  -0.52785
 Alpha  occ. eigenvalues --   -0.47958  -0.36392  -0.30342
 Alpha virt. eigenvalues --    0.01824   0.02635   0.04013   0.04740   0.04974
 Alpha virt. eigenvalues --    0.06211   0.06889   0.07636   0.07853   0.10940
 Alpha virt. eigenvalues --    0.12170   0.12330   0.12966   0.13244   0.14391

 Mulliken charges:
               1
     1  C    0.267097
     2  C   -0.005224
     3  C    0.694526
     4  O   -0.720772
     5  C    0.188489
     6  C    0.079981
     7  H   -0.049329
     8  H   -0.030001
     9  H   -0.002392
    10  H    0.032433
    11  H    0.030639
    12  H   -0.290704
    13  H    0.167763
    14  H   -0.362506
 Sum of Mulliken charges =  -0.00000

 Dipole moment (field-independent basis, Debye):
    X=             -3.5879    Y=             -2.6458    Z=              1.9889  Tot=              4.8815

 Test job not archived.
 1\1\GINC-SE041\SP\RHF\Aug-CC-pVDZ\C5H8O1\OHZDE\09-Apr-2025\0\\#t hf au
 g-cc-pvdz iop(5/13=1,5/36=2,99/5=2) pseudo=read geom=check guess=(read
 ,tcheck) scf=(maxcycle=1)\\title\\0,1\C,0,-1.59139652,0.97418486,-0.79
 676672\C,0,-1.1035612,-0.38159349,-0.21028795\C,0,0.14365532,-0.141590
 55,0.56423891\O,0,1.60003034,-1.55833122,1.12021273\C,0,1.43922423,-0.
 2745382,0.03169676\C,0,2.11512158,0.16238234,-0.98054859\H,0,-1.786667
 31,1.70750923,-0.00256314\H,0,-2.52332934,0.8120367,-1.35564162\H,0,-0
 .82789232,1.37797202,-1.47167225\H,0,-0.9033957,-1.08110013,-1.0307908

 Normal termination of Gaussian 16 at Wed Apr  9 14:18:23 2025.
