 Gaussian 16, Revision C.01,

 ----------------------------------------------------------------------
 #t hf aug-cc-pvdz symm=none int=(grid=ultrafine) guess=(read,tcheck) s
 table=(opt,rrhf)
 ----------------------------------------------------------------------
 -----
 title
 -----
 Symbolic Z-matrix:
 Charge =  0 Multiplicity = 1

 SCF Done:  E(RHF) =  -287.838828284     A.U. after   16 cycles

 1\1\GINC-SE116\Stability\RHF\Aug-CC-pVDZ\C6H11N1\OHZDE\09-Apr-2025\0\\
 #t hf aug-cc-pvdz symm=none int=(grid=ultrafine) guess=(read,tcheck) s
 table=(opt,rrhf)\\title\\0,1\C,0,2.04893472,-0.80737983,0.14471226\C,0
 ,1.23871607,0.19664934,0.88565348\C,0,0.09178943,1.41814313,-0.1315395
 8\C,0,-0.6425276,-0.30445137,-0.11287829\C,0,-2.04136981,-0.03829768,0
 .42229975\C,0,-0.5966944,-0.58106511,-1.5382075\N,0,-0.56368574,-0.795
 79854,-2.66586234\H,0,1.63068165,-1.81442946,-0.01077936\H,0,2.9353728
 5,-0.92189261,0.78163783\H,0,2.4055148,-0.43268908,-0.81723973\H,0,0.7

 Normal termination of Gaussian 16 at Wed Apr  9 03:45:58 2025.
 Gaussian 16:  ES64L-G16RevC.01  3-Jul-2019

 ----------------------------------------------------------------------
 #t hf aug-cc-pvdz iop(5/13=1,5/36=2,99/5=2) pseudo=read geom=check gue
 ss=(read,tcheck) scf=(maxcycle=1)
 ----------------------------------------------------------------------
 -----
 title
 -----
 Structure from the checkpoint file:  "Grambow2020_wb97xd3_007877_forward_mol1.chk"
 Charge =  0 Multiplicity = 1

                         Standard orientation:
 ---------------------------------------------------------------------
 Center     Atomic      Atomic             Coordinates (Angstroms)
 Number     Number       Type             X           Y           Z
 ---------------------------------------------------------------------
      1          6           0        2.119946    0.680220   -0.436956
      2          6           0        1.669980   -0.665876    0.009227
      3          6           0        0.204578   -0.787946    1.305325
      4          6           0       -0.451150   -0.294064   -0.377828
      5          6           0       -1.518834   -1.351135   -0.615871
      6          6           0       -0.979948    1.014777   -0.035066
      7          7           0       -1.401310    2.047271    0.239189
      8          1           0        1.679899    1.109322   -1.351008
      9          1           0        3.188128    0.525547   -0.636014
     10          1           0        2.058273    1.428423    0.356317
     11          1           0        1.524857   -1.370885   -0.814823
     12          1           0        0.766620   -0.118586    1.947211
     13          1           0        0.443269   -1.825765    1.503571
     14          1           0       -0.848917   -0.648547    1.599092
     15          1           0        0.079028   -0.151823   -1.310715
     16          1           0       -2.136515   -1.066250   -1.468819
     17          1           0       -1.044981   -2.307289   -0.842008
     18          1           0       -2.167925   -1.480902    0.249891
 ---------------------------------------------------------------------

 SCF Done:  E(RHF) =  -287.927141793     A.U. after    2 cycles

 The electronic state is 1-A.
 Alpha  occ. eigenvalues --  -15.64041 -11.32670 -11.29013 -11.28920 -11.26414
 Alpha  occ. eigenvalues --  -11.25836 -11.23815  -1.20236  -1.10377  -1.01875
 Alpha  occ. eigenvalues --   -0.95271  -0.90514  -0.80663  -0.70038  -0.65540
 Alpha  occ. eigenvalues --   -0.61278  -0.60834  -0.58990  -0.57706  -0.55125
 Alpha  occ. eigenvalues --   -0.54434  -0.54198  -0.52080  -0.50130  -0.46341
 Alpha  occ. eigenvalues --   -0.44851  -0.30355
 Alpha virt. eigenvalues --    0.02758   0.03904   0.04132   0.04986   0.06205
 Alpha virt. eigenvalues --    0.06543   0.06653   0.06989   0.08257   0.08810
 Alpha virt. eigenvalues --    0.09154   0.10262   0.10808   0.12365   0.12755

 Mulliken charges:
               1
     1  C    0.591168
     2  C   -0.134907
     3  C    0.868914
     4  C    0.137001
     5  C    0.735977
     6  C   -0.751986
     7  N   -0.188644
     8  H   -0.084076
     9  H   -0.064926
    10  H   -0.148559
    11  H   -0.223779
    12  H   -0.074196
    13  H   -0.126005
    14  H   -0.279586
    15  H   -0.178710
    16  H   -0.026321
    17  H   -0.022972
    18  H   -0.028391
 Sum of Mulliken charges =  -0.00000

 Dipole moment (field-independent basis, Debye):
    X=              0.3998    Y=             -3.2345    Z=             -1.4227  Tot=              3.5561

 Test job not archived.
 1\1\GINC-SE116\SP\RHF\Aug-CC-pVDZ\C6H11N1\OHZDE\09-Apr-2025\0\\#t hf a
 ug-cc-pvdz iop(5/13=1,5/36=2,99/5=2) pseudo=read geom=check guess=(rea
 d,tcheck) scf=(maxcycle=1)\\title\\0,1\C,0,2.04893472,-0.80737983,0.14
 471226\C,0,1.23871607,0.19664934,0.88565348\C,0,0.09178943,1.41814313,
 -0.13153958\C,0,-0.6425276,-0.30445137,-0.11287829\C,0,-2.04136981,-0.
 03829768,0.42229975\C,0,-0.5966944,-0.58106511,-1.5382075\N,0,-0.56368
 574,-0.79579854,-2.66586234\H,0,1.63068165,-1.81442946,-0.01077936\H,0
 ,2.93537285,-0.92189261,0.78163783\H,0,2.4055148,-0.43268908,-0.817239

 Normal termination of Gaussian 16 at Wed Apr  9 03:46:05 2025.
