 Gaussian 16, Revision C.01,

 ----------------------------------------------------------------------
 #t hf aug-cc-pvdz symm=none int=(grid=ultrafine) guess=(read,tcheck) s
 table=(opt,rrhf)
 ----------------------------------------------------------------------
 -----
 title
 -----
 Symbolic Z-matrix:
 Charge =  0 Multiplicity = 1

 SCF Done:  E(RHF) =  -307.668267797     A.U. after   17 cycles

 1\1\GINC-SE043\Stability\RHF\Aug-CC-pVDZ\C6H10O1\OHZDE\09-Apr-2025\0\\
 #t hf aug-cc-pvdz symm=none int=(grid=ultrafine) guess=(read,tcheck) s
 table=(opt,rrhf)\\title\\0,1\C,0,1.85616903,0.75965743,-0.85723755\C,0
 ,0.79605403,-0.13865768,-0.30498973\C,0,-0.27375385,-1.38239656,0.9713
 4944\C,0,-1.26429969,-1.12944561,-0.14704128\C,0,-0.7039484,0.21148441
 ,-0.59958252\C,0,-0.66415885,1.11140478,0.61477712\O,0,0.42494974,0.35
 422958,1.18137763\H,0,2.82758115,0.54223861,-0.41046351\H,0,1.94093076
 ,0.56198623,-1.92965553\H,0,1.65913833,1.83589323,-0.72739332\H,0,0.42

 Normal termination of Gaussian 16 at Wed Apr  9 15:36:19 2025.
 Gaussian 16:  ES64L-G16RevC.01  3-Jul-2019

 ----------------------------------------------------------------------
 #t hf aug-cc-pvdz iop(5/13=1,5/36=2,99/5=2) pseudo=read geom=check gue
 ss=(read,tcheck) scf=(maxcycle=1)
 ----------------------------------------------------------------------
 -----
 title
 -----
 Structure from the checkpoint file:  "Grambow2020_wb97xd3_007027_reverse_mol1.chk"
 Charge =  0 Multiplicity = 1

                         Standard orientation:
 ---------------------------------------------------------------------
 Center     Atomic      Atomic             Coordinates (Angstroms)
 Number     Number       Type             X           Y           Z
 ---------------------------------------------------------------------
      1          6           0       -2.143131   -0.522270    0.084341
      2          6           0       -0.654537   -0.596470   -0.035551
      3          6           0        1.264692   -0.647721   -0.832014
      4          6           0        1.529281   -0.505210    0.653128
      5          6           0        0.216283    0.173194    1.017388
      6          6           0        0.085261    1.394557    0.135791
      7          8           0       -0.157632    0.572228   -1.024073
      8          1           0       -2.629460   -0.906848   -0.813491
      9          1           0       -2.446897   -1.162765    0.917306
     10          1           0       -2.538403    0.488413    0.274718
     11          1           0        1.143595   -1.635608   -1.247664
     12          1           0        1.837900    0.011316   -1.485042
     13          1           0        2.438594    0.060827    0.879415
     14          1           0        1.571127   -1.493467    1.115110
     15          1           0       -0.045203    0.232088    2.073276
     16          1           0        0.946996    2.057354    0.008206
     17          1           0       -0.804291    1.994387    0.332247
 ---------------------------------------------------------------------

 SCF Done:  E(RHF) =  -307.759678411     A.U. after    2 cycles

 The electronic state is 1-A.
 Alpha  occ. eigenvalues --  -20.58490 -11.34766 -11.28707 -11.25025 -11.23424
 Alpha  occ. eigenvalues --  -11.22011 -11.19993  -1.33945  -1.08269  -0.99037
 Alpha  occ. eigenvalues --   -0.95988  -0.85872  -0.82945  -0.72206  -0.69559
 Alpha  occ. eigenvalues --   -0.64707  -0.63055  -0.59578  -0.57726  -0.54109
 Alpha  occ. eigenvalues --   -0.53301  -0.52566  -0.50461  -0.47599  -0.46045
 Alpha  occ. eigenvalues --   -0.42400  -0.26048
 Alpha virt. eigenvalues --    0.03172   0.04178   0.04412   0.04632   0.06293
 Alpha virt. eigenvalues --    0.06390   0.06631   0.06892   0.07737   0.09453
 Alpha virt. eigenvalues --    0.09866   0.11842   0.12237   0.13430   0.13979

 Mulliken charges:
               1
     1  C    0.545287
     2  C   -0.845618
     3  C    0.989750
     4  C    0.612176
     5  C    0.191755
     6  C    0.956970
     7  O   -0.817363
     8  H   -0.054181
     9  H    0.018006
    10  H   -0.050545
    11  H   -0.170835
    12  H   -0.225813
    13  H   -0.139960
    14  H   -0.133921
    15  H   -0.346836
    16  H   -0.242348
    17  H   -0.286525
 Sum of Mulliken charges =  -0.00000

 Dipole moment (field-independent basis, Debye):
    X=              2.7731    Y=              0.6098    Z=              1.1769  Tot=              3.0736

 Test job not archived.
 1\1\GINC-SE043\SP\RHF\Aug-CC-pVDZ\C6H10O1\OHZDE\09-Apr-2025\0\\#t hf a
 ug-cc-pvdz iop(5/13=1,5/36=2,99/5=2) pseudo=read geom=check guess=(rea
 d,tcheck) scf=(maxcycle=1)\\title\\0,1\C,0,1.85616903,0.75965743,-0.85
 723755\C,0,0.79605403,-0.13865768,-0.30498973\C,0,-0.27375385,-1.38239
 656,0.97134944\C,0,-1.26429969,-1.12944561,-0.14704128\C,0,-0.7039484,
 0.21148441,-0.59958252\C,0,-0.66415885,1.11140478,0.61477712\O,0,0.424
 94974,0.35422958,1.18137763\H,0,2.82758115,0.54223861,-0.41046351\H,0,
 1.94093076,0.56198623,-1.92965553\H,0,1.65913833,1.83589323,-0.7273933

 Normal termination of Gaussian 16 at Wed Apr  9 15:36:26 2025.
