 Gaussian 16, Revision C.01,

 ----------------------------------------------------------------------
 #t hf aug-cc-pvdz symm=none int=(grid=ultrafine) guess=(read,tcheck) s
 table=(opt,rrhf)
 ----------------------------------------------------------------------
 -----
 title
 -----
 Symbolic Z-matrix:
 Charge =  0 Multiplicity = 1

 SCF Done:  E(RHF) =  -283.454498776     A.U. after   18 cycles
 Normal termination of Gaussian 16 at Wed Apr  9 14:19:06 2025.
 Gaussian 16:  ES64L-G16RevC.01  3-Jul-2019

 ----------------------------------------------------------------------
 #t hf aug-cc-pvdz iop(5/13=1,5/36=2,99/5=2) pseudo=read geom=check gue
 ss=(read,tcheck) scf=(maxcycle=1)
 ----------------------------------------------------------------------
 -----
 title
 -----
 Structure from the checkpoint file:  "Grambow2020_b97d3_007167_forward_mol1.chk"
 Charge =  0 Multiplicity = 1

                         Standard orientation:
 ---------------------------------------------------------------------
 Center     Atomic      Atomic             Coordinates (Angstroms)
 Number     Number       Type             X           Y           Z
 ---------------------------------------------------------------------
      1          6           0       -0.827858    1.546876   -0.564613
      2          7           0        1.205951    0.769320    0.816724
      3          6           0        0.789985   -0.282534    0.077744
      4          8           0        1.487898   -1.001033   -0.634568
      5          6           0       -0.716564   -0.516281    0.104861
      6          6           0       -1.795897   -1.090537    0.285766
      7          1           0       -1.515849    1.865545    0.213603
      8          1           0       -1.263863    1.143597   -1.473085
      9          1           0        0.062076    2.150796   -0.699746
     10          1           0        0.455941    1.010875    1.481225
     11          1           0       -2.781144   -1.492938    0.414927
 ---------------------------------------------------------------------

 SCF Done:  E(RHF) =  -283.540942024     A.U. after    2 cycles

 The electronic state is 1-A.
 Alpha  occ. eigenvalues --  -20.51492 -15.59384 -11.40943 -11.36377 -11.31310
 Alpha  occ. eigenvalues --  -11.29882  -1.31528  -1.12822  -1.06505  -1.01171
 Alpha  occ. eigenvalues --   -0.83474  -0.74914  -0.69579  -0.68738  -0.67939
 Alpha  occ. eigenvalues --   -0.60673  -0.56263  -0.47971  -0.44456  -0.41975
 Alpha  occ. eigenvalues --   -0.40616  -0.32874
 Alpha virt. eigenvalues --   -0.04752   0.01685   0.03316   0.03893   0.05522
 Alpha virt. eigenvalues --    0.06441   0.08416   0.09229   0.10606   0.11416
 Alpha virt. eigenvalues --    0.11891   0.13204   0.14057   0.14823   0.14918

 Mulliken charges:
               1
     1  C    0.520410
     2  N   -0.606626
     3  C    0.527391
     4  O   -0.594750
     5  C   -0.269024
     6  C    0.617631
     7  H    0.007049
     8  H    0.114787
     9  H   -0.037149
    10  H    0.092231
    11  H   -0.371951
 Sum of Mulliken charges =  -0.00000

 Dipole moment (field-independent basis, Debye):
    X=             -8.9314    Y=              3.8594    Z=             -0.2153  Tot=              9.7320

 Test job not archived.
 1\1\GINC-SE174\SP\RHF\Aug-CC-pVDZ\C4H5N1O1\OHZDE\09-Apr-2025\0\\#t hf
 aug-cc-pvdz iop(5/13=1,5/36=2,99/5=2) pseudo=read geom=check guess=(re
 ad,tcheck) scf=(maxcycle=1)\\title\\0,1\C,0,-0.98907056,0.83597022,-0.
 45066759\N,0,-0.81478596,-1.67008938,0.13101694\C,0,0.06524434,-1.0085
 4877,0.91423196\O,0,0.18706127,-1.11394746,2.13274021\C,0,0.92142244,0
 .01487833,0.1762492\C,0,1.92904868,0.58155857,-0.26080757\H,0,-0.75319
 942,0.83446284,-1.51126351\H,0,-0.70477912,1.71679298,0.11624149\H,0,-
 1.92818339,0.37685692,-0.1638841\H,0,-0.51722608,-1.55966595,-0.849641

 Normal termination of Gaussian 16 at Wed Apr  9 14:19:09 2025.
