 Gaussian 16, Revision C.01,

 ----------------------------------------------------------------------
 #t hf aug-cc-pvdz symm=none int=(grid=ultrafine) guess=(read,tcheck) s
 table=(opt,rrhf)
 ----------------------------------------------------------------------
 -----
 title
 -----
 Symbolic Z-matrix:
 Charge =  0 Multiplicity = 1

 SCF Done:  E(RHF) =  -304.514218194     A.U. after   15 cycles
 Normal termination of Gaussian 16 at Wed Apr  9 03:14:50 2025.
 Gaussian 16:  ES64L-G16RevC.01  3-Jul-2019

 ----------------------------------------------------------------------
 #t hf aug-cc-pvdz iop(5/13=1,5/36=2,99/5=2) pseudo=read geom=check gue
 ss=(read,tcheck) scf=(maxcycle=1)
 ----------------------------------------------------------------------
 -----
 title
 -----
 Structure from the checkpoint file:  "Grambow2020_b97d3_006989_forward_mol1.chk"
 Charge =  0 Multiplicity = 1

                         Standard orientation:
 ---------------------------------------------------------------------
 Center     Atomic      Atomic             Coordinates (Angstroms)
 Number     Number       Type             X           Y           Z
 ---------------------------------------------------------------------
      1          6           0        2.252434   -0.036178   -0.306252
      2          6           0        0.827063   -0.024584    0.164880
      3          6           0       -0.216911    1.071959    0.016800
      4          6           0       -1.262891    0.136113   -0.073960
      5          8           0       -2.397555   -0.183632   -0.166586
      6          8           0        0.057342   -1.073970    0.153162
      7          1           0        2.252087   -0.050598   -1.406869
      8          1           0        2.763884   -0.933506    0.063139
      9          1           0        2.788018    0.855982    0.039268
     10          1           0        1.119781    0.288309    1.643703
     11          1           0        0.369643    0.936294    1.340924
     12          1           0       -0.169880    2.080475   -0.381575
 ---------------------------------------------------------------------

 SCF Done:  E(RHF) =  -304.609328786     A.U. after    2 cycles

 The electronic state is 1-A.
 Alpha  occ. eigenvalues --  -20.62094 -20.59118 -11.43734 -11.40611 -11.27567
 Alpha  occ. eigenvalues --  -11.26611  -1.41966  -1.37161  -1.07768  -1.03260
 Alpha  occ. eigenvalues --   -0.84538  -0.74517  -0.72235  -0.72020  -0.68724
 Alpha  occ. eigenvalues --   -0.62391  -0.61563  -0.60155  -0.58153  -0.53914
 Alpha  occ. eigenvalues --   -0.49091  -0.45868  -0.34953
 Alpha virt. eigenvalues --    0.02698   0.04031   0.04129   0.05509   0.06503
 Alpha virt. eigenvalues --    0.07811   0.08516   0.09916   0.10578   0.11523
 Alpha virt. eigenvalues --    0.13173   0.13788   0.13822   0.14457   0.14795

 Mulliken charges:
               1
     1  C    0.482890
     2  C   -0.266640
     3  C    0.219872
     4  C    0.223864
     5  O   -0.321610
     6  O   -0.746069
     7  H    0.087692
     8  H    0.005593
     9  H    0.024083
    10  H    0.159165
    11  H    0.358354
    12  H   -0.227195
 Sum of Mulliken charges =  -0.00000

 Dipole moment (field-independent basis, Debye):
    X=              4.0503    Y=              3.1034    Z=             -0.4688  Tot=              5.1241

 Test job not archived.
 1\1\GINC-SE021\SP\RHF\Aug-CC-pVDZ\C4H6O2\OHZDE\09-Apr-2025\0\\#t hf au
 g-cc-pvdz iop(5/13=1,5/36=2,99/5=2) pseudo=read geom=check guess=(read
 ,tcheck) scf=(maxcycle=1)\\title\\0,1\C,0,-1.60238466,-0.12436164,0.27
 895936\C,0,-0.15866732,-0.25313656,-0.11203733\C,0,1.0005238,0.6810714
 2,0.20060756\C,0,1.91498291,-0.38624705,0.25269708\O,0,2.99306563,-0.8
 569024,0.37311795\O,0,0.47342388,-1.38958671,-0.16457507\H,0,-1.675935
 28,-0.24065627,1.37103616\H,0,-2.19521234,-0.91007417,-0.2052309\H,0,-
 2.00013605,0.85759232,-0.00343398\H,0,-0.31305953,0.23061466,-1.565532

 Normal termination of Gaussian 16 at Wed Apr  9 03:14:54 2025.
