 Gaussian 16, Revision C.01,

 ----------------------------------------------------------------------
 #t hf aug-cc-pvdz symm=none int=(grid=ultrafine) guess=(read,tcheck) s
 table=(opt,rrhf)
 ----------------------------------------------------------------------
 -----
 title
 -----
 Symbolic Z-matrix:
 Charge =  0 Multiplicity = 1

 SCF Done:  E(RHF) =  -262.508376021     A.U. after   18 cycles
 Normal termination of Gaussian 16 at Wed Apr  9 14:16:01 2025.
 Gaussian 16:  ES64L-G16RevC.01  3-Jul-2019

 ----------------------------------------------------------------------
 #t hf aug-cc-pvdz iop(5/13=1,5/36=2,99/5=2) pseudo=read geom=check gue
 ss=(read,tcheck) scf=(maxcycle=1)
 ----------------------------------------------------------------------
 -----
 title
 -----
 Structure from the checkpoint file:  "Grambow2020_b97d3_006907_forward_mol1.chk"
 Charge =  0 Multiplicity = 1

                         Standard orientation:
 ---------------------------------------------------------------------
 Center     Atomic      Atomic             Coordinates (Angstroms)
 Number     Number       Type             X           Y           Z
 ---------------------------------------------------------------------
      1          6           0        0.854878    0.610525    0.543821
      2          6           0       -0.465214    1.133353   -0.037392
      3          7           0       -1.406566    0.223900   -0.187312
      4          7           0       -0.977134   -0.995616    0.099643
      5          6           0        0.401161   -0.988854    0.104497
      6          6           0        1.317334   -0.032255   -0.595411
      7          1           0        1.380792    1.012710    1.416135
      8          1           0       -0.557444    2.139994   -0.434625
      9          1           0        0.885102   -1.882010    0.503193
     10          1           0        2.328497   -0.205296   -0.964109
 ---------------------------------------------------------------------

 SCF Done:  E(RHF) =  -262.580669773     A.U. after    2 cycles

 The electronic state is 1-A.
 Alpha  occ. eigenvalues --  -15.66799 -15.66595 -11.32399 -11.32047 -11.31159
 Alpha  occ. eigenvalues --  -11.30884  -1.32595  -1.15272  -1.05646  -0.86232
 Alpha  occ. eigenvalues --   -0.84692  -0.74375  -0.73575  -0.66414  -0.60924
 Alpha  occ. eigenvalues --   -0.57337  -0.53878  -0.48761  -0.41727  -0.38847
 Alpha  occ. eigenvalues --   -0.31782
 Alpha virt. eigenvalues --    0.02221   0.03065   0.03694   0.03978   0.05690
 Alpha virt. eigenvalues --    0.09108   0.09516   0.10299   0.11235   0.12536
 Alpha virt. eigenvalues --    0.12949   0.13875   0.14217   0.14983   0.15621

 Mulliken charges:
               1
     1  C    0.383380
     2  C    0.619231
     3  N   -0.388608
     4  N   -0.584683
     5  C    0.764929
     6  C    0.361723
     7  H   -0.298088
     8  H   -0.240064
     9  H   -0.287115
    10  H   -0.330704
 Sum of Mulliken charges =  -0.00000

 Dipole moment (field-independent basis, Debye):
    X=              4.8353    Y=              1.6233    Z=              0.8396  Tot=              5.1692

 Test job not archived.
 1\1\GINC-SE222\SP\RHF\Aug-CC-pVDZ\C4H4N2\OHZDE\09-Apr-2025\0\\#t hf au
 g-cc-pvdz iop(5/13=1,5/36=2,99/5=2) pseudo=read geom=check guess=(read
 ,tcheck) scf=(maxcycle=1)\\title\\0,1\C,0,0.29018331,0.64115316,-0.505
 65089\C,0,1.25013031,-0.44991653,-0.01384738\N,0,0.71296699,-1.6455104
 8,0.11931659\N,0,-0.59303939,-1.63675798,-0.10032726\C,0,-1.04358469,-
 0.33589158,-0.03308036\C,0,-0.40978517,0.81988316,0.67882442\H,0,0.449
 79548,1.30332437,-1.36316049\H,0,2.24955756,-0.21609805,0.3412607\H,0,
 -2.06595643,-0.16280894,-0.37320205\H,0,-0.88879598,1.70096687,1.10611

 Normal termination of Gaussian 16 at Wed Apr  9 14:16:04 2025.
