 Gaussian 16, Revision C.01,

 ----------------------------------------------------------------------
 #t hf aug-cc-pvdz symm=none int=(grid=ultrafine) guess=(read,tcheck) s
 table=(opt,rrhf)
 ----------------------------------------------------------------------
 -----
 title
 -----
 Symbolic Z-matrix:
 Charge =  0 Multiplicity = 1

 SCF Done:  E(RHF) =  -321.481923749     A.U. after   16 cycles
 Normal termination of Gaussian 16 at Wed Apr  9 16:24:47 2025.
 Gaussian 16:  ES64L-G16RevC.01  3-Jul-2019

 ----------------------------------------------------------------------
 #t hf aug-cc-pvdz iop(5/13=1,5/36=2,99/5=2) pseudo=read geom=check gue
 ss=(read,tcheck) scf=(maxcycle=1)
 ----------------------------------------------------------------------
 -----
 title
 -----
 Structure from the checkpoint file:  "Grambow2020_wb97xd3_008190_reverse_mol2.chk"
 Charge =  0 Multiplicity = 1

                         Standard orientation:
 ---------------------------------------------------------------------
 Center     Atomic      Atomic             Coordinates (Angstroms)
 Number     Number       Type             X           Y           Z
 ---------------------------------------------------------------------
      1          8           0       -1.346385   -1.726753   -0.515778
      2          6           0       -0.539022   -1.246670    0.533939
      3          6           0        0.145667    0.064545    0.202202
      4          6           0       -0.652489    1.236270    0.057423
      5          6           0       -1.385086    2.179647   -0.059836
      6          6           0        1.444011    0.105646   -0.010726
      7          7           0        2.653440    0.136700   -0.076037
      8          1           0       -2.017671   -1.067270   -0.707727
      9          1           0       -1.127686   -1.109200    1.448516
     10          1           0        0.210002   -2.014530    0.725762
     11          1           0        3.072728   -0.017528   -0.988541
     12          1           0       -2.018849    3.029015   -0.157528
 ---------------------------------------------------------------------

 SCF Done:  E(RHF) =  -321.582508888     A.U. after    2 cycles

 The electronic state is 1-A.
 Alpha  occ. eigenvalues --  -20.58056 -15.67036 -11.35298 -11.31200 -11.27864
 Alpha  occ. eigenvalues --  -11.26502 -11.25003  -1.33694  -1.24221  -1.10311
 Alpha  occ. eigenvalues --   -1.01468  -0.92025  -0.81110  -0.75362  -0.72641
 Alpha  occ. eigenvalues --   -0.69460  -0.65960  -0.62168  -0.57372  -0.54146
 Alpha  occ. eigenvalues --   -0.50909  -0.46926  -0.45896  -0.41252  -0.33499
 Alpha virt. eigenvalues --    0.03179   0.03708   0.04591   0.05890   0.06418
 Alpha virt. eigenvalues --    0.08822   0.09546   0.10304   0.10428   0.11696
 Alpha virt. eigenvalues --    0.12605   0.12930   0.13270   0.14074   0.14766

 Mulliken charges:
               1
     1  O   -0.561746
     2  C    0.642481
     3  C    1.312959
     4  C   -0.466818
     5  C    0.576390
     6  C   -1.064430
     7  N   -0.097210
     8  H    0.165726
     9  H    0.028729
    10  H   -0.161157
    11  H    0.091597
    12  H   -0.466523
 Sum of Mulliken charges =  -0.00000

 Dipole moment (field-independent basis, Debye):
    X=             -0.0832    Y=              0.8135    Z=             -0.5547  Tot=              0.9881

 Test job not archived.
 1\1\GINC-SE057\SP\RHF\Aug-CC-pVDZ\C5H5N1O1\OHZDE\09-Apr-2025\0\\#t hf
 aug-cc-pvdz iop(5/13=1,5/36=2,99/5=2) pseudo=read geom=check guess=(re
 ad,tcheck) scf=(maxcycle=1)\\title\\0,1\O,0,-2.06853219,-0.11895298,-0
 .54559041\C,0,-1.17619384,-0.5390557,0.46012601\C,0,0.26575403,-0.1801
 2914,0.15997687\C,0,0.64466548,1.1936805,0.16511909\C,0,0.89163556,2.3
 6811133,0.17639355\C,0,1.13443244,-1.11533199,-0.16176682\N,0,1.938665
 62,-2.00580373,-0.32974586\H,0,-1.99910151,0.8349314,-0.63317337\H,0,-
 1.44733998,-0.10503241,1.4296507\H,0,-1.27820267,-1.62148749,0.5334587

 Normal termination of Gaussian 16 at Wed Apr  9 16:24:52 2025.
