 Gaussian 16, Revision C.01,

 ----------------------------------------------------------------------
 #t hf aug-cc-pvdz symm=none int=(grid=ultrafine) guess=(read,tcheck) s
 table=(opt,rrhf)
 ----------------------------------------------------------------------
 -----
 title
 -----
 Symbolic Z-matrix:
 Charge =  0 Multiplicity = 1

 SCF Done:  E(RHF) =  -343.549432247     A.U. after   15 cycles
 Normal termination of Gaussian 16 at Wed Apr  9 16:36:13 2025.
 Gaussian 16:  ES64L-G16RevC.01  3-Jul-2019

 ----------------------------------------------------------------------
 #t hf aug-cc-pvdz iop(5/13=1,5/36=2,99/5=2) pseudo=read geom=check gue
 ss=(read,tcheck) scf=(maxcycle=1)
 ----------------------------------------------------------------------
 -----
 title
 -----
 Structure from the checkpoint file:  "Grambow2020_wb97xd3_008651_reverse_mol1.chk"
 Charge =  0 Multiplicity = 1

                         Standard orientation:
 ---------------------------------------------------------------------
 Center     Atomic      Atomic             Coordinates (Angstroms)
 Number     Number       Type             X           Y           Z
 ---------------------------------------------------------------------
      1          6           0        0.705146    1.727610   -0.214351
      2          6           0        1.252991    0.341211   -0.356741
      3          8           0        1.866413   -0.332226    0.688029
      4          6           0        0.474562   -0.741440    0.557123
      5          6           0        0.417202   -1.489067   -0.598234
      6          8           0       -2.381693    0.108100   -0.530092
      7          6           0       -2.165221    0.014940    0.651059
      8          1           0       -0.211279    1.827761   -0.798410
      9          1           0        0.484228    1.928833    0.831092
     10          1           0        1.436325    2.449946   -0.586464
     11          1           0        1.753318    0.152243   -1.307505
     12          1           0       -0.549442   -1.626122   -1.078716
     13          1           0        1.276628   -2.009573   -1.023907
     14          1           0       -2.316502   -0.928292    1.202597
     15          1           0       -1.859116    0.878695    1.264679
 ---------------------------------------------------------------------

 SCF Done:  E(RHF) =  -343.658310019     A.U. after    2 cycles

 The electronic state is 1-A.
 Alpha  occ. eigenvalues --  -20.59314 -20.56703 -11.35989 -11.34029 -11.30963
 Alpha  occ. eigenvalues --  -11.27025 -11.24691  -1.39539  -1.35436  -1.04839
 Alpha  occ. eigenvalues --   -1.01918  -0.85188  -0.83439  -0.79981  -0.70051
 Alpha  occ. eigenvalues --   -0.68561  -0.65607  -0.64751  -0.62737  -0.59117
 Alpha  occ. eigenvalues --   -0.57453  -0.54180  -0.53752  -0.49082  -0.43646
 Alpha  occ. eigenvalues --   -0.42955  -0.35302
 Alpha virt. eigenvalues --    0.03156   0.04199   0.04298   0.05585   0.05957
 Alpha virt. eigenvalues --    0.06230   0.07473   0.08384   0.08890   0.10198
 Alpha virt. eigenvalues --    0.10758   0.11950   0.12979   0.13446   0.14289

 Mulliken charges:
               1
     1  C    0.226918
     2  C    0.260259
     3  O   -0.740115
     4  C   -0.036698
     5  C    0.834246
     6  O   -0.456589
     7  C    0.765870
     8  H    0.086794
     9  H    0.048113
    10  H   -0.032999
    11  H   -0.297196
    12  H   -0.200428
    13  H   -0.178418
    14  H   -0.105064
    15  H   -0.174693
 Sum of Mulliken charges =   0.00000

 Dipole moment (field-independent basis, Debye):
    X=              0.5680    Y=             -0.2169    Z=             -1.2601  Tot=              1.3991

 Test job not archived.
 1\1\GINC-SE125\SP\RHF\Aug-CC-pVDZ\C5H8O2\OHZDE\09-Apr-2025\0\\#t hf au
 g-cc-pvdz iop(5/13=1,5/36=2,99/5=2) pseudo=read geom=check guess=(read
 ,tcheck) scf=(maxcycle=1)\\title\\0,1\C,0,1.59759422,-0.25878292,0.598
 69439\C,0,0.83679894,0.9616221,0.18118912\O,0,0.92014734,1.4953842,-1.
 0953295\C,0,-0.26418744,0.65775136,-0.96280548\C,0,-1.1229688,1.360026
 77,-0.14647734\O,0,-1.57961802,-1.72574487,0.6652421\C,0,-1.26259458,-
 1.8578517,-0.48918383\H,0,0.99229359,-0.86046449,1.27882841\H,0,1.8456
 6274,-0.85349322,-0.27710714\H,0,2.51214513,0.03991458,1.11757394\H,0,

 Normal termination of Gaussian 16 at Wed Apr  9 16:36:23 2025.
