 Gaussian 16, Revision C.01,

 ----------------------------------------------------------------------
 #t hf aug-cc-pvdz symm=none int=(grid=ultrafine) guess=(read,tcheck) s
 table=(opt,rrhf)
 ----------------------------------------------------------------------
 -----
 title
 -----
 Symbolic Z-matrix:
 Charge =  0 Multiplicity = 1

 SCF Done:  E(RHF) =  -299.410355000     A.U. after   18 cycles
 Normal termination of Gaussian 16 at Wed Apr  9 14:20:03 2025.
 Gaussian 16:  ES64L-G16RevC.01  3-Jul-2019

 ----------------------------------------------------------------------
 #t hf aug-cc-pvdz iop(5/13=1,5/36=2,99/5=2) pseudo=read geom=check gue
 ss=(read,tcheck) scf=(maxcycle=1)
 ----------------------------------------------------------------------
 -----
 title
 -----
 Structure from the checkpoint file:  "Grambow2020_b97d3_007186_reverse_mol1.chk"
 Charge =  0 Multiplicity = 1

                         Standard orientation:
 ---------------------------------------------------------------------
 Center     Atomic      Atomic             Coordinates (Angstroms)
 Number     Number       Type             X           Y           Z
 ---------------------------------------------------------------------
      1          6           0        1.740117   -0.003691    0.373837
      2          6           0        0.645374   -0.001612   -0.524686
      3          7           0       -0.093608   -1.175425   -0.328860
      4          8           0       -1.200658   -0.738365    0.221677
      5          6           0       -0.990335    0.755308    0.349403
      6          7           0       -0.124928    1.135277   -0.562706
      7          1           0        2.311296   -0.914435    0.557356
      8          1           0        2.201420    0.949213    0.626977
      9          1           0        0.159408    0.406979    1.426585
     10          1           0       -1.908041    1.246164    0.665304
 ---------------------------------------------------------------------

 SCF Done:  E(RHF) =  -299.495458763     A.U. after    2 cycles

 The electronic state is 1-A.
 Alpha  occ. eigenvalues --  -20.72333 -15.79222 -15.61871 -11.38729 -11.34552
 Alpha  occ. eigenvalues --  -11.32463  -1.51188  -1.24635  -1.13683  -0.98823
 Alpha  occ. eigenvalues --   -0.88321  -0.82096  -0.73910  -0.72534  -0.66956
 Alpha  occ. eigenvalues --   -0.62280  -0.60967  -0.53087  -0.52822  -0.45718
 Alpha  occ. eigenvalues --   -0.39741  -0.33286
 Alpha virt. eigenvalues --    0.00424   0.03765   0.03873   0.05372   0.06396
 Alpha virt. eigenvalues --    0.08061   0.08930   0.10155   0.11242   0.11372
 Alpha virt. eigenvalues --    0.12912   0.13907   0.15241   0.15940   0.17383

 Mulliken charges:
               1
     1  C    0.562656
     2  C    0.591104
     3  N   -0.125214
     4  O   -0.578137
     5  C    0.484865
     6  N   -0.705367
     7  H   -0.178575
     8  H   -0.162739
     9  H    0.277985
    10  H   -0.166578
 Sum of Mulliken charges =  -0.00000

 Dipole moment (field-independent basis, Debye):
    X=              1.0478    Y=             -0.1799    Z=              1.0367  Tot=              1.4849

 Test job not archived.
 1\1\GINC-SE131\SP\RHF\Aug-CC-pVDZ\C3H4N2O1\OHZDE\09-Apr-2025\0\\#t hf
 aug-cc-pvdz iop(5/13=1,5/36=2,99/5=2) pseudo=read geom=check guess=(re
 ad,tcheck) scf=(maxcycle=1)\\title\\0,1\C,0,-1.46323299,-0.17555768,-0
 .0415398\C,0,-0.22894907,-0.86345248,0.05413282\N,0,0.39329776,-0.8381
 8387,-1.20063817\O,0,1.4096814,-0.03191646,-1.00941399\C,0,1.26865727,
 0.41238999,0.43083342\N,0,0.60171511,-0.50805223,1.08903095\H,0,-2.110
 57443,-0.3063226,-0.90942774\H,0,-1.90490184,0.22078281,0.87101119\H,0
 ,-0.07162546,1.18052323,-0.03518904\H,0,2.14357625,0.97668329,0.745486

 Normal termination of Gaussian 16 at Wed Apr  9 14:20:06 2025.
