 Gaussian 16, Revision C.01,

 ----------------------------------------------------------------------
 #t hf aug-cc-pvdz symm=none int=(grid=ultrafine) guess=(read,tcheck) s
 table=(opt,rrhf)
 ----------------------------------------------------------------------
 -----
 title
 -----
 Symbolic Z-matrix:
 Charge =  0 Multiplicity = 1

 SCF Done:  E(RHF) =  -373.333377737     A.U. after   15 cycles
 Normal termination of Gaussian 16 at Wed Apr  9 03:26:58 2025.
 Gaussian 16:  ES64L-G16RevC.01  3-Jul-2019

 ----------------------------------------------------------------------
 #t hf aug-cc-pvdz iop(5/13=1,5/36=2,99/5=2) pseudo=read geom=check gue
 ss=(read,tcheck) scf=(maxcycle=1)
 ----------------------------------------------------------------------
 -----
 title
 -----
 Structure from the checkpoint file:  "Grambow2020_wb97xd3_006707_reverse_mol2.chk"
 Charge =  0 Multiplicity = 1

                         Standard orientation:
 ---------------------------------------------------------------------
 Center     Atomic      Atomic             Coordinates (Angstroms)
 Number     Number       Type             X           Y           Z
 ---------------------------------------------------------------------
      1          8           0        2.681063    0.213124    0.006717
      2          6           0        1.861840   -0.638036   -0.002021
      3          6           0       -2.808247   -0.948339    0.003940
      4          7           0       -2.039682   -0.067587    0.001623
      5          6           0       -1.141004    0.970593   -0.000949
      6          7           0        0.119163    0.853318   -0.003572
      7          8           0        0.503568   -0.470265   -0.004440
      8          1           0        2.037540   -1.721816   -0.009384
      9          1           0       -1.546491    1.973512   -0.001011
 ---------------------------------------------------------------------

 SCF Done:  E(RHF) =  -373.450303918     A.U. after    2 cycles

 The electronic state is 1-A.
 Alpha  occ. eigenvalues --  -20.68238 -20.59490 -15.74263 -15.70181 -11.41942
 Alpha  occ. eigenvalues --  -11.38976 -11.33755  -1.48391  -1.38884  -1.29434
 Alpha  occ. eigenvalues --   -1.20136  -0.98803  -0.89653  -0.78914  -0.76589
 Alpha  occ. eigenvalues --   -0.70901  -0.70263  -0.67380  -0.60188  -0.54834
 Alpha  occ. eigenvalues --   -0.53143  -0.52216  -0.50487  -0.49654  -0.43596
 Alpha virt. eigenvalues --    0.03020   0.03681   0.06025   0.06158   0.07348
 Alpha virt. eigenvalues --    0.08754   0.09603   0.10030   0.10696   0.12041
 Alpha virt. eigenvalues --    0.13590   0.14361   0.15227   0.15920   0.16357

 Mulliken charges:
               1
     1  O   -0.315378
     2  C    0.753218
     3  C   -0.154205
     4  N   -0.082540
     5  C    0.775431
     6  N    0.064836
     7  O   -0.574250
     8  H   -0.197304
     9  H   -0.269808
 Sum of Mulliken charges =  -0.00000

 Dipole moment (field-independent basis, Debye):
    X=             -1.3899    Y=             -0.0012    Z=             -0.0200  Tot=              1.3900

 Test job not archived.
 1\1\GINC-SE396\SP\RHF\Aug-CC-pVDZ\C3H2N2O2\OHZDE\09-Apr-2025\0\\#t hf
 aug-cc-pvdz iop(5/13=1,5/36=2,99/5=2) pseudo=read geom=check guess=(re
 ad,tcheck) scf=(maxcycle=1)\\title\\0,1\O,0,-1.80655456,-1.01649854,-1
 .85210018\C,0,-1.83440527,-0.47594191,-0.80200571\C,0,1.23220467,1.198
 9104,2.31196477\N,0,1.3163741,0.67658942,1.26960275\C,0,1.42070351,0.0
 6323495,0.04552785\N,0,0.45051495,-0.32774569,-0.66696779\O,0,-0.75948
 724,-0.06220322,-0.06279932\H,0,-2.7275202,-0.20530749,-0.22355231\H,0
 ,2.41791602,-0.09850991,-0.34134506\\Version=ES64L-G16RevC.01\State=1-

 Normal termination of Gaussian 16 at Wed Apr  9 03:27:01 2025.
