 Gaussian 16, Revision C.01,

 ----------------------------------------------------------------------
 #t hf aug-cc-pvdz symm=none int=(grid=ultrafine) guess=(read,tcheck) s
 table=(opt,rrhf)
 ----------------------------------------------------------------------
 -----
 title
 -----
 Symbolic Z-matrix:
 Charge =  0 Multiplicity = 1

 SCF Done:  E(RHF) =  -343.697210836     A.U. after   13 cycles
 Normal termination of Gaussian 16 at Wed Apr  9 16:25:02 2025.
 Gaussian 16:  ES64L-G16RevC.01  3-Jul-2019

 ----------------------------------------------------------------------
 #t hf aug-cc-pvdz iop(5/13=1,5/36=2,99/5=2) pseudo=read geom=check gue
 ss=(read,tcheck) scf=(maxcycle=1)
 ----------------------------------------------------------------------
 -----
 title
 -----
 Structure from the checkpoint file:  "Grambow2020_wb97xd3_008199_reverse_mol2.chk"
 Charge =  0 Multiplicity = 1

                         Standard orientation:
 ---------------------------------------------------------------------
 Center     Atomic      Atomic             Coordinates (Angstroms)
 Number     Number       Type             X           Y           Z
 ---------------------------------------------------------------------
      1          8           0        2.537344    0.284158   -0.249563
      2          6           0        1.695238   -0.842764   -0.325806
      3          6           0        0.511742   -0.783162    0.641397
      4          6           0       -0.533404    0.207142    0.228142
      5          8           0       -0.032701    1.489061    0.134700
      6          6           0       -1.777297   -0.087569   -0.037178
      7          6           0       -3.019794   -0.381976   -0.292103
      8          1           0        1.984519    1.067885   -0.319295
      9          1           0        2.316991   -1.704386   -0.075695
     10          1           0        1.321344   -0.990569   -1.348506
     11          1           0        0.885124   -0.514567    1.634483
     12          1           0        0.045393   -1.766618    0.710923
     13          1           0       -3.776981   -0.365813    0.486191
     14          1           0       -0.727630    2.079730   -0.166130
     15          1           0       -3.344804   -0.661442   -1.289786
 ---------------------------------------------------------------------

 SCF Done:  E(RHF) =  -343.806499302     A.U. after    2 cycles

 The electronic state is 1-A.
 Alpha  occ. eigenvalues --  -20.61647 -20.55808 -11.32444 -11.28566 -11.26306
 Alpha  occ. eigenvalues --  -11.25485 -11.24799  -1.37762  -1.31470  -1.08511
 Alpha  occ. eigenvalues --   -1.02776  -0.93865  -0.85701  -0.79621  -0.70311
 Alpha  occ. eigenvalues --   -0.68302  -0.64852  -0.63191  -0.62393  -0.61199
 Alpha  occ. eigenvalues --   -0.59910  -0.55781  -0.54054  -0.49617  -0.45099
 Alpha  occ. eigenvalues --   -0.39613  -0.35375
 Alpha virt. eigenvalues --    0.02910   0.04504   0.04539   0.04598   0.06391
 Alpha virt. eigenvalues --    0.06656   0.06918   0.07755   0.10014   0.11033
 Alpha virt. eigenvalues --    0.11995   0.12116   0.13642   0.13942   0.15126

 Mulliken charges:
               1
     1  O   -0.540719
     2  C    0.762866
     3  C   -0.107694
     4  C    0.800795
     5  O   -0.681744
     6  C   -0.866043
     7  C    1.055553
     8  H    0.179204
     9  H   -0.176560
    10  H   -0.105573
    11  H    0.033343
    12  H   -0.041861
    13  H   -0.230056
    14  H    0.158560
    15  H   -0.240072
 Sum of Mulliken charges =  -0.00000

 Dipole moment (field-independent basis, Debye):
    X=             -3.1773    Y=             -0.2336    Z=             -0.3365  Tot=              3.2036

 Test job not archived.
 1\1\GINC-SE141\SP\RHF\Aug-CC-pVDZ\C5H8O2\OHZDE\09-Apr-2025\0\\#t hf au
 g-cc-pvdz iop(5/13=1,5/36=2,99/5=2) pseudo=read geom=check guess=(read
 ,tcheck) scf=(maxcycle=1)\\title\\0,1\O,0,2.32659488,0.80710718,1.3537
 1054\C,0,1.46143407,1.28381782,0.34914471\C,0,0.81411692,0.16902774,-0
 .47421429\C,0,-0.23991599,-0.58079785,0.28115906\O,0,0.25501992,-1.169
 7372,1.42612199\C,0,-1.49367429,-0.6658792,-0.07291556\C,0,-2.74169636
 ,-0.7575769,-0.43277072\H,0,1.84995917,0.14225246,1.85917207\H,0,2.072
 46077,1.90427561,-0.309038\H,0,0.67611373,1.92508751,0.77294082\H,0,1.

 Normal termination of Gaussian 16 at Wed Apr  9 16:25:07 2025.
