 Gaussian 16, Revision C.01,

 ----------------------------------------------------------------------
 #t hf aug-cc-pvdz symm=none int=(grid=ultrafine) guess=(read,tcheck) s
 table=(opt,rrhf)
 ----------------------------------------------------------------------
 -----
 title
 -----
 Symbolic Z-matrix:
 Charge =  0 Multiplicity = 1

 SCF Done:  E(RHF) =  -320.234165434     A.U. after   17 cycles
 Normal termination of Gaussian 16 at Wed Apr  9 15:58:43 2025.
 Gaussian 16:  ES64L-G16RevC.01  3-Jul-2019

 ----------------------------------------------------------------------
 #t hf aug-cc-pvdz iop(5/13=1,5/36=2,99/5=2) pseudo=read geom=check gue
 ss=(read,tcheck) scf=(maxcycle=1)
 ----------------------------------------------------------------------
 -----
 title
 -----
 Structure from the checkpoint file:  "Grambow2020_wb97xd3_007656_reverse_mol1.chk"
 Charge =  0 Multiplicity = 1

                         Standard orientation:
 ---------------------------------------------------------------------
 Center     Atomic      Atomic             Coordinates (Angstroms)
 Number     Number       Type             X           Y           Z
 ---------------------------------------------------------------------
      1          7           0       -2.913647   -0.011292   -0.127563
      2          6           0       -1.775802   -0.062719    0.000082
      3          6           0       -0.345121   -0.085204    0.145948
      4          6           0        0.453709    1.078111    0.035341
      5          8           0        1.688403    0.729734   -0.066022
      6          6           0        1.760979   -0.669992   -0.078323
      7          6           0        0.561700   -1.313218   -0.034646
      8          1           0        0.215108    2.131198    0.036281
      9          1           0        2.772820   -1.023486   -0.190706
     10          1           0       -0.032411   -0.548406    1.165131
 ---------------------------------------------------------------------

 SCF Done:  E(RHF) =  -320.329051461     A.U. after    2 cycles

 The electronic state is 1-A.
 Alpha  occ. eigenvalues --  -20.72838 -15.66112 -11.41282 -11.33695 -11.31532
 Alpha  occ. eigenvalues --  -11.31163 -11.25177  -1.51288  -1.22228  -1.15285
 Alpha  occ. eigenvalues --   -1.06918  -0.91290  -0.84436  -0.81057  -0.74833
 Alpha  occ. eigenvalues --   -0.70614  -0.65093  -0.62845  -0.57228  -0.56277
 Alpha  occ. eigenvalues --   -0.49153  -0.46798  -0.38107  -0.36257
 Alpha virt. eigenvalues --    0.01923   0.02241   0.03881   0.04528   0.07379
 Alpha virt. eigenvalues --    0.08808   0.09471   0.09868   0.10904   0.12006
 Alpha virt. eigenvalues --    0.12651   0.13192   0.13622   0.14252   0.14680

 Mulliken charges:
               1
     1  N   -0.094447
     2  C   -0.552115
     3  C    0.492029
     4  C    0.708599
     5  O   -0.419410
     6  C    0.753373
     7  C   -0.780170
     8  H   -0.282450
     9  H   -0.324980
    10  H    0.499574
 Sum of Mulliken charges =   0.00000

 Dipole moment (field-independent basis, Debye):
    X=              3.2972    Y=              4.2275    Z=              1.0261  Tot=              5.4586

 Test job not archived.
 1\1\GINC-SE232\SP\RHF\Aug-CC-pVDZ\C5H3N1O1\OHZDE\09-Apr-2025\0\\#t hf
 aug-cc-pvdz iop(5/13=1,5/36=2,99/5=2) pseudo=read geom=check guess=(re
 ad,tcheck) scf=(maxcycle=1)\\title\\0,1\N,0,3.05099601,-0.81284611,0.0
 3998709\C,0,1.93651415,-0.55687657,-0.03772069\C,0,0.54519507,-0.19963
 508,-0.11012161\C,0,0.04995465,1.04505113,0.34721585\O,0,-1.23370027,0
 .98488034,0.41593065\C,0,-1.64288744,-0.30734832,0.05905335\C,0,-0.634
 31288,-1.17967002,-0.21617179\H,0,0.53619899,1.97144754,0.61420047\H,0
 ,-2.7117334,-0.42804158,0.12548935\H,0,0.14479211,-0.28193635,-1.19823

 Normal termination of Gaussian 16 at Wed Apr  9 15:58:46 2025.
