 Gaussian 16, Revision C.01,

 ----------------------------------------------------------------------
 #t hf aug-cc-pvdz symm=none int=(grid=ultrafine) guess=(read,tcheck) s
 table=(opt,rrhf)
 ----------------------------------------------------------------------
 -----
 title
 -----
 Symbolic Z-matrix:
 Charge =  0 Multiplicity = 1

 SCF Done:  E(RHF) =  -305.676642612     A.U. after   15 cycles
 Normal termination of Gaussian 16 at Wed Apr  9 14:24:21 2025.
 Gaussian 16:  ES64L-G16RevC.01  3-Jul-2019

 ----------------------------------------------------------------------
 #t hf aug-cc-pvdz iop(5/13=1,5/36=2,99/5=2) pseudo=read geom=check gue
 ss=(read,tcheck) scf=(maxcycle=1)
 ----------------------------------------------------------------------
 -----
 title
 -----
 Structure from the checkpoint file:  "Grambow2020_wb97xd3_006216_forward_mol1.chk"
 Charge =  0 Multiplicity = 1

                         Standard orientation:
 ---------------------------------------------------------------------
 Center     Atomic      Atomic             Coordinates (Angstroms)
 Number     Number       Type             X           Y           Z
 ---------------------------------------------------------------------
      1          6           0       -2.181844   -0.219222    0.235543
      2          8           0       -0.906944   -0.551546   -0.267394
      3          6           0       -0.119933    0.555666   -0.564993
      4          6           0        0.623358    1.260626    0.528135
      5          6           0        1.366372    0.402675   -0.449475
      6          8           0        1.606867   -1.141440    0.312771
      7          1           0       -2.760139    0.347497   -0.502829
      8          1           0       -2.102095    0.372754    1.153233
      9          1           0       -2.697789   -1.153473    0.451848
     10          1           0       -0.469894    1.131112   -1.420854
     11          1           0        0.515068    0.861666    1.529479
     12          1           0        0.780137    2.331531    0.475065
     13          1           0        2.163658   -0.708869   -0.519540
     14          1           0        0.843952   -1.636798   -0.024681
 ---------------------------------------------------------------------

 SCF Done:  E(RHF) =  -305.773812012     A.U. after    2 cycles

 The electronic state is 1-A.
 Alpha  occ. eigenvalues --  -20.61320 -20.59364 -11.29797 -11.29445 -11.27526
 Alpha  occ. eigenvalues --  -11.23925  -1.36997  -1.34022  -1.12487  -0.95080
 Alpha  occ. eigenvalues --   -0.82225  -0.81097  -0.74931  -0.70563  -0.66281
 Alpha  occ. eigenvalues --   -0.63938  -0.62271  -0.57878  -0.57429  -0.52363
 Alpha  occ. eigenvalues --   -0.50625  -0.45639  -0.42518  -0.34348
 Alpha virt. eigenvalues --    0.03327   0.04542   0.04839   0.05105   0.06445
 Alpha virt. eigenvalues --    0.06995   0.07500   0.07669   0.11036   0.11389
 Alpha virt. eigenvalues --    0.12922   0.13319   0.13595   0.15355   0.15632

 Mulliken charges:
               1
     1  C    0.654010
     2  O   -0.724666
     3  C    1.099986
     4  C    0.497662
     5  C   -0.401690
     6  O   -0.562659
     7  H   -0.084705
     8  H   -0.056151
     9  H   -0.242087
    10  H   -0.346180
    11  H   -0.260101
    12  H   -0.268673
    13  H    0.415539
    14  H    0.279715
 Sum of Mulliken charges =  -0.00000

 Dipole moment (field-independent basis, Debye):
    X=             -2.6024    Y=              0.4166    Z=              0.1477  Tot=              2.6396

 Test job not archived.
 1\1\GINC-SE097\SP\RHF\Aug-CC-pVDZ\C4H8O2\OHZDE\09-Apr-2025\0\\#t hf au
 g-cc-pvdz iop(5/13=1,5/36=2,99/5=2) pseudo=read geom=check guess=(read
 ,tcheck) scf=(maxcycle=1)\\title\\0,1\C,0,1.6484805,-0.4038364,-1.0492
 4921\O,0,0.34747458,0.13430903,-0.96838259\C,0,-0.48857777,-0.55859268
 ,-0.09960581\C,0,-0.41568147,-0.29987467,1.37420812\C,0,-1.57753509,0.
 21421331,0.58068444\O,0,-1.24543925,1.88226903,0.21950341\H,0,1.626501
 21,-1.42870604,-1.4364808\H,0,2.13639067,-0.40586299,-0.06899954\H,0,2
 .2162172,0.22410877,-1.7342092\H,0,-0.76268752,-1.55357819,-0.44742412

 Normal termination of Gaussian 16 at Wed Apr  9 14:24:25 2025.
