 Gaussian 16, Revision C.01,

 ----------------------------------------------------------------------
 #t hf aug-cc-pvdz symm=none int=(grid=ultrafine) guess=(read,tcheck) s
 table=(opt,rrhf)
 ----------------------------------------------------------------------
 -----
 title
 -----
 Symbolic Z-matrix:
 Charge =  0 Multiplicity = 1

 SCF Done:  E(RHF) =  -358.615569976     A.U. after   14 cycles
 Normal termination of Gaussian 16 at Wed Apr  9 17:06:19 2025.
 Gaussian 16:  ES64L-G16RevC.01  3-Jul-2019

 ----------------------------------------------------------------------
 #t hf aug-cc-pvdz iop(5/13=1,5/36=2,99/5=2) pseudo=read geom=check gue
 ss=(read,tcheck) scf=(maxcycle=1)
 ----------------------------------------------------------------------
 -----
 title
 -----
 Structure from the checkpoint file:  "Grambow2020_wb97xd3_009145_reverse_mol2.chk"
 Charge =  0 Multiplicity = 1

                         Standard orientation:
 ---------------------------------------------------------------------
 Center     Atomic      Atomic             Coordinates (Angstroms)
 Number     Number       Type             X           Y           Z
 ---------------------------------------------------------------------
      1          6           0       -2.390499   -0.554010   -0.005470
      2          6           0       -1.125910   -0.158428    0.001318
      3          6           0       -0.589859    1.254817    0.004555
      4          8           0        0.829708    1.115879   -0.004633
      5          6           0        1.176655   -0.191810   -0.000308
      6          8           0        2.299627   -0.592245   -0.003314
      7          7           0        0.017889   -0.935332    0.007907
      8          1           0       -3.187641    0.175653   -0.010507
      9          1           0       -2.661351   -1.601095   -0.004857
     10          1           0       -0.896589    1.814232   -0.880015
     11          1           0       -0.884916    1.804014    0.899663
     12          1           0        0.048272   -1.937962    0.003373
 ---------------------------------------------------------------------

 SCF Done:  E(RHF) =  -358.729395226     A.U. after    2 cycles

 The electronic state is 1-A.
 Alpha  occ. eigenvalues --  -20.63256 -20.55690 -15.68534 -11.43248 -11.33240
 Alpha  occ. eigenvalues --  -11.32319 -11.24178  -1.45342  -1.35146  -1.24666
 Alpha  occ. eigenvalues --   -1.06992  -0.97333  -0.86907  -0.83276  -0.74480
 Alpha  occ. eigenvalues --   -0.72629  -0.67474  -0.66346  -0.62535  -0.61159
 Alpha  occ. eigenvalues --   -0.60569  -0.54193  -0.54108  -0.48677  -0.47894
 Alpha  occ. eigenvalues --   -0.35056
 Alpha virt. eigenvalues --    0.02706   0.03706   0.04728   0.04746   0.06720
 Alpha virt. eigenvalues --    0.09170   0.09590   0.10342   0.10751   0.11988
 Alpha virt. eigenvalues --    0.13065   0.14027   0.14486   0.15422   0.15784

 Mulliken charges:
               1
     1  C    1.265003
     2  C   -0.202129
     3  C    0.665819
     4  O   -0.545582
     5  C    0.593295
     6  O   -0.402432
     7  N   -0.468304
     8  H   -0.319551
     9  H   -0.399030
    10  H   -0.042133
    11  H   -0.037379
    12  H   -0.107577
 Sum of Mulliken charges =   0.00000

 Dipole moment (field-independent basis, Debye):
    X=             -4.7564    Y=             -0.1124    Z=              0.0146  Tot=              4.7578

 Test job not archived.
 1\1\GINC-SE220\SP\RHF\Aug-CC-pVDZ\C4H5N1O2\OHZDE\09-Apr-2025\0\\#t hf
 aug-cc-pvdz iop(5/13=1,5/36=2,99/5=2) pseudo=read geom=check guess=(re
 ad,tcheck) scf=(maxcycle=1)\\title\\0,1\C,0,-1.57871385,-0.77790141,-0
 .59834059\C,0,-0.45200156,-0.23022992,-0.16672475\C,0,-0.06558434,1.23
 103534,-0.16374679\O,0,1.24845503,1.2687828,0.38981851\C,0,1.66012378,
 0.02182524,0.71549686\O,0,2.71917093,-0.23454729,1.19935231\N,0,0.6498
 5452,-0.85450457,0.38833673\H,0,-2.36020727,-0.15714823,-1.01283058\H,
 0,-1.75050561,-1.84460616,-0.5495856\H,0,-0.03840217,1.65244774,-1.169

 Normal termination of Gaussian 16 at Wed Apr  9 17:06:26 2025.
