 Gaussian 16, Revision C.01,

 ----------------------------------------------------------------------
 #t hf aug-cc-pvdz symm=none int=(grid=ultrafine) guess=(read,tcheck) s
 table=(opt,rrhf)
 ----------------------------------------------------------------------
 -----
 title
 -----
 Symbolic Z-matrix:
 Charge =  0 Multiplicity = 1

 SCF Done:  E(RHF) =  -268.670670826     A.U. after   17 cycles
 Normal termination of Gaussian 16 at Wed Apr  9 14:25:25 2025.
 Gaussian 16:  ES64L-G16RevC.01  3-Jul-2019

 ----------------------------------------------------------------------
 #t hf aug-cc-pvdz iop(5/13=1,5/36=2,99/5=2) pseudo=read geom=check gue
 ss=(read,tcheck) scf=(maxcycle=1)
 ----------------------------------------------------------------------
 -----
 title
 -----
 Structure from the checkpoint file:  "Grambow2020_wb97xd3_006253_forward_mol1.chk"
 Charge =  0 Multiplicity = 1

                         Standard orientation:
 ---------------------------------------------------------------------
 Center     Atomic      Atomic             Coordinates (Angstroms)
 Number     Number       Type             X           Y           Z
 ---------------------------------------------------------------------
      1          6           0        1.337863    1.263275    0.089968
      2          6           0        1.362018   -0.020156   -0.414859
      3          6           0        0.898828   -1.234777    0.454025
      4          6           0       -0.147892   -0.632591   -0.330016
      5          6           0       -1.150298    0.384033    0.254645
      6          8           0       -2.321422    0.067587   -0.163965
      7          1           0        1.003725    1.471302    1.097589
      8          1           0        1.809212    2.078406   -0.445906
      9          1           0       -0.712150    1.427119   -0.090451
     10          1           0        1.869343   -0.216450   -1.348588
     11          1           0        0.920865   -1.016433    1.515820
     12          1           0        1.324048   -2.190504    0.169538
     13          1           0       -0.438609   -1.071525   -1.277640
     14          1           0       -1.008168    0.418685    1.368780
 ---------------------------------------------------------------------

 SCF Done:  E(RHF) =  -268.753640912     A.U. after    2 cycles

 The electronic state is 1-A.
 Alpha  occ. eigenvalues --  -20.43353 -11.36917 -11.30383 -11.30306 -11.30167
 Alpha  occ. eigenvalues --  -11.27080  -1.22713  -1.18999  -1.03884  -0.89673
 Alpha  occ. eigenvalues --   -0.85259  -0.78386  -0.72884  -0.67822  -0.65679
 Alpha  occ. eigenvalues --   -0.60450  -0.58474  -0.54747  -0.53181  -0.49473
 Alpha  occ. eigenvalues --   -0.45000  -0.33639  -0.31331
 Alpha virt. eigenvalues --   -0.00620   0.01857   0.03008   0.03550   0.05443
 Alpha virt. eigenvalues --    0.05659   0.06290   0.07514   0.07940   0.10043
 Alpha virt. eigenvalues --    0.11439   0.12476   0.12975   0.13249   0.13795

 Mulliken charges:
               1
     1  C    0.479259
     2  C    0.310447
     3  C    0.910918
     4  C    0.326053
     5  C    0.521834
     6  O   -0.768253
     7  H   -0.148930
     8  H   -0.228215
     9  H   -0.006425
    10  H   -0.354988
    11  H   -0.273484
    12  H   -0.283616
    13  H   -0.331039
    14  H   -0.153561
 Sum of Mulliken charges =  -0.00000

 Dipole moment (field-independent basis, Debye):
    X=              9.9366    Y=              0.3923    Z=              0.4984  Tot=              9.9568

 Test job not archived.
 1\1\GINC-SE174\SP\RHF\Aug-CC-pVDZ\C5H8O1\OHZDE\09-Apr-2025\0\\#t hf au
 g-cc-pvdz iop(5/13=1,5/36=2,99/5=2) pseudo=read geom=check guess=(read
 ,tcheck) scf=(maxcycle=1)\\title\\0,1\C,0,-1.33692785,-0.695226,-0.263
 43376\C,0,-0.82533876,0.57012539,-0.46291051\C,0,-0.05416552,1.3143053
 7,0.67563992\C,0,0.78220238,0.52204599,-0.18794904\C,0,1.26119028,-0.8
 9648037,0.18423472\O,0,2.50745077,-0.98111605,-0.11000432\H,0,-1.22615
 43,-1.21046254,0.6812798\H,0,-2.00804923,-1.1419677,-0.98716543\H,0,0.
 51376406,-1.59907543,-0.40466859\H,0,-1.10890765,1.12710779,-1.3444547

 Normal termination of Gaussian 16 at Wed Apr  9 14:25:29 2025.
