 Gaussian 16, Revision C.01,

 ----------------------------------------------------------------------
 #t hf aug-cc-pvdz symm=none int=(grid=ultrafine) guess=(read,tcheck) s
 table=(opt,rrhf)
 ----------------------------------------------------------------------
 -----
 title
 -----
 Symbolic Z-matrix:
 Charge =  0 Multiplicity = 1

 SCF Done:  E(RHF) =  -344.877594810     A.U. after   14 cycles

 1\1\GINC-SE105\Stability\RHF\Aug-CC-pVDZ\C5H10O2\OHZDE\09-Apr-2025\0\\
 #t hf aug-cc-pvdz symm=none int=(grid=ultrafine) guess=(read,tcheck) s
 table=(opt,rrhf)\\title\\0,1\C,0,-2.16852562,-0.68138781,1.13481951\C,
 0,-1.86529698,0.3695053,0.11437736\O,0,-1.39960723,1.45075897,0.361544
 81\C,0,1.08178761,0.05841707,-1.5098154\C,0,1.87068692,0.81852154,-0.4
 3881617\C,0,1.40480791,-0.30280341,0.49523206\O,0,0.60779862,-0.898984
 39,-0.54501517\H,0,-3.22747107,-0.94756169,1.08298917\H,0,-1.59347175,
 -1.57619578,0.88610612\H,0,-1.91995628,-0.33426294,2.13633402\H,0,-2.1

 Normal termination of Gaussian 16 at Wed Apr  9 03:33:33 2025.
 Gaussian 16:  ES64L-G16RevC.01  3-Jul-2019

 ----------------------------------------------------------------------
 #t hf aug-cc-pvdz iop(5/13=1,5/36=2,99/5=2) pseudo=read geom=check gue
 ss=(read,tcheck) scf=(maxcycle=1)
 ----------------------------------------------------------------------
 -----
 title
 -----
 Structure from the checkpoint file:  "Grambow2020_wb97xd3_007057_reverse_mol2.chk"
 Charge =  0 Multiplicity = 1

                         Standard orientation:
 ---------------------------------------------------------------------
 Center     Atomic      Atomic             Coordinates (Angstroms)
 Number     Number       Type             X           Y           Z
 ---------------------------------------------------------------------
      1          6           0        2.389259   -0.820916   -0.070546
      2          6           0        1.731603    0.457563    0.342501
      3          8           0        1.367723    1.317390   -0.416022
      4          6           0       -1.593964    0.299352    0.921862
      5          6           0       -1.965839    0.539007   -0.544915
      6          6           0       -1.185393   -0.753461   -0.804317
      7          8           0       -0.797386   -0.849513    0.578794
      8          1           0        3.365770   -0.903622    0.413693
      9          1           0        1.775984   -1.651928    0.285175
     10          1           0        2.504362   -0.867349   -1.152170
     11          1           0        1.594422    0.584245    1.435511
     12          1           0       -0.994359    1.079974    1.396198
     13          1           0       -2.422060    0.024858    1.581474
     14          1           0       -3.027879    0.512757   -0.779997
     15          1           0       -1.509130    1.425276   -0.979081
     16          1           0       -0.318426   -0.660343   -1.463151
     17          1           0       -1.785381   -1.616150   -1.107330
 ---------------------------------------------------------------------

 SCF Done:  E(RHF) =  -344.988957129     A.U. after    2 cycles

 The electronic state is 1-A.
 Alpha  occ. eigenvalues --  -20.56416 -20.56349 -11.34033 -11.28620 -11.28535
 Alpha  occ. eigenvalues --  -11.24009 -11.23255  -1.35638  -1.34357  -1.00917
 Alpha  occ. eigenvalues --   -1.00357  -0.93466  -0.79481  -0.76988  -0.69853
 Alpha  occ. eigenvalues --   -0.68099  -0.67648  -0.62949  -0.60901  -0.59869
 Alpha  occ. eigenvalues --   -0.56387  -0.55607  -0.54178  -0.51229  -0.47509
 Alpha  occ. eigenvalues --   -0.47148  -0.43055  -0.42484
 Alpha virt. eigenvalues --    0.03553   0.04234   0.04533   0.05362   0.05958
 Alpha virt. eigenvalues --    0.06072   0.07098   0.07945   0.08092   0.09084
 Alpha virt. eigenvalues --    0.10846   0.12681   0.12903   0.13625   0.13722

 Mulliken charges:
               1
     1  C    0.141962
     2  C    0.613628
     3  O   -0.511647
     4  C    0.890728
     5  C    0.317872
     6  C    0.942047
     7  O   -0.855609
     8  H   -0.037106
     9  H    0.022121
    10  H   -0.063666
    11  H   -0.157882
    12  H   -0.246899
    13  H   -0.260335
    14  H   -0.170478
    15  H   -0.130385
    16  H   -0.250339
    17  H   -0.244013
 Sum of Mulliken charges =  -0.00000

 Dipole moment (field-independent basis, Debye):
    X=             -0.3490    Y=             -1.2193    Z=              0.6080  Tot=              1.4065

 Test job not archived.
 1\1\GINC-SE105\SP\RHF\Aug-CC-pVDZ\C5H10O2\OHZDE\09-Apr-2025\0\\#t hf a
 ug-cc-pvdz iop(5/13=1,5/36=2,99/5=2) pseudo=read geom=check guess=(rea
 d,tcheck) scf=(maxcycle=1)\\title\\0,1\C,0,-2.16852562,-0.68138781,1.1
 3481951\C,0,-1.86529698,0.3695053,0.11437736\O,0,-1.39960723,1.4507589
 7,0.36154481\C,0,1.08178761,0.05841707,-1.5098154\C,0,1.87068692,0.818
 52154,-0.43881617\C,0,1.40480791,-0.30280341,0.49523206\O,0,0.60779862
 ,-0.89898439,-0.54501517\H,0,-3.22747107,-0.94756169,1.08298917\H,0,-1
 .59347175,-1.57619578,0.88610612\H,0,-1.91995628,-0.33426294,2.1363340

 Normal termination of Gaussian 16 at Wed Apr  9 03:33:39 2025.
