 Gaussian 16, Revision C.01,

 ----------------------------------------------------------------------
 #t hf aug-cc-pvdz symm=none int=(grid=ultrafine) guess=(read,tcheck) s
 table=(opt,rrhf)
 ----------------------------------------------------------------------
 -----
 title
 -----
 Symbolic Z-matrix:
 Charge =  0 Multiplicity = 1

 SCF Done:  E(RHF) =  -260.576633682     A.U. after   16 cycles
 Normal termination of Gaussian 16 at Wed Apr  9 14:19:58 2025.
 Gaussian 16:  ES64L-G16RevC.01  3-Jul-2019

 ----------------------------------------------------------------------
 #t hf aug-cc-pvdz iop(5/13=1,5/36=2,99/5=2) pseudo=read geom=check gue
 ss=(read,tcheck) scf=(maxcycle=1)
 ----------------------------------------------------------------------
 -----
 title
 -----
 Structure from the checkpoint file:  "Grambow2020_wb97xd3_006039_reverse_mol2.chk"
 Charge =  0 Multiplicity = 1

                         Standard orientation:
 ---------------------------------------------------------------------
 Center     Atomic      Atomic             Coordinates (Angstroms)
 Number     Number       Type             X           Y           Z
 ---------------------------------------------------------------------
      1          8           0        2.205579    0.022408    0.000439
      2          6           0        0.918007    0.361819   -0.000513
      3          6           0       -0.069571   -0.546362   -0.000832
      4          7           0       -1.295947   -0.081131   -0.000187
      5          7           0       -2.388584    0.142083    0.000643
      6          1           0        0.797516    1.443239   -0.000485
      7          1           0        2.258953   -0.941910    0.001847
 ---------------------------------------------------------------------

 SCF Done:  E(RHF) =  -260.658973926     A.U. after    2 cycles

 The electronic state is 1-A.
 Alpha  occ. eigenvalues --  -20.62913 -15.83922 -15.76544 -11.35586 -11.25259
 Alpha  occ. eigenvalues --   -1.45775  -1.40205  -1.14129  -0.93761  -0.81084
 Alpha  occ. eigenvalues --   -0.70898  -0.68597  -0.68054  -0.65042  -0.61744
 Alpha  occ. eigenvalues --   -0.60019  -0.36434  -0.35835
 Alpha virt. eigenvalues --    0.03629   0.04596   0.06089   0.07173   0.09091
 Alpha virt. eigenvalues --    0.10153   0.10868   0.12336   0.12362   0.13195
 Alpha virt. eigenvalues --    0.14510   0.17039   0.18710   0.20336   0.21566

 Mulliken charges:
               1
     1  O   -0.421283
     2  C    0.725570
     3  C   -0.112575
     4  N    0.228221
     5  N   -0.321774
     6  H   -0.262501
     7  H    0.164342
 Sum of Mulliken charges =   0.00000

 Dipole moment (field-independent basis, Debye):
    X=             -0.1094    Y=              1.0027    Z=              0.0026  Tot=              1.0086

 Test job not archived.
 1\1\GINC-SE112\SP\RHF\Aug-CC-pVDZ\C2H2N2O1\OHZDE\09-Apr-2025\0\\#t hf
 aug-cc-pvdz iop(5/13=1,5/36=2,99/5=2) pseudo=read geom=check guess=(re
 ad,tcheck) scf=(maxcycle=1)\\title\\0,1\O,0,-0.88696668,1.35585412,-0.
 70027805\C,0,-0.37202044,0.5120527,0.19183926\C,0,0.42689133,-0.508568
 01,-0.15482475\N,0,0.86957098,-1.26595226,0.82028667\N,0,1.33025099,-2
 .00175765,1.52031782\H,0,-0.68630148,0.76881477,1.20143759\H,0,-0.5789
 9269,1.08777633,-1.57551954\\Version=ES64L-G16RevC.01\State=1-A\HF=-26
 0.6589739\RMSD=4.832e-03\Dipole=-0.1142848,0.094946,0.3679651\Quadrupo

 Normal termination of Gaussian 16 at Wed Apr  9 14:20:00 2025.
