 Gaussian 16, Revision C.01,

 ----------------------------------------------------------------------
 #t hf aug-cc-pvdz symm=none int=(grid=ultrafine) guess=(read,tcheck) s
 table=(opt,rrhf)
 ----------------------------------------------------------------------
 -----
 title
 -----
 Symbolic Z-matrix:
 Charge =  0 Multiplicity = 1

 SCF Done:  E(RHF) =  -270.843560083     A.U. after   12 cycles
 Normal termination of Gaussian 16 at Wed Apr  9 03:52:46 2025.
 Gaussian 16:  ES64L-G16RevC.01  3-Jul-2019

 ----------------------------------------------------------------------
 #t hf aug-cc-pvdz iop(5/13=1,5/36=2,99/5=2) pseudo=read geom=check gue
 ss=(read,tcheck) scf=(maxcycle=1)
 ----------------------------------------------------------------------
 -----
 title
 -----
 Structure from the checkpoint file:  "Grambow2020_wb97xd3_008381_forward_mol2.chk"
 Charge =  0 Multiplicity = 1

                         Standard orientation:
 ---------------------------------------------------------------------
 Center     Atomic      Atomic             Coordinates (Angstroms)
 Number     Number       Type             X           Y           Z
 ---------------------------------------------------------------------
      1          6           0       -2.135056    0.175463   -0.000332
      2          6           0       -0.634512    0.053237    0.000269
      3          6           0        0.148572   -0.787404   -1.056784
      4          6           0        1.280405   -0.648636   -0.000002
      5          6           0        0.149227   -0.786123    1.057800
      6          6           0        1.468164    0.868318   -0.001013
      7          6           0        0.221437    1.326254   -0.000463
      8          1           0       -2.485428    0.708331    0.886930
      9          1           0       -2.482974    0.722267   -0.880028
     10          1           0       -2.608514   -0.808490   -0.008478
     11          1           0        0.314383   -0.337019   -2.036248
     12          1           0       -0.231385   -1.808134   -1.151442
     13          1           0        2.160425   -1.287816   -0.000532
     14          1           0        0.314199   -0.334614    2.036808
     15          1           0       -0.229793   -1.807049    1.154246
     16          1           0        2.406617    1.403247   -0.000432
     17          1           0       -0.146949    2.342621    0.002325
 ---------------------------------------------------------------------

 SCF Done:  E(RHF) =  -270.923953249     A.U. after    2 cycles

 The electronic state is 1-A.
 Alpha  occ. eigenvalues --  -11.24556 -11.24010 -11.22884 -11.22874 -11.22843
 Alpha  occ. eigenvalues --  -11.22584 -11.22248  -1.18847  -0.99622  -0.97596
 Alpha  occ. eigenvalues --   -0.89245  -0.86092  -0.74350  -0.71422  -0.66298
 Alpha  occ. eigenvalues --   -0.63998  -0.57972  -0.56748  -0.55773  -0.54854
 Alpha  occ. eigenvalues --   -0.48295  -0.47071  -0.46531  -0.44778  -0.42404
 Alpha  occ. eigenvalues --   -0.32988
 Alpha virt. eigenvalues --    0.03477   0.03968   0.04372   0.04853   0.05941
 Alpha virt. eigenvalues --    0.06246   0.06800   0.07093   0.07473   0.08732
 Alpha virt. eigenvalues --    0.11955   0.12139   0.12823   0.13190   0.13614

 Mulliken charges:
               1
     1  C    1.050765
     2  C   -0.968262
     3  C    0.451918
     4  C    0.543319
     5  C    0.450261
     6  C    0.177925
     7  C    0.547442
     8  H    0.037757
     9  H    0.036156
    10  H   -0.024097
    11  H   -0.260416
    12  H   -0.284981
    13  H   -0.456298
    14  H   -0.259316
    15  H   -0.284078
    16  H   -0.343932
    17  H   -0.414161
 Sum of Mulliken charges =  -0.00000

 Dipole moment (field-independent basis, Debye):
    X=             -0.1872    Y=             -0.2705    Z=              0.0039  Tot=              0.3290

 Test job not archived.
 1\1\GINC-SE435\SP\RHF\Aug-CC-pVDZ\C7H10\OHZDE\09-Apr-2025\0\\#t hf aug
 -cc-pvdz iop(5/13=1,5/36=2,99/5=2) pseudo=read geom=check guess=(read,
 tcheck) scf=(maxcycle=1)\\title\\0,1\C,0,2.0015635,-0.04188028,0.03503
 847\C,0,0.4986546,0.04384625,0.01298663\C,0,-0.41163275,-0.76545613,0.
 98954467\C,0,-1.49375692,-0.38566909,-0.06015027\C,0,-0.37208605,-0.58
 963698,-1.11734658\C,0,-1.47284551,1.13738891,0.0673754\C,0,-0.1755256
 9,1.41802192,0.11470207\H,0,2.43806928,0.50912114,-0.80150408\H,0,2.40
 409822,0.37743008,0.96026808\H,0,2.3361541,-1.07887248,-0.03629728\H,0

 Normal termination of Gaussian 16 at Wed Apr  9 03:52:52 2025.
