 Gaussian 16, Revision C.01,

 ----------------------------------------------------------------------
 #t hf aug-cc-pvdz symm=none int=(grid=ultrafine) guess=(read,tcheck) s
 table=(opt,rrhf)
 ----------------------------------------------------------------------
 -----
 title
 -----
 Symbolic Z-matrix:
 Charge =  0 Multiplicity = 1

 SCF Done:  E(RHF) =  -269.586142311     A.U. after   14 cycles
 Normal termination of Gaussian 16 at Wed Apr  9 14:40:45 2025.
 Gaussian 16:  ES64L-G16RevC.01  3-Jul-2019

 ----------------------------------------------------------------------
 #t hf aug-cc-pvdz iop(5/13=1,5/36=2,99/5=2) pseudo=read geom=check gue
 ss=(read,tcheck) scf=(maxcycle=1)
 ----------------------------------------------------------------------
 -----
 title
 -----
 Structure from the checkpoint file:  "Grambow2020_wb97xd3_006589_reverse_mol2.chk"
 Charge =  0 Multiplicity = 1

                         Standard orientation:
 ---------------------------------------------------------------------
 Center     Atomic      Atomic             Coordinates (Angstroms)
 Number     Number       Type             X           Y           Z
 ---------------------------------------------------------------------
      1          6           0        1.987376   -0.739277   -0.389960
      2          6           0        0.875897   -0.158088    0.482615
      3          6           0        0.545456    1.350445    0.169155
      4          6           0       -0.927700    1.362738   -0.247161
      5          6           0       -1.427999    0.130951   -0.182141
      6          6           0       -0.436268   -0.834873    0.256796
      7          6           0       -1.637507   -1.270631   -0.007459
      8          1           0        1.724534   -0.659594   -1.446454
      9          1           0        2.913339   -0.185083   -0.229858
     10          1           0        2.169116   -1.789605   -0.158890
     11          1           0        1.152079   -0.282632    1.532485
     12          1           0        0.736843    1.977782    1.046508
     13          1           0        1.207408    1.722868   -0.622038
     14          1           0       -1.446546    2.262937   -0.545853
     15          1           0       -2.332308   -2.094265   -0.066967
 ---------------------------------------------------------------------

 SCF Done:  E(RHF) =  -269.668771238     A.U. after    2 cycles

 The electronic state is 1-A.
 Alpha  occ. eigenvalues --  -11.29869 -11.27468 -11.27343 -11.25074 -11.24030
 Alpha  occ. eigenvalues --  -11.23176 -11.20587  -1.21992  -1.07483  -0.99474
 Alpha  occ. eigenvalues --   -0.89133  -0.85006  -0.75593  -0.69709  -0.66754
 Alpha  occ. eigenvalues --   -0.61969  -0.58318  -0.56209  -0.54465  -0.52528
 Alpha  occ. eigenvalues --   -0.50897  -0.49140  -0.47170  -0.37948  -0.28297
 Alpha virt. eigenvalues --    0.03229   0.03840   0.04649   0.04900   0.06010
 Alpha virt. eigenvalues --    0.06967   0.07220   0.07539   0.09926   0.10304
 Alpha virt. eigenvalues --    0.11413   0.11984   0.13679   0.13933   0.14122

 Mulliken charges:
               1
     1  C    0.660850
     2  C   -0.846416
     3  C    0.759315
     4  C    1.135952
     5  C   -1.028221
     6  C   -0.163135
     7  C    0.630277
     8  H   -0.009672
     9  H   -0.049338
    10  H   -0.081871
    11  H    0.034085
    12  H   -0.065523
    13  H   -0.126055
    14  H   -0.398236
    15  H   -0.452013
 Sum of Mulliken charges =  -0.00000

 Dipole moment (field-independent basis, Debye):
    X=              1.3160    Y=             -1.5291    Z=              0.5177  Tot=              2.0828

 Test job not archived.
 1\1\GINC-SE226\SP\RHF\Aug-CC-pVDZ\C7H8\OHZDE\09-Apr-2025\0\\#t hf aug-
 cc-pvdz iop(5/13=1,5/36=2,99/5=2) pseudo=read geom=check guess=(read,t
 check) scf=(maxcycle=1)\\title\\0,1\C,0,-0.67341661,-1.67313238,-0.675
 34753\C,0,0.20442255,-0.76711856,0.18667773\C,0,1.12302294,0.20585584,
 -0.64555777\C,0,0.70789129,1.61626371,-0.21885567\C,0,-0.24716009,1.54
 80342,0.70583282\C,0,-0.59917057,0.17499147,1.02182804\C,0,-1.23080153
 ,1.12744776,1.65155799\H,0,-1.31206228,-1.07622856,-1.32914678\H,0,-0.
 04728618,-2.30838362,-1.30350964\H,0,-1.31010895,-2.31295217,-0.063085

 Normal termination of Gaussian 16 at Wed Apr  9 14:40:51 2025.
