 Gaussian 16, Revision C.01,

 ----------------------------------------------------------------------
 #t hf aug-cc-pvdz symm=none int=(grid=ultrafine) guess=(read,tcheck) s
 table=(opt,rrhf)
 ----------------------------------------------------------------------
 -----
 title
 -----
 Symbolic Z-matrix:
 Charge =  0 Multiplicity = 1

 SCF Done:  E(RHF) =  -322.575838006     A.U. after   15 cycles
 Normal termination of Gaussian 16 at Wed Apr  9 15:31:01 2025.
 Gaussian 16:  ES64L-G16RevC.01  3-Jul-2019

 ----------------------------------------------------------------------
 #t hf aug-cc-pvdz iop(5/13=1,5/36=2,99/5=2) pseudo=read geom=check gue
 ss=(read,tcheck) scf=(maxcycle=1)
 ----------------------------------------------------------------------
 -----
 title
 -----
 Structure from the checkpoint file:  "Grambow2020_wb97xd3_006939_forward_mol1.chk"
 Charge =  0 Multiplicity = 1

                         Standard orientation:
 ---------------------------------------------------------------------
 Center     Atomic      Atomic             Coordinates (Angstroms)
 Number     Number       Type             X           Y           Z
 ---------------------------------------------------------------------
      1          8           0       -2.036178   -0.508046   -0.316451
      2          6           0       -1.834321    0.729449   -0.259261
      3          7           0       -0.791180    1.142197    0.367974
      4          6           0       -0.259180   -0.904465    0.731265
      5          6           0        0.807330   -1.032447   -0.309573
      6          6           0        1.900725   -0.074518   -0.192060
      7          6           0        2.815782    0.688986   -0.084838
      8          1           0       -2.540092    1.409881   -0.749129
      9          1           0       -0.574887    2.130378    0.394848
     10          1           0       -0.876242   -1.783161    0.842186
     11          1           0        0.041578   -0.476380    1.674629
     12          1           0        1.212790   -2.048654   -0.222604
     13          1           0        0.356769   -0.978475   -1.302044
     14          1           0        3.625751    1.373371    0.004708
 ---------------------------------------------------------------------

 SCF Done:  E(RHF) =  -322.678091603     A.U. after    2 cycles

 The electronic state is 1-A.
 Alpha  occ. eigenvalues --  -20.52793 -15.58726 -11.36182 -11.32734 -11.28977
 Alpha  occ. eigenvalues --  -11.25471 -11.24226  -1.32641  -1.12378  -1.09869
 Alpha  occ. eigenvalues --   -1.01032  -0.89194  -0.77468  -0.73710  -0.71343
 Alpha  occ. eigenvalues --   -0.69194  -0.63835  -0.62361  -0.59985  -0.57245
 Alpha  occ. eigenvalues --   -0.55143  -0.43374  -0.41106  -0.40493  -0.40011
 Alpha  occ. eigenvalues --   -0.37060
 Alpha virt. eigenvalues --    0.03167   0.03626   0.04432   0.04868   0.06260
 Alpha virt. eigenvalues --    0.06648   0.07027   0.08354   0.10491   0.10788
 Alpha virt. eigenvalues --    0.11595   0.12216   0.13100   0.13505   0.14239

 Mulliken charges:
               1
     1  O   -0.610262
     2  C    0.610060
     3  N   -0.330716
     4  C    0.790370
     5  C    0.072608
     6  C   -0.476705
     7  C    0.968220
     8  H   -0.204766
     9  H   -0.078204
    10  H   -0.205300
    11  H   -0.157465
    12  H    0.087701
    13  H    0.063518
    14  H   -0.529059
 Sum of Mulliken charges =   0.00000

 Dipole moment (field-independent basis, Debye):
    X=              2.1594    Y=              0.3063    Z=              0.8328  Tot=              2.3346

 Test job not archived.
 1\1\GINC-SE057\SP\RHF\Aug-CC-pVDZ\C5H7N1O1\OHZDE\09-Apr-2025\0\\#t hf
 aug-cc-pvdz iop(5/13=1,5/36=2,99/5=2) pseudo=read geom=check guess=(re
 ad,tcheck) scf=(maxcycle=1)\\title\\0,1\O,0,-2.18587456,-0.47931476,-0
 .00415853\C,0,-2.01184685,0.61573116,0.58405766\N,0,-0.89491385,0.8033
 2442,1.19167366\C,0,-0.25602342,-1.12890681,0.51186943\C,0,0.6367823,-
 0.67620566,-0.59949322\C,0,1.70813778,0.22869834,-0.19912366\C,0,2.607
 20088,0.94807263,0.1263766\H,0,-2.80438232,1.37200473,0.55230084\H,0,-
 0.70450293,1.69142449,1.63779852\H,0,-0.82344037,-2.01949615,0.2881193

 Normal termination of Gaussian 16 at Wed Apr  9 15:31:05 2025.
