 Gaussian 16, Revision C.01,

 ----------------------------------------------------------------------
 #t hf aug-cc-pvdz symm=none int=(grid=ultrafine) guess=(read,tcheck) s
 table=(opt,rrhf)
 ----------------------------------------------------------------------
 -----
 title
 -----
 Symbolic Z-matrix:
 Charge =  0 Multiplicity = 1

 SCF Done:  E(RHF) =  -380.624440645     A.U. after   15 cycles
 Normal termination of Gaussian 16 at Wed Apr  9 16:31:07 2025.
 Gaussian 16:  ES64L-G16RevC.01  3-Jul-2019

 ----------------------------------------------------------------------
 #t hf aug-cc-pvdz iop(5/13=1,5/36=2,99/5=2) pseudo=read geom=check gue
 ss=(read,tcheck) scf=(maxcycle=1)
 ----------------------------------------------------------------------
 -----
 title
 -----
 Structure from the checkpoint file:  "Grambow2020_wb97xd3_008490_forward_mol1.chk"
 Charge =  0 Multiplicity = 1

                         Standard orientation:
 ---------------------------------------------------------------------
 Center     Atomic      Atomic             Coordinates (Angstroms)
 Number     Number       Type             X           Y           Z
 ---------------------------------------------------------------------
      1          6           0       -2.519946   -0.715428   -0.467019
      2          8           0       -1.538532   -0.572334    0.549231
      3          6           0       -0.461230    0.644982    0.241406
      4          8           0       -0.858496    1.578126   -0.347936
      5          6           0        0.672846   -0.086059    0.624254
      6          6           0        2.024390    0.316526    0.120764
      7          8           0        2.618810   -0.809110   -0.513023
      8          1           0       -2.071495   -1.072820   -1.398667
      9          1           0       -3.265549   -1.428398   -0.118880
     10          1           0       -2.987208    0.253627   -0.645785
     11          1           0        0.607622   -0.508077    1.623988
     12          1           0       -0.441494   -1.014938    0.330062
     13          1           0        1.914200    1.147352   -0.586522
     14          1           0        2.661380    0.662822    0.943831
     15          1           0        3.511931   -0.573152   -0.770636
 ---------------------------------------------------------------------

 SCF Done:  E(RHF) =  -380.746960066     A.U. after    2 cycles

 The electronic state is 1-A.
 Alpha  occ. eigenvalues --  -20.62035 -20.60095 -20.57055 -11.41959 -11.30266
 Alpha  occ. eigenvalues --  -11.29491 -11.22957  -1.42469  -1.35235  -1.32174
 Alpha  occ. eigenvalues --   -1.07094  -0.96102  -0.88768  -0.76209  -0.73343
 Alpha  occ. eigenvalues --   -0.71532  -0.70625  -0.67523  -0.66234  -0.61092
 Alpha  occ. eigenvalues --   -0.60213  -0.58272  -0.56240  -0.53169  -0.51593
 Alpha  occ. eigenvalues --   -0.47493  -0.45977  -0.35468
 Alpha virt. eigenvalues --    0.03375   0.04025   0.04795   0.05644   0.06236
 Alpha virt. eigenvalues --    0.06594   0.06793   0.09024   0.09769   0.12209
 Alpha virt. eigenvalues --    0.12482   0.13506   0.14425   0.14822   0.15387

 Mulliken charges:
               1
     1  C    0.772510
     2  O   -0.843104
     3  C    0.105870
     4  O   -0.370475
     5  C    0.254521
     6  C    0.696837
     7  O   -0.529101
     8  H   -0.133644
     9  H   -0.213935
    10  H   -0.093031
    11  H   -0.225495
    12  H    0.668711
    13  H   -0.147861
    14  H   -0.072422
    15  H    0.130618
 Sum of Mulliken charges =  -0.00000

 Dipole moment (field-independent basis, Debye):
    X=              0.3166    Y=             -0.7163    Z=              0.2071  Tot=              0.8100

 Test job not archived.
 1\1\GINC-SE100\SP\RHF\Aug-CC-pVDZ\C4H8O3\OHZDE\09-Apr-2025\0\\#t hf au
 g-cc-pvdz iop(5/13=1,5/36=2,99/5=2) pseudo=read geom=check guess=(read
 ,tcheck) scf=(maxcycle=1)\\title\\0,1\C,0,-2.57169484,-0.47353262,-0.0
 3109169\O,0,-1.55044239,0.27368492,0.61320769\C,0,-0.35972473,0.769226
 7,-0.42304746\O,0,-0.67322981,1.00608775,-1.52826804\C,0,0.70132393,0.
 44835219,0.43621818\C,0,2.07218076,0.22456703,-0.12317378\O,0,2.524313
 1,-1.05538572,0.30035174\H,0,-2.19203092,-1.43857542,-0.3794514\H,0,-3
 .37796303,-0.63020329,0.68363712\H,0,-2.93857525,0.09444017,-0.8867578

 Normal termination of Gaussian 16 at Wed Apr  9 16:31:12 2025.
