 Gaussian 16, Revision C.01,

 ----------------------------------------------------------------------
 #t hf aug-cc-pvdz symm=none int=(grid=ultrafine) guess=(read,tcheck) s
 table=(opt,rrhf)
 ----------------------------------------------------------------------
 -----
 title
 -----
 Symbolic Z-matrix:
 Charge =  0 Multiplicity = 1

 SCF Done:  E(RHF) =  -354.629415520     A.U. after   16 cycles
 Normal termination of Gaussian 16 at Wed Apr  9 15:42:43 2025.
 Gaussian 16:  ES64L-G16RevC.01  3-Jul-2019

 ----------------------------------------------------------------------
 #t hf aug-cc-pvdz iop(5/13=1,5/36=2,99/5=2) pseudo=read geom=check gue
 ss=(read,tcheck) scf=(maxcycle=1)
 ----------------------------------------------------------------------
 -----
 title
 -----
 Structure from the checkpoint file:  "Grambow2020_wb97xd3_007315_reverse_mol2.chk"
 Charge =  0 Multiplicity = 1

                         Standard orientation:
 ---------------------------------------------------------------------
 Center     Atomic      Atomic             Coordinates (Angstroms)
 Number     Number       Type             X           Y           Z
 ---------------------------------------------------------------------
      1          8           0       -1.902281    0.222792    0.688372
      2          6           0       -1.673380   -0.673252   -0.359464
      3          6           0       -0.291732   -1.200491   -0.433336
      4          7           0        0.804087   -1.194961   -0.032533
      5          7           0        2.028897   -1.091275    0.216831
      6          6           0        1.200088    1.776586   -0.125277
      7          7           0        0.181789    2.297720   -0.156410
      8          1           0       -1.427712    1.043846    0.506192
      9          1           0       -1.898591   -0.238401   -1.339863
     10          1           0       -2.349706   -1.517687   -0.221380
     11          1           0        2.274016   -1.764842    0.938512
     12          1           0        2.106963    1.197304   -0.077188
 ---------------------------------------------------------------------

 SCF Done:  E(RHF) =  -354.739837643     A.U. after    2 cycles

 The electronic state is 1-A.
 Alpha  occ. eigenvalues --  -20.59081 -15.78028 -15.66498 -15.64695 -11.34869
 Alpha  occ. eigenvalues --  -11.31672 -11.30924  -1.35665  -1.34040  -1.21984
 Alpha  occ. eigenvalues --   -1.14172  -0.99299  -0.80208  -0.77212  -0.75598
 Alpha  occ. eigenvalues --   -0.69973  -0.66640  -0.63126  -0.60681  -0.58430
 Alpha  occ. eigenvalues --   -0.55295  -0.51039  -0.50388  -0.50172  -0.41407
 Alpha  occ. eigenvalues --   -0.34280
 Alpha virt. eigenvalues --    0.03149   0.03883   0.04405   0.05684   0.06419
 Alpha virt. eigenvalues --    0.08153   0.09954   0.10524   0.11394   0.11944
 Alpha virt. eigenvalues --    0.12751   0.13100   0.13817   0.14554   0.15936

 Mulliken charges:
               1
     1  O   -0.476740
     2  C    0.824695
     3  C   -0.473668
     4  N    0.090413
     5  N   -0.167186
     6  C    0.240028
     7  N   -0.280101
     8  H    0.171057
     9  H    0.032905
    10  H   -0.031320
    11  H    0.026675
    12  H    0.043243
 Sum of Mulliken charges =  -0.00000

 Dipole moment (field-independent basis, Debye):
    X=              0.4611    Y=             -1.6762    Z=             -0.5592  Tot=              1.8262

 Test job not archived.
 1\1\GINC-SE129\SP\RHF\Aug-CC-pVDZ\C3H5N3O1\OHZDE\09-Apr-2025\0\\#t hf
 aug-cc-pvdz iop(5/13=1,5/36=2,99/5=2) pseudo=read geom=check guess=(re
 ad,tcheck) scf=(maxcycle=1)\\title\\0,1\O,0,-1.75051458,0.04904048,-1.
 12437167\C,0,-1.67912485,0.33631539,0.24150783\C,0,-0.35579661,0.81041
 29,0.706722\N,0,0.76472065,1.03697236,0.47304427\N,0,2.00965237,1.1090
 924,0.33874637\C,0,1.39643067,-1.59534345,-0.81821998\N,0,0.42537159,-
 2.10205576,-1.1495356\H,0,-1.22543906,-0.74102868,-1.304985\H,0,-1.943
 64876,-0.52484099,0.86555497\H,0,-2.41002886,1.11856591,0.44987798\H,0

 Normal termination of Gaussian 16 at Wed Apr  9 15:42:47 2025.
