 Gaussian 16, Revision C.01,

 ----------------------------------------------------------------------
 #t hf aug-cc-pvdz symm=none int=(grid=ultrafine) guess=(read,tcheck) s
 table=(opt,rrhf)
 ----------------------------------------------------------------------
 -----
 title
 -----
 Symbolic Z-matrix:
 Charge =  0 Multiplicity = 1

 SCF Done:  E(RHF) =  -322.722800080     A.U. after   14 cycles
 Normal termination of Gaussian 16 at Wed Apr  9 16:26:01 2025.
 Gaussian 16:  ES64L-G16RevC.01  3-Jul-2019

 ----------------------------------------------------------------------
 #t hf aug-cc-pvdz iop(5/13=1,5/36=2,99/5=2) pseudo=read geom=check gue
 ss=(read,tcheck) scf=(maxcycle=1)
 ----------------------------------------------------------------------
 -----
 title
 -----
 Structure from the checkpoint file:  "Grambow2020_wb97xd3_008256_reverse_mol2.chk"
 Charge =  0 Multiplicity = 1

                         Standard orientation:
 ---------------------------------------------------------------------
 Center     Atomic      Atomic             Coordinates (Angstroms)
 Number     Number       Type             X           Y           Z
 ---------------------------------------------------------------------
      1          6           0        0.782897    1.844275   -0.001172
      2          6           0        0.660528    0.511349   -0.000607
      3          7           0       -0.475331   -0.253007   -0.001476
      4          6           0       -1.773628    0.214356    0.002192
      5          6           0       -2.861614   -0.548775   -0.000816
      6          6           0        1.907622   -0.296099    0.000947
      7          8           0        1.910840   -1.499350    0.000849
      8          1           0        2.843925    0.289888    0.002198
      9          1           0       -0.054146    2.527830   -0.004214
     10          1           0        1.774427    2.275281   -0.000703
     11          1           0       -0.309357   -1.248166   -0.004648
     12          1           0       -1.861593    1.293846    0.009629
     13          1           0       -2.807389   -1.630973   -0.007638
     14          1           0       -3.840097   -0.092500    0.005652
 ---------------------------------------------------------------------

 SCF Done:  E(RHF) =  -322.824670807     A.U. after    2 cycles

 The electronic state is 1-A.
 Alpha  occ. eigenvalues --  -20.59111 -15.65774 -11.36151 -11.31173 -11.29450
 Alpha  occ. eigenvalues --  -11.25394 -11.22718  -1.38402  -1.24460  -1.07911
 Alpha  occ. eigenvalues --   -1.00218  -0.89766  -0.82663  -0.78877  -0.71575
 Alpha  occ. eigenvalues --   -0.70050  -0.66535  -0.62248  -0.59770  -0.59621
 Alpha  occ. eigenvalues --   -0.58334  -0.53770  -0.53398  -0.46289  -0.40239
 Alpha  occ. eigenvalues --   -0.30590
 Alpha virt. eigenvalues --    0.03116   0.03889   0.04355   0.05938   0.06295
 Alpha virt. eigenvalues --    0.06518   0.08513   0.08902   0.09045   0.10831
 Alpha virt. eigenvalues --    0.11489   0.12884   0.13248   0.13974   0.14652

 Mulliken charges:
               1
     1  C    0.948405
     2  C    0.295857
     3  N   -0.422882
     4  C    0.439141
     5  C    0.855550
     6  C    0.675260
     7  O   -0.496883
     8  H   -0.237958
     9  H   -0.425262
    10  H   -0.361399
    11  H   -0.080632
    12  H   -0.522360
    13  H   -0.392071
    14  H   -0.274766
 Sum of Mulliken charges =  -0.00000

 Dipole moment (field-independent basis, Debye):
    X=             -0.1606    Y=              2.5341    Z=              0.0002  Tot=              2.5392

 Test job not archived.
 1\1\GINC-SE131\SP\RHF\Aug-CC-pVDZ\C5H7N1O1\OHZDE\09-Apr-2025\0\\#t hf
 aug-cc-pvdz iop(5/13=1,5/36=2,99/5=2) pseudo=read geom=check guess=(re
 ad,tcheck) scf=(maxcycle=1)\\title\\0,1\C,0,-1.82572319,0.11199316,0.5
 7439899\C,0,-0.90207079,-0.1815409,-0.34884036\N,0,0.46054477,-0.07098
 971,-0.2748522\C,0,1.18467949,0.38791609,0.80637486\C,0,2.50924115,0.4
 8419291,0.8549447\C,0,-1.37521641,-0.70535009,-1.65611781\O,0,-0.63023
 587,-1.00076244,-2.55364718\H,0,-2.47108322,-0.80676875,-1.75011229\H,
 0,-1.59600151,0.49635987,1.55795748\H,0,-2.86843011,-0.0425935,0.33405

 Normal termination of Gaussian 16 at Wed Apr  9 16:26:05 2025.
