 Gaussian 16, Revision C.01,

 ----------------------------------------------------------------------
 #t hf aug-cc-pvdz symm=none int=(grid=ultrafine) guess=(read,tcheck) s
 table=(opt,rrhf)
 ----------------------------------------------------------------------
 -----
 title
 -----
 Symbolic Z-matrix:
 Charge =  0 Multiplicity = 1

 SCF Done:  E(RHF) =  -322.555893393     A.U. after   16 cycles
 Normal termination of Gaussian 16 at Wed Apr  9 14:28:49 2025.
 Gaussian 16:  ES64L-G16RevC.01  3-Jul-2019

 ----------------------------------------------------------------------
 #t hf aug-cc-pvdz iop(5/13=1,5/36=2,99/5=2) pseudo=read geom=check gue
 ss=(read,tcheck) scf=(maxcycle=1)
 ----------------------------------------------------------------------
 -----
 title
 -----
 Structure from the checkpoint file:  "Grambow2020_wb97xd3_006558_reverse_mol2.chk"
 Charge =  0 Multiplicity = 1

                         Standard orientation:
 ---------------------------------------------------------------------
 Center     Atomic      Atomic             Coordinates (Angstroms)
 Number     Number       Type             X           Y           Z
 ---------------------------------------------------------------------
      1          8           0       -1.719294   -0.648955   -0.571689
      2          6           0       -1.093673    0.174340    0.373720
      3          6           0        0.290940   -0.293333    0.960468
      4          6           0        0.847550   -1.377252    0.095505
      5          6           0        1.503753   -0.246554   -0.627850
      6          7           0        0.981184    0.844616    0.235288
      7          6           0       -0.331124    1.333468   -0.268144
      8          1           0       -1.961893   -1.483019   -0.163156
      9          1           0       -1.783599    0.463758    1.171476
     10          1           0        0.342206   -0.373455    2.047226
     11          1           0       -0.416153    1.377622   -1.355333
     12          1           0        2.575951   -0.396355   -0.414735
     13          1           0        1.399369   -0.162313   -1.712842
     14          1           0       -0.574497    2.309075    0.151669
 ---------------------------------------------------------------------

 SCF Done:  E(RHF) =  -322.648657872     A.U. after    2 cycles

 The electronic state is 1-A.
 Alpha  occ. eigenvalues --  -20.59395 -15.62052 -11.31992 -11.27884 -11.27688
 Alpha  occ. eigenvalues --  -11.27552 -11.26988  -1.35518  -1.26131  -1.04342
 Alpha  occ. eigenvalues --   -0.96839  -0.89493  -0.81416  -0.75190  -0.69811
 Alpha  occ. eigenvalues --   -0.68983  -0.64823  -0.60829  -0.59892  -0.54578
 Alpha  occ. eigenvalues --   -0.53878  -0.50873  -0.47562  -0.44381  -0.40512
 Alpha  occ. eigenvalues --   -0.34363
 Alpha virt. eigenvalues --    0.02960   0.04219   0.04384   0.04694   0.06310
 Alpha virt. eigenvalues --    0.06642   0.07253   0.07798   0.09227   0.10968
 Alpha virt. eigenvalues --    0.11952   0.12346   0.13328   0.13989   0.14632

 Mulliken charges:
               1
     1  O   -0.570732
     2  C    0.639492
     3  C    0.731460
     4  C   -0.446229
     5  C    0.841349
     6  N   -1.040396
     7  C    0.805840
     8  H    0.151480
     9  H   -0.179444
    10  H   -0.285625
    11  H   -0.141909
    12  H   -0.083766
    13  H   -0.191480
    14  H   -0.230041
 Sum of Mulliken charges =  -0.00000

 Dipole moment (field-independent basis, Debye):
    X=             -1.0144    Y=              0.8883    Z=              0.8971  Tot=              1.6195

 Test job not archived.
 1\1\GINC-SE114\SP\RHF\Aug-CC-pVDZ\C5H7N1O1\OHZDE\09-Apr-2025\0\\#t hf
 aug-cc-pvdz iop(5/13=1,5/36=2,99/5=2) pseudo=read geom=check guess=(re
 ad,tcheck) scf=(maxcycle=1)\\title\\0,1\O,0,1.7295945,-0.31713501,0.86
 913173\C,0,1.10451935,0.31825736,-0.21187383\C,0,-0.0248071,-0.4670357
 8,-0.97873721\C,0,-0.46481742,-1.62753409,-0.14657636\C,0,-1.46575103,
 -0.65859141,0.39343042\N,0,-1.06035653,0.50125138,-0.44272575\C,0,0.00
 872528,1.28861998,0.2293525\H,0,2.21503792,-1.08381106,0.5561322\H,0,1
 .83679846,0.73745803,-0.90772767\H,0,0.12505963,-0.58360521,-2.0530006

 Normal termination of Gaussian 16 at Wed Apr  9 14:28:54 2025.
