 Gaussian 16, Revision C.01,

 ----------------------------------------------------------------------
 #t hf aug-cc-pvdz symm=none int=(grid=ultrafine) guess=(read,tcheck) s
 table=(opt,rrhf)
 ----------------------------------------------------------------------
 -----
 title
 -----
 Symbolic Z-matrix:
 Charge =  0 Multiplicity = 1

 SCF Done:  E(RHF) =  -359.691905080     A.U. after   14 cycles
 Normal termination of Gaussian 16 at Wed Apr  9 15:40:55 2025.
 Gaussian 16:  ES64L-G16RevC.01  3-Jul-2019

 ----------------------------------------------------------------------
 #t hf aug-cc-pvdz iop(5/13=1,5/36=2,99/5=2) pseudo=read geom=check gue
 ss=(read,tcheck) scf=(maxcycle=1)
 ----------------------------------------------------------------------
 -----
 title
 -----
 Structure from the checkpoint file:  "Grambow2020_wb97xd3_007286_reverse_mol2.chk"
 Charge =  0 Multiplicity = 1

                         Standard orientation:
 ---------------------------------------------------------------------
 Center     Atomic      Atomic             Coordinates (Angstroms)
 Number     Number       Type             X           Y           Z
 ---------------------------------------------------------------------
      1          8           0        3.144779   -0.291532   -0.405949
      2          6           0       -0.166911   -0.754409    0.234340
      3          6           0        0.422091    0.120528    1.278134
      4          7           0        0.458905    0.581112   -0.094647
      5          6           0       -0.888680    1.165615   -0.365443
      6          6           0       -1.513334   -0.215751   -0.134082
      7          8           0       -2.579536   -0.698435   -0.351623
      8          1           0        3.535745   -0.451309   -1.264697
      9          1           0        0.271624   -1.702564   -0.046294
     10          1           0       -0.223412    0.633682    1.983465
     11          1           0        1.387628   -0.187631    1.659641
     12          1           0        2.328892    0.206325   -0.571329
     13          1           0       -0.986530    1.468163   -1.408003
     14          1           0       -1.167215    1.989379    0.292640
 ---------------------------------------------------------------------

 SCF Done:  E(RHF) =  -359.801091580     A.U. after    2 cycles

 The electronic state is 1-A.
 Alpha  occ. eigenvalues --  -20.58619 -20.55818 -15.66883 -11.36584 -11.30303
 Alpha  occ. eigenvalues --  -11.30091 -11.29871  -1.38568  -1.31433  -1.29282
 Alpha  occ. eigenvalues --   -1.02315  -0.93574  -0.86228  -0.76465  -0.72875
 Alpha  occ. eigenvalues --   -0.70262  -0.68694  -0.66940  -0.61118  -0.59303
 Alpha  occ. eigenvalues --   -0.58359  -0.56336  -0.51368  -0.51056  -0.47826
 Alpha  occ. eigenvalues --   -0.44895  -0.41091
 Alpha virt. eigenvalues --    0.03273   0.03593   0.04067   0.05209   0.06526
 Alpha virt. eigenvalues --    0.07077   0.08073   0.09865   0.10517   0.11551
 Alpha virt. eigenvalues --    0.11773   0.13020   0.13568   0.14430   0.14488

 Mulliken charges:
               1
     1  O   -0.318705
     2  C    0.627884
     3  C    0.997957
     4  N   -0.766297
     5  C    0.662270
     6  C   -0.018162
     7  O   -0.392286
     8  H    0.154423
     9  H   -0.273196
    10  H   -0.320212
    11  H   -0.251448
    12  H    0.192403
    13  H   -0.166170
    14  H   -0.128461
 Sum of Mulliken charges =   0.00000

 Dipole moment (field-independent basis, Debye):
    X=              0.7978    Y=              1.6351    Z=              0.0115  Tot=              1.8194

 Test job not archived.
 1\1\GINC-SE097\SP\RHF\Aug-CC-pVDZ\C4H7N1O2\OHZDE\09-Apr-2025\0\\#t hf
 aug-cc-pvdz iop(5/13=1,5/36=2,99/5=2) pseudo=read geom=check guess=(re
 ad,tcheck) scf=(maxcycle=1)\\title\\0,1\O,0,2.27096892,0.91573821,-1.8
 8538308\C,0,0.38899511,-0.25409323,0.69941629\C,0,-0.09424923,1.092051
 71,0.30405055\N,0,-0.14772813,0.03382012,-0.68352579\C,0,-1.38771939,-
 0.74276166,-0.38302187\C,0,-0.79697324,-1.12198263,0.98046756\O,0,-1.0
 7094358,-1.92362845,1.81676759\H,0,2.80597841,0.34672606,-2.43839407\H
 ,0,1.43088895,-0.46252556,0.90209553\H,0,-1.02516639,1.47491721,0.7093

 Normal termination of Gaussian 16 at Wed Apr  9 15:41:00 2025.
