 Gaussian 16, Revision C.01,

 ----------------------------------------------------------------------
 #t hf aug-cc-pvdz symm=none int=(grid=ultrafine) guess=(read,tcheck) s
 table=(opt,rrhf)
 ----------------------------------------------------------------------
 -----
 title
 -----
 Symbolic Z-matrix:
 Charge =  0 Multiplicity = 1

 SCF Done:  E(RHF) =  -346.088315080     A.U. after   15 cycles

 1\1\GINC-SE131\Stability\RHF\Aug-CC-pVDZ\C5H12O2\OHZDE\09-Apr-2025\0\\
 #t hf aug-cc-pvdz symm=none int=(grid=ultrafine) guess=(read,tcheck) s
 table=(opt,rrhf)\\title\\0,1\C,0,2.55854463,0.1279901,0.87458352\C,0,1
 .20964407,0.62435828,1.37378058\C,0,0.0586692,0.13761804,0.49345942\O,
 0,-0.00580257,-1.25860355,0.46073618\C,0,-1.25138527,0.71306178,0.9668
 8967\C,0,-1.90180979,-0.60803611,-2.49911851\O,0,-2.18636358,0.0186269
 6,1.26534483\H,0,2.57338771,-0.96122319,0.83339482\H,0,2.76918437,0.50
 624972,-0.12862739\H,0,3.36298853,0.45645607,1.53399413\H,0,1.0323665,

 Normal termination of Gaussian 16 at Wed Apr  9 16:18:24 2025.
 Gaussian 16:  ES64L-G16RevC.01  3-Jul-2019

 ----------------------------------------------------------------------
 #t hf aug-cc-pvdz iop(5/13=1,5/36=2,99/5=2) pseudo=read geom=check gue
 ss=(read,tcheck) scf=(maxcycle=1)
 ----------------------------------------------------------------------
 -----
 title
 -----
 Structure from the checkpoint file:  "Grambow2020_wb97xd3_008068_reverse_mol2.chk"
 Charge =  0 Multiplicity = 1

                         Standard orientation:
 ---------------------------------------------------------------------
 Center     Atomic      Atomic             Coordinates (Angstroms)
 Number     Number       Type             X           Y           Z
 ---------------------------------------------------------------------
      1          6           0        2.624196   -1.057253   -0.089163
      2          6           0        1.849929    0.223745   -0.362417
      3          6           0        0.348183    0.043555   -0.141248
      4          8           0        0.066042   -0.331960    1.175584
      5          6           0       -0.395806    1.304561   -0.498820
      6          6           0       -3.001255   -1.408048   -0.311877
      7          8           0       -1.115089    1.868229    0.282468
      8          1           0        2.449655   -1.398826    0.931212
      9          1           0        2.315719   -1.854940   -0.769176
     10          1           0        3.695796   -0.900040   -0.218774
     11          1           0        2.199332    1.023548    0.297386
     12          1           0        2.018392    0.555821   -1.392309
     13          1           0       -0.016349   -0.731288   -0.837363
     14          1           0       -0.564321    0.316416    1.517829
     15          1           0       -0.245442    1.691885   -1.524414
     16          1           0       -2.160813   -1.636940    0.342540
     17          1           0       -3.877147   -1.969647    0.009090
     18          1           0       -2.755806   -1.683921   -1.337196
     19          1           0       -3.218122   -0.341582   -0.262086
 ---------------------------------------------------------------------

 SCF Done:  E(RHF) =  -346.202424011     A.U. after    2 cycles

 The electronic state is 1-A.
 Alpha  occ. eigenvalues --  -20.59458 -20.57621 -11.35814 -11.30871 -11.24966
 Alpha  occ. eigenvalues --  -11.23083 -11.21522  -1.39215  -1.33255  -1.07046
 Alpha  occ. eigenvalues --   -0.97014  -0.93760  -0.84581  -0.80763  -0.74617
 Alpha  occ. eigenvalues --   -0.70425  -0.66466  -0.62451  -0.59722  -0.57441
 Alpha  occ. eigenvalues --   -0.55965  -0.54688  -0.54449  -0.54215  -0.53481
 Alpha  occ. eigenvalues --   -0.52451  -0.50113  -0.45912  -0.44866
 Alpha virt. eigenvalues --    0.03009   0.04116   0.04357   0.04805   0.05971
 Alpha virt. eigenvalues --    0.06409   0.06602   0.07474   0.07699   0.08928
 Alpha virt. eigenvalues --    0.09168   0.09453   0.10825   0.12191   0.13482

 Mulliken charges:
               1
     1  C    0.439879
     2  C    0.218347
     3  C    0.029360
     4  O   -0.618549
     5  C    0.840510
     6  C    0.730921
     7  O   -0.506034
     8  H   -0.030044
     9  H   -0.065744
    10  H   -0.049268
    11  H   -0.071913
    12  H   -0.063648
    13  H   -0.133496
    14  H    0.189838
    15  H   -0.180988
    16  H   -0.236222
    17  H   -0.204416
    18  H   -0.139728
    19  H   -0.148804
 Sum of Mulliken charges =  -0.00000

 Dipole moment (field-independent basis, Debye):
    X=              1.5823    Y=             -0.2912    Z=             -2.5471  Tot=              3.0127

 Test job not archived.
 1\1\GINC-SE131\SP\RHF\Aug-CC-pVDZ\C5H12O2\OHZDE\09-Apr-2025\0\\#t hf a
 ug-cc-pvdz iop(5/13=1,5/36=2,99/5=2) pseudo=read geom=check guess=(rea
 d,tcheck) scf=(maxcycle=1)\\title\\0,1\C,0,2.55854463,0.1279901,0.8745
 8352\C,0,1.20964407,0.62435828,1.37378058\C,0,0.0586692,0.13761804,0.4
 9345942\O,0,-0.00580257,-1.25860355,0.46073618\C,0,-1.25138527,0.71306
 178,0.96688967\C,0,-1.90180979,-0.60803611,-2.49911851\O,0,-2.18636358
 ,0.01862696,1.26534483\H,0,2.57338771,-0.96122319,0.83339482\H,0,2.769
 18437,0.50624972,-0.12862739\H,0,3.36298853,0.45645607,1.53399413\H,0,

 Normal termination of Gaussian 16 at Wed Apr  9 16:18:31 2025.
