 Gaussian 16, Revision C.01,

 ----------------------------------------------------------------------
 #t hf aug-cc-pvdz symm=none int=(grid=ultrafine) guess=(read,tcheck) s
 table=(opt,rrhf)
 ----------------------------------------------------------------------
 -----
 title
 -----
 Symbolic Z-matrix:
 Charge =  0 Multiplicity = 1

 SCF Done:  E(RHF) =  -373.404056388     A.U. after   15 cycles
 Normal termination of Gaussian 16 at Wed Apr  9 04:04:26 2025.
 Gaussian 16:  ES64L-G16RevC.01  3-Jul-2019

 ----------------------------------------------------------------------
 #t hf aug-cc-pvdz iop(5/13=1,5/36=2,99/5=2) pseudo=read geom=check gue
 ss=(read,tcheck) scf=(maxcycle=1)
 ----------------------------------------------------------------------
 -----
 title
 -----
 Structure from the checkpoint file:  "Grambow2020_wb97xd3_009224_reverse_mol2.chk"
 Charge =  0 Multiplicity = 1

                         Standard orientation:
 ---------------------------------------------------------------------
 Center     Atomic      Atomic             Coordinates (Angstroms)
 Number     Number       Type             X           Y           Z
 ---------------------------------------------------------------------
      1          7           0        1.509787   -0.504398    0.728048
      2          6           0        2.378336   -0.009265    0.056696
      3          8           0        3.280494    0.487490   -0.482404
      4          6           0       -2.162186   -0.630835   -0.216683
      5          8           0       -1.260287   -1.405863   -0.151677
      6          6           0       -1.911501    1.893117    0.167011
      7          7           0       -1.999409    0.736853   -0.003003
      8          1           0        0.635072   -0.890714    0.403564
      9          1           0       -3.197272   -0.907585   -0.448377
 ---------------------------------------------------------------------

 SCF Done:  E(RHF) =  -373.524087514     A.U. after    2 cycles

 The electronic state is 1-A.
 Alpha  occ. eigenvalues --  -20.64720 -20.62240 -15.71218 -15.64011 -11.46195
 Alpha  occ. eigenvalues --  -11.41385 -11.35903  -1.45386  -1.42991  -1.28920
 Alpha  occ. eigenvalues --   -1.21821  -1.01917  -0.83241  -0.79539  -0.75158
 Alpha  occ. eigenvalues --   -0.72892  -0.66096  -0.65780  -0.64575  -0.56386
 Alpha  occ. eigenvalues --   -0.55003  -0.53927  -0.52128  -0.46827  -0.44010
 Alpha virt. eigenvalues --    0.02089   0.03097   0.05211   0.05800   0.06908
 Alpha virt. eigenvalues --    0.08527   0.09446   0.10181   0.10701   0.11712
 Alpha virt. eigenvalues --    0.12710   0.14043   0.14268   0.14749   0.15787

 Mulliken charges:
               1
     1  N    0.144949
     2  C   -0.036729
     3  O   -0.190195
     4  C    0.834964
     5  O   -0.307763
     6  C   -0.175884
     7  N   -0.215200
     8  H    0.098600
     9  H   -0.152742
 Sum of Mulliken charges =  -0.00000

 Dipole moment (field-independent basis, Debye):
    X=             -5.5126    Y=             -1.3902    Z=             -0.7785  Tot=              5.7382

 Test job not archived.
 1\1\GINC-SE097\SP\RHF\Aug-CC-pVDZ\C3H2N2O2\OHZDE\09-Apr-2025\0\\#t hf
 aug-cc-pvdz iop(5/13=1,5/36=2,99/5=2) pseudo=read geom=check guess=(re
 ad,tcheck) scf=(maxcycle=1)\\title\\0,1\N,0,-1.44041301,-1.32369732,-0
 .08732247\C,0,-1.65410662,-1.81832571,0.98967659\O,0,-1.98307455,-2.30
 127728,1.99457442\C,0,1.44369191,1.01232298,-0.87271609\O,0,1.15605187
 ,-0.1170314,-1.11795036\C,0,0.0788707,2.53296136,0.67819378\N,0,0.6841
 4621,1.81829898,-0.02641869\H,0,-0.54906785,-1.0195235,-0.45151976\H,0
 ,2.32184134,1.5270549,-1.27963043\\Version=ES64L-G16RevC.01\State=1-A\

 Normal termination of Gaussian 16 at Wed Apr  9 04:04:29 2025.
