 Gaussian 16, Revision C.01,

 ----------------------------------------------------------------------
 #t hf aug-cc-pvdz symm=none int=(grid=ultrafine) guess=(read,tcheck) s
 table=(opt,rrhf)
 ----------------------------------------------------------------------
 -----
 title
 -----
 Symbolic Z-matrix:
 Charge =  0 Multiplicity = 1

 SCF Done:  E(RHF) =  -286.735523616     A.U. after   16 cycles
 Normal termination of Gaussian 16 at Wed Apr  9 16:33:18 2025.
 Gaussian 16:  ES64L-G16RevC.01  3-Jul-2019

 ----------------------------------------------------------------------
 #t hf aug-cc-pvdz iop(5/13=1,5/36=2,99/5=2) pseudo=read geom=check gue
 ss=(read,tcheck) scf=(maxcycle=1)
 ----------------------------------------------------------------------
 -----
 title
 -----
 Structure from the checkpoint file:  "Grambow2020_wb97xd3_008575_forward_mol1.chk"
 Charge =  0 Multiplicity = 1

                         Standard orientation:
 ---------------------------------------------------------------------
 Center     Atomic      Atomic             Coordinates (Angstroms)
 Number     Number       Type             X           Y           Z
 ---------------------------------------------------------------------
      1          6           0       -2.254803   -0.557454    0.070927
      2          6           0       -0.877813   -0.031146   -0.134497
      3          6           0        0.296133   -0.642023   -0.644903
      4          6           0        1.423742    0.289198   -0.624880
      5          6           0        1.514783   -1.218064    0.584783
      6          6           0        0.851967    1.394390    0.025664
      7          7           0       -0.476216    1.184276    0.259901
      8          1           0       -3.004042    0.235450    0.021917
      9          1           0       -2.498116   -1.288568   -0.700516
     10          1           0       -2.362347   -1.057371    1.039913
     11          1           0        0.255196   -1.540783   -1.247316
     12          1           0        2.130071   -0.605744    1.228719
     13          1           0        2.131734   -1.922674    0.042493
     14          1           0        0.772271   -1.738096    1.193103
     15          1           0        1.284264    2.352686    0.272791
     16          1           0       -1.099573    1.865759    0.667020
 ---------------------------------------------------------------------

 SCF Done:  E(RHF) =  -286.821379663     A.U. after    2 cycles

 The electronic state is 1-A.
 Alpha  occ. eigenvalues --  -15.70634 -11.27463 -11.27383 -11.25539 -11.24400
 Alpha  occ. eigenvalues --  -11.23519 -11.18441  -1.28398  -1.06286  -1.03273
 Alpha  occ. eigenvalues --   -0.92103  -0.91359  -0.79211  -0.75665  -0.69179
 Alpha  occ. eigenvalues --   -0.62651  -0.61367  -0.58557  -0.56835  -0.56244
 Alpha  occ. eigenvalues --   -0.54904  -0.53765  -0.51142  -0.40057  -0.30935
 Alpha  occ. eigenvalues --   -0.26412
 Alpha virt. eigenvalues --    0.02431   0.03610   0.04080   0.04773   0.06031
 Alpha virt. eigenvalues --    0.06354   0.07418   0.07870   0.08462   0.09574
 Alpha virt. eigenvalues --    0.11521   0.12460   0.12711   0.13011   0.13249

 Mulliken charges:
               1
     1  C    0.661550
     2  C   -0.236563
     3  C    0.381104
     4  C   -0.803216
     5  C    0.478663
     6  C    0.959878
     7  N   -0.383451
     8  H   -0.120592
     9  H    0.015440
    10  H    0.073736
    11  H   -0.329694
    12  H   -0.081052
    13  H   -0.072209
    14  H   -0.103637
    15  H   -0.340593
    16  H   -0.099362
 Sum of Mulliken charges =  -0.00000

 Dipole moment (field-independent basis, Debye):
    X=             -4.2657    Y=             -0.4233    Z=              2.7528  Tot=              5.0944

 Test job not archived.
 1\1\GINC-SE041\SP\RHF\Aug-CC-pVDZ\C6H9N1\OHZDE\09-Apr-2025\0\\#t hf au
 g-cc-pvdz iop(5/13=1,5/36=2,99/5=2) pseudo=read geom=check guess=(read
 ,tcheck) scf=(maxcycle=1)\\title\\0,1\C,0,2.05438308,-0.53467595,-0.24
 703558\C,0,0.76316295,0.01554196,0.24825523\C,0,-0.44124458,-0.6215342
 2,0.64242316\C,0,-1.45151614,0.36122465,1.0330786\C,0,-1.7906035,-0.64
 306148,-0.58551325\C,0,-0.79475423,1.56337891,0.7247394\N,0,0.48327837
 ,1.32397244,0.30952772\H,0,2.8926868,0.12559204,-0.0151952\H,0,2.25661
 05,-1.49958583,0.21869652\H,0,2.04429994,-0.69136472,-1.33136235\H,0,-

 Normal termination of Gaussian 16 at Wed Apr  9 16:33:24 2025.
