 Gaussian 16, Revision C.01,

 ----------------------------------------------------------------------
 #t hf aug-cc-pvdz symm=none int=(grid=ultrafine) guess=(read,tcheck) s
 table=(opt,rrhf)
 ----------------------------------------------------------------------
 -----
 title
 -----
 Symbolic Z-matrix:
 Charge =  0 Multiplicity = 1

 SCF Done:  E(RHF) =  -193.809976641     A.U. after   16 cycles
 Normal termination of Gaussian 16 at Wed Apr  9 03:20:29 2025.
 Gaussian 16:  ES64L-G16RevC.01  3-Jul-2019

 ----------------------------------------------------------------------
 #t hf aug-cc-pvdz iop(5/13=1,5/36=2,99/5=2) pseudo=read geom=check gue
 ss=(read,tcheck) scf=(maxcycle=1)
 ----------------------------------------------------------------------
 -----
 title
 -----
 Structure from the checkpoint file:  "Grambow2020_wb97xd3_006101_reverse_mol1.chk"
 Charge =  0 Multiplicity = 1

                         Standard orientation:
 ---------------------------------------------------------------------
 Center     Atomic      Atomic             Coordinates (Angstroms)
 Number     Number       Type             X           Y           Z
 ---------------------------------------------------------------------
      1          6           0        1.824345   -0.693797   -0.264863
      2          6           0        1.071478    0.357117    0.554027
      3          6           0       -0.136532    0.896680   -0.150813
      4          6           0       -1.344740    0.233923   -0.169597
      5          6           0       -2.176962   -0.736985    0.074641
      6          1           0        1.170179   -1.537165   -0.492432
      7          1           0        2.179930   -0.274107   -1.207999
      8          1           0        2.687530   -1.068382    0.287184
      9          1           0        0.743828   -0.086790    1.498590
     10          1           0        1.739768    1.191151    0.785406
     11          1           0       -0.021126    1.781506   -0.768709
     12          1           0       -1.099975    0.352724   -1.311469
     13          1           0       -2.825660   -0.700569    0.949059
 ---------------------------------------------------------------------

 SCF Done:  E(RHF) =  -193.870923621     A.U. after    2 cycles

 The electronic state is 1-A.
 Alpha  occ. eigenvalues --  -11.30749 -11.25689 -11.25457 -11.24086 -11.23183
 Alpha  occ. eigenvalues --   -1.12025  -1.03270  -0.93682  -0.85824  -0.71787
 Alpha  occ. eigenvalues --   -0.66098  -0.62653  -0.59332  -0.57684  -0.52925
 Alpha  occ. eigenvalues --   -0.50567  -0.49805  -0.39431  -0.30299
 Alpha virt. eigenvalues --    0.02912   0.04078   0.04326   0.04904   0.06310
 Alpha virt. eigenvalues --    0.06915   0.07298   0.07489   0.07993   0.10270
 Alpha virt. eigenvalues --    0.12033   0.13012   0.13671   0.14166   0.14638

 Mulliken charges:
               1
     1  C    0.326342
     2  C   -0.009651
     3  C    0.533984
     4  C   -0.243097
     5  C    0.122767
     6  H   -0.048616
     7  H   -0.057451
     8  H   -0.073567
     9  H   -0.040182
    10  H   -0.016995
    11  H   -0.338773
    12  H    0.065094
    13  H   -0.219855
 Sum of Mulliken charges =  -0.00000

 Dipole moment (field-independent basis, Debye):
    X=              2.8163    Y=              2.0470    Z=              0.4910  Tot=              3.5161

 Test job not archived.
 1\1\GINC-SE120\SP\RHF\Aug-CC-pVDZ\C5H8\OHZDE\09-Apr-2025\0\\#t hf aug-
 cc-pvdz iop(5/13=1,5/36=2,99/5=2) pseudo=read geom=check guess=(read,t
 check) scf=(maxcycle=1)\\title\\0,1\C,0,-1.55106557,-0.05595295,-0.749
 65694\C,0,-0.71402839,0.61398718,0.34229467\C,0,0.42431012,-0.23848982
 ,0.81630412\C,0,1.61967164,-0.32853096,0.1363259\C,0,2.46383643,-0.100
 43674,-0.82817717\H,0,-0.92879273,-0.28789605,-1.61566477\H,0,-1.99296
 148,-0.98671435,-0.38841217\H,0,-2.35969107,0.60051411,-1.07421182\H,0
 ,-0.29999108,1.55048442,-0.04261099\H,0,-1.35006434,0.85170118,1.19944

 Normal termination of Gaussian 16 at Wed Apr  9 03:20:33 2025.
