 Gaussian 16, Revision C.01,

 ----------------------------------------------------------------------
 #t hf aug-cc-pvdz symm=none int=(grid=ultrafine) guess=(read,tcheck) s
 table=(opt,rrhf)
 ----------------------------------------------------------------------
 -----
 title
 -----
 Symbolic Z-matrix:
 Charge =  0 Multiplicity = 1

 SCF Done:  E(RHF) =  -286.797104624     A.U. after   13 cycles
 Normal termination of Gaussian 16 at Wed Apr  9 04:05:48 2025.
 Gaussian 16:  ES64L-G16RevC.01  3-Jul-2019

 ----------------------------------------------------------------------
 #t hf aug-cc-pvdz iop(5/13=1,5/36=2,99/5=2) pseudo=read geom=check gue
 ss=(read,tcheck) scf=(maxcycle=1)
 ----------------------------------------------------------------------
 -----
 title
 -----
 Structure from the checkpoint file:  "Grambow2020_wb97xd3_009353_forward_mol2.chk"
 Charge =  0 Multiplicity = 1

                         Standard orientation:
 ---------------------------------------------------------------------
 Center     Atomic      Atomic             Coordinates (Angstroms)
 Number     Number       Type             X           Y           Z
 ---------------------------------------------------------------------
      1          6           0       -2.034135    0.118588   -0.262477
      2          7           0       -0.891063   -0.427776    0.439726
      3          6           0        0.143750   -1.094769   -0.325346
      4          6           0        1.151958   -0.044975   -0.834936
      5          6           0        0.675056    1.294030   -0.300695
      6          6           0        0.169901    0.487611    0.921751
      7          6           0        1.226072   -0.611447    0.563557
      8          1           0       -1.784261    0.670916   -1.178008
      9          1           0       -2.581070    0.784814    0.408161
     10          1           0       -2.703775   -0.698976   -0.536588
     11          1           0        0.015502   -2.060183   -0.796239
     12          1           0        1.813510   -0.244783   -1.666303
     13          1           0       -0.042696    1.888633   -0.870591
     14          1           0        1.521275    1.918315   -0.013143
     15          1           0        0.004218    0.961475    1.886444
     16          1           0        1.999122   -1.120007    1.117064
 ---------------------------------------------------------------------

 SCF Done:  E(RHF) =  -286.882618781     A.U. after    2 cycles

 The electronic state is 1-A.
 Alpha  occ. eigenvalues --  -15.60956 -11.27111 -11.26501 -11.24483 -11.23978
 Alpha  occ. eigenvalues --  -11.23687 -11.23204  -1.27708  -1.09196  -0.97333
 Alpha  occ. eigenvalues --   -0.92767  -0.84587  -0.75345  -0.71990  -0.71346
 Alpha  occ. eigenvalues --   -0.63715  -0.61507  -0.60276  -0.56093  -0.54480
 Alpha  occ. eigenvalues --   -0.48799  -0.47822  -0.45751  -0.42769  -0.38664
 Alpha  occ. eigenvalues --   -0.33752
 Alpha virt. eigenvalues --    0.03344   0.03926   0.04103   0.04491   0.06415
 Alpha virt. eigenvalues --    0.06516   0.06875   0.07455   0.08893   0.11696
 Alpha virt. eigenvalues --    0.12144   0.12562   0.12884   0.13460   0.13823

 Mulliken charges:
               1
     1  C    0.741739
     2  N   -0.912251
     3  C    0.836518
     4  C    0.333559
     5  C    0.554465
     6  C    0.649734
     7  C    0.445181
     8  H   -0.127451
     9  H   -0.197842
    10  H   -0.214761
    11  H   -0.451407
    12  H   -0.443229
    13  H   -0.221087
    14  H   -0.148409
    15  H   -0.375134
    16  H   -0.469625
 Sum of Mulliken charges =  -0.00000

 Dipole moment (field-independent basis, Debye):
    X=              0.5937    Y=              0.5115    Z=             -0.6368  Tot=              1.0097

 Test job not archived.
 1\1\GINC-SE412\SP\RHF\Aug-CC-pVDZ\C6H9N1\OHZDE\09-Apr-2025\0\\#t hf au
 g-cc-pvdz iop(5/13=1,5/36=2,99/5=2) pseudo=read geom=check guess=(read
 ,tcheck) scf=(maxcycle=1)\\title\\0,1\C,0,1.9157032,0.41058093,0.02845
 791\N,0,0.89634216,-0.54048345,-0.36472698\C,0,0.0073238,-1.06940712,0
 .6506233\C,0,-1.18117373,-0.10410574,0.83474655\C,0,-0.96713746,1.0248
 4397,-0.1579481\C,0,-0.3192779,-0.05545641,-1.05966703\C,0,-1.14770321
 ,-1.12805523,-0.27546651\H,0,1.56641001,1.19494119,0.71291008\H,0,2.32
 590907,0.88539485,-0.86542851\H,0,2.72838429,-0.12665891,0.52129389\H,

 Normal termination of Gaussian 16 at Wed Apr  9 04:05:53 2025.
