 Gaussian 16, Revision C.01,

 ----------------------------------------------------------------------
 #t hf aug-cc-pvdz symm=none int=(grid=ultrafine) guess=(read,tcheck) s
 table=(opt,rrhf)
 ----------------------------------------------------------------------
 -----
 title
 -----
 Symbolic Z-matrix:
 Charge =  0 Multiplicity = 1

 SCF Done:  E(RHF) =  -317.649338147     A.U. after   14 cycles
 Normal termination of Gaussian 16 at Wed Apr  9 03:46:50 2025.
 Gaussian 16:  ES64L-G16RevC.01  3-Jul-2019

 ----------------------------------------------------------------------
 #t hf aug-cc-pvdz iop(5/13=1,5/36=2,99/5=2) pseudo=read geom=check gue
 ss=(read,tcheck) scf=(maxcycle=1)
 ----------------------------------------------------------------------
 -----
 title
 -----
 Structure from the checkpoint file:  "Grambow2020_wb97xd3_007978_reverse_mol2.chk"
 Charge =  0 Multiplicity = 1

                         Standard orientation:
 ---------------------------------------------------------------------
 Center     Atomic      Atomic             Coordinates (Angstroms)
 Number     Number       Type             X           Y           Z
 ---------------------------------------------------------------------
      1          7           0       -1.885666   -0.023822    0.239923
      2          6           0       -0.521765   -0.009218   -0.069353
      3          7           0       -0.045218    1.249763   -0.720227
      4          6           0        0.985214    1.268030    0.032024
      5          6           0        0.765391    0.010562    0.837062
      6          6           0        1.023610   -1.240286    0.032419
      7          7           0       -0.009050   -1.255629   -0.717070
      8          1           0       -2.170901   -0.852674    0.738160
      9          1           0       -2.193857    0.816153    0.705033
     10          1           0        1.778714    2.010406    0.013530
     11          1           0        0.807227    0.012267    1.922823
     12          1           0        1.843655   -1.952874    0.009160
 ---------------------------------------------------------------------

 SCF Done:  E(RHF) =  -317.738990177     A.U. after    2 cycles

 The electronic state is 1-A.
 Alpha  occ. eigenvalues --  -15.63672 -15.63656 -15.62623 -11.34819 -11.30815
 Alpha  occ. eigenvalues --  -11.30802 -11.26438  -1.32343  -1.19846  -1.15905
 Alpha  occ. eigenvalues --   -0.96668  -0.88417  -0.81104  -0.72736  -0.69548
 Alpha  occ. eigenvalues --   -0.67827  -0.65315  -0.63330  -0.56433  -0.53331
 Alpha  occ. eigenvalues --   -0.45917  -0.45101  -0.42165  -0.41680  -0.36701
 Alpha virt. eigenvalues --    0.02364   0.03347   0.03837   0.05251   0.06579
 Alpha virt. eigenvalues --    0.07619   0.09720   0.09893   0.11250   0.12274
 Alpha virt. eigenvalues --    0.12390   0.13251   0.13802   0.14797   0.15759

 Mulliken charges:
               1
     1  N   -0.411233
     2  C    1.058352
     3  N   -0.618205
     4  C    0.357403
     5  C    0.636089
     6  C    0.364104
     7  N   -0.622211
     8  H   -0.011408
     9  H   -0.010349
    10  H   -0.212252
    11  H   -0.317939
    12  H   -0.212351
 Sum of Mulliken charges =  -0.00000

 Dipole moment (field-independent basis, Debye):
    X=              2.1100    Y=              0.0652    Z=              4.4932  Tot=              4.9645

 Test job not archived.
 1\1\GINC-SE177\SP\RHF\Aug-CC-pVDZ\C4H5N3\OHZDE\09-Apr-2025\0\\#t hf au
 g-cc-pvdz iop(5/13=1,5/36=2,99/5=2) pseudo=read geom=check guess=(read
 ,tcheck) scf=(maxcycle=1)\\title\\0,1\N,0,1.91145945,-0.19076568,-0.00
 331261\C,0,0.5458367,-0.10836508,-0.29378733\N,0,-0.0860979,-1.4058767
 5,-0.68480052\C,0,-1.08967371,-1.16168364,0.06433947\C,0,-0.70841244,0
 .19325298,0.6087839\C,0,-0.850059,1.28782422,-0.4210696\N,0,0.15548761
 ,1.04105515,-1.16694992\H,0,2.30122959,0.68007788,0.32273258\H,0,2.138
 27178,-0.95562628,0.61346221\H,0,-1.96069631,-1.79816451,0.19593495\H,

 Normal termination of Gaussian 16 at Wed Apr  9 03:46:55 2025.
