 Gaussian 16, Revision C.01,

 ----------------------------------------------------------------------
 #t hf aug-cc-pvdz symm=none int=(grid=ultrafine) guess=(read,tcheck) s
 table=(opt,rrhf)
 ----------------------------------------------------------------------
 -----
 title
 -----
 Symbolic Z-matrix:
 Charge =  0 Multiplicity = 1

 SCF Done:  E(RHF) =  -338.769035769     A.U. after   14 cycles
 Normal termination of Gaussian 16 at Wed Apr  9 03:26:41 2025.
 Gaussian 16:  ES64L-G16RevC.01  3-Jul-2019

 ----------------------------------------------------------------------
 #t hf aug-cc-pvdz iop(5/13=1,5/36=2,99/5=2) pseudo=read geom=check gue
 ss=(read,tcheck) scf=(maxcycle=1)
 ----------------------------------------------------------------------
 -----
 title
 -----
 Structure from the checkpoint file:  "Grambow2020_wb97xd3_006689_forward_mol2.chk"
 Charge =  0 Multiplicity = 1

                         Standard orientation:
 ---------------------------------------------------------------------
 Center     Atomic      Atomic             Coordinates (Angstroms)
 Number     Number       Type             X           Y           Z
 ---------------------------------------------------------------------
      1          6           0        2.424196   -0.582506    0.002342
      2          6           0        1.072525    0.019119    0.001226
      3          6           0        0.576232    1.265438    0.006518
      4          7           0       -0.815524    1.231115    0.007117
      5          6           0       -1.082546   -0.027490   -0.006604
      6          7           0       -2.308938   -0.627513   -0.074459
      7          8           0       -0.012625   -0.839596   -0.009078
      8          1           0        2.590576   -1.192341   -0.888222
      9          1           0        3.170565    0.211102    0.015415
     10          1           0        2.580827   -1.214664    0.879124
     11          1           0        1.120365    2.196341    0.014896
     12          1           0       -2.365990   -1.544031    0.334877
     13          1           0       -3.066558   -0.012217    0.167036
 ---------------------------------------------------------------------

 SCF Done:  E(RHF) =  -338.874517362     A.U. after    2 cycles

 The electronic state is 1-A.
 Alpha  occ. eigenvalues --  -20.64010 -15.65166 -15.60297 -11.37724 -11.29264
 Alpha  occ. eigenvalues --  -11.25778 -11.24731  -1.44794  -1.21831  -1.17748
 Alpha  occ. eigenvalues --   -1.04562  -0.93580  -0.84476  -0.79114  -0.73832
 Alpha  occ. eigenvalues --   -0.68696  -0.68320  -0.62745  -0.58440  -0.57793
 Alpha  occ. eigenvalues --   -0.57424  -0.55683  -0.49550  -0.44274  -0.43702
 Alpha  occ. eigenvalues --   -0.30432
 Alpha virt. eigenvalues --    0.03091   0.03593   0.04614   0.05846   0.06120
 Alpha virt. eigenvalues --    0.06808   0.09954   0.10229   0.12234   0.12344
 Alpha virt. eigenvalues --    0.13296   0.14700   0.15404   0.15973   0.16282

 Mulliken charges:
               1
     1  C    0.126173
     2  C    0.099073
     3  C    0.750895
     4  N   -0.576810
     5  C    0.655163
     6  N   -0.255746
     7  O   -0.700096
     8  H    0.072958
     9  H    0.019056
    10  H    0.068420
    11  H   -0.263319
    12  H   -0.016404
    13  H    0.020635
 Sum of Mulliken charges =  -0.00000

 Dipole moment (field-independent basis, Debye):
    X=              0.3126    Y=             -1.5717    Z=              0.9943  Tot=              1.8858

 Test job not archived.
 1\1\GINC-SE021\SP\RHF\Aug-CC-pVDZ\C4H6N2O1\OHZDE\09-Apr-2025\0\\#t hf
 aug-cc-pvdz iop(5/13=1,5/36=2,99/5=2) pseudo=read geom=check guess=(re
 ad,tcheck) scf=(maxcycle=1)\\title\\0,1\C,0,-2.1204086,0.48365705,0.01
 765663\C,0,-0.77543841,-0.09533541,-0.19398025\C,0,-0.29036312,-1.3023
 8384,-0.52167437\N,0,1.10031494,-1.26583962,-0.57499197\C,0,1.37752006
 ,-0.04289757,-0.28664145\N,0,2.60495377,0.55813841,-0.25780724\O,0,0.3
 1570611,0.74152363,-0.03867421\H,0,-2.32051168,1.29584802,-0.68447471\
 H,0,-2.87241983,-0.29000064,-0.13394933\H,0,-2.23268582,0.87687024,1.0

 Normal termination of Gaussian 16 at Wed Apr  9 03:26:45 2025.
