 Gaussian 16, Revision C.01,

 ----------------------------------------------------------------------
 #t hf aug-cc-pvdz symm=none int=(grid=ultrafine) guess=(read,tcheck) s
 table=(opt,rrhf)
 ----------------------------------------------------------------------
 -----
 title
 -----
 Symbolic Z-matrix:
 Charge =  0 Multiplicity = 1

 SCF Done:  E(RHF) =  -322.553583956     A.U. after   15 cycles
 Normal termination of Gaussian 16 at Wed Apr  9 04:04:46 2025.
 Gaussian 16:  ES64L-G16RevC.01  3-Jul-2019

 ----------------------------------------------------------------------
 #t hf aug-cc-pvdz iop(5/13=1,5/36=2,99/5=2) pseudo=read geom=check gue
 ss=(read,tcheck) scf=(maxcycle=1)
 ----------------------------------------------------------------------
 -----
 title
 -----
 Structure from the checkpoint file:  "Grambow2020_wb97xd3_009201_reverse_mol1.chk"
 Charge =  0 Multiplicity = 1

                         Standard orientation:
 ---------------------------------------------------------------------
 Center     Atomic      Atomic             Coordinates (Angstroms)
 Number     Number       Type             X           Y           Z
 ---------------------------------------------------------------------
      1          8           0        1.992500   -0.968108   -0.274348
      2          6           0        1.812544    0.329757    0.236502
      3          6           0        0.540587    0.967713   -0.134776
      4          6           0       -0.489135    1.635369   -0.389326
      5          6           0       -1.030297    0.307322    0.482335
      6          6           0       -2.187361   -0.364556   -0.153677
      7          7           0       -0.972354   -1.117878    0.070593
      8          1           0        1.449242   -1.573161    0.238321
      9          1           0        1.916198    0.348847    1.327438
     10          1           0        2.603061    0.961273   -0.175094
     11          1           0       -1.060481    0.453180    1.554262
     12          1           0       -2.431086   -0.054184   -1.161795
     13          1           0       -3.027523   -0.635844    0.475355
     14          1           0       -0.460950   -1.183729   -0.804190
 ---------------------------------------------------------------------

 SCF Done:  E(RHF) =  -322.649675818     A.U. after    2 cycles

 The electronic state is 1-A.
 Alpha  occ. eigenvalues --  -20.60146 -15.65025 -11.34152 -11.32635 -11.28758
 Alpha  occ. eigenvalues --  -11.28206 -11.24427  -1.35930  -1.27086  -1.10426
 Alpha  occ. eigenvalues --   -0.98499  -0.90618  -0.82967  -0.75941  -0.71034
 Alpha  occ. eigenvalues --   -0.68912  -0.67072  -0.65313  -0.57175  -0.53789
 Alpha  occ. eigenvalues --   -0.53310  -0.50740  -0.47845  -0.45630  -0.39860
 Alpha  occ. eigenvalues --   -0.37539
 Alpha virt. eigenvalues --    0.03154   0.03915   0.04348   0.05221   0.06251
 Alpha virt. eigenvalues --    0.06924   0.08028   0.09549   0.10372   0.11446
 Alpha virt. eigenvalues --    0.11647   0.12453   0.13583   0.14074   0.14296

 Mulliken charges:
               1
     1  O   -0.530558
     2  C    0.935080
     3  C   -0.081170
     4  C   -0.332144
     5  C    0.426273
     6  C    0.902813
     7  N   -0.708807
     8  H    0.186380
     9  H    0.028278
    10  H   -0.041662
    11  H   -0.426533
    12  H   -0.230848
    13  H   -0.236766
    14  H    0.109665
 Sum of Mulliken charges =   0.00000

 Dipole moment (field-independent basis, Debye):
    X=              0.3452    Y=             -1.2419    Z=              1.6722  Tot=              2.1113

 Test job not archived.
 1\1\GINC-SE184\SP\RHF\Aug-CC-pVDZ\C5H7N1O1\OHZDE\09-Apr-2025\0\\#t hf
 aug-cc-pvdz iop(5/13=1,5/36=2,99/5=2) pseudo=read geom=check guess=(re
 ad,tcheck) scf=(maxcycle=1)\\title\\0,1\O,0,1.63939399,-1.06778622,1.5
 1097962\C,0,1.91198414,-0.39559379,0.3061317\C,0,0.77131587,-0.2972973
 4,-0.61686487\C,0,-0.10446754,-0.15853389,-1.50266168\C,0,-0.68059078,
 0.69424789,-0.17706627\C,0,-2.0903032,0.37201554,0.14481492\N,0,-1.069
 66449,0.13973372,1.14400218\H,0,1.1313695,-0.48009324,2.07717344\H,0,2
 .31051862,0.60887436,0.48906393\H,0,2.68456735,-0.95950732,-0.22136995

 Normal termination of Gaussian 16 at Wed Apr  9 04:04:51 2025.
