 Gaussian 16, Revision C.01,

 ----------------------------------------------------------------------
 #t hf aug-cc-pvdz symm=none int=(grid=ultrafine) guess=(read,tcheck) s
 table=(opt,rrhf)
 ----------------------------------------------------------------------
 -----
 title
 -----
 Symbolic Z-matrix:
 Charge =  0 Multiplicity = 1

 SCF Done:  E(RHF) =  -380.705129701     A.U. after   13 cycles
 Normal termination of Gaussian 16 at Wed Apr  9 16:30:03 2025.
 Gaussian 16:  ES64L-G16RevC.01  3-Jul-2019

 ----------------------------------------------------------------------
 #t hf aug-cc-pvdz iop(5/13=1,5/36=2,99/5=2) pseudo=read geom=check gue
 ss=(read,tcheck) scf=(maxcycle=1)
 ----------------------------------------------------------------------
 -----
 title
 -----
 Structure from the checkpoint file:  "Grambow2020_wb97xd3_008483_reverse_mol2.chk"
 Charge =  0 Multiplicity = 1

                         Standard orientation:
 ---------------------------------------------------------------------
 Center     Atomic      Atomic             Coordinates (Angstroms)
 Number     Number       Type             X           Y           Z
 ---------------------------------------------------------------------
      1          6           0       -2.662099   -0.479761    0.313220
      2          8           0       -1.392199   -0.623090   -0.293757
      3          6           0       -0.745862    0.572101   -0.465525
      4          8           0       -0.085030    1.122713    0.647690
      5          6           0        0.704813    0.595283   -0.424334
      6          6           0        1.498377   -0.647153   -0.158224
      7          8           0        2.784845   -0.251232    0.278066
      8          1           0       -3.301421    0.192175   -0.271157
      9          1           0       -3.115858   -1.468332    0.340658
     10          1           0       -2.568416   -0.091792    1.331352
     11          1           0        1.236566    1.351368   -0.997957
     12          1           0       -1.307593    1.296764   -1.057645
     13          1           0        0.979214   -1.250715    0.590751
     14          1           0        1.558501   -1.225534   -1.090318
     15          1           0        3.286710   -1.033883    0.507501
 ---------------------------------------------------------------------

 SCF Done:  E(RHF) =  -380.829157675     A.U. after    2 cycles

 The electronic state is 1-A.
 Alpha  occ. eigenvalues --  -20.59306 -20.58507 -20.57606 -11.35130 -11.29738
 Alpha  occ. eigenvalues --  -11.29317 -11.29236  -1.41578  -1.34088  -1.32734
 Alpha  occ. eigenvalues --   -1.00363  -0.96460  -0.87585  -0.81700  -0.74937
 Alpha  occ. eigenvalues --   -0.71787  -0.68781  -0.66405  -0.64540  -0.62024
 Alpha  occ. eigenvalues --   -0.60682  -0.55594  -0.55039  -0.51690  -0.48187
 Alpha  occ. eigenvalues --   -0.47031  -0.46066  -0.44343
 Alpha virt. eigenvalues --    0.03394   0.03997   0.04514   0.05465   0.05903
 Alpha virt. eigenvalues --    0.06680   0.06833   0.08761   0.10775   0.11419
 Alpha virt. eigenvalues --    0.13485   0.14033   0.14174   0.15012   0.15538

 Mulliken charges:
               1
     1  C    0.666417
     2  O   -0.657221
     3  C    1.035991
     4  O   -0.743897
     5  C    0.310977
     6  C    0.784143
     7  O   -0.551701
     8  H   -0.029601
     9  H   -0.226043
    10  H   -0.054911
    11  H   -0.262042
    12  H   -0.317342
    13  H   -0.092495
    14  H   -0.001526
    15  H    0.139249
 Sum of Mulliken charges =   0.00000

 Dipole moment (field-independent basis, Debye):
    X=             -1.3266    Y=             -1.7181    Z=             -1.4726  Tot=              2.6231

 Test job not archived.
 1\1\GINC-SE454\SP\RHF\Aug-CC-pVDZ\C4H8O3\OHZDE\09-Apr-2025\0\\#t hf au
 g-cc-pvdz iop(5/13=1,5/36=2,99/5=2) pseudo=read geom=check guess=(read
 ,tcheck) scf=(maxcycle=1)\\title\\0,1\C,0,-2.44925948,0.26880206,-0.50
 184789\O,0,-1.21064686,0.48231947,0.14765725\C,0,-0.54638908,-0.682959
 97,0.42446305\O,0,0.17454312,-1.28762045,-0.62136856\C,0,0.90485658,-0
 .67283816,0.44631867\C,0,1.68186684,0.56913111,0.13331584\O,0,2.994606
 46,0.17788557,-0.22128799\H,0,-3.09868941,-0.37970763,0.09765468\H,0,-
 2.92296496,1.24201862,-0.61309244\H,0,-2.30253339,-0.18151409,-1.48753

 Normal termination of Gaussian 16 at Wed Apr  9 16:30:08 2025.
