 Gaussian 16, Revision C.01,

 ----------------------------------------------------------------------
 #t hf aug-cc-pvdz symm=none int=(grid=ultrafine) guess=(read,tcheck) s
 table=(opt,rrhf)
 ----------------------------------------------------------------------
 -----
 title
 -----
 Symbolic Z-matrix:
 Charge =  0 Multiplicity = 1

 SCF Done:  E(RHF) =  -295.757499011     A.U. after   15 cycles
 Normal termination of Gaussian 16 at Wed Apr  9 14:05:55 2025.
 Gaussian 16:  ES64L-G16RevC.01  3-Jul-2019

 ----------------------------------------------------------------------
 #t hf aug-cc-pvdz iop(5/13=1,5/36=2,99/5=2) pseudo=read geom=check gue
 ss=(read,tcheck) scf=(maxcycle=1)
 ----------------------------------------------------------------------
 -----
 title
 -----
 Structure from the checkpoint file:  "Grambow2020_b97d3_006779_forward_mol1.chk"
 Charge =  0 Multiplicity = 1

                         Standard orientation:
 ---------------------------------------------------------------------
 Center     Atomic      Atomic             Coordinates (Angstroms)
 Number     Number       Type             X           Y           Z
 ---------------------------------------------------------------------
      1          7           0       -2.017620   -0.018590    0.106723
      2          6           0       -0.646952   -0.034513   -0.003052
      3          7           0        0.096661   -1.130720   -0.025930
      4          7           0        1.376711   -0.615894    0.028169
      5          6           0        1.465489    0.730867   -0.071321
      6          7           0        0.107382    1.142793   -0.092867
      7          1           0       -2.452241    0.776072   -0.352093
      8          1           0       -2.454697   -0.907584   -0.119480
      9          1           0        2.150316   -1.272478    0.043574
     10          1           0        0.903462    1.582737    0.761571
 ---------------------------------------------------------------------

 SCF Done:  E(RHF) =  -295.841626446     A.U. after    2 cycles

 The electronic state is 1-A.
 Alpha  occ. eigenvalues --  -15.70722 -15.67328 -15.66975 -15.65986 -11.36507
 Alpha  occ. eigenvalues --  -11.30536  -1.37027  -1.21557  -1.17169  -1.06779
 Alpha  occ. eigenvalues --   -0.85761  -0.81986  -0.76254  -0.68725  -0.65368
 Alpha  occ. eigenvalues --   -0.63500  -0.52676  -0.50529  -0.47988  -0.45893
 Alpha  occ. eigenvalues --   -0.39949  -0.34391
 Alpha virt. eigenvalues --    0.02973   0.03849   0.04487   0.06087   0.08548
 Alpha virt. eigenvalues --    0.09988   0.11344   0.12494   0.13377   0.14054
 Alpha virt. eigenvalues --    0.14397   0.15853   0.16695   0.17691   0.18482

 Mulliken charges:
               1
     1  N   -0.304402
     2  C    0.976422
     3  N   -0.368878
     4  N   -0.124663
     5  C    0.121162
     6  N   -0.681163
     7  H    0.030642
     8  H    0.025531
     9  H   -0.004068
    10  H    0.329415
 Sum of Mulliken charges =   0.00000

 Dipole moment (field-independent basis, Debye):
    X=             -1.5357    Y=             -0.9008    Z=              0.1024  Tot=              1.7833

 Test job not archived.
 1\1\GINC-SE099\SP\RHF\Aug-CC-pVDZ\C2H4N4\OHZDE\09-Apr-2025\0\\#t hf au
 g-cc-pvdz iop(5/13=1,5/36=2,99/5=2) pseudo=read geom=check guess=(read
 ,tcheck) scf=(maxcycle=1)\\title\\0,1\N,0,1.84450932,0.10322295,-0.334
 32765\C,0,0.50572543,-0.02706344,-0.04846636\N,0,-0.1803537,-1.1566125
 5,-0.1410373\N,0,-1.47529953,-0.72990813,0.07699334\C,0,-1.60513338,0.
 5650912,0.44802394\N,0,-0.27646715,1.0579854,0.36864308\H,0,2.30692004
 ,0.82589518,0.2086423\H,0,2.34636943,-0.7802455,-0.34594708\H,0,-2.214
 92982,-1.42355546,0.03691104\H,0,-1.20478064,1.59435935,-0.2700223\\Ve

 Normal termination of Gaussian 16 at Wed Apr  9 14:05:59 2025.
