 Gaussian 16, Revision C.01,

 ----------------------------------------------------------------------
 #t hf aug-cc-pvdz symm=none int=(grid=ultrafine) guess=(read,tcheck) s
 table=(opt,rrhf)
 ----------------------------------------------------------------------
 -----
 title
 -----
 Symbolic Z-matrix:
 Charge =  0 Multiplicity = 1

 SCF Done:  E(RHF) =  -345.863937597     A.U. after   15 cycles

 1\1\GINC-SE219\Stability\RHF\Aug-CC-pVDZ\C5H12O2\OHZDE\09-Apr-2025\0\\
 #t hf aug-cc-pvdz symm=none int=(grid=ultrafine) guess=(read,tcheck) s
 table=(opt,rrhf)\\title\\0,1\C,0,2.43098618,0.75898277,-1.59578137\C,0
 ,1.75441236,-0.0843282,-0.53272007\O,0,0.69758401,0.62669636,0.0863469
 7\C,0,-0.51333582,-0.60542626,1.18734563\C,0,-1.958839,-0.30656453,1.4
 1854819\O,0,-2.59299594,-0.63345011,0.23239572\C,0,-1.79370238,0.01675
 304,-0.74364519\H,0,2.81749594,1.68264505,-1.16344722\H,0,1.72349816,1
 .01923207,-2.38468849\H,0,3.2619198,0.21165692,-2.04622818\H,0,2.46898

 Normal termination of Gaussian 16 at Wed Apr  9 17:09:48 2025.
 Gaussian 16:  ES64L-G16RevC.01  3-Jul-2019

 ----------------------------------------------------------------------
 #t hf aug-cc-pvdz iop(5/13=1,5/36=2,99/5=2) pseudo=read geom=check gue
 ss=(read,tcheck) scf=(maxcycle=1)
 ----------------------------------------------------------------------
 -----
 title
 -----
 Structure from the checkpoint file:  "Grambow2020_wb97xd3_009171_reverse_mol1.chk"
 Charge =  0 Multiplicity = 1

                         Standard orientation:
 ---------------------------------------------------------------------
 Center     Atomic      Atomic             Coordinates (Angstroms)
 Number     Number       Type             X           Y           Z
 ---------------------------------------------------------------------
      1          6           0        3.142909    0.449100    0.081347
      2          6           0        1.965147   -0.380522   -0.391547
      3          8           0        0.912574   -0.358568    0.555708
      4          6           0       -0.838772   -1.076330   -0.228035
      5          6           0       -2.176762   -0.628051    0.262964
      6          8           0       -2.366371    0.626702   -0.289856
      7          6           0       -1.147862    1.291014    0.007155
      8          1           0        3.508874    0.082596    1.041138
      9          1           0        2.850865    1.493545    0.201718
     10          1           0        3.959064    0.401782   -0.642925
     11          1           0        2.263682   -1.423395   -0.530490
     12          1           0        1.598788   -0.001076   -1.356202
     13          1           0       -0.654663   -0.860051   -1.273005
     14          1           0       -0.479916   -2.041889    0.112380
     15          1           0       -2.960408   -1.328738   -0.068604
     16          1           0       -2.202715   -0.605001    1.364589
     17          1           0        0.232649    0.412706    0.337187
     18          1           0       -1.177144    1.713745    1.023633
     19          1           0       -0.976654    2.079430   -0.727543
 ---------------------------------------------------------------------

 SCF Done:  E(RHF) =  -345.976286528     A.U. after    2 cycles

 The electronic state is 1-A.
 Alpha  occ. eigenvalues --  -20.57167 -20.55786 -11.36074 -11.30865 -11.28970
 Alpha  occ. eigenvalues --  -11.22714 -11.21918  -1.33927  -1.31799  -1.03823
 Alpha  occ. eigenvalues --   -1.00623  -0.90054  -0.84829  -0.81234  -0.72308
 Alpha  occ. eigenvalues --   -0.69036  -0.66881  -0.63851  -0.63356  -0.59409
 Alpha  occ. eigenvalues --   -0.58210  -0.56246  -0.53402  -0.52561  -0.51486
 Alpha  occ. eigenvalues --   -0.48619  -0.45607  -0.43489  -0.28803
 Alpha virt. eigenvalues --    0.02802   0.03936   0.04407   0.04788   0.05727
 Alpha virt. eigenvalues --    0.05965   0.06277   0.06536   0.07440   0.08014
 Alpha virt. eigenvalues --    0.08848   0.09392   0.11205   0.12252   0.13601

 Mulliken charges:
               1
     1  C    0.280461
     2  C    0.562169
     3  O   -0.772055
     4  C    0.504660
     5  C    0.866173
     6  O   -0.632187
     7  C    0.468734
     8  H   -0.023221
     9  H   -0.083823
    10  H   -0.021754
    11  H   -0.259873
    12  H   -0.156642
    13  H   -0.135323
    14  H   -0.275066
    15  H   -0.115316
    16  H   -0.055101
    17  H    0.477234
    18  H   -0.217509
    19  H   -0.411560
 Sum of Mulliken charges =  -0.00000

 Dipole moment (field-independent basis, Debye):
    X=              1.3957    Y=             -3.4396    Z=             -0.9038  Tot=              3.8205

 Test job not archived.
 1\1\GINC-SE219\SP\RHF\Aug-CC-pVDZ\C5H12O2\OHZDE\09-Apr-2025\0\\#t hf a
 ug-cc-pvdz iop(5/13=1,5/36=2,99/5=2) pseudo=read geom=check guess=(rea
 d,tcheck) scf=(maxcycle=1)\\title\\0,1\C,0,2.43098618,0.75898277,-1.59
 578137\C,0,1.75441236,-0.0843282,-0.53272007\O,0,0.69758401,0.62669636
 ,0.08634697\C,0,-0.51333582,-0.60542626,1.18734563\C,0,-1.958839,-0.30
 656453,1.41854819\O,0,-2.59299594,-0.63345011,0.23239572\C,0,-1.793702
 38,0.01675304,-0.74364519\H,0,2.81749594,1.68264505,-1.16344722\H,0,1.
 72349816,1.01923207,-2.38468849\H,0,3.2619198,0.21165692,-2.04622818\H

 Normal termination of Gaussian 16 at Wed Apr  9 17:09:55 2025.
