 Gaussian 16, Revision C.01,

 ----------------------------------------------------------------------
 #t hf aug-cc-pvdz symm=none int=(grid=ultrafine) guess=(read,tcheck) s
 table=(opt,rrhf)
 ----------------------------------------------------------------------
 -----
 title
 -----
 Symbolic Z-matrix:
 Charge =  0 Multiplicity = 1

 SCF Done:  E(RHF) =  -340.491095214     A.U. after   14 cycles
 Normal termination of Gaussian 16 at Wed Apr  9 14:20:02 2025.
 Gaussian 16:  ES64L-G16RevC.01  3-Jul-2019

 ----------------------------------------------------------------------
 #t hf aug-cc-pvdz iop(5/13=1,5/36=2,99/5=2) pseudo=read geom=check gue
 ss=(read,tcheck) scf=(maxcycle=1)
 ----------------------------------------------------------------------
 -----
 title
 -----
 Structure from the checkpoint file:  "Grambow2020_wb97xd3_006041_reverse_mol2.chk"
 Charge =  0 Multiplicity = 1

                         Standard orientation:
 ---------------------------------------------------------------------
 Center     Atomic      Atomic             Coordinates (Angstroms)
 Number     Number       Type             X           Y           Z
 ---------------------------------------------------------------------
      1          8           0       -0.534113    1.515411   -0.244448
      2          6           0       -0.977103    0.426962   -0.097124
      3          8           0        1.705320   -0.807452   -0.083189
      4          6           0        2.374407    0.172870    0.090242
      5          6           0       -1.432677   -0.870969   -0.522345
      6          8           0       -1.426411   -0.332226    0.882775
      7          1           0        1.931202    1.183704    0.086898
      8          1           0        3.464410    0.101345    0.261313
      9          1           0       -2.428915   -1.000593   -0.929605
     10          1           0       -0.712823   -1.663499   -0.684354
 ---------------------------------------------------------------------

 SCF Done:  E(RHF) =  -340.603121467     A.U. after    2 cycles

 The electronic state is 1-A.
 Alpha  occ. eigenvalues --  -20.63767 -20.59569 -20.58637 -11.41952 -11.35532
 Alpha  occ. eigenvalues --  -11.33641  -1.46217  -1.38103  -1.37062  -0.97242
 Alpha  occ. eigenvalues --   -0.86927  -0.81888  -0.73427  -0.71325  -0.70390
 Alpha  occ. eigenvalues --   -0.67685  -0.67147  -0.57591  -0.57390  -0.56095
 Alpha  occ. eigenvalues --   -0.50864  -0.45936  -0.45426
 Alpha virt. eigenvalues --    0.03413   0.03900   0.05776   0.06606   0.06942
 Alpha virt. eigenvalues --    0.08267   0.08565   0.12113   0.12327   0.13614
 Alpha virt. eigenvalues --    0.15021   0.15444   0.16010   0.16258   0.16512

 Mulliken charges:
               1
     1  O   -0.351768
     2  C    0.149803
     3  O   -0.349150
     4  C    0.640798
     5  C    1.019501
     6  O   -0.551154
     7  H   -0.112465
     8  H   -0.180806
     9  H   -0.144024
    10  H   -0.120736
 Sum of Mulliken charges =   0.00000

 Dipole moment (field-independent basis, Debye):
    X=              0.8325    Y=             -1.0162    Z=             -1.4113  Tot=              1.9281

 Test job not archived.
 1\1\GINC-SE114\SP\RHF\Aug-CC-pVDZ\C3H4O3\OHZDE\09-Apr-2025\0\\#t hf au
 g-cc-pvdz iop(5/13=1,5/36=2,99/5=2) pseudo=read geom=check guess=(read
 ,tcheck) scf=(maxcycle=1)\\title\\0,1\O,0,1.22285575,0.30941557,1.2976
 4294\C,0,0.94323383,-0.63289351,0.636938\O,0,-1.12929267,0.85646428,-0
 .84825818\C,0,-0.81948305,1.97684053,-0.55234929\C,0,0.18251067,-1.800
 64833,0.27550551\O,0,1.3897239,-1.25357805,-0.43723342\H,0,-0.02888042
 ,2.18138316,0.19017076\H,0,-1.31519756,2.85069456,-1.0140127\H,0,0.364
 47725,-2.7513082,0.76365157\H,0,-0.73769671,-1.68709902,-0.28383919\\V

 Normal termination of Gaussian 16 at Wed Apr  9 14:20:05 2025.
