 Gaussian 16, Revision C.01,

 ----------------------------------------------------------------------
 #t hf aug-cc-pvdz symm=none int=(grid=ultrafine) guess=(read,tcheck) s
 table=(opt,rrhf)
 ----------------------------------------------------------------------
 -----
 title
 -----
 Symbolic Z-matrix:
 Charge =  0 Multiplicity = 1

 SCF Done:  E(RHF) =  -343.637931782     A.U. after   16 cycles
 Normal termination of Gaussian 16 at Wed Apr  9 16:09:07 2025.
 Gaussian 16:  ES64L-G16RevC.01  3-Jul-2019

 ----------------------------------------------------------------------
 #t hf aug-cc-pvdz iop(5/13=1,5/36=2,99/5=2) pseudo=read geom=check gue
 ss=(read,tcheck) scf=(maxcycle=1)
 ----------------------------------------------------------------------
 -----
 title
 -----
 Structure from the checkpoint file:  "Grambow2020_wb97xd3_007805_reverse_mol2.chk"
 Charge =  0 Multiplicity = 1

                         Standard orientation:
 ---------------------------------------------------------------------
 Center     Atomic      Atomic             Coordinates (Angstroms)
 Number     Number       Type             X           Y           Z
 ---------------------------------------------------------------------
      1          6           0       -2.108176   -1.002078    0.307148
      2          6           0       -1.039859    0.066392    0.268880
      3          6           0       -1.469898    1.336491   -0.434880
      4          6           0        1.839747    0.556154    1.018213
      5          6           0        1.267964   -0.135154   -0.049306
      6          8           0        2.351264   -0.485377   -0.526942
      7          8           0        0.089921   -0.510211   -0.447370
      8          1           0       -1.745372   -1.892745    0.819364
      9          1           0       -2.986290   -0.631138    0.837223
     10          1           0       -2.405939   -1.278509   -0.705644
     11          1           0       -0.663833    2.071506   -0.449689
     12          1           0       -1.763670    1.121755   -1.463618
     13          1           0       -2.321730    1.778629    0.083952
     14          1           0        2.116094    1.574921    0.727841
     15          1           0       -0.697401    0.289459    1.284735
 ---------------------------------------------------------------------

 SCF Done:  E(RHF) =  -343.747327895     A.U. after    2 cycles

 The electronic state is 1-A.
 Alpha  occ. eigenvalues --  -20.64947 -20.58079 -11.41263 -11.33596 -11.30046
 Alpha  occ. eigenvalues --  -11.25679 -11.25222  -1.45298  -1.36227  -1.09402
 Alpha  occ. eigenvalues --   -0.98738  -0.96900  -0.88445  -0.79971  -0.71041
 Alpha  occ. eigenvalues --   -0.69961  -0.68411  -0.64112  -0.60310  -0.59136
 Alpha  occ. eigenvalues --   -0.57310  -0.56131  -0.54097  -0.52045  -0.49872
 Alpha  occ. eigenvalues --   -0.47434  -0.38611
 Alpha virt. eigenvalues --    0.02644   0.03968   0.04216   0.04848   0.06179
 Alpha virt. eigenvalues --    0.06569   0.06937   0.07278   0.08538   0.09899
 Alpha virt. eigenvalues --    0.11531   0.12511   0.12897   0.13821   0.14390

 Mulliken charges:
               1
     1  C    0.553861
     2  C   -0.231737
     3  C    0.420544
     4  C   -0.015702
     5  C    0.651299
     6  O   -0.523564
     7  O   -0.551388
     8  H   -0.048201
     9  H    0.007174
    10  H    0.013260
    11  H   -0.110095
    12  H    0.030415
    13  H   -0.004291
    14  H   -0.117940
    15  H   -0.073636
 Sum of Mulliken charges =  -0.00000

 Dipole moment (field-independent basis, Debye):
    X=             -5.0037    Y=              2.5208    Z=              0.7019  Tot=              5.6466

 Test job not archived.
 1\1\GINC-SE131\SP\RHF\Aug-CC-pVDZ\C5H8O2\OHZDE\09-Apr-2025\0\\#t hf au
 g-cc-pvdz iop(5/13=1,5/36=2,99/5=2) pseudo=read geom=check guess=(read
 ,tcheck) scf=(maxcycle=1)\\title\\0,1\C,0,-1.04674008,1.58093685,-0.33
 919563\C,0,-0.36240303,0.2407454,-0.19791143\C,0,-1.1703387,-0.7801427
 8,0.57564623\C,0,2.22952872,-1.16651136,-0.82641585\C,0,1.89171319,-0.
 25697287,0.17511312\O,0,3.02642564,-0.22434024,0.66059801\O,0,0.884767
 81,0.49106606,0.51187252\H,0,-0.42180146,2.27659507,-0.89847376\H,0,-1
 .99237763,1.46154961,-0.86945644\H,0,-1.25215016,2.00847778,0.64357654

 Normal termination of Gaussian 16 at Wed Apr  9 16:09:12 2025.
