 Gaussian 16, Revision C.01,

 ----------------------------------------------------------------------
 #t hf aug-cc-pvdz symm=none int=(grid=ultrafine) guess=(read,tcheck) s
 table=(opt,rrhf)
 ----------------------------------------------------------------------
 -----
 title
 -----
 Symbolic Z-matrix:
 Charge =  0 Multiplicity = 1

 SCF Done:  E(RHF) =  -342.357880749     A.U. after   16 cycles
 Normal termination of Gaussian 16 at Wed Apr  9 03:58:38 2025.
 Gaussian 16:  ES64L-G16RevC.01  3-Jul-2019

 ----------------------------------------------------------------------
 #t hf aug-cc-pvdz iop(5/13=1,5/36=2,99/5=2) pseudo=read geom=check gue
 ss=(read,tcheck) scf=(maxcycle=1)
 ----------------------------------------------------------------------
 -----
 title
 -----
 Structure from the checkpoint file:  "Grambow2020_wb97xd3_008758_forward_mol1.chk"
 Charge =  0 Multiplicity = 1

                         Standard orientation:
 ---------------------------------------------------------------------
 Center     Atomic      Atomic             Coordinates (Angstroms)
 Number     Number       Type             X           Y           Z
 ---------------------------------------------------------------------
      1          8           0       -2.446425   -0.372277   -0.198745
      2          6           0       -1.542102    0.120027    0.553240
      3          6           0       -0.397002    0.355255   -0.249208
      4          8           0        0.616577    1.292110    0.077433
      5          6           0        1.619795    0.345050   -0.280367
      6          6           0        1.587955   -0.844721    0.610718
      7          6           0        0.618793   -0.740561   -0.546738
      8          1           0       -1.748458    0.313931    1.605472
      9          1           0       -1.614670   -0.024284   -1.063368
     10          1           0        2.471197    0.699852   -0.844011
     11          1           0        2.388660   -1.558964    0.460504
     12          1           0        1.245998   -0.737420    1.633619
     13          1           0        0.571416   -1.462077   -1.347592
 ---------------------------------------------------------------------

 SCF Done:  E(RHF) =  -342.463935001     A.U. after    2 cycles

 The electronic state is 1-A.
 Alpha  occ. eigenvalues --  -20.61861 -20.58190 -11.37464 -11.30526 -11.28220
 Alpha  occ. eigenvalues --  -11.26241 -11.24877  -1.40543  -1.37344  -1.12071
 Alpha  occ. eigenvalues --   -0.99997  -0.87308  -0.82853  -0.79869  -0.73305
 Alpha  occ. eigenvalues --   -0.69167  -0.66787  -0.65624  -0.61595  -0.57368
 Alpha  occ. eigenvalues --   -0.55171  -0.52113  -0.49693  -0.46839  -0.40502
 Alpha  occ. eigenvalues --   -0.32526
 Alpha virt. eigenvalues --    0.03290   0.03909   0.04642   0.04945   0.05874
 Alpha virt. eigenvalues --    0.06850   0.06990   0.09643   0.10442   0.11747
 Alpha virt. eigenvalues --    0.12948   0.13508   0.13884   0.14258   0.14569

 Mulliken charges:
               1
     1  O   -0.595314
     2  C    0.686005
     3  C   -0.350896
     4  O   -0.799575
     5  C    0.855477
     6  C    0.803206
     7  C    0.400656
     8  H   -0.131517
     9  H    0.568977
    10  H   -0.352751
    11  H   -0.317723
    12  H   -0.335143
    13  H   -0.431402
 Sum of Mulliken charges =  -0.00000

 Dipole moment (field-independent basis, Debye):
    X=              1.4270    Y=             -1.4732    Z=              0.9603  Tot=              2.2647

 Test job not archived.
 1\1\GINC-SE454\SP\RHF\Aug-CC-pVDZ\C5H6O2\OHZDE\09-Apr-2025\0\\#t hf au
 g-cc-pvdz iop(5/13=1,5/36=2,99/5=2) pseudo=read geom=check guess=(read
 ,tcheck) scf=(maxcycle=1)\\title\\0,1\O,0,2.07161321,0.9412422,-1.5013
 5171\C,0,1.69981453,0.8143768,-0.28837389\C,0,0.8247239,-0.29928213,-0
 .22137112\O,0,0.57692151,-1.03797452,0.96381251\C,0,-0.81908452,-1.047
 61353,0.6766478\C,0,-1.38758359,0.32613215,0.69187678\C,0,-0.66104356,
 -0.17812559,-0.53600348\H,0,2.08712071,1.48554383,0.47772205\H,0,1.509
 12478,-0.17233598,-1.56491212\H,0,-1.36260938,-1.96701657,0.84321212\H

 Normal termination of Gaussian 16 at Wed Apr  9 03:58:42 2025.
