 Gaussian 16, Revision C.01,

 ----------------------------------------------------------------------
 #t hf aug-cc-pvdz symm=none int=(grid=ultrafine) guess=(read,tcheck) s
 table=(opt,rrhf)
 ----------------------------------------------------------------------
 -----
 title
 -----
 Symbolic Z-matrix:
 Charge =  0 Multiplicity = 1

 SCF Done:  E(RHF) =  -269.890337350     A.U. after   15 cycles

 1\1\GINC-SE049\Stability\RHF\Aug-CC-pVDZ\C5H10O1\OHZDE\09-Apr-2025\0\\
 #t hf aug-cc-pvdz symm=none int=(grid=ultrafine) guess=(read,tcheck) s
 table=(opt,rrhf)\\title\\0,1\C,0,1.76239234,0.36001413,-1.09530063\C,0
 ,0.91065317,0.91215245,0.07867717\C,0,0.48638559,-0.28292647,0.8755482
 1\O,0,-1.12484184,-0.01689786,1.77134718\C,0,-0.87378988,-0.85667279,0
 .59210014\C,0,-1.76866914,-0.45181506,-0.5635633\H,0,2.58636508,-0.264
 88131,-0.72647573\H,0,2.18965353,1.19437291,-1.66713467\H,0,1.15102832
 ,-0.24678779,-1.77741377\H,0,1.53784184,1.57703045,0.68940759\H,0,0.08

 Normal termination of Gaussian 16 at Wed Apr  9 03:07:32 2025.
 Gaussian 16:  ES64L-G16RevC.01  3-Jul-2019

 ----------------------------------------------------------------------
 #t hf aug-cc-pvdz iop(5/13=1,5/36=2,99/5=2) pseudo=read geom=check gue
 ss=(read,tcheck) scf=(maxcycle=1)
 ----------------------------------------------------------------------
 -----
 title
 -----
 Structure from the checkpoint file:  "Grambow2020_b97d3_006614_forward_mol1.chk"
 Charge =  0 Multiplicity = 1

                         Standard orientation:
 ---------------------------------------------------------------------
 Center     Atomic      Atomic             Coordinates (Angstroms)
 Number     Number       Type             X           Y           Z
 ---------------------------------------------------------------------
      1          6           0        2.273616    0.405294   -0.217327
      2          6           0        1.214724   -0.447850    0.530626
      3          6           0        0.162842   -0.777814   -0.483222
      4          8           0       -1.516458   -1.038548    0.279176
      5          6           0       -1.056301    0.100471   -0.526903
      6          6           0       -1.220962    1.403954    0.230788
      7          1           0        2.641472   -0.115420   -1.111193
      8          1           0        3.126994    0.600636    0.445462
      9          1           0        1.854377    1.371053   -0.531651
     10          1           0        1.694633   -1.366177    0.897754
     11          1           0        0.854866    0.117983    1.404931
     12          1           0       -0.912192   -1.772613   -0.281041
     13          1           0       -1.561909    0.141192   -1.502484
     14          1           0       -0.782293    1.357722    1.233537
     15          1           0       -2.286635    1.649974    0.335975
     16          1           0       -0.741175    2.219701   -0.328475
 ---------------------------------------------------------------------

 SCF Done:  E(RHF) =  -269.972446777     A.U. after    2 cycles

 The electronic state is 1-A.
 Alpha  occ. eigenvalues --  -20.60598 -11.30520 -11.27709 -11.24414 -11.24363
 Alpha  occ. eigenvalues --  -11.24035  -1.34215  -1.06015  -1.00889  -0.91276
 Alpha  occ. eigenvalues --   -0.85024  -0.76115  -0.69482  -0.64593  -0.62311
 Alpha  occ. eigenvalues --   -0.58883  -0.56155  -0.54653  -0.53336  -0.51813
 Alpha  occ. eigenvalues --   -0.51259  -0.49558  -0.44999  -0.35515
 Alpha virt. eigenvalues --    0.03378   0.04193   0.04717   0.04895   0.06379
 Alpha virt. eigenvalues --    0.06498   0.06883   0.07326   0.09038   0.09565
 Alpha virt. eigenvalues --    0.10591   0.12244   0.12952   0.13901   0.14583

 Mulliken charges:
               1
     1  C    0.323297
     2  C    0.466848
     3  C   -0.742889
     4  O   -0.763344
     5  C    0.589241
     6  C    0.318356
     7  H   -0.028649
     8  H   -0.057738
     9  H   -0.126916
    10  H   -0.070648
    11  H   -0.047068
    12  H    0.367473
    13  H   -0.250177
    14  H   -0.008846
    15  H   -0.005269
    16  H    0.036328
 Sum of Mulliken charges =   0.00000

 Dipole moment (field-independent basis, Debye):
    X=              1.1743    Y=              1.8498    Z=             -0.1656  Tot=              2.1973

 Test job not archived.
 1\1\GINC-SE049\SP\RHF\Aug-CC-pVDZ\C5H10O1\OHZDE\09-Apr-2025\0\\#t hf a
 ug-cc-pvdz iop(5/13=1,5/36=2,99/5=2) pseudo=read geom=check guess=(rea
 d,tcheck) scf=(maxcycle=1)\\title\\0,1\C,0,1.76239234,0.36001413,-1.09
 530063\C,0,0.91065317,0.91215245,0.07867717\C,0,0.48638559,-0.28292647
 ,0.87554821\O,0,-1.12484184,-0.01689786,1.77134718\C,0,-0.87378988,-0.
 85667279,0.59210014\C,0,-1.76866914,-0.45181506,-0.5635633\H,0,2.58636
 508,-0.26488131,-0.72647573\H,0,2.18965353,1.19437291,-1.66713467\H,0,
 1.15102832,-0.24678779,-1.77741377\H,0,1.53784184,1.57703045,0.6894075

 Normal termination of Gaussian 16 at Wed Apr  9 03:07:36 2025.
