 Gaussian 16, Revision C.01,

 ----------------------------------------------------------------------
 #t hf aug-cc-pvdz symm=none int=(grid=ultrafine) guess=(read,tcheck) s
 table=(opt,rrhf)
 ----------------------------------------------------------------------
 -----
 title
 -----
 Symbolic Z-matrix:
 Charge =  0 Multiplicity = 1

 SCF Done:  E(RHF) =  -325.081619391     A.U. after   13 cycles
 Normal termination of Gaussian 16 at Wed Apr  9 16:21:16 2025.
 Gaussian 16:  ES64L-G16RevC.01  3-Jul-2019

 ----------------------------------------------------------------------
 #t hf aug-cc-pvdz iop(5/13=1,5/36=2,99/5=2) pseudo=read geom=check gue
 ss=(read,tcheck) scf=(maxcycle=1)
 ----------------------------------------------------------------------
 -----
 title
 -----
 Structure from the checkpoint file:  "Grambow2020_wb97xd3_008109_reverse_mol2.chk"
 Charge =  0 Multiplicity = 1

                         Standard orientation:
 ---------------------------------------------------------------------
 Center     Atomic      Atomic             Coordinates (Angstroms)
 Number     Number       Type             X           Y           Z
 ---------------------------------------------------------------------
      1          6           0       -2.368979   -0.630696    0.620870
      2          6           0       -1.772223    0.057069   -0.588930
      3          7           0        0.726631   -0.816863   -0.200530
      4          6           0        2.051535   -1.358540   -0.023696
      5          6           0        0.518579    0.416963   -0.054039
      6          8           0       -0.710414    0.943069   -0.229160
      7          6           0        1.504581    1.494012    0.310748
      8          1           0       -3.231312   -1.228378    0.317981
      9          1           0       -2.702945    0.104268    1.355299
     10          1           0       -1.638831   -1.292521    1.085273
     11          1           0       -2.507143    0.700329   -1.074327
     12          1           0       -1.401010   -0.673366   -1.309123
     13          1           0        2.257365   -2.064835   -0.829988
     14          1           0        2.856958   -0.615825   -0.010482
     15          1           0        2.096869   -1.923287    0.911977
     16          1           0        0.988605    2.444013    0.424243
     17          1           0        2.262683    1.598650   -0.467025
     18          1           0        2.014703    1.251590    1.243438
 ---------------------------------------------------------------------

 SCF Done:  E(RHF) =  -325.186886276     A.U. after    2 cycles

 The electronic state is 1-A.
 Alpha  occ. eigenvalues --  -20.59198 -15.59216 -11.34045 -11.28111 -11.25199
 Alpha  occ. eigenvalues --  -11.24186 -11.21804  -1.37645  -1.18096  -1.03295
 Alpha  occ. eigenvalues --   -0.98013  -0.93108  -0.86178  -0.74007  -0.68084
 Alpha  occ. eigenvalues --   -0.67041  -0.64840  -0.59537  -0.59027  -0.56800
 Alpha  occ. eigenvalues --   -0.56280  -0.55875  -0.53989  -0.52111  -0.48728
 Alpha  occ. eigenvalues --   -0.48101  -0.39307  -0.37317
 Alpha virt. eigenvalues --    0.03435   0.04268   0.04456   0.04585   0.06356
 Alpha virt. eigenvalues --    0.06420   0.06624   0.07575   0.07833   0.09330
 Alpha virt. eigenvalues --    0.09615   0.11069   0.12813   0.13097   0.14388

 Mulliken charges:
               1
     1  C    0.261054
     2  C    0.734504
     3  N   -0.565993
     4  C    0.834802
     5  C    0.051009
     6  O   -0.584722
     7  C    0.369829
     8  H   -0.055010
     9  H   -0.067697
    10  H   -0.072828
    11  H   -0.325325
    12  H   -0.033762
    13  H   -0.194675
    14  H   -0.178608
    15  H   -0.131185
    16  H   -0.213956
    17  H    0.086170
    18  H    0.086393
 Sum of Mulliken charges =   0.00000

 Dipole moment (field-independent basis, Debye):
    X=              0.8036    Y=              0.4121    Z=              0.2768  Tot=              0.9446

 Test job not archived.
 1\1\GINC-SE173\SP\RHF\Aug-CC-pVDZ\C5H11N1O1\OHZDE\09-Apr-2025\0\\#t hf
  aug-cc-pvdz iop(5/13=1,5/36=2,99/5=2) pseudo=read geom=check guess=(r
 ead,tcheck) scf=(maxcycle=1)\\title\\0,1\C,0,-2.24321168,0.36694727,-1
 .13036239\C,0,-1.53613903,-0.92494428,-0.7784855\N,0,0.15396325,0.1568
 1811,0.9913251\C,0,1.00507535,0.73921783,1.99952772\C,0,0.64755009,-0.
 28811315,-0.07894615\O,0,-0.13093878,-0.84862738,-1.02639394\C,0,2.090
 26093,-0.30246889,-0.50752755\H,0,-3.32165733,0.24160582,-1.01276843\H
 ,0,-2.042005,0.64569816,-2.16617429\H,0,-1.91795879,1.17359511,-0.4743

 Normal termination of Gaussian 16 at Wed Apr  9 16:21:23 2025.
