 Gaussian 16, Revision C.01,

 ----------------------------------------------------------------------
 #t hf aug-cc-pvdz symm=none int=(grid=ultrafine) guess=(read,tcheck) s
 table=(opt,rrhf)
 ----------------------------------------------------------------------
 -----
 title
 -----
 Symbolic Z-matrix:
 Charge =  0 Multiplicity = 1

 SCF Done:  E(RHF) =  -322.552624619     A.U. after   16 cycles
 Normal termination of Gaussian 16 at Wed Apr  9 15:20:53 2025.
 Gaussian 16:  ES64L-G16RevC.01  3-Jul-2019

 ----------------------------------------------------------------------
 #t hf aug-cc-pvdz iop(5/13=1,5/36=2,99/5=2) pseudo=read geom=check gue
 ss=(read,tcheck) scf=(maxcycle=1)
 ----------------------------------------------------------------------
 -----
 title
 -----
 Structure from the checkpoint file:  "Grambow2020_wb97xd3_006858_forward_mol1.chk"
 Charge =  0 Multiplicity = 1

                         Standard orientation:
 ---------------------------------------------------------------------
 Center     Atomic      Atomic             Coordinates (Angstroms)
 Number     Number       Type             X           Y           Z
 ---------------------------------------------------------------------
      1          6           0       -2.411827   -0.954706    0.153372
      2          6           0       -1.313737    0.244593   -0.087555
      3          6           0       -0.364514   -0.612755    0.355048
      4          6           0        2.016439    0.218848    0.084537
      5          7           0        2.563940   -0.930137   -0.354983
      6          6           0        1.569525    1.241604    0.534176
      7          8           0       -1.624021    1.272083   -0.612843
      8          1           0       -3.176635   -0.442977    0.736116
      9          1           0       -2.123406   -1.878201    0.652677
     10          1           0       -2.755731   -1.191665   -0.849718
     11          1           0       -0.259375   -0.746261    1.428305
     12          1           0        1.878317   -1.582547   -0.706980
     13          1           0        3.357704   -0.813897   -0.964468
     14          1           0        1.148404    2.164334    0.854231
 ---------------------------------------------------------------------

 SCF Done:  E(RHF) =  -322.655300720     A.U. after    2 cycles

 The electronic state is 1-A.
 Alpha  occ. eigenvalues --  -20.56282 -15.65963 -11.36141 -11.29352 -11.29028
 Alpha  occ. eigenvalues --  -11.26878 -11.23505  -1.36257  -1.20473  -1.08504
 Alpha  occ. eigenvalues --   -1.00996  -0.92442  -0.75866  -0.73735  -0.70905
 Alpha  occ. eigenvalues --   -0.68911  -0.66324  -0.63959  -0.61914  -0.57505
 Alpha  occ. eigenvalues --   -0.54294  -0.53073  -0.44017  -0.39544  -0.38380
 Alpha  occ. eigenvalues --   -0.35397
 Alpha virt. eigenvalues --    0.03005   0.03623   0.04436   0.05236   0.05881
 Alpha virt. eigenvalues --    0.06768   0.07456   0.09970   0.11013   0.11752
 Alpha virt. eigenvalues --    0.12116   0.12831   0.13536   0.14336   0.14695

 Mulliken charges:
               1
     1  C    0.384626
     2  C    0.057918
     3  C    0.041635
     4  C   -0.433908
     5  N   -0.230630
     6  C    1.069949
     7  O   -0.466602
     8  H   -0.013774
     9  H   -0.138676
    10  H    0.029697
    11  H   -0.092968
    12  H    0.100090
    13  H    0.018305
    14  H   -0.325664
 Sum of Mulliken charges =   0.00000

 Dipole moment (field-independent basis, Debye):
    X=              0.4669    Y=             -3.0831    Z=              0.8899  Tot=              3.2428

 Test job not archived.
 1\1\GINC-SE332\SP\RHF\Aug-CC-pVDZ\C5H7N1O1\OHZDE\09-Apr-2025\0\\#t hf
 aug-cc-pvdz iop(5/13=1,5/36=2,99/5=2) pseudo=read geom=check guess=(re
 ad,tcheck) scf=(maxcycle=1)\\title\\0,1\C,0,2.24638741,-0.82634175,0.1
 2403839\C,0,1.15532587,0.33543201,0.52656774\C,0,0.28409106,-0.2716131
 ,-0.31272507\C,0,-2.08174644,0.6377752,-0.21525615\N,0,-2.73326134,-0.
 54016839,-0.24809227\C,0,-1.53046164,1.70687307,-0.24769015\O,0,1.3883
 39,1.13306588,1.38530275\H,0,3.12108704,-0.23087129,-0.13423426\H,0,2.
 03273091,-1.53444243,-0.67488492\H,0,2.38796356,-1.37603995,1.05053552

 Normal termination of Gaussian 16 at Wed Apr  9 15:20:57 2025.
