 Gaussian 16, Revision C.01,

 ----------------------------------------------------------------------
 #t hf aug-cc-pvdz symm=none int=(grid=ultrafine) guess=(read,tcheck) s
 table=(opt,rrhf)
 ----------------------------------------------------------------------
 -----
 title
 -----
 Symbolic Z-matrix:
 Charge =  0 Multiplicity = 1

 SCF Done:  E(RHF) =  -355.880634208     A.U. after   14 cycles
 Normal termination of Gaussian 16 at Wed Apr  9 16:51:10 2025.
 Gaussian 16:  ES64L-G16RevC.01  3-Jul-2019

 ----------------------------------------------------------------------
 #t hf aug-cc-pvdz iop(5/13=1,5/36=2,99/5=2) pseudo=read geom=check gue
 ss=(read,tcheck) scf=(maxcycle=1)
 ----------------------------------------------------------------------
 -----
 title
 -----
 Structure from the checkpoint file:  "Grambow2020_wb97xd3_008995_forward_mol1.chk"
 Charge =  0 Multiplicity = 1

                         Standard orientation:
 ---------------------------------------------------------------------
 Center     Atomic      Atomic             Coordinates (Angstroms)
 Number     Number       Type             X           Y           Z
 ---------------------------------------------------------------------
      1          6           0        2.688178   -0.365458    0.002496
      2          7           0        1.600877    0.590017   -0.070511
      3          6           0        0.302226    0.223949    0.011763
      4          8           0        0.087707   -1.056371    0.035205
      5          7           0       -0.694766    1.064462    0.054907
      6          6           0       -2.380307    0.321073   -0.014394
      7          7           0       -2.435754   -0.860728   -0.033116
      8          1           0        2.507877   -1.187339   -0.687283
      9          1           0        2.811962   -0.776577    1.007194
     10          1           0        3.607759    0.138274   -0.290301
     11          1           0        1.808817    1.563158    0.054562
     12          1           0       -0.468373    2.044523   -0.023174
     13          1           0       -2.966647    1.228089   -0.014501
     14          1           0       -0.956138   -1.192797    0.013713
 ---------------------------------------------------------------------

 SCF Done:  E(RHF) =  -355.992286123     A.U. after    2 cycles

 The electronic state is 1-A.
 Alpha  occ. eigenvalues --  -20.59496 -15.66745 -15.62325 -15.57765 -11.41375
 Alpha  occ. eigenvalues --  -11.30589 -11.28704  -1.40681  -1.23752  -1.17852
 Alpha  occ. eigenvalues --   -1.13862  -0.95949  -0.85654  -0.79702  -0.75505
 Alpha  occ. eigenvalues --   -0.69895  -0.67231  -0.65992  -0.60694  -0.59216
 Alpha  occ. eigenvalues --   -0.57730  -0.55702  -0.50893  -0.47195  -0.44701
 Alpha  occ. eigenvalues --   -0.38003  -0.34788
 Alpha virt. eigenvalues --    0.02002   0.03226   0.04613   0.05191   0.06186
 Alpha virt. eigenvalues --    0.07462   0.08952   0.09764   0.10971   0.12247
 Alpha virt. eigenvalues --    0.13344   0.13939   0.14038   0.14606   0.15299

 Mulliken charges:
               1
     1  C    0.811157
     2  N   -0.314491
     3  C    0.599594
     4  O   -0.564535
     5  N   -0.272148
     6  C    0.601587
     7  N   -0.493413
     8  H   -0.104574
     9  H   -0.072749
    10  H   -0.207472
    11  H   -0.113595
    12  H   -0.132417
    13  H   -0.142010
    14  H    0.405068
 Sum of Mulliken charges =   0.00000

 Dipole moment (field-independent basis, Debye):
    X=              4.4199    Y=              4.6820    Z=              0.0774  Tot=              6.4392

 Test job not archived.
 1\1\GINC-SE114\SP\RHF\Aug-CC-pVDZ\C3H7N3O1\OHZDE\09-Apr-2025\0\\#t hf
 aug-cc-pvdz iop(5/13=1,5/36=2,99/5=2) pseudo=read geom=check guess=(re
 ad,tcheck) scf=(maxcycle=1)\\title\\0,1\C,0,2.33685311,0.36839243,-0.3
 221973\N,0,1.13844834,0.22766722,0.48061494\C,0,-0.0759144,-0.01873658
 ,-0.05964244\O,0,-0.12003787,0.00292805,-1.35709058\N,0,-1.15370863,-0
 .254417,0.63687175\C,0,-2.72223901,-0.3844282,-0.32296751\N,0,-2.62925
 867,-0.30405841,-1.49981667\H,0,2.16080456,1.07242862,-1.13283353\H,0,
 2.66149832,-0.58198526,-0.75248498\H,0,3.13042104,0.76010554,0.3117714

 Normal termination of Gaussian 16 at Wed Apr  9 16:51:14 2025.
