 Gaussian 16, Revision C.01,

 ----------------------------------------------------------------------
 #t hf aug-cc-pvdz symm=none int=(grid=ultrafine) guess=(read,tcheck) s
 table=(opt,rrhf)
 ----------------------------------------------------------------------
 -----
 title
 -----
 Symbolic Z-matrix:
 Charge =  0 Multiplicity = 1

 SCF Done:  E(RHF) =  -283.728658116     A.U. after   14 cycles
 Normal termination of Gaussian 16 at Wed Apr  9 14:24:08 2025.
 Gaussian 16:  ES64L-G16RevC.01  3-Jul-2019

 ----------------------------------------------------------------------
 #t hf aug-cc-pvdz iop(5/13=1,5/36=2,99/5=2) pseudo=read geom=check gue
 ss=(read,tcheck) scf=(maxcycle=1)
 ----------------------------------------------------------------------
 -----
 title
 -----
 Structure from the checkpoint file:  "Grambow2020_wb97xd3_006228_reverse_mol2.chk"
 Charge =  0 Multiplicity = 1

                         Standard orientation:
 ---------------------------------------------------------------------
 Center     Atomic      Atomic             Coordinates (Angstroms)
 Number     Number       Type             X           Y           Z
 ---------------------------------------------------------------------
      1          8           0        2.044746   -0.003378   -0.008682
      2          6           0        0.852693   -0.022589    0.000834
      3          6           0       -0.078705    1.189083    0.010993
      4          6           0       -1.470273    0.573405   -0.011034
      5          6           0       -1.150655   -0.897614    0.001860
      6          7           0        0.074608   -1.232392    0.006495
      7          1           0        0.142817    1.818147   -0.850431
      8          1           0        0.122667    1.778564    0.905282
      9          1           0       -2.086478    0.838335    0.850892
     10          1           0       -1.927587   -1.659277    0.004758
     11          1           0       -2.049999    0.824291   -0.902439
 ---------------------------------------------------------------------

 SCF Done:  E(RHF) =  -283.813759212     A.U. after    2 cycles

 The electronic state is 1-A.
 Alpha  occ. eigenvalues --  -20.56269 -15.64330 -11.36692 -11.32804 -11.27456
 Alpha  occ. eigenvalues --  -11.26361  -1.37249  -1.24984  -1.06232  -0.96040
 Alpha  occ. eigenvalues --   -0.83402  -0.74604  -0.70235  -0.67677  -0.64808
 Alpha  occ. eigenvalues --   -0.59847  -0.57481  -0.54836  -0.53567  -0.47718
 Alpha  occ. eigenvalues --   -0.44386  -0.41793
 Alpha virt. eigenvalues --    0.02415   0.03831   0.04088   0.05347   0.06964
 Alpha virt. eigenvalues --    0.08203   0.08977   0.10502   0.10923   0.11019
 Alpha virt. eigenvalues --    0.13542   0.13752   0.14332   0.15299   0.16010

 Mulliken charges:
               1
     1  O   -0.461291
     2  C    0.503081
     3  C    0.043073
     4  C    0.229286
     5  C    0.525527
     6  N   -0.503835
     7  H   -0.015722
     8  H   -0.011665
     9  H   -0.032940
    10  H   -0.245567
    11  H   -0.029947
 Sum of Mulliken charges =  -0.00000

 Dipole moment (field-independent basis, Debye):
    X=             -5.6023    Y=              2.0885    Z=              0.0125  Tot=              5.9790

 Test job not archived.
 1\1\GINC-SE219\SP\RHF\Aug-CC-pVDZ\C4H5N1O1\OHZDE\09-Apr-2025\0\\#t hf
 aug-cc-pvdz iop(5/13=1,5/36=2,99/5=2) pseudo=read geom=check guess=(re
 ad,tcheck) scf=(maxcycle=1)\\title\\0,1\O,0,-1.71804715,1.81843281,0.5
 3061865\C,0,-0.81481313,1.06129493,0.35073303\C,0,-0.89510314,-0.31216
 65,-0.31478274\C,0,0.5448879,-0.80428937,-0.29913477\C,0,1.2453953,0.3
 3161364,0.39745106\N,0,0.54156533,1.32931677,0.7475632\H,0,-1.31647044
 ,-0.20203473,-1.31336478\H,0,-1.57635041,-0.94038702,0.25883099\H,0,0.
 68918446,-1.73699926,0.25045044\H,0,2.31439679,0.3163412,0.59935073\H,

 Normal termination of Gaussian 16 at Wed Apr  9 14:24:11 2025.
