 Gaussian 16, Revision C.01,

 ----------------------------------------------------------------------
 #t hf aug-cc-pvdz symm=none int=(grid=ultrafine) guess=(read,tcheck) s
 table=(opt,rrhf)
 ----------------------------------------------------------------------
 -----
 title
 -----
 Symbolic Z-matrix:
 Charge =  0 Multiplicity = 1

 SCF Done:  E(RHF) =  -321.918304420     A.U. after   13 cycles
 Normal termination of Gaussian 16 at Wed Apr  9 03:08:50 2025.
 Gaussian 16:  ES64L-G16RevC.01  3-Jul-2019

 ----------------------------------------------------------------------
 #t hf aug-cc-pvdz iop(5/13=1,5/36=2,99/5=2) pseudo=read geom=check gue
 ss=(read,tcheck) scf=(maxcycle=1)
 ----------------------------------------------------------------------
 -----
 title
 -----
 Structure from the checkpoint file:  "Grambow2020_b97d3_006702_forward_mol2.chk"
 Charge =  0 Multiplicity = 1

                         Standard orientation:
 ---------------------------------------------------------------------
 Center     Atomic      Atomic             Coordinates (Angstroms)
 Number     Number       Type             X           Y           Z
 ---------------------------------------------------------------------
      1          6           0        2.440908   -0.008231    0.041464
      2          7           0        1.131016   -0.622580   -0.069358
      3          6           0       -0.019005    0.117294   -0.019011
      4          8           0       -0.089584    1.338674   -0.016918
      5          8           0       -1.100300   -0.729288    0.007144
      6          6           0       -2.370105   -0.054449    0.021719
      7          1           0        3.150063   -0.504231   -0.635112
      8          1           0        2.838862   -0.051026    1.068662
      9          1           0        2.342225    1.042044   -0.249479
     10          1           0        1.040622   -1.625910    0.038281
     11          1           0       -2.462577    0.591159    0.904159
     12          1           0       -3.117820   -0.853085    0.052734
     13          1           0       -2.500202    0.556335   -0.880585
 ---------------------------------------------------------------------

 SCF Done:  E(RHF) =  -322.023429873     A.U. after    2 cycles

 The electronic state is 1-A.
 Alpha  occ. eigenvalues --  -20.61422 -20.54326 -15.65289 -11.41815 -11.29619
 Alpha  occ. eigenvalues --  -11.27625  -1.41107  -1.31246  -1.20013  -0.98679
 Alpha  occ. eigenvalues --   -0.91560  -0.79422  -0.75430  -0.68584  -0.68404
 Alpha  occ. eigenvalues --   -0.63375  -0.61355  -0.59373  -0.55201  -0.55031
 Alpha  occ. eigenvalues --   -0.53856  -0.47944  -0.47471  -0.39952
 Alpha virt. eigenvalues --    0.03216   0.04068   0.04961   0.05280   0.06546
 Alpha virt. eigenvalues --    0.06927   0.07763   0.10381   0.11633   0.13297
 Alpha virt. eigenvalues --    0.13787   0.14260   0.15129   0.16341   0.16700

 Mulliken charges:
               1
     1  C    0.710939
     2  N   -0.322401
     3  C    0.731134
     4  O   -0.454910
     5  O   -0.615979
     6  C    0.690795
     7  H   -0.145143
     8  H   -0.072022
     9  H   -0.128925
    10  H   -0.065820
    11  H   -0.045002
    12  H   -0.236650
    13  H   -0.046016
 Sum of Mulliken charges =  -0.00000

 Dipole moment (field-independent basis, Debye):
    X=              0.5118    Y=             -2.5342    Z=              0.2486  Tot=              2.5973

 Test job not archived.
 1\1\GINC-SE403\SP\RHF\Aug-CC-pVDZ\C3H7N1O2\OHZDE\09-Apr-2025\0\\#t hf
 aug-cc-pvdz iop(5/13=1,5/36=2,99/5=2) pseudo=read geom=check guess=(re
 ad,tcheck) scf=(maxcycle=1)\\title\\0,1\C,0,-2.33412133,-0.19561628,-0
 .09214172\N,0,-1.06402015,0.50544845,-0.12172014\C,0,0.1265856,-0.1629
 4432,-0.21230881\O,0,0.26555735,-1.3619105,-0.41211672\O,0,1.15903329,
 0.7308734,-0.06491723\C,0,2.46462826,0.1394941,-0.18204068\H,0,-3.0871
 5599,0.36100126,-0.66641364\H,0,-2.70726297,-0.34471793,0.93443849\H,0
 ,-2.18423838,-1.17660222,-0.55329775\H,0,-1.02727408,1.48135835,0.1478

 Normal termination of Gaussian 16 at Wed Apr  9 03:08:54 2025.
