 Gaussian 16, Revision C.01,

 ----------------------------------------------------------------------
 #t hf aug-cc-pvdz symm=none int=(grid=ultrafine) guess=(read,tcheck) s
 table=(opt,rrhf)
 ----------------------------------------------------------------------
 -----
 title
 -----
 Symbolic Z-matrix:
 Charge =  0 Multiplicity = 1

 SCF Done:  E(RHF) =  -359.485078256     A.U. after   17 cycles
 Normal termination of Gaussian 16 at Wed Apr  9 03:45:33 2025.
 Gaussian 16:  ES64L-G16RevC.01  3-Jul-2019

 ----------------------------------------------------------------------
 #t hf aug-cc-pvdz iop(5/13=1,5/36=2,99/5=2) pseudo=read geom=check gue
 ss=(read,tcheck) scf=(maxcycle=1)
 ----------------------------------------------------------------------
 -----
 title
 -----
 Structure from the checkpoint file:  "Grambow2020_wb97xd3_007889_reverse_mol1.chk"
 Charge =  0 Multiplicity = 1

                         Standard orientation:
 ---------------------------------------------------------------------
 Center     Atomic      Atomic             Coordinates (Angstroms)
 Number     Number       Type             X           Y           Z
 ---------------------------------------------------------------------
      1          6           0       -1.165719    1.579644    0.134281
      2          6           0       -0.386004    0.429442   -0.075828
      3          7           0       -0.846548   -0.872824   -0.118698
      4          8           0       -2.205843   -0.832418    0.131101
      5          6           0        1.110885    0.559230   -0.031043
      6          6           0        1.929708   -0.405037    0.697391
      7          8           0        1.880511   -0.398520   -0.718940
      8          1           0       -2.234551    1.514744    0.254298
      9          1           0       -0.689097    2.546724    0.069701
     10          1           0       -0.750053    0.374343   -1.183654
     11          1           0       -2.502292   -1.709621   -0.124876
     12          1           0        1.461553    1.583413   -0.128797
     13          1           0        2.871306   -0.081505    1.130896
     14          1           0        1.438407   -1.250492    1.167221
 ---------------------------------------------------------------------

 SCF Done:  E(RHF) =  -359.594947234     A.U. after    2 cycles

 The electronic state is 1-A.
 Alpha  occ. eigenvalues --  -20.61699 -20.59571 -15.67874 -11.31721 -11.31443
 Alpha  occ. eigenvalues --  -11.30159 -11.26570  -1.40156  -1.38846  -1.16187
 Alpha  occ. eigenvalues --   -0.98661  -0.93861  -0.88716  -0.78173  -0.72577
 Alpha  occ. eigenvalues --   -0.71000  -0.69231  -0.64955  -0.63803  -0.59563
 Alpha  occ. eigenvalues --   -0.57491  -0.54839  -0.53623  -0.47555  -0.45932
 Alpha  occ. eigenvalues --   -0.44769  -0.27287
 Alpha virt. eigenvalues --    0.03087   0.04005   0.04391   0.05266   0.05707
 Alpha virt. eigenvalues --    0.06379   0.06696   0.07981   0.09725   0.12704
 Alpha virt. eigenvalues --    0.13094   0.13494   0.14039   0.15139   0.15464

 Mulliken charges:
               1
     1  C    1.017177
     2  C   -0.276605
     3  N   -0.525360
     4  O   -0.489412
     5  C    1.001795
     6  C    0.770120
     7  O   -0.703627
     8  H   -0.290576
     9  H   -0.295678
    10  H    0.346369
    11  H    0.181272
    12  H   -0.341656
    13  H   -0.203827
    14  H   -0.189992
 Sum of Mulliken charges =  -0.00000

 Dipole moment (field-independent basis, Debye):
    X=             -0.2542    Y=              1.2703    Z=              0.8360  Tot=              1.5418

 Test job not archived.
 1\1\GINC-SE423\SP\RHF\Aug-CC-pVDZ\C4H7N1O2\OHZDE\09-Apr-2025\0\\#t hf
 aug-cc-pvdz iop(5/13=1,5/36=2,99/5=2) pseudo=read geom=check guess=(re
 ad,tcheck) scf=(maxcycle=1)\\title\\0,1\C,0,-1.36808894,-0.72011768,-0
 .8955968\C,0,-0.41051148,-0.21256333,-0.00089027\N,0,-0.64939477,0.664
 29228,1.04021225\O,0,-1.994404,0.98264882,1.00393721\C,0,1.04454708,-0
 .43921435,-0.3024856\C,0,2.01800969,0.64107451,-0.17503843\O,0,1.95617
 737,-0.41287551,0.77038346\H,0,-2.41033909,-0.4632524,-0.80203558\H,0,
 -1.05877232,-1.45884959,-1.62028974\H,0,-0.76996801,-0.9593993,0.82122

 Normal termination of Gaussian 16 at Wed Apr  9 03:45:38 2025.
