 Gaussian 16, Revision C.01,

 ----------------------------------------------------------------------
 #t hf aug-cc-pvdz symm=none int=(grid=ultrafine) guess=(read,tcheck) s
 table=(opt,rrhf)
 ----------------------------------------------------------------------
 -----
 title
 -----
 Symbolic Z-matrix:
 Charge =  0 Multiplicity = 1

 SCF Done:  E(RHF) =  -343.534200823     A.U. after   17 cycles
 Normal termination of Gaussian 16 at Wed Apr  9 16:00:07 2025.
 Gaussian 16:  ES64L-G16RevC.01  3-Jul-2019

 ----------------------------------------------------------------------
 #t hf aug-cc-pvdz iop(5/13=1,5/36=2,99/5=2) pseudo=read geom=check gue
 ss=(read,tcheck) scf=(maxcycle=1)
 ----------------------------------------------------------------------
 -----
 title
 -----
 Structure from the checkpoint file:  "Grambow2020_wb97xd3_007672_reverse_mol2.chk"
 Charge =  0 Multiplicity = 1

                         Standard orientation:
 ---------------------------------------------------------------------
 Center     Atomic      Atomic             Coordinates (Angstroms)
 Number     Number       Type             X           Y           Z
 ---------------------------------------------------------------------
      1          6           0        0.805446    1.742750   -0.295528
      2          6           0       -0.006729    0.738210    0.544483
      3          6           0       -1.394365    0.725616    0.005890
      4          8           0       -1.456577   -0.405333   -0.771013
      5          6           0       -0.405824   -1.244807   -0.727415
      6          6           0        0.458602   -0.707832    0.360035
      7          8           0        1.828239   -0.895933    0.171851
      8          1           0        0.386401    2.743262   -0.203631
      9          1           0        0.814307    1.462026   -1.349822
     10          1           0        1.834184    1.743471    0.059017
     11          1           0       -0.032504    1.082715    1.579422
     12          1           0       -2.537750   -0.330379    2.118179
     13          1           0       -2.220629   -0.901292    2.481274
     14          1           0        0.095265   -1.291186    1.232108
     15          1           0        1.944655   -1.622114   -0.448035
 ---------------------------------------------------------------------

 SCF Done:  E(RHF) =  -343.641535796     A.U. after    2 cycles

 The electronic state is 1-A.
 Alpha  occ. eigenvalues --  -20.67426 -20.60188 -11.34219 -11.34180 -11.31922
 Alpha  occ. eigenvalues --  -11.26781 -11.25651  -1.45557  -1.36121  -1.10697
 Alpha  occ. eigenvalues --   -1.01734  -0.95021  -0.83804  -0.80893  -0.72722
 Alpha  occ. eigenvalues --   -0.68060  -0.67307  -0.63723  -0.61562  -0.60511
 Alpha  occ. eigenvalues --   -0.57878  -0.55946  -0.55117  -0.52793  -0.48457
 Alpha  occ. eigenvalues --   -0.40986  -0.38899
 Alpha virt. eigenvalues --    0.03242   0.04122   0.04544   0.04796   0.05957
 Alpha virt. eigenvalues --    0.06355   0.06886   0.07532   0.08363   0.09067
 Alpha virt. eigenvalues --    0.10140   0.11301   0.12997   0.13528   0.14251

 Mulliken charges:
               1
     1  C    0.667045
     2  C   -0.649161
     3  C    0.241666
     4  O   -0.484459
     5  C   -0.007482
     6  C    0.831502
     7  O   -0.620404
     8  H   -0.037482
     9  H   -0.059547
    10  H    0.023461
    11  H   -0.164566
    12  H    0.065497
    13  H   -0.021160
    14  H    0.025204
    15  H    0.189884
 Sum of Mulliken charges =  -0.00000

 Dipole moment (field-independent basis, Debye):
    X=              1.8418    Y=              0.3040    Z=              1.3474  Tot=              2.3022

 Test job not archived.
 1\1\GINC-SE232\SP\RHF\Aug-CC-pVDZ\C5H8O2\OHZDE\09-Apr-2025\0\\#t hf au
 g-cc-pvdz iop(5/13=1,5/36=2,99/5=2) pseudo=read geom=check guess=(read
 ,tcheck) scf=(maxcycle=1)\\title\\0,1\C,0,1.73605449,-0.60452084,0.168
 03781\C,0,0.44211139,0.21321472,0.34514255\C,0,0.45724249,1.29824871,-
 0.67380164\O,0,-0.37440778,0.85136769,-1.67137318\C,0,-1.07387376,-0.2
 7390131,-1.43639231\C,0,-0.81856197,-0.58174016,-0.00175855\O,0,-0.797
 9401,-1.94033246,0.31526377\H,0,2.60958835,0.02227341,0.33872764\H,0,1
 .80131583,-1.03119061,-0.83401757\H,0,1.73068393,-1.42598786,0.8815971

 Normal termination of Gaussian 16 at Wed Apr  9 16:00:12 2025.
