 Gaussian 16, Revision C.01,

 ----------------------------------------------------------------------
 #t hf aug-cc-pvdz symm=none int=(grid=ultrafine) guess=(read,tcheck) s
 table=(opt,rrhf)
 ----------------------------------------------------------------------
 -----
 title
 -----
 Symbolic Z-matrix:
 Charge =  0 Multiplicity = 1

 SCF Done:  E(RHF) =  -322.544028404     A.U. after   16 cycles
 Normal termination of Gaussian 16 at Wed Apr  9 15:47:01 2025.
 Gaussian 16:  ES64L-G16RevC.01  3-Jul-2019

 ----------------------------------------------------------------------
 #t hf aug-cc-pvdz iop(5/13=1,5/36=2,99/5=2) pseudo=read geom=check gue
 ss=(read,tcheck) scf=(maxcycle=1)
 ----------------------------------------------------------------------
 -----
 title
 -----
 Structure from the checkpoint file:  "Grambow2020_wb97xd3_007390_forward_mol1.chk"
 Charge =  0 Multiplicity = 1

                         Standard orientation:
 ---------------------------------------------------------------------
 Center     Atomic      Atomic             Coordinates (Angstroms)
 Number     Number       Type             X           Y           Z
 ---------------------------------------------------------------------
      1          6           0        1.437866   -0.307289    0.605032
      2          6           0        0.715145   -1.051527   -0.465094
      3          6           0       -0.728251   -1.017609   -0.417810
      4          8           0       -1.282766   -0.432835    0.700055
      5          6           0       -1.210261    0.802574    0.003204
      6          7           0       -0.108066    1.430349   -0.285292
      7          6           0        1.115521    0.969825   -0.102072
      8          1           0        1.019975   -0.424435    1.601248
      9          1           0        2.504042   -0.517854    0.615133
     10          1           0        1.195536   -1.373590   -1.379310
     11          1           0       -0.059079   -2.087649   -0.087987
     12          1           0       -1.360762   -1.256027   -1.265952
     13          1           0       -2.178451    1.222923   -0.233510
     14          1           0        1.917203    1.511029   -0.592576
 ---------------------------------------------------------------------

 SCF Done:  E(RHF) =  -322.640485745     A.U. after    2 cycles

 The electronic state is 1-A.
 Alpha  occ. eigenvalues --  -20.61523 -15.62334 -11.35214 -11.30738 -11.30656
 Alpha  occ. eigenvalues --  -11.25881 -11.25385  -1.40556  -1.19947  -1.11936
 Alpha  occ. eigenvalues --   -0.99473  -0.90489  -0.80331  -0.78301  -0.72507
 Alpha  occ. eigenvalues --   -0.69325  -0.66813  -0.63719  -0.62504  -0.56238
 Alpha  occ. eigenvalues --   -0.54042  -0.52364  -0.50611  -0.43766  -0.38812
 Alpha  occ. eigenvalues --   -0.25375
 Alpha virt. eigenvalues --    0.02782   0.03894   0.04440   0.05053   0.06196
 Alpha virt. eigenvalues --    0.06507   0.06980   0.09654   0.10451   0.11231
 Alpha virt. eigenvalues --    0.12780   0.13559   0.13608   0.13920   0.14623

 Mulliken charges:
               1
     1  C    0.740804
     2  C   -0.032412
     3  C    0.434623
     4  O   -0.648620
     5  C    0.565713
     6  N   -0.309841
     7  C    0.500158
     8  H   -0.095354
     9  H   -0.131004
    10  H   -0.342144
    11  H    0.257181
    12  H   -0.197755
    13  H   -0.344768
    14  H   -0.396582
 Sum of Mulliken charges =   0.00000

 Dipole moment (field-independent basis, Debye):
    X=              1.1006    Y=             -3.4019    Z=             -1.2298  Tot=              3.7811

 Test job not archived.
 1\1\GINC-SE219\SP\RHF\Aug-CC-pVDZ\C5H7N1O1\OHZDE\09-Apr-2025\0\\#t hf
 aug-cc-pvdz iop(5/13=1,5/36=2,99/5=2) pseudo=read geom=check guess=(re
 ad,tcheck) scf=(maxcycle=1)\\title\\0,1\C,0,-1.33998435,-0.34067522,0.
 3108424\C,0,-0.63858636,0.75169164,-0.42138844\C,0,0.6807039,1.1053625
 7,0.04889656\O,0,1.08597774,0.50398945,1.22072115\C,0,1.58353156,-0.55
 87706,0.42067333\N,0,0.84481885,-1.40150615,-0.23983113\C,0,-0.4654820
 7,-1.33318445,-0.38564406\H,0,-1.24817736,-0.29414126,1.39260429\H,0,-
 2.38396841,-0.43463412,0.0237201\H,0,-0.94580773,1.08854465,-1.4024257

 Normal termination of Gaussian 16 at Wed Apr  9 15:47:06 2025.
