 Gaussian 16, Revision C.01,

 ----------------------------------------------------------------------
 #t hf aug-cc-pvdz symm=none int=(grid=ultrafine) guess=(read,tcheck) s
 table=(opt,rrhf)
 ----------------------------------------------------------------------
 -----
 title
 -----
 Symbolic Z-matrix:
 Charge =  0 Multiplicity = 1

 SCF Done:  E(RHF) =  -381.871859542     A.U. after   12 cycles

 1\1\GINC-SE226\Stability\RHF\Aug-CC-pVDZ\C4H10O3\OHZDE\09-Apr-2025\0\\
 #t hf aug-cc-pvdz symm=none int=(grid=ultrafine) guess=(read,tcheck) s
 table=(opt,rrhf)\\title\\0,1\C,0,3.16084829,0.6747723,0.71703929\O,0,1
 .97155153,-0.05516199,0.90451533\C,0,-0.40447887,-0.25056389,-1.415382
 58\C,0,-1.012486,-0.6377239,-0.15169124\O,0,-0.46556538,0.6727272,-0.3
 2049373\C,0,-2.50672452,-0.67552331,0.04279758\O,0,-3.18949476,0.21063
 936,-0.80682608\H,0,3.98503129,0.05986914,1.07934348\H,0,3.16224045,1.
 6146088,1.28113036\H,0,3.34577931,0.9039891,-0.33947223\H,0,-1.0436606

 Normal termination of Gaussian 16 at Wed Apr  9 16:48:43 2025.
 Gaussian 16:  ES64L-G16RevC.01  3-Jul-2019

 ----------------------------------------------------------------------
 #t hf aug-cc-pvdz iop(5/13=1,5/36=2,99/5=2) pseudo=read geom=check gue
 ss=(read,tcheck) scf=(maxcycle=1)
 ----------------------------------------------------------------------
 -----
 title
 -----
 Structure from the checkpoint file:  "Grambow2020_wb97xd3_008924_reverse_mol2.chk"
 Charge =  0 Multiplicity = 1

                         Standard orientation:
 ---------------------------------------------------------------------
 Center     Atomic      Atomic             Coordinates (Angstroms)
 Number     Number       Type             X           Y           Z
 ---------------------------------------------------------------------
      1          6           0       -3.582482    0.065274   -0.240252
      2          8           0       -2.392306   -0.585780    0.136559
      3          6           0        0.455721    1.044469    0.681226
      4          6           0        0.800019   -0.353935    0.475293
      5          8           0        0.161204    0.394710   -0.562178
      6          6           0        2.205226   -0.797041    0.157403
      7          8           0        2.958656    0.199344   -0.485155
      8          1           0       -4.392483   -0.360711    0.352271
      9          1           0       -3.818516   -0.085727   -1.299959
     10          1           0       -3.546868    1.143593   -0.042979
     11          1           0        1.235370    1.795144    0.619442
     12          1           0       -0.416995    1.290742    1.276997
     13          1           0        0.159736   -1.107358    0.928856
     14          1           0       -1.654751   -0.214260   -0.365312
     15          1           0        2.155322   -1.711078   -0.448881
     16          1           0        2.721942   -1.045154    1.086969
     17          1           0        2.465909    0.476016   -1.263232
 ---------------------------------------------------------------------

 SCF Done:  E(RHF) =  -381.996874481     A.U. after    2 cycles

 The electronic state is 1-A.
 Alpha  occ. eigenvalues --  -20.60496 -20.58114 -20.55414 -11.30911 -11.30380
 Alpha  occ. eigenvalues --  -11.30170 -11.27423  -1.40080  -1.33445  -1.30675
 Alpha  occ. eigenvalues --   -1.00245  -0.92589  -0.91573  -0.83458  -0.74685
 Alpha  occ. eigenvalues --   -0.71998  -0.68884  -0.66568  -0.63035  -0.61896
 Alpha  occ. eigenvalues --   -0.59767  -0.59692  -0.56362  -0.52610  -0.51282
 Alpha  occ. eigenvalues --   -0.49991  -0.47156  -0.45313  -0.45040
 Alpha virt. eigenvalues --    0.03443   0.04417   0.04574   0.04755   0.06175
 Alpha virt. eigenvalues --    0.06469   0.06744   0.07493   0.07832   0.09715
 Alpha virt. eigenvalues --    0.10868   0.12074   0.13937   0.14345   0.14775

 Mulliken charges:
               1
     1  C    0.842177
     2  O   -0.441220
     3  C    0.946123
     4  C    0.287586
     5  O   -0.807716
     6  C    0.827417
     7  O   -0.542442
     8  H   -0.246149
     9  H   -0.139786
    10  H   -0.140930
    11  H   -0.256530
    12  H   -0.260184
    13  H   -0.307520
    14  H    0.134694
    15  H   -0.024447
    16  H   -0.041014
    17  H    0.169941
 Sum of Mulliken charges =  -0.00000

 Dipole moment (field-independent basis, Debye):
    X=             -0.2456    Y=              0.6119    Z=              0.5694  Tot=              0.8712

 Test job not archived.
 1\1\GINC-SE226\SP\RHF\Aug-CC-pVDZ\C4H10O3\OHZDE\09-Apr-2025\0\\#t hf a
 ug-cc-pvdz iop(5/13=1,5/36=2,99/5=2) pseudo=read geom=check guess=(rea
 d,tcheck) scf=(maxcycle=1)\\title\\0,1\C,0,3.16084829,0.6747723,0.7170
 3929\O,0,1.97155153,-0.05516199,0.90451533\C,0,-0.40447887,-0.25056389
 ,-1.41538258\C,0,-1.012486,-0.6377239,-0.15169124\O,0,-0.46556538,0.67
 27272,-0.32049373\C,0,-2.50672452,-0.67552331,0.04279758\O,0,-3.189494
 76,0.21063936,-0.80682608\H,0,3.98503129,0.05986914,1.07934348\H,0,3.1
 6224045,1.6146088,1.28113036\H,0,3.34577931,0.9039891,-0.33947223\H,0,

 Normal termination of Gaussian 16 at Wed Apr  9 16:48:58 2025.
