 Gaussian 16, Revision C.01,

 ----------------------------------------------------------------------
 #t hf aug-cc-pvdz symm=none int=(grid=ultrafine) guess=(read,tcheck) s
 table=(opt,rrhf)
 ----------------------------------------------------------------------
 -----
 title
 -----
 Symbolic Z-matrix:
 Charge =  0 Multiplicity = 1

 SCF Done:  E(RHF) =  -352.281098902     A.U. after   18 cycles
 Normal termination of Gaussian 16 at Wed Apr  9 16:24:40 2025.
 Gaussian 16:  ES64L-G16RevC.01  3-Jul-2019

 ----------------------------------------------------------------------
 #t hf aug-cc-pvdz iop(5/13=1,5/36=2,99/5=2) pseudo=read geom=check gue
 ss=(read,tcheck) scf=(maxcycle=1)
 ----------------------------------------------------------------------
 -----
 title
 -----
 Structure from the checkpoint file:  "Grambow2020_wb97xd3_008226_forward_mol1.chk"
 Charge =  0 Multiplicity = 1

                         Standard orientation:
 ---------------------------------------------------------------------
 Center     Atomic      Atomic             Coordinates (Angstroms)
 Number     Number       Type             X           Y           Z
 ---------------------------------------------------------------------
      1          7           0        1.662122   -0.344718   -0.510295
      2          6           0        2.051433   -0.537930    0.615706
      3          6           0        0.254986   -0.126517   -0.113295
      4          6           0       -0.766546   -1.157171   -0.055112
      5          8           0       -1.939415   -0.926851    0.101719
      6          7           0       -0.561631    2.154297    0.057955
      7          7           0       -0.152226    1.122363   -0.023977
      8          1           0       -0.361774   -2.179073   -0.163315
 ---------------------------------------------------------------------

 SCF Done:  E(RHF) =  -352.385606285     A.U. after    2 cycles

 The electronic state is 1-A.
 Alpha  occ. eigenvalues --  -20.58380 -15.86499 -15.80913 -15.69429 -11.37728
 Alpha  occ. eigenvalues --  -11.37243 -11.36060  -1.49477  -1.38090  -1.31857
 Alpha  occ. eigenvalues --   -1.15063  -0.93681  -0.79766  -0.75523  -0.73082
 Alpha  occ. eigenvalues --   -0.71186  -0.67643  -0.66167  -0.61429  -0.57385
 Alpha  occ. eigenvalues --   -0.53341  -0.52043  -0.46996  -0.36797
 Alpha virt. eigenvalues --    0.03944   0.04602   0.05339   0.06047   0.06908
 Alpha virt. eigenvalues --    0.07799   0.09225   0.09813   0.10686   0.11621
 Alpha virt. eigenvalues --    0.12862   0.13284   0.14137   0.15642   0.16626

 Mulliken charges:
               1
     1  N   -0.484921
     2  C    0.139661
     3  C    0.487268
     4  C    0.564829
     5  O   -0.501864
     6  N   -0.185013
     7  N    0.060968
     8  H   -0.080927
 Sum of Mulliken charges =   0.00000

 Dipole moment (field-independent basis, Debye):
    X=              1.7019    Y=              0.7692    Z=             -0.4750  Tot=              1.9271

 Test job not archived.
 1\1\GINC-SE454\SP\RHF\Aug-CC-pVDZ\C3H1N3O1\OHZDE\09-Apr-2025\0\\#t hf
 aug-cc-pvdz iop(5/13=1,5/36=2,99/5=2) pseudo=read geom=check guess=(re
 ad,tcheck) scf=(maxcycle=1)\\title\\0,1\N,0,1.61086821,-0.28950508,0.6
 4972118\C,0,2.00476997,-0.45558818,-0.47900736\C,0,0.19008845,-0.16230
 784,0.26183012\C,0,-0.48534249,1.08745654,-0.03990123\O,0,-1.67842288,
 1.18415775,-0.18298145\N,0,-1.26471641,-2.08720726,0.53861355\N,0,-0.5
 6820897,-1.22709995,0.41900479\H,0,0.20460613,1.94497701,-0.1318956\\V
 ersion=ES64L-G16RevC.01\State=1-A\HF=-352.3856063\RMSD=4.578e-03\Dipol

 Normal termination of Gaussian 16 at Wed Apr  9 16:24:43 2025.
