 Gaussian 16, Revision C.01,

 ----------------------------------------------------------------------
 #t hf aug-cc-pvdz symm=none int=(grid=ultrafine) guess=(read,tcheck) s
 table=(opt,rrhf)
 ----------------------------------------------------------------------
 -----
 title
 -----
 Symbolic Z-matrix:
 Charge =  0 Multiplicity = 1

 SCF Done:  E(RHF) =  -304.594529094     A.U. after   15 cycles
 Normal termination of Gaussian 16 at Wed Apr  9 14:16:03 2025.
 Gaussian 16:  ES64L-G16RevC.01  3-Jul-2019

 ----------------------------------------------------------------------
 #t hf aug-cc-pvdz iop(5/13=1,5/36=2,99/5=2) pseudo=read geom=check gue
 ss=(read,tcheck) scf=(maxcycle=1)
 ----------------------------------------------------------------------
 -----
 title
 -----
 Structure from the checkpoint file:  "Grambow2020_b97d3_006925_reverse_mol2.chk"
 Charge =  0 Multiplicity = 1

                         Standard orientation:
 ---------------------------------------------------------------------
 Center     Atomic      Atomic             Coordinates (Angstroms)
 Number     Number       Type             X           Y           Z
 ---------------------------------------------------------------------
      1          8           0       -0.913410    1.305849   -0.330932
      2          6           0       -0.850197   -0.042451   -0.101338
      3          6           0       -1.766002   -0.771969    0.561434
      4          6           0        1.680673    0.268952    0.993839
      5          8           0        1.652149   -0.156132   -0.252251
      6          6           0        0.348995   -0.644344   -0.765125
      7          1           0       -1.621990    1.679205    0.227242
      8          1           0       -2.670079   -0.327149    0.979271
      9          1           0       -1.613196   -1.835618    0.722487
     10          1           0        2.774273    0.542824    1.083817
     11          1           0        0.360050   -1.732334   -0.649640
     12          1           0        0.380208   -0.385800   -1.830568
 ---------------------------------------------------------------------

 SCF Done:  E(RHF) =  -304.689391503     A.U. after    2 cycles

 The electronic state is 1-A.
 Alpha  occ. eigenvalues --  -20.63971 -20.61186 -11.32724 -11.31845 -11.30544
 Alpha  occ. eigenvalues --  -11.23963  -1.39498  -1.36676  -1.06328  -0.97595
 Alpha  occ. eigenvalues --   -0.85887  -0.78717  -0.70500  -0.69549  -0.65311
 Alpha  occ. eigenvalues --   -0.64877  -0.61326  -0.58566  -0.56094  -0.53648
 Alpha  occ. eigenvalues --   -0.52598  -0.36777  -0.35613
 Alpha virt. eigenvalues --    0.03308   0.04269   0.04748   0.05343   0.06367
 Alpha virt. eigenvalues --    0.07064   0.08661   0.10142   0.10627   0.12481
 Alpha virt. eigenvalues --    0.13027   0.14085   0.14873   0.15193   0.16281

 Mulliken charges:
               1
     1  O   -0.601353
     2  C    0.538693
     3  C    0.597352
     4  C    0.153289
     5  O   -0.538490
     6  C    0.741088
     7  H    0.168952
     8  H   -0.404748
     9  H   -0.282942
    10  H   -0.122841
    11  H   -0.163909
    12  H   -0.085091
 Sum of Mulliken charges =   0.00000

 Dipole moment (field-independent basis, Debye):
    X=             -1.4944    Y=             -0.8334    Z=             -0.4028  Tot=              1.7578

 Test job not archived.
 1\1\GINC-SE113\SP\RHF\Aug-CC-pVDZ\C4H6O2\OHZDE\09-Apr-2025\0\\#t hf au
 g-cc-pvdz iop(5/13=1,5/36=2,99/5=2) pseudo=read geom=check guess=(read
 ,tcheck) scf=(maxcycle=1)\\title\\0,1\O,0,0.02349026,-1.21830306,-1.17
 445273\C,0,-0.09213413,-0.68657761,0.0819398\C,0,-0.98220138,-1.063923
 89,1.01764868\C,0,-0.28155552,1.85444657,-1.01760818\O,0,0.90374569,1.
 53008336,-0.54421686\C,0,0.97245878,0.33564298,0.33224984\H,0,-0.76243
 688,-1.77104804,-1.34716785\H,0,-1.70671851,-1.86005645,0.84141781\H,0
 ,-1.01970396,-0.55936469,1.97923633\H,0,-0.01161543,2.78096208,-1.6073

 Normal termination of Gaussian 16 at Wed Apr  9 14:16:07 2025.
