 Gaussian 16, Revision C.01,

 ----------------------------------------------------------------------
 #t hf aug-cc-pvdz symm=none int=(grid=ultrafine) guess=(read,tcheck) s
 table=(opt,rrhf)
 ----------------------------------------------------------------------
 -----
 title
 -----
 Symbolic Z-matrix:
 Charge =  0 Multiplicity = 1

 SCF Done:  E(RHF) =  -283.688491758     A.U. after   13 cycles
 Normal termination of Gaussian 16 at Wed Apr  9 14:24:07 2025.
 Gaussian 16:  ES64L-G16RevC.01  3-Jul-2019

 ----------------------------------------------------------------------
 #t hf aug-cc-pvdz iop(5/13=1,5/36=2,99/5=2) pseudo=read geom=check gue
 ss=(read,tcheck) scf=(maxcycle=1)
 ----------------------------------------------------------------------
 -----
 title
 -----
 Structure from the checkpoint file:  "Grambow2020_wb97xd3_006224_reverse_mol2.chk"
 Charge =  0 Multiplicity = 1

                         Standard orientation:
 ---------------------------------------------------------------------
 Center     Atomic      Atomic             Coordinates (Angstroms)
 Number     Number       Type             X           Y           Z
 ---------------------------------------------------------------------
      1          8           0        2.021980   -0.115130   -0.006391
      2          6           0        0.828911   -0.079815   -0.000099
      3          6           0       -0.192016   -1.190235    0.007993
      4          6           0       -1.528673   -0.444105   -0.007862
      5          6           0       -1.250065    1.043431    0.002368
      6          7           0        0.068235    1.128564    0.004328
      7          1           0       -0.034611   -1.800148    0.898155
      8          1           0       -0.023426   -1.833189   -0.855849
      9          1           0       -2.137167   -0.659020   -0.889389
     10          1           0       -2.168436   -0.673083    0.847026
     11          1           0        0.561209    2.010876    0.006491
 ---------------------------------------------------------------------

 SCF Done:  E(RHF) =  -283.773852031     A.U. after    2 cycles

 The electronic state is 1-A.
 Alpha  occ. eigenvalues --  -20.58099 -15.69408 -11.39138 -11.28512 -11.26679
 Alpha  occ. eigenvalues --  -11.25691  -1.39473  -1.26688  -1.07014  -0.96182
 Alpha  occ. eigenvalues --   -0.83674  -0.81770  -0.70554  -0.67729  -0.63677
 Alpha  occ. eigenvalues --   -0.58518  -0.58430  -0.56408  -0.54239  -0.47463
 Alpha  occ. eigenvalues --   -0.47317  -0.36699
 Alpha virt. eigenvalues --    0.03085   0.04482   0.04595   0.05046   0.07283
 Alpha virt. eigenvalues --    0.09070   0.09168   0.09487   0.10812   0.11058
 Alpha virt. eigenvalues --    0.13694   0.14644   0.15127   0.15543   0.16181

 Mulliken charges:
               1
     1  O   -0.442149
     2  C    0.582741
     3  C   -0.067456
     4  C    0.503054
     5  C   -0.123217
     6  N   -0.299545
     7  H    0.016566
     8  H    0.010189
     9  H   -0.046515
    10  H   -0.051662
    11  H   -0.082007
 Sum of Mulliken charges =  -0.00000

 Dipole moment (field-independent basis, Debye):
    X=             -1.4341    Y=             -1.4880    Z=              0.0131  Tot=              2.0667

 Test job not archived.
 1\1\GINC-SE232\SP\RHF\Aug-CC-pVDZ\C4H5N1O1\OHZDE\09-Apr-2025\0\\#t hf
 aug-cc-pvdz iop(5/13=1,5/36=2,99/5=2) pseudo=read geom=check guess=(re
 ad,tcheck) scf=(maxcycle=1)\\title\\0,1\O,0,-1.30035972,1.97853408,0.1
 4704651\C,0,-0.57325519,1.03320246,0.09839811\C,0,-0.80113768,-0.36205
 005,-0.42765422\C,0,0.53332664,-1.06398283,-0.16287276\C,0,1.48311709,
 -0.07003027,0.46993449\N,0,0.77513699,1.04095912,0.56808431\H,0,-1.066
 23564,-0.29610643,-1.48336888\H,0,-1.65328984,-0.80161977,0.09066142\H
 ,0,0.45002275,-1.91698411,0.51461691\H,0,1.00812498,-1.45695433,-1.064

 Normal termination of Gaussian 16 at Wed Apr  9 14:24:11 2025.
