 Gaussian 16, Revision C.01,

 ----------------------------------------------------------------------
 #t hf aug-cc-pvdz symm=none int=(grid=ultrafine) guess=(read,tcheck) s
 table=(opt,rrhf)
 ----------------------------------------------------------------------
 -----
 title
 -----
 Symbolic Z-matrix:
 Charge =  0 Multiplicity = 1

 SCF Done:  E(RHF) =  -308.949253409     A.U. after   14 cycles

 1\1\GINC-SE114\Stability\RHF\Aug-CC-pVDZ\C6H12O1\OHZDE\09-Apr-2025\0\\
 #t hf aug-cc-pvdz symm=none int=(grid=ultrafine) guess=(read,tcheck) s
 table=(opt,rrhf)\\title\\0,1\C,0,2.31206191,0.12950601,-0.26239764\C,0
 ,1.02530655,-0.24705364,0.44618574\O,0,1.34988959,-0.42354795,1.815503
 08\C,0,-0.03256616,0.82455471,0.27202446\C,0,-0.78279826,0.89402599,-1
 .05097767\C,0,-1.86637189,0.53509113,-0.10941603\C,0,-2.15180119,-0.94
 435673,-0.08518217\H,0,2.14317941,0.26090347,-1.3316902\H,0,3.05912443
 ,-0.65058451,-0.11622661\H,0,2.70676099,1.06153698,0.1468924\H,0,0.651

 Normal termination of Gaussian 16 at Wed Apr  9 15:54:26 2025.
 Gaussian 16:  ES64L-G16RevC.01  3-Jul-2019

 ----------------------------------------------------------------------
 #t hf aug-cc-pvdz iop(5/13=1,5/36=2,99/5=2) pseudo=read geom=check gue
 ss=(read,tcheck) scf=(maxcycle=1)
 ----------------------------------------------------------------------
 -----
 title
 -----
 Structure from the checkpoint file:  "Grambow2020_wb97xd3_007576_reverse_mol1.chk"
 Charge =  0 Multiplicity = 1

                         Standard orientation:
 ---------------------------------------------------------------------
 Center     Atomic      Atomic             Coordinates (Angstroms)
 Number     Number       Type             X           Y           Z
 ---------------------------------------------------------------------
      1          6           0        2.103852   -0.802535    0.529582
      2          6           0        1.024950    0.217834    0.222262
      3          8           0        1.671042    1.324845   -0.384883
      4          6           0       -0.035598   -0.361521   -0.692810
      5          6           0       -1.084128   -1.287474   -0.091807
      6          6           0       -1.909227   -0.135492   -0.518015
      7          6           0       -2.191155    0.827720    0.606068
      8          1           0        1.681322   -1.679168    1.021677
      9          1           0        2.858260   -0.361377    1.180932
     10          1           0        2.593010   -1.120712   -0.393172
     11          1           0        0.553245    0.530130    1.162345
     12          1           0        1.036869    2.036487   -0.491620
     13          1           0        0.364859   -0.740018   -1.632117
     14          1           0       -0.948326   -1.441670    0.982174
     15          1           0       -1.217759   -2.225956   -0.621041
     16          1           0       -0.731452    0.478140   -1.158909
     17          1           0       -1.537696    0.782557    1.488710
     18          1           0       -3.191109    0.530692    0.940726
     19          1           0       -2.281725    1.860950    0.267673
 ---------------------------------------------------------------------

 SCF Done:  E(RHF) =  -309.044780295     A.U. after    2 cycles

 The electronic state is 1-A.
 Alpha  occ. eigenvalues --  -20.58021 -11.30615 -11.27361 -11.25448 -11.24379
 Alpha  occ. eigenvalues --  -11.23470 -11.23268  -1.33672  -1.13853  -1.02901
 Alpha  occ. eigenvalues --   -0.96707  -0.89017  -0.81580  -0.76334  -0.73318
 Alpha  occ. eigenvalues --   -0.65466  -0.62261  -0.60992  -0.58187  -0.56913
 Alpha  occ. eigenvalues --   -0.55218  -0.54681  -0.54333  -0.51702  -0.49548
 Alpha  occ. eigenvalues --   -0.46642  -0.45547  -0.32510
 Alpha virt. eigenvalues --    0.03316   0.04049   0.04374   0.04588   0.06206
 Alpha virt. eigenvalues --    0.06382   0.06719   0.06969   0.07349   0.08866
 Alpha virt. eigenvalues --    0.09381   0.09700   0.12208   0.13425   0.13646

 Mulliken charges:
               1
     1  C    0.542028
     2  C    0.430997
     3  O   -0.588055
     4  C   -0.141840
     5  C    0.922021
     6  C   -0.867514
     7  C    0.571544
     8  H   -0.035221
     9  H   -0.029865
    10  H    0.028265
    11  H   -0.230123
    12  H    0.134543
    13  H   -0.206477
    14  H   -0.165649
    15  H   -0.218370
    16  H    0.139606
    17  H   -0.199879
    18  H   -0.010338
    19  H   -0.075673
 Sum of Mulliken charges =  -0.00000

 Dipole moment (field-independent basis, Debye):
    X=              0.3327    Y=             -0.2567    Z=              1.7289  Tot=              1.7792

 Test job not archived.
 1\1\GINC-SE114\SP\RHF\Aug-CC-pVDZ\C6H12O1\OHZDE\09-Apr-2025\0\\#t hf a
 ug-cc-pvdz iop(5/13=1,5/36=2,99/5=2) pseudo=read geom=check guess=(rea
 d,tcheck) scf=(maxcycle=1)\\title\\0,1\C,0,2.31206191,0.12950601,-0.26
 239764\C,0,1.02530655,-0.24705364,0.44618574\O,0,1.34988959,-0.4235479
 5,1.81550308\C,0,-0.03256616,0.82455471,0.27202446\C,0,-0.78279826,0.8
 9402599,-1.05097767\C,0,-1.86637189,0.53509113,-0.10941603\C,0,-2.1518
 0119,-0.94435673,-0.08518217\H,0,2.14317941,0.26090347,-1.3316902\H,0,
 3.05912443,-0.65058451,-0.11622661\H,0,2.70676099,1.06153698,0.1468924

 Normal termination of Gaussian 16 at Wed Apr  9 15:54:34 2025.
