 Gaussian 16, Revision C.01,

 ----------------------------------------------------------------------
 #t hf aug-cc-pvdz symm=none int=(grid=ultrafine) guess=(read,tcheck) s
 table=(opt,rrhf)
 ----------------------------------------------------------------------
 -----
 title
 -----
 Symbolic Z-matrix:
 Charge =  0 Multiplicity = 1

 SCF Done:  E(RHF) =  -247.859090010     A.U. after   14 cycles
 Normal termination of Gaussian 16 at Wed Apr  9 03:21:35 2025.
 Gaussian 16:  ES64L-G16RevC.01  3-Jul-2019

 ----------------------------------------------------------------------
 #t hf aug-cc-pvdz iop(5/13=1,5/36=2,99/5=2) pseudo=read geom=check gue
 ss=(read,tcheck) scf=(maxcycle=1)
 ----------------------------------------------------------------------
 -----
 title
 -----
 Structure from the checkpoint file:  "Grambow2020_wb97xd3_006165_forward_mol2.chk"
 Charge =  0 Multiplicity = 1

                         Standard orientation:
 ---------------------------------------------------------------------
 Center     Atomic      Atomic             Coordinates (Angstroms)
 Number     Number       Type             X           Y           Z
 ---------------------------------------------------------------------
      1          6           0        1.243781    1.355718    0.083551
      2          6           0        1.139967   -0.078185   -0.360623
      3          6           0        0.775644   -1.155163    0.602414
      4          6           0       -0.206032   -0.761993   -0.477882
      5          6           0       -1.397235   -0.045808   -0.110027
      6          7           0       -2.343653    0.533819    0.185562
      7          1           0        1.094761    2.037904   -0.755024
      8          1           0        2.229812    1.550033    0.509047
      9          1           0        0.495211    1.592896    0.841268
     10          1           0        1.832893   -0.365267   -1.143414
     11          1           0        0.528825   -0.860891    1.614282
     12          1           0        1.238136   -2.128320    0.510129
     13          1           0       -0.350809   -1.450506   -1.299813
 ---------------------------------------------------------------------

 SCF Done:  E(RHF) =  -247.935617482     A.U. after    2 cycles

 The electronic state is 1-A.
 Alpha  occ. eigenvalues --  -15.63057 -11.29100 -11.28318 -11.27490 -11.26685
 Alpha  occ. eigenvalues --  -11.24301  -1.20357  -1.16675  -0.98814  -0.90575
 Alpha  occ. eigenvalues --   -0.81985  -0.72146  -0.68414  -0.59556  -0.58771
 Alpha  occ. eigenvalues --   -0.57171  -0.53930  -0.52711  -0.51271  -0.48348
 Alpha  occ. eigenvalues --   -0.43330  -0.41354
 Alpha virt. eigenvalues --    0.02637   0.03996   0.04217   0.05107   0.06522
 Alpha virt. eigenvalues --    0.06637   0.07878   0.09642   0.09904   0.12405
 Alpha virt. eigenvalues --    0.12982   0.14059   0.14418   0.14749   0.14990

 Mulliken charges:
               1
     1  C    0.342118
     2  C    0.178524
     3  C    0.819399
     4  C    1.017451
     5  C   -0.776411
     6  N   -0.138680
     7  H    0.011363
     8  H    0.012356
     9  H   -0.107895
    10  H   -0.353588
    11  H   -0.358431
    12  H   -0.296874
    13  H   -0.349332
 Sum of Mulliken charges =  -0.00000

 Dipole moment (field-independent basis, Debye):
    X=              4.0677    Y=             -1.7274    Z=             -0.7659  Tot=              4.4852

 Test job not archived.
 1\1\GINC-SE220\SP\RHF\Aug-CC-pVDZ\C5H7N1\OHZDE\09-Apr-2025\0\\#t hf au
 g-cc-pvdz iop(5/13=1,5/36=2,99/5=2) pseudo=read geom=check guess=(read
 ,tcheck) scf=(maxcycle=1)\\title\\0,1\C,0,1.42162986,0.59458513,-0.010
 3694\C,0,0.47171059,-0.54979064,-0.23885498\C,0,-0.5182382,-0.94466053
 ,0.80236159\C,0,-1.00306416,-0.30241565,-0.47739457\C,0,-1.51047446,1.
 04213827,-0.43365782\N,0,-1.90718888,2.11933069,-0.39731247\H,0,1.7595
 7955,1.01889015,-0.95723125\H,0,2.29899545,0.25405527,0.54220018\H,0,0
 .95024174,1.39489075,0.56238605\H,0,0.86956706,-1.36113791,-0.83781231

 Normal termination of Gaussian 16 at Wed Apr  9 03:21:39 2025.
