 Gaussian 16, Revision C.01,

 ----------------------------------------------------------------------
 #t hf aug-cc-pvdz symm=none int=(grid=ultrafine) guess=(read,tcheck) s
 table=(opt,rrhf)
 ----------------------------------------------------------------------
 -----
 title
 -----
 Symbolic Z-matrix:
 Charge =  0 Multiplicity = 1

 SCF Done:  E(RHF) =  -302.779630836     A.U. after   15 cycles
 Normal termination of Gaussian 16 at Wed Apr  9 16:56:22 2025.
 Gaussian 16:  ES64L-G16RevC.01  3-Jul-2019

 ----------------------------------------------------------------------
 #t hf aug-cc-pvdz iop(5/13=1,5/36=2,99/5=2) pseudo=read geom=check gue
 ss=(read,tcheck) scf=(maxcycle=1)
 ----------------------------------------------------------------------
 -----
 title
 -----
 Structure from the checkpoint file:  "Grambow2020_wb97xd3_009075_forward_mol1.chk"
 Charge =  0 Multiplicity = 1

                         Standard orientation:
 ---------------------------------------------------------------------
 Center     Atomic      Atomic             Coordinates (Angstroms)
 Number     Number       Type             X           Y           Z
 ---------------------------------------------------------------------
      1          6           0        1.525491   -1.317254    0.465556
      2          7           0        1.259507    0.254985   -0.516881
      3          6           0        0.848331    1.396718    0.048239
      4          6           0       -0.510889    1.330035    0.308165
      5          6           0       -0.900076    0.048156   -0.067293
      6          6           0       -2.229714   -0.621747    0.042081
      7          7           0        0.154855   -0.591622   -0.591573
      8          1           0        2.192042   -0.792799    1.142236
      9          1           0        2.052071   -1.902845   -0.273137
     10          1           0        0.791126   -1.899245    1.014638
     11          1           0        1.540187    2.209660    0.209715
     12          1           0       -1.147487    2.121047    0.675118
     13          1           0       -3.037955    0.054958   -0.238264
     14          1           0       -2.422755   -0.959885    1.063730
     15          1           0       -2.266622   -1.489884   -0.615353
 ---------------------------------------------------------------------

 SCF Done:  E(RHF) =  -302.869327027     A.U. after    2 cycles

 The electronic state is 1-A.
 Alpha  occ. eigenvalues --  -15.65590 -15.65453 -11.32614 -11.25626 -11.25120
 Alpha  occ. eigenvalues --  -11.23390 -11.23035  -1.31238  -1.06893  -1.04007
 Alpha  occ. eigenvalues --   -0.94929  -0.93230  -0.77998  -0.74300  -0.67454
 Alpha  occ. eigenvalues --   -0.62317  -0.61820  -0.59961  -0.58314  -0.55496
 Alpha  occ. eigenvalues --   -0.54138  -0.52514  -0.46104  -0.41574  -0.35276
 Alpha  occ. eigenvalues --   -0.32235
 Alpha virt. eigenvalues --    0.03150   0.03726   0.03796   0.05198   0.06207
 Alpha virt. eigenvalues --    0.06572   0.07424   0.08212   0.09967   0.11636
 Alpha virt. eigenvalues --    0.11970   0.12533   0.13099   0.14114   0.15119

 Mulliken charges:
               1
     1  C    0.833460
     2  N   -0.682857
     3  C    0.655433
     4  C    0.469477
     5  C   -0.239638
     6  C    0.454893
     7  N   -0.633612
     8  H   -0.081225
     9  H   -0.057278
    10  H   -0.104435
    11  H   -0.292605
    12  H   -0.342860
    13  H    0.027813
    14  H    0.067001
    15  H   -0.073567
 Sum of Mulliken charges =  -0.00000

 Dipole moment (field-independent basis, Debye):
    X=             -0.1586    Y=             -0.6195    Z=              2.3524  Tot=              2.4378

 Test job not archived.
 1\1\GINC-SE174\SP\RHF\Aug-CC-pVDZ\C5H8N2\OHZDE\09-Apr-2025\0\\#t hf au
 g-cc-pvdz iop(5/13=1,5/36=2,99/5=2) pseudo=read geom=check guess=(read
 ,tcheck) scf=(maxcycle=1)\\title\\0,1\C,0,1.83487206,-0.85402448,0.385
 13152\N,0,1.2843286,0.40533174,-0.88718432\C,0,0.74425022,1.58251732,-
 0.54875977\C,0,-0.57293365,1.40113196,-0.15938394\C,0,-0.7915441,0.028
 10912,-0.21104681\C,0,-2.00000756,-0.76586784,0.16028195\N,0,0.3131133
 6,-0.57190443,-0.67664418\H,0,2.45596767,-0.10750616,0.86906177\H,0,2.
 39727995,-1.51901108,-0.25311703\H,0,1.22714813,-1.3859525,1.1112315\H

 Normal termination of Gaussian 16 at Wed Apr  9 16:56:28 2025.
