 Gaussian 16, Revision C.01,

 ----------------------------------------------------------------------
 #t hf aug-cc-pvdz symm=none int=(grid=ultrafine) guess=(read,tcheck) s
 table=(opt,rrhf)
 ----------------------------------------------------------------------
 -----
 title
 -----
 Symbolic Z-matrix:
 Charge =  0 Multiplicity = 1

 SCF Done:  E(RHF) =  -358.556605784     A.U. after   15 cycles
 Normal termination of Gaussian 16 at Wed Apr  9 03:28:04 2025.
 Gaussian 16:  ES64L-G16RevC.01  3-Jul-2019

 ----------------------------------------------------------------------
 #t hf aug-cc-pvdz iop(5/13=1,5/36=2,99/5=2) pseudo=read geom=check gue
 ss=(read,tcheck) scf=(maxcycle=1)
 ----------------------------------------------------------------------
 -----
 title
 -----
 Structure from the checkpoint file:  "Grambow2020_wb97xd3_006751_reverse_mol2.chk"
 Charge =  0 Multiplicity = 1

                         Standard orientation:
 ---------------------------------------------------------------------
 Center     Atomic      Atomic             Coordinates (Angstroms)
 Number     Number       Type             X           Y           Z
 ---------------------------------------------------------------------
      1          8           0       -2.491155   -0.854214    0.209220
      2          6           0       -1.910124    0.179262    0.079269
      3          6           0       -0.409358    0.273476   -0.100496
      4          8           0       -0.018078    1.558230   -0.156591
      5          7           0        0.307969   -0.757838   -0.198687
      6          6           0        1.688582   -0.645828   -0.376488
      7          6           0        2.549892   -0.148562    0.507599
      8          1           0       -2.423129    1.159279    0.081375
      9          1           0        0.946320    1.585727   -0.240424
     10          1           0        2.042444   -1.076490   -1.309381
     11          1           0        3.612091   -0.170188    0.305875
     12          1           0        2.226403    0.224319    1.473033
 ---------------------------------------------------------------------

 SCF Done:  E(RHF) =  -358.668381007     A.U. after    2 cycles

 The electronic state is 1-A.
 Alpha  occ. eigenvalues --  -20.64116 -20.60078 -15.64569 -11.38254 -11.36616
 Alpha  occ. eigenvalues --  -11.30181 -11.25171  -1.42357  -1.38900  -1.22810
 Alpha  occ. eigenvalues --   -1.05358  -0.96020  -0.84689  -0.80595  -0.73826
 Alpha  occ. eigenvalues --   -0.70819  -0.68236  -0.66942  -0.64473  -0.63297
 Alpha  occ. eigenvalues --   -0.56583  -0.55732  -0.50878  -0.46275  -0.43378
 Alpha  occ. eigenvalues --   -0.36851
 Alpha virt. eigenvalues --    0.02884   0.03956   0.04366   0.05251   0.05850
 Alpha virt. eigenvalues --    0.06140   0.09461   0.09782   0.10801   0.11284
 Alpha virt. eigenvalues --    0.12422   0.13286   0.14205   0.14758   0.14983

 Mulliken charges:
               1
     1  O   -0.416350
     2  C    0.704461
     3  C    0.195006
     4  O   -0.464348
     5  N   -0.379462
     6  C    0.613565
     7  C    0.497389
     8  H   -0.091476
     9  H    0.216741
    10  H   -0.272143
    11  H   -0.265136
    12  H   -0.338247
 Sum of Mulliken charges =   0.00000

 Dipole moment (field-independent basis, Debye):
    X=              2.8395    Y=              2.9384    Z=             -0.5104  Tot=              4.1180

 Test job not archived.
 1\1\GINC-SE174\SP\RHF\Aug-CC-pVDZ\C4H5N1O2\OHZDE\09-Apr-2025\0\\#t hf
 aug-cc-pvdz iop(5/13=1,5/36=2,99/5=2) pseudo=read geom=check guess=(re
 ad,tcheck) scf=(maxcycle=1)\\title\\0,1\O,0,3.05999195,0.78028282,-0.2
 6944659\C,0,2.42978732,-0.10894329,0.21498725\C,0,0.93010916,-0.248560
 99,0.05699493\O,0,0.47507046,-1.3005537,0.75920061\N,0,0.26840728,0.54
 010037,-0.66962266\C,0,-1.11224487,0.38392785,-0.80983352\C,0,-2.01546
 664,0.53821292,0.15511453\H,0,2.89202933,-0.90798639,0.82447316\H,0,-0
 .48758409,-1.34486154,0.66339145\H,0,-1.42477726,0.18213649,-1.8309028

 Normal termination of Gaussian 16 at Wed Apr  9 03:28:08 2025.
