 Gaussian 16, Revision C.01,

 ----------------------------------------------------------------------
 #t hf aug-cc-pvdz symm=none int=(grid=ultrafine) guess=(read,tcheck) s
 table=(opt,rrhf)
 ----------------------------------------------------------------------
 -----
 title
 -----
 Symbolic Z-matrix:
 Charge =  0 Multiplicity = 1

 SCF Done:  E(RHF) =  -286.713486420     A.U. after   15 cycles
 Normal termination of Gaussian 16 at Wed Apr  9 03:41:08 2025.
 Gaussian 16:  ES64L-G16RevC.01  3-Jul-2019

 ----------------------------------------------------------------------
 #t hf aug-cc-pvdz iop(5/13=1,5/36=2,99/5=2) pseudo=read geom=check gue
 ss=(read,tcheck) scf=(maxcycle=1)
 ----------------------------------------------------------------------
 -----
 title
 -----
 Structure from the checkpoint file:  "Grambow2020_wb97xd3_007559_forward_mol1.chk"
 Charge =  0 Multiplicity = 1

                         Standard orientation:
 ---------------------------------------------------------------------
 Center     Atomic      Atomic             Coordinates (Angstroms)
 Number     Number       Type             X           Y           Z
 ---------------------------------------------------------------------
      1          6           0        0.577263    1.662843   -0.129494
      2          6           0        0.583695    0.151490   -0.011346
      3          6           0       -0.563230   -0.457387    0.784744
      4          6           0       -1.863310   -0.278697    0.144422
      5          6           0       -2.915382   -0.120810   -0.404429
      6          6           0        1.791657   -0.996896   -0.858328
      7          7           0        1.880540   -0.382899    0.421404
      8          1           0       -0.390099    2.016818   -0.486017
      9          1           0        1.348329    1.991920   -0.827007
     10          1           0        0.772814    2.107537    0.849218
     11          1           0       -0.572278    0.005484    1.775732
     12          1           0       -0.364270   -1.519589    0.936182
     13          1           0       -3.855118    0.011594   -0.886666
     14          1           0        1.159435   -1.891593   -0.701509
     15          1           0        0.510678   -0.171888   -1.139154
     16          1           0        2.562569    0.366755    0.375972
 ---------------------------------------------------------------------

 SCF Done:  E(RHF) =  -286.799213169     A.U. after    2 cycles

 The electronic state is 1-A.
 Alpha  occ. eigenvalues --  -15.63922 -11.32132 -11.28798 -11.27837 -11.25669
 Alpha  occ. eigenvalues --  -11.25190 -11.24556  -1.25400  -1.08406  -1.01706
 Alpha  occ. eigenvalues --   -0.97015  -0.87253  -0.80034  -0.73554  -0.68805
 Alpha  occ. eigenvalues --   -0.64601  -0.62428  -0.60680  -0.59379  -0.55357
 Alpha  occ. eigenvalues --   -0.53167  -0.51516  -0.44658  -0.40416  -0.40269
 Alpha  occ. eigenvalues --   -0.34373
 Alpha virt. eigenvalues --    0.03173   0.03763   0.04368   0.05151   0.05708
 Alpha virt. eigenvalues --    0.07092   0.07433   0.07646   0.08704   0.10245
 Alpha virt. eigenvalues --    0.11453   0.11848   0.12281   0.13197   0.13468

 Mulliken charges:
               1
     1  C    0.614828
     2  C   -1.115974
     3  C    0.395736
     4  C   -0.331997
     5  C    0.930243
     6  C    0.007693
     7  N   -0.497291
     8  H   -0.014341
     9  H    0.000371
    10  H    0.089230
    11  H    0.093520
    12  H    0.033516
    13  H   -0.543974
    14  H   -0.080819
    15  H    0.350027
    16  H    0.069232
 Sum of Mulliken charges =  -0.00000

 Dipole moment (field-independent basis, Debye):
    X=             -1.4121    Y=              1.6469    Z=              0.9773  Tot=              2.3794

 Test job not archived.
 1\1\GINC-SE021\SP\RHF\Aug-CC-pVDZ\C6H9N1\OHZDE\09-Apr-2025\0\\#t hf au
 g-cc-pvdz iop(5/13=1,5/36=2,99/5=2) pseudo=read geom=check guess=(read
 ,tcheck) scf=(maxcycle=1)\\title\\0,1\C,0,-0.41253948,1.45848135,-0.31
 79933\C,0,-0.52154629,0.08402327,0.31222336\C,0,0.39038054,-0.98793817
 ,-0.27019935\C,0,1.8066044,-0.73026932,-0.02511589\C,0,2.96006864,-0.4
 9595649,0.19314703\C,0,-1.57110896,-0.34702405,1.79814206\N,0,-1.90717
 474,-0.38898181,0.41687249\H,0,0.62617508,1.78789142,-0.34550545\H,0,-
 0.99409981,2.18406925,0.25180176\H,0,-0.79511961,1.42374973,-1.3408793

 Normal termination of Gaussian 16 at Wed Apr  9 03:41:14 2025.
