 Gaussian 16, Revision C.01,

 ----------------------------------------------------------------------
 #t hf aug-cc-pvdz symm=none int=(grid=ultrafine) guess=(read,tcheck) s
 table=(opt,rrhf)
 ----------------------------------------------------------------------
 -----
 title
 -----
 Symbolic Z-matrix:
 Charge =  0 Multiplicity = 1

 SCF Done:  E(RHF) =  -322.600078620     A.U. after   15 cycles
 Normal termination of Gaussian 16 at Wed Apr  9 15:46:59 2025.
 Gaussian 16:  ES64L-G16RevC.01  3-Jul-2019

 ----------------------------------------------------------------------
 #t hf aug-cc-pvdz iop(5/13=1,5/36=2,99/5=2) pseudo=read geom=check gue
 ss=(read,tcheck) scf=(maxcycle=1)
 ----------------------------------------------------------------------
 -----
 title
 -----
 Structure from the checkpoint file:  "Grambow2020_wb97xd3_007392_reverse_mol1.chk"
 Charge =  0 Multiplicity = 1

                         Standard orientation:
 ---------------------------------------------------------------------
 Center     Atomic      Atomic             Coordinates (Angstroms)
 Number     Number       Type             X           Y           Z
 ---------------------------------------------------------------------
      1          6           0       -1.796240   -0.188143    0.801847
      2          6           0       -0.786212    0.996477   -0.250283
      3          6           0        0.699107    1.296905   -0.214183
      4          8           0        1.460166    0.291598    0.438266
      5          6           0        1.161475   -0.975688    0.066990
      6          7           0        0.069191   -1.399304   -0.385075
      7          6           0       -1.067176   -0.511213   -0.434860
      8          1           0       -1.087180   -0.373763    1.627656
      9          1           0       -1.307876    1.290681    0.731397
     10          1           0       -1.332671    1.598512   -0.970805
     11          1           0        0.916194    2.225113    0.310573
     12          1           0        1.054102    1.388474   -1.247175
     13          1           0        2.004925   -1.642309    0.224158
     14          1           0       -1.678878   -0.734395   -1.303483
 ---------------------------------------------------------------------

 SCF Done:  E(RHF) =  -322.696596990     A.U. after    2 cycles

 The electronic state is 1-A.
 Alpha  occ. eigenvalues --  -20.62404 -15.62397 -11.35478 -11.32700 -11.28872
 Alpha  occ. eigenvalues --  -11.28819 -11.26234  -1.40890  -1.21420  -1.12644
 Alpha  occ. eigenvalues --   -0.99165  -0.91289  -0.82731  -0.76738  -0.73742
 Alpha  occ. eigenvalues --   -0.70331  -0.66823  -0.61724  -0.60314  -0.59138
 Alpha  occ. eigenvalues --   -0.53705  -0.52449  -0.49978  -0.43364  -0.40480
 Alpha  occ. eigenvalues --   -0.34715
 Alpha virt. eigenvalues --    0.02831   0.03973   0.04273   0.05159   0.06114
 Alpha virt. eigenvalues --    0.06738   0.07699   0.09480   0.09966   0.11594
 Alpha virt. eigenvalues --    0.12534   0.13191   0.13813   0.14500   0.14712

 Mulliken charges:
               1
     1  C   -0.343859
     2  C   -0.436483
     3  C    0.964802
     4  O   -0.530116
     5  C    0.537058
     6  N   -0.440591
     7  C    1.066989
     8  H    0.018170
     9  H    0.102662
    10  H   -0.097929
    11  H   -0.179119
    12  H   -0.046047
    13  H   -0.350987
    14  H   -0.264550
 Sum of Mulliken charges =   0.00000

 Dipole moment (field-independent basis, Debye):
    X=              1.9288    Y=              2.4887    Z=             -1.1664  Tot=              3.3578

 Test job not archived.
 1\1\GINC-SE041\SP\RHF\Aug-CC-pVDZ\C5H7N1O1\OHZDE\09-Apr-2025\0\\#t hf
 aug-cc-pvdz iop(5/13=1,5/36=2,99/5=2) pseudo=read geom=check guess=(re
 ad,tcheck) scf=(maxcycle=1)\\title\\0,1\C,0,-1.53638244,-1.09028992,0.
 28270856\C,0,-0.77693242,0.44976935,-0.48012371\C,0,0.36570298,1.31300
 217,0.01681242\O,0,1.18839588,0.66079328,0.97250207\C,0,1.5523556,-0.6
 002667,0.6403325\N,0,0.93518564,-1.39919811,-0.10646463\C,0,-0.3672991
 7,-1.03403939,-0.60916268\H,0,-1.13645966,-1.02080201,1.3095558\H,0,-1
 .67078959,0.46237188,0.24323295\H,0,-1.23559197,0.82109202,-1.3922454\

 Normal termination of Gaussian 16 at Wed Apr  9 15:47:04 2025.
