 Gaussian 16, Revision C.01,

 ----------------------------------------------------------------------
 #t hf aug-cc-pvdz symm=none int=(grid=ultrafine) guess=(read,tcheck) s
 table=(opt,rrhf)
 ----------------------------------------------------------------------
 -----
 title
 -----
 Symbolic Z-matrix:
 Charge =  0 Multiplicity = 1

 SCF Done:  E(RHF) =  -310.151280294     A.U. after   14 cycles

 1\1\GINC-SE229\Stability\RHF\Aug-CC-pVDZ\C6H14O1\OHZDE\09-Apr-2025\0\\
 #t hf aug-cc-pvdz symm=none int=(grid=ultrafine) guess=(read,tcheck) s
 table=(opt,rrhf)\\title\\0,1\C,0,2.51544412,-0.88654847,-1.16419688\O,
 0,2.23353741,-1.56260293,0.07122562\C,0,2.35988871,-0.87288107,1.15471
 376\C,0,-0.81329034,0.57873908,0.1221061\C,0,-1.55300155,1.8446278,-0.
 29906513\C,0,-1.19606919,-0.60077841,-0.76683678\C,0,-1.06930694,0.256
 95438,1.59084763\H,0,2.79473187,0.1432518,-0.94546805\H,0,1.61526731,-
 0.93195285,-1.77539794\H,0,3.32641144,-1.42166869,-1.65565451\H,0,0.26

 Normal termination of Gaussian 16 at Wed Apr  9 16:36:36 2025.
 Gaussian 16:  ES64L-G16RevC.01  3-Jul-2019

 ----------------------------------------------------------------------
 #t hf aug-cc-pvdz iop(5/13=1,5/36=2,99/5=2) pseudo=read geom=check gue
 ss=(read,tcheck) scf=(maxcycle=1)
 ----------------------------------------------------------------------
 -----
 title
 -----
 Structure from the checkpoint file:  "Grambow2020_wb97xd3_008658_reverse_mol2.chk"
 Charge =  0 Multiplicity = 1

                         Standard orientation:
 ---------------------------------------------------------------------
 Center     Atomic      Atomic             Coordinates (Angstroms)
 Number     Number       Type             X           Y           Z
 ---------------------------------------------------------------------
      1          6           0        2.380661   -1.090140   -0.357105
      2          8           0        2.370083    0.189871    0.294241
      3          6           0        2.078099    1.212880   -0.436392
      4          6           0       -1.323899   -0.040005   -0.121384
      5          6           0       -2.545837   -0.592181   -0.848709
      6          6           0       -1.037110   -0.834812    1.149063
      7          6           0       -1.496405    1.442420    0.193179
      8          1           0        2.120507   -0.952937   -1.405832
      9          1           0        1.655027   -1.722833    0.151915
     10          1           0        3.380210   -1.507857   -0.247714
     11          1           0       -0.460372   -0.136804   -0.790321
     12          1           0        2.137517    2.054650    0.291158
     13          1           0       -2.738115   -0.044130   -1.773618
     14          1           0       -3.438893   -0.510622   -0.221503
     15          1           0       -2.414727   -1.646350   -1.104259
     16          1           0       -0.139112   -0.468844    1.653348
     17          1           0       -0.897745   -1.897564    0.933652
     18          1           0       -1.869227   -0.749654    1.854387
     19          1           0       -0.618534    1.846212    0.703331
     20          1           0       -2.360470    1.601899    0.845668
     21          1           0       -1.649787    2.026898   -0.716056
 ---------------------------------------------------------------------

 SCF Done:  E(RHF) =  -310.254554106     A.U. after    2 cycles

 The electronic state is 1-A.
 Alpha  occ. eigenvalues --  -20.64494 -11.30423 -11.30215 -11.22962 -11.21882
 Alpha  occ. eigenvalues --  -11.21718 -11.21597  -1.41589  -1.07262  -1.00647
 Alpha  occ. eigenvalues --   -0.92399  -0.92233  -0.82418  -0.76636  -0.70907
 Alpha  occ. eigenvalues --   -0.67648  -0.63218  -0.61836  -0.59342  -0.59199
 Alpha  occ. eigenvalues --   -0.55851  -0.53629  -0.53402  -0.52426  -0.51128
 Alpha  occ. eigenvalues --   -0.46515  -0.46484  -0.45951  -0.36306
 Alpha virt. eigenvalues --    0.03237   0.04241   0.04623   0.05000   0.05996
 Alpha virt. eigenvalues --    0.06318   0.06570   0.06984   0.07394   0.08421
 Alpha virt. eigenvalues --    0.08905   0.09377   0.09700   0.10349   0.11256

 Mulliken charges:
               1
     1  C    0.966545
     2  O   -0.513898
     3  C    0.199192
     4  C   -1.854191
     5  C    0.932221
     6  C    0.936045
     7  C    0.867968
     8  H   -0.091918
     9  H   -0.169545
    10  H   -0.168276
    11  H   -0.170539
    12  H   -0.199809
    13  H   -0.067213
    14  H   -0.022766
    15  H   -0.072055
    16  H   -0.107294
    17  H   -0.108445
    18  H   -0.080260
    19  H   -0.175760
    20  H   -0.021076
    21  H   -0.078928
 Sum of Mulliken charges =   0.00000

 Dipole moment (field-independent basis, Debye):
    X=              0.4134    Y=             -1.5456    Z=              0.4821  Tot=              1.6709

 Test job not archived.
 1\1\GINC-SE229\SP\RHF\Aug-CC-pVDZ\C6H14O1\OHZDE\09-Apr-2025\0\\#t hf a
 ug-cc-pvdz iop(5/13=1,5/36=2,99/5=2) pseudo=read geom=check guess=(rea
 d,tcheck) scf=(maxcycle=1)\\title\\0,1\C,0,2.51544412,-0.88654847,-1.1
 6419688\O,0,2.23353741,-1.56260293,0.07122562\C,0,2.35988871,-0.872881
 07,1.15471376\C,0,-0.81329034,0.57873908,0.1221061\C,0,-1.55300155,1.8
 446278,-0.29906513\C,0,-1.19606919,-0.60077841,-0.76683678\C,0,-1.0693
 0694,0.25695438,1.59084763\H,0,2.79473187,0.1432518,-0.94546805\H,0,1.
 61526731,-0.93195285,-1.77539794\H,0,3.32641144,-1.42166869,-1.6556545

 Normal termination of Gaussian 16 at Wed Apr  9 16:36:45 2025.
