 Gaussian 16, Revision C.01,

 ----------------------------------------------------------------------
 #t hf aug-cc-pvdz symm=none int=(grid=ultrafine) guess=(read,tcheck) s
 table=(opt,rrhf)
 ----------------------------------------------------------------------
 -----
 title
 -----
 Symbolic Z-matrix:
 Charge =  0 Multiplicity = 1

 SCF Done:  E(RHF) =  -307.863511419     A.U. after   14 cycles

 1\1\GINC-SE162\Stability\RHF\Aug-CC-pVDZ\C6H10O1\OHZDE\09-Apr-2025\0\\
 #t hf aug-cc-pvdz symm=none int=(grid=ultrafine) guess=(read,tcheck) s
 table=(opt,rrhf)\\title\\0,1\C,0,1.74596267,-0.37166479,-0.38708468\C,
 0,0.83191151,0.3612119,0.57780081\C,0,0.23238609,1.69131826,0.17093609
 \C,0,-1.02777188,1.30665089,0.36205104\O,0,-1.10545195,-0.98105924,-1.
 51448744\C,0,-1.19539082,-1.23031859,-0.12684429\C,0,-0.659242,-0.1105
 3335,0.75322708\H,0,1.96619843,-1.37840294,-0.0236299\H,0,2.69704918,0
 .15723562,-0.48178337\H,0,1.29690589,-0.46422964,-1.37514654\H,0,1.323

 Normal termination of Gaussian 16 at Wed Apr  9 16:31:16 2025.
 Gaussian 16:  ES64L-G16RevC.01  3-Jul-2019

 ----------------------------------------------------------------------
 #t hf aug-cc-pvdz iop(5/13=1,5/36=2,99/5=2) pseudo=read geom=check gue
 ss=(read,tcheck) scf=(maxcycle=1)
 ----------------------------------------------------------------------
 -----
 title
 -----
 Structure from the checkpoint file:  "Grambow2020_wb97xd3_008500_reverse_mol2.chk"
 Charge =  0 Multiplicity = 1

                         Standard orientation:
 ---------------------------------------------------------------------
 Center     Atomic      Atomic             Coordinates (Angstroms)
 Number     Number       Type             X           Y           Z
 ---------------------------------------------------------------------
      1          6           0       -1.012982    1.682540   -0.120707
      2          6           0       -1.123384    0.268583    0.419790
      3          6           0       -1.392740   -0.875093   -0.536037
      4          6           0       -0.313489   -1.569911   -0.182570
      5          8           0        1.764195    0.435749   -0.831883
      6          6           0        1.540994    0.094326    0.520665
      7          6           0        0.180187   -0.526952    0.800163
      8          1           0       -0.659869    2.367342    0.654201
      9          1           0       -1.991797    2.038289   -0.450302
     10          1           0       -0.319213    1.740064   -0.958480
     11          1           0       -1.830008    0.258478    1.256844
     12          1           0       -2.213078   -1.073234   -1.216495
     13          1           0        1.410082   -0.268609   -1.380833
     14          1           0        0.067177   -2.546289   -0.461823
     15          1           0        1.655398    1.018955    1.092337
     16          1           0        2.319072   -0.599463    0.868801
     17          1           0        0.177162   -0.862483    1.842989
 ---------------------------------------------------------------------

 SCF Done:  E(RHF) =  -307.958631147     A.U. after    2 cycles

 The electronic state is 1-A.
 Alpha  occ. eigenvalues --  -20.56361 -11.28210 -11.24449 -11.24335 -11.24232
 Alpha  occ. eigenvalues --  -11.24070 -11.21700  -1.31954  -1.15353  -0.98222
 Alpha  occ. eigenvalues --   -0.97048  -0.84523  -0.82846  -0.71657  -0.69221
 Alpha  occ. eigenvalues --   -0.66523  -0.64267  -0.61624  -0.58538  -0.56075
 Alpha  occ. eigenvalues --   -0.53124  -0.51625  -0.49403  -0.46747  -0.44666
 Alpha  occ. eigenvalues --   -0.42460  -0.36448
 Alpha virt. eigenvalues --    0.03292   0.04051   0.04196   0.05142   0.05749
 Alpha virt. eigenvalues --    0.06450   0.06685   0.07129   0.08707   0.09081
 Alpha virt. eigenvalues --    0.11522   0.12099   0.12886   0.13883   0.14575

 Mulliken charges:
               1
     1  C    0.495193
     2  C   -0.562764
     3  C    0.326151
     4  C    0.111817
     5  O   -0.570764
     6  C    0.975618
     7  C    0.095436
     8  H   -0.020148
     9  H   -0.060911
    10  H    0.052669
    11  H   -0.155692
    12  H   -0.224256
    13  H    0.202210
    14  H   -0.271360
    15  H   -0.090082
    16  H   -0.121717
    17  H   -0.181400
 Sum of Mulliken charges =   0.00000

 Dipole moment (field-independent basis, Debye):
    X=             -1.1538    Y=             -1.3390    Z=              0.7761  Tot=              1.9304

 Test job not archived.
 1\1\GINC-SE162\SP\RHF\Aug-CC-pVDZ\C6H10O1\OHZDE\09-Apr-2025\0\\#t hf a
 ug-cc-pvdz iop(5/13=1,5/36=2,99/5=2) pseudo=read geom=check guess=(rea
 d,tcheck) scf=(maxcycle=1)\\title\\0,1\C,0,1.74596267,-0.37166479,-0.3
 8708468\C,0,0.83191151,0.3612119,0.57780081\C,0,0.23238609,1.69131826,
 0.17093609\C,0,-1.02777188,1.30665089,0.36205104\O,0,-1.10545195,-0.98
 105924,-1.51448744\C,0,-1.19539082,-1.23031859,-0.12684429\C,0,-0.6592
 42,-0.11053335,0.75322708\H,0,1.96619843,-1.37840294,-0.0236299\H,0,2.
 69704918,0.15723562,-0.48178337\H,0,1.29690589,-0.46422964,-1.37514654

 Normal termination of Gaussian 16 at Wed Apr  9 16:31:23 2025.
