 Gaussian 16, Revision C.01,

 ----------------------------------------------------------------------
 #t hf aug-cc-pvdz symm=none int=(grid=ultrafine) guess=(read,tcheck) s
 table=(opt,rrhf)
 ----------------------------------------------------------------------
 -----
 title
 -----
 Symbolic Z-matrix:
 Charge =  0 Multiplicity = 1

 SCF Done:  E(RHF) =  -304.514186696     A.U. after   16 cycles
 Normal termination of Gaussian 16 at Wed Apr  9 03:14:51 2025.
 Gaussian 16:  ES64L-G16RevC.01  3-Jul-2019

 ----------------------------------------------------------------------
 #t hf aug-cc-pvdz iop(5/13=1,5/36=2,99/5=2) pseudo=read geom=check gue
 ss=(read,tcheck) scf=(maxcycle=1)
 ----------------------------------------------------------------------
 -----
 title
 -----
 Structure from the checkpoint file:  "Grambow2020_b97d3_007011_reverse_mol1.chk"
 Charge =  0 Multiplicity = 1

                         Standard orientation:
 ---------------------------------------------------------------------
 Center     Atomic      Atomic             Coordinates (Angstroms)
 Number     Number       Type             X           Y           Z
 ---------------------------------------------------------------------
      1          8           0       -0.632861    1.293962   -0.065958
      2          6           0        1.122536    0.392670   -0.636971
      3          6           0        1.756199   -0.230575    0.543274
      4          6           0        0.702611   -0.871421   -0.336035
      5          6           0       -0.975551   -0.185545    0.377810
      6          8           0       -1.958697   -0.673609   -0.134269
      7          1           0       -0.506998    1.819671    0.751925
      8          1           0        1.366078    1.085334   -1.434501
      9          1           0        2.822798   -0.480768    0.465381
     10          1           0        1.465308    0.068651    1.562819
     11          1           0        0.619896   -1.808563   -0.874172
     12          1           0       -0.669392   -0.277915    1.441905
 ---------------------------------------------------------------------

 SCF Done:  E(RHF) =  -304.607939898     A.U. after    2 cycles

 The electronic state is 1-A.
 Alpha  occ. eigenvalues --  -20.59506 -20.53391 -11.40148 -11.35270 -11.28698
 Alpha  occ. eigenvalues --  -11.25491  -1.35355  -1.28772  -1.18841  -0.86612
 Alpha  occ. eigenvalues --   -0.85114  -0.79742  -0.72049  -0.70962  -0.66432
 Alpha  occ. eigenvalues --   -0.62680  -0.58944  -0.56900  -0.51678  -0.50935
 Alpha  occ. eigenvalues --   -0.46665  -0.43671  -0.34815
 Alpha virt. eigenvalues --    0.02541   0.03543   0.04060   0.04745   0.05986
 Alpha virt. eigenvalues --    0.06776   0.07139   0.10022   0.10356   0.11364
 Alpha virt. eigenvalues --    0.13661   0.14178   0.14743   0.14861   0.15093

 Mulliken charges:
               1
     1  O   -0.756789
     2  C    0.671458
     3  C    0.642665
     4  C    0.185663
     5  C    0.959741
     6  O   -0.545771
     7  H    0.217706
     8  H   -0.324829
     9  H   -0.301711
    10  H   -0.252822
    11  H   -0.369241
    12  H   -0.126072
 Sum of Mulliken charges =  -0.00000

 Dipole moment (field-independent basis, Debye):
    X=              5.5609    Y=              1.4048    Z=              1.5633  Tot=              5.9448

 Test job not archived.
 1\1\GINC-SE128\SP\RHF\Aug-CC-pVDZ\C4H6O2\OHZDE\09-Apr-2025\0\\#t hf au
 g-cc-pvdz iop(5/13=1,5/36=2,99/5=2) pseudo=read geom=check guess=(read
 ,tcheck) scf=(maxcycle=1)\\title\\0,1\O,0,-1.07468251,0.49357609,1.181
 8385\C,0,-0.75220946,-0.6415363,-0.49962927\C,0,0.17206276,0.07612799,
 -1.40163749\C,0,0.57856492,-0.82729943,-0.25599709\C,0,0.49503603,0.33
 730973,1.30379051\O,0,0.89401433,-0.18279232,2.32227765\H,0,-1.2550393
 7,1.42762438,0.94483744\H,0,-1.72867485,-1.11175635,-0.52326998\H,0,0.
 20205509,-0.24942611,-2.45016576\H,0,0.3408981,1.15901999,-1.28998867\

 Normal termination of Gaussian 16 at Wed Apr  9 03:14:55 2025.
