 Gaussian 16, Revision C.01,

 ----------------------------------------------------------------------
 #t hf aug-cc-pvdz symm=none int=(grid=ultrafine) guess=(read,tcheck) s
 table=(opt,rrhf)
 ----------------------------------------------------------------------
 -----
 title
 -----
 Symbolic Z-matrix:
 Charge =  0 Multiplicity = 1

 SCF Done:  E(RHF) =  -273.129915183     A.U. after   13 cycles
 Normal termination of Gaussian 16 at Wed Apr  9 16:08:39 2025.
 Gaussian 16:  ES64L-G16RevC.01  3-Jul-2019

 ----------------------------------------------------------------------
 #t hf aug-cc-pvdz iop(5/13=1,5/36=2,99/5=2) pseudo=read geom=check gue
 ss=(read,tcheck) scf=(maxcycle=1)
 ----------------------------------------------------------------------
 -----
 title
 -----
 Structure from the checkpoint file:  "Grambow2020_wb97xd3_007780_reverse_mol2.chk"
 Charge =  0 Multiplicity = 1

                         Standard orientation:
 ---------------------------------------------------------------------
 Center     Atomic      Atomic             Coordinates (Angstroms)
 Number     Number       Type             X           Y           Z
 ---------------------------------------------------------------------
      1          6           0       -1.250753    0.986562   -1.013811
      2          6           0       -0.707196   -0.032266   -0.011720
      3          6           0       -1.309843   -1.417138   -0.279211
      4          6           0       -1.036498    0.401809    1.421633
      5          6           0        0.769920   -0.127446   -0.152554
      6          6           0        1.875814    0.190831   -0.728493
      7          6           0        1.997141   -0.788326    0.405577
      8          1           0       -0.817165    1.973108   -0.838400
      9          1           0       -1.014100    0.690650   -2.037862
     10          1           0       -2.336475    1.071266   -0.925892
     11          1           0       -2.394679   -1.387165   -0.152929
     12          1           0       -1.093097   -1.748363   -1.296643
     13          1           0       -0.906341   -2.158580    0.413316
     14          1           0       -0.618117    1.386472    1.638377
     15          1           0       -2.118978    0.452629    1.560009
     16          1           0       -0.631414   -0.307026    2.146400
     17          1           0        1.478850    2.808695    0.641283
     18          1           0        2.413558    0.738402   -1.481805
     19          1           0        1.418314    3.493904    0.930423
     20          1           0        2.399020   -0.457968    1.363919
     21          1           0        2.189121   -1.840187    0.191276
 ---------------------------------------------------------------------

 SCF Done:  E(RHF) =  -273.221177084     A.U. after    2 cycles

 The electronic state is 1-A.
 Alpha  occ. eigenvalues --  -11.25681 -11.24611 -11.23871 -11.23830 -11.22604
 Alpha  occ. eigenvalues --  -11.22521 -11.22408  -1.15795  -1.08482  -0.93387
 Alpha  occ. eigenvalues --   -0.93264  -0.83327  -0.80155  -0.71273  -0.65771
 Alpha  occ. eigenvalues --   -0.61541  -0.60869  -0.58966  -0.58674  -0.55239
 Alpha  occ. eigenvalues --   -0.54321  -0.53004  -0.51852  -0.49598  -0.47759
 Alpha  occ. eigenvalues --   -0.45448  -0.40398  -0.34602
 Alpha virt. eigenvalues --    0.03527   0.04091   0.04456   0.04782   0.06087
 Alpha virt. eigenvalues --    0.06521   0.06651   0.06811   0.06922   0.08718
 Alpha virt. eigenvalues --    0.08979   0.09259   0.09425   0.11325   0.12181

 Mulliken charges:
               1
     1  C    1.099469
     2  C   -2.765991
     3  C    1.004093
     4  C    1.089191
     5  C   -0.426046
     6  C    0.479035
     7  C    0.547272
     8  H   -0.029357
     9  H   -0.042994
    10  H    0.001637
    11  H   -0.040822
    12  H   -0.006475
    13  H   -0.028127
    14  H   -0.044896
    15  H   -0.028671
    16  H   -0.045032
    17  H    0.025832
    18  H   -0.467680
    19  H   -0.011458
    20  H   -0.165881
    21  H   -0.143098
 Sum of Mulliken charges =  -0.00000

 Dipole moment (field-independent basis, Debye):
    X=             -0.7956    Y=              0.2237    Z=             -0.2365  Tot=              0.8596

 Test job not archived.
 1\1\GINC-SE026\SP\RHF\Aug-CC-pVDZ\C7H14\OHZDE\09-Apr-2025\0\\#t hf aug
 -cc-pvdz iop(5/13=1,5/36=2,99/5=2) pseudo=read geom=check guess=(read,
 tcheck) scf=(maxcycle=1)\\title\\0,1\C,0,-0.59604622,1.67838896,0.2324
 8573\C,0,-0.63757772,0.18215615,-0.07930629\C,0,-1.67657645,-0.1066294
 3,-1.17003638\C,0,-0.98446655,-0.61607094,1.18317647\C,0,0.69448264,-0
 .25956363,-0.57049232\C,0,1.91018409,-0.02018615,-0.91802319\C,0,1.479
 0646,-1.45623432,-1.02519347\H,0,0.15025451,1.89460907,0.99950947\H,0,
 -0.34152309,2.25544739,-0.65884502\H,0,-1.56720838,2.02289739,0.595601

 Normal termination of Gaussian 16 at Wed Apr  9 16:08:48 2025.
