 Gaussian 16, Revision C.01,

 ----------------------------------------------------------------------
 #t hf aug-cc-pvdz symm=none int=(grid=ultrafine) guess=(read,tcheck) s
 table=(opt,rrhf)
 ----------------------------------------------------------------------
 -----
 title
 -----
 Symbolic Z-matrix:
 Charge =  0 Multiplicity = 1

 SCF Done:  E(RHF) =  -324.913696936     A.U. after   16 cycles
 Normal termination of Gaussian 16 at Wed Apr  9 16:21:22 2025.
 Gaussian 16:  ES64L-G16RevC.01  3-Jul-2019

 ----------------------------------------------------------------------
 #t hf aug-cc-pvdz iop(5/13=1,5/36=2,99/5=2) pseudo=read geom=check gue
 ss=(read,tcheck) scf=(maxcycle=1)
 ----------------------------------------------------------------------
 -----
 title
 -----
 Structure from the checkpoint file:  "Grambow2020_wb97xd3_008107_reverse_mol1.chk"
 Charge =  0 Multiplicity = 1

                         Standard orientation:
 ---------------------------------------------------------------------
 Center     Atomic      Atomic             Coordinates (Angstroms)
 Number     Number       Type             X           Y           Z
 ---------------------------------------------------------------------
      1          6           0        2.422888   -0.007881    0.953232
      2          6           0        0.968292   -0.936438   -0.743066
      3          7           0        0.070443    0.044810   -0.615429
      4          6           0        0.610051    1.339538   -0.593308
      5          6           0       -1.162818   -0.270783    0.040843
      6          8           0       -1.477895   -1.415340    0.207662
      7          6           0       -2.028808    0.880962    0.466375
      8          1           0        3.114331   -0.754628    0.569001
      9          1           0        1.883543   -0.428177    1.802500
     10          1           0        3.027529    0.831985    1.311081
     11          1           0        0.650595   -1.941674   -0.510418
     12          1           0        1.785518   -0.774470   -1.426345
     13          1           0        1.228145    1.550085   -1.462876
     14          1           0       -0.099398    2.130695   -0.390451
     15          1           0        1.616369    0.882866    0.282126
     16          1           0       -2.937999    0.468638    0.894231
     17          1           0       -2.278129    1.521158   -0.379737
     18          1           0       -1.518082    1.490185    1.213140
 ---------------------------------------------------------------------

 SCF Done:  E(RHF) =  -325.018602873     A.U. after    2 cycles

 The electronic state is 1-A.
 Alpha  occ. eigenvalues --  -20.57897 -15.70333 -11.39584 -11.31348 -11.26254
 Alpha  occ. eigenvalues --  -11.24354 -11.19747  -1.39702  -1.26642  -1.03989
 Alpha  occ. eigenvalues --   -0.95915  -0.92444  -0.88235  -0.75470  -0.72815
 Alpha  occ. eigenvalues --   -0.68781  -0.66350  -0.62371  -0.60036  -0.59284
 Alpha  occ. eigenvalues --   -0.58244  -0.55182  -0.54580  -0.52554  -0.51923
 Alpha  occ. eigenvalues --   -0.47113  -0.39325  -0.27870
 Alpha virt. eigenvalues --    0.03029   0.03644   0.04155   0.04571   0.06258
 Alpha virt. eigenvalues --    0.06544   0.07083   0.07422   0.07734   0.07922
 Alpha virt. eigenvalues --    0.09596   0.10174   0.10386   0.12511   0.12993

 Mulliken charges:
               1
     1  C    0.416817
     2  C    0.759808
     3  N   -0.307558
     4  C    0.310074
     5  C    0.319550
     6  O   -0.481816
     7  C    0.255602
     8  H   -0.223148
     9  H   -0.103389
    10  H   -0.164797
    11  H   -0.244476
    12  H   -0.312941
    13  H   -0.258179
    14  H   -0.348168
    15  H    0.304850
    16  H   -0.142505
    17  H    0.102453
    18  H    0.117821
 Sum of Mulliken charges =  -0.00000

 Dipole moment (field-independent basis, Debye):
    X=             -0.7670    Y=              1.9400    Z=             -1.3534  Tot=              2.4867

 Test job not archived.
 1\1\GINC-SE162\SP\RHF\Aug-CC-pVDZ\C5H11N1O1\OHZDE\09-Apr-2025\0\\#t hf
  aug-cc-pvdz iop(5/13=1,5/36=2,99/5=2) pseudo=read geom=check guess=(r
 ead,tcheck) scf=(maxcycle=1)\\title\\0,1\C,0,-1.93678528,1.2133615,-0.
 17550745\C,0,-1.17262715,-1.062436,0.12830479\N,0,0.09397906,-0.688442
 01,0.33105817\C,0,0.25851438,0.37638412,1.22942248\C,0,1.03285675,-0.9
 4142174,-0.72048145\O,0,0.75162779,-1.69819214,-1.60666424\C,0,2.36373
 629,-0.24942987,-0.63422772\H,0,-2.91603169,0.74412208,-0.11033023\H,0
 ,-1.64832816,1.28699504,-1.22439719\H,0,-2.04207689,2.22726192,0.22441

 Normal termination of Gaussian 16 at Wed Apr  9 16:21:28 2025.
