 Gaussian 16, Revision C.01,

 ----------------------------------------------------------------------
 #t hf aug-cc-pvdz symm=none int=(grid=ultrafine) guess=(read,tcheck) s
 table=(opt,rrhf)
 ----------------------------------------------------------------------
 -----
 title
 -----
 Symbolic Z-matrix:
 Charge =  0 Multiplicity = 1

 SCF Done:  E(RHF) =  -359.751500902     A.U. after   14 cycles
 Normal termination of Gaussian 16 at Wed Apr  9 03:51:37 2025.
 Gaussian 16:  ES64L-G16RevC.01  3-Jul-2019

 ----------------------------------------------------------------------
 #t hf aug-cc-pvdz iop(5/13=1,5/36=2,99/5=2) pseudo=read geom=check gue
 ss=(read,tcheck) scf=(maxcycle=1)
 ----------------------------------------------------------------------
 -----
 title
 -----
 Structure from the checkpoint file:  "Grambow2020_wb97xd3_008272_reverse_mol2.chk"
 Charge =  0 Multiplicity = 1

                         Standard orientation:
 ---------------------------------------------------------------------
 Center     Atomic      Atomic             Coordinates (Angstroms)
 Number     Number       Type             X           Y           Z
 ---------------------------------------------------------------------
      1          6           0        1.095609   -1.647941   -0.487057
      2          6           0        0.786061   -0.512622    0.484545
      3          6           0        1.474980    0.768607    0.083741
      4          7           0        0.843234    1.821244   -0.192224
      5          6           0       -1.408256    0.030458   -0.279577
      6          8           0       -2.578095    0.176493   -0.119370
      7          8           0       -0.604094   -0.354862    0.727037
      8          1           0        0.765049   -1.418065   -1.500743
      9          1           0        0.599943   -2.559908   -0.155317
     10          1           0        2.170346   -1.834661   -0.517063
     11          1           0        1.186327   -0.787068    1.465008
     12          1           0       -0.896864    0.173126   -1.241273
     13          1           0        2.569274    0.690353    0.059048
     14          1           0        1.470441    2.583458   -0.435329
 ---------------------------------------------------------------------

 SCF Done:  E(RHF) =  -359.865660856     A.U. after    2 cycles

 The electronic state is 1-A.
 Alpha  occ. eigenvalues --  -20.61811 -20.55536 -15.64343 -11.38671 -11.33288
 Alpha  occ. eigenvalues --  -11.32044 -11.26155  -1.42114  -1.33561  -1.21089
 Alpha  occ. eigenvalues --   -1.06584  -0.93220  -0.86910  -0.80014  -0.73655
 Alpha  occ. eigenvalues --   -0.70304  -0.68611  -0.66528  -0.63367  -0.59592
 Alpha  occ. eigenvalues --   -0.57280  -0.55918  -0.53872  -0.48256  -0.47497
 Alpha  occ. eigenvalues --   -0.44830  -0.43528
 Alpha virt. eigenvalues --    0.02172   0.03530   0.03917   0.04868   0.06269
 Alpha virt. eigenvalues --    0.06835   0.07910   0.09705   0.10653   0.12103
 Alpha virt. eigenvalues --    0.12623   0.12863   0.13470   0.14468   0.14678

 Mulliken charges:
               1
     1  C    0.407101
     2  C    0.129614
     3  C    0.761186
     4  N   -0.327503
     5  C    0.849960
     6  O   -0.431581
     7  O   -0.671697
     8  H   -0.092128
     9  H   -0.027721
    10  H   -0.059405
    11  H   -0.143819
    12  H   -0.138920
    13  H   -0.273542
    14  H    0.018453
 Sum of Mulliken charges =   0.00000

 Dipole moment (field-independent basis, Debye):
    X=              6.7754    Y=             -1.2079    Z=             -1.3677  Tot=              7.0168

 Test job not archived.
 1\1\GINC-SE126\SP\RHF\Aug-CC-pVDZ\C4H7N1O2\OHZDE\09-Apr-2025\0\\#t hf
 aug-cc-pvdz iop(5/13=1,5/36=2,99/5=2) pseudo=read geom=check guess=(re
 ad,tcheck) scf=(maxcycle=1)\\title\\0,1\C,0,-1.42469947,-0.68396119,0.
 0061337\C,0,-0.16071587,-0.21062534,-0.70595908\C,0,0.07363627,1.26631
 164,-0.50461362\N,0,1.10626654,1.71975203,0.05339226\C,0,1.45716083,-1
 .02422981,0.84786538\O,0,2.40750989,-1.67740381,1.14063638\O,0,0.97497
 905,-1.00892355,-0.40739857\H,0,-1.37162916,-0.51887131,1.08298141\H,0
 ,-1.57301799,-1.74763913,-0.17829142\H,0,-2.29462009,-0.14650231,-0.37

 Normal termination of Gaussian 16 at Wed Apr  9 03:51:42 2025.
