 Gaussian 16, Revision C.01,

 ----------------------------------------------------------------------
 #t hf aug-cc-pvdz symm=none int=(grid=ultrafine) guess=(read,tcheck) s
 table=(opt,rrhf)
 ----------------------------------------------------------------------
 -----
 title
 -----
 Symbolic Z-matrix:
 Charge =  0 Multiplicity = 1

 SCF Done:  E(RHF) =  -322.568469454     A.U. after   17 cycles
 Normal termination of Gaussian 16 at Wed Apr  9 15:31:00 2025.
 Gaussian 16:  ES64L-G16RevC.01  3-Jul-2019

 ----------------------------------------------------------------------
 #t hf aug-cc-pvdz iop(5/13=1,5/36=2,99/5=2) pseudo=read geom=check gue
 ss=(read,tcheck) scf=(maxcycle=1)
 ----------------------------------------------------------------------
 -----
 title
 -----
 Structure from the checkpoint file:  "Grambow2020_wb97xd3_006942_forward_mol1.chk"
 Charge =  0 Multiplicity = 1

                         Standard orientation:
 ---------------------------------------------------------------------
 Center     Atomic      Atomic             Coordinates (Angstroms)
 Number     Number       Type             X           Y           Z
 ---------------------------------------------------------------------
      1          8           0        1.973473   -0.403973   -0.948512
      2          6           0        1.606740   -0.647257    0.175426
      3          7           0        0.784048    0.148407    0.906993
      4          6           0        0.147128    1.297087    0.323889
      5          6           0       -1.082253    0.958439   -0.485360
      6          6           0       -1.765790   -0.222655   -0.332185
      7          6           0       -2.030970   -1.364960    0.232993
      8          1           0        1.930748   -1.544278    0.731014
      9          1           0        0.427277   -0.216777    1.772919
     10          1           0        0.859659    1.779199   -0.349804
     11          1           0       -0.091577    2.014968    1.112219
     12          1           0       -2.588782    0.603754   -0.168277
     13          1           0       -1.453106    1.713790   -1.168819
     14          1           0       -1.609473   -2.281632   -0.178688
 ---------------------------------------------------------------------

 SCF Done:  E(RHF) =  -322.668231938     A.U. after    2 cycles

 The electronic state is 1-A.
 Alpha  occ. eigenvalues --  -20.55357 -15.66875 -11.37447 -11.31820 -11.30804
 Alpha  occ. eigenvalues --  -11.26472 -11.24092  -1.36629  -1.22818  -1.11554
 Alpha  occ. eigenvalues --   -1.00694  -0.92142  -0.82705  -0.76820  -0.72750
 Alpha  occ. eigenvalues --   -0.68994  -0.65881  -0.62942  -0.60817  -0.58671
 Alpha  occ. eigenvalues --   -0.57306  -0.52465  -0.46027  -0.42309  -0.40379
 Alpha  occ. eigenvalues --   -0.31485
 Alpha virt. eigenvalues --    0.02516   0.03391   0.04258   0.04853   0.06020
 Alpha virt. eigenvalues --    0.06621   0.06973   0.07347   0.09398   0.10410
 Alpha virt. eigenvalues --    0.11718   0.12096   0.12589   0.12946   0.14234

 Mulliken charges:
               1
     1  O   -0.479041
     2  C    0.708758
     3  N   -0.247825
     4  C    0.647359
     5  C    0.188428
     6  C   -0.142235
     7  C    0.081731
     8  H   -0.200795
     9  H   -0.034091
    10  H   -0.025056
    11  H   -0.053088
    12  H    0.115158
    13  H   -0.359574
    14  H   -0.199730
 Sum of Mulliken charges =  -0.00000

 Dipole moment (field-independent basis, Debye):
    X=             -0.1533    Y=              2.5504    Z=              2.3790  Tot=              3.4911

 Test job not archived.
 1\1\GINC-SE113\SP\RHF\Aug-CC-pVDZ\C5H7N1O1\OHZDE\09-Apr-2025\0\\#t hf
 aug-cc-pvdz iop(5/13=1,5/36=2,99/5=2) pseudo=read geom=check guess=(re
 ad,tcheck) scf=(maxcycle=1)\\title\\0,1\O,0,-2.08067575,0.38770584,-1.
 04793145\C,0,-1.69587552,0.96512807,-0.06029354\N,0,-0.99538222,0.3844
 6355,0.94828478\C,0,-0.51325221,-0.96491482,0.83932734\C,0,0.75867388,
 -1.08714757,0.03421343\C,0,1.59359664,-0.0213314,-0.19515046\C,0,2.004
 60818,1.20521759,-0.04936355\H,0,-1.90160985,2.03300325,0.12844371\H,0
 ,-0.60141213,0.98510717,1.65148393\H,0,-1.27742082,-1.56255131,0.33646

 Normal termination of Gaussian 16 at Wed Apr  9 15:31:04 2025.
