 Gaussian 16, Revision C.01,

 ----------------------------------------------------------------------
 #t hf aug-cc-pvdz symm=none int=(grid=ultrafine) guess=(read,tcheck) s
 table=(opt,rrhf)
 ----------------------------------------------------------------------
 -----
 title
 -----
 Symbolic Z-matrix:
 Charge =  0 Multiplicity = 1

 SCF Done:  E(RHF) =  -359.645553749     A.U. after   15 cycles
 Normal termination of Gaussian 16 at Wed Apr  9 17:14:30 2025.
 Gaussian 16:  ES64L-G16RevC.01  3-Jul-2019

 ----------------------------------------------------------------------
 #t hf aug-cc-pvdz iop(5/13=1,5/36=2,99/5=2) pseudo=read geom=check gue
 ss=(read,tcheck) scf=(maxcycle=1)
 ----------------------------------------------------------------------
 -----
 title
 -----
 Structure from the checkpoint file:  "Grambow2020_wb97xd3_009412_reverse_mol2.chk"
 Charge =  0 Multiplicity = 1

                         Standard orientation:
 ---------------------------------------------------------------------
 Center     Atomic      Atomic             Coordinates (Angstroms)
 Number     Number       Type             X           Y           Z
 ---------------------------------------------------------------------
      1          8           0       -1.687459    0.078121   -0.902330
      2          6           0       -1.085165   -0.184957    0.375656
      3          6           0       -0.217497   -1.380874    0.342915
      4          8           0        1.162708   -1.084827   -0.030247
      5          6           0        1.544825    0.070499   -0.360986
      6          7           0        0.839509    1.165550   -0.124732
      7          6           0       -0.342668    1.114672    0.718205
      8          1           0       -1.666486   -0.779012   -1.340152
      9          1           0       -1.872715   -0.351559    1.120240
     10          1           0       -0.147917   -1.972873    1.248792
     11          1           0        1.125165    2.023632   -0.558358
     12          1           0        2.497195    0.146230   -0.873911
     13          1           0       -0.060693    1.118116    1.773663
     14          1           0       -0.950085    1.994228    0.508727
 ---------------------------------------------------------------------

 SCF Done:  E(RHF) =  -359.757326468     A.U. after    2 cycles

 The electronic state is 1-A.
 Alpha  occ. eigenvalues --  -20.64844 -20.53830 -15.70091 -11.41143 -11.28709
 Alpha  occ. eigenvalues --  -11.27500 -11.20078  -1.44219  -1.29684  -1.25494
 Alpha  occ. eigenvalues --   -1.04455  -0.93533  -0.90848  -0.80992  -0.75630
 Alpha  occ. eigenvalues --   -0.72206  -0.68866  -0.65535  -0.63332  -0.59829
 Alpha  occ. eigenvalues --   -0.58509  -0.57891  -0.54687  -0.48381  -0.44639
 Alpha  occ. eigenvalues --   -0.43495  -0.24963
 Alpha virt. eigenvalues --    0.01846   0.03649   0.04137   0.05564   0.06650
 Alpha virt. eigenvalues --    0.07025   0.07426   0.08661   0.10714   0.11448
 Alpha virt. eigenvalues --    0.12520   0.13396   0.13845   0.14543   0.14812

 Mulliken charges:
               1
     1  O   -0.685334
     2  C    0.610806
     3  C    0.236150
     4  O   -0.395519
     5  C    0.779114
     6  N   -0.209432
     7  C    0.638206
     8  H    0.190656
     9  H   -0.138435
    10  H   -0.441549
    11  H   -0.084828
    12  H   -0.274033
    13  H   -0.099572
    14  H   -0.126231
 Sum of Mulliken charges =  -0.00000

 Dipole moment (field-independent basis, Debye):
    X=              3.9766    Y=              4.7057    Z=              0.5450  Tot=              6.1850

 Test job not archived.
 1\1\GINC-SE113\SP\RHF\Aug-CC-pVDZ\C4H7N1O2\OHZDE\09-Apr-2025\0\\#t hf
 aug-cc-pvdz iop(5/13=1,5/36=2,99/5=2) pseudo=read geom=check guess=(re
 ad,tcheck) scf=(maxcycle=1)\\title\\0,1\O,0,-1.29620546,-0.458279,1.38
 984471\C,0,-1.0539353,0.07751355,0.07856736\C,0,-0.41804891,1.41044157
 ,0.13413278\O,0,1.04054652,1.355096,0.17013595\C,0,1.67871538,0.268749
 44,0.22277755\N,0,1.13507852,-0.90815414,-0.04514461\C,0,-0.19869006,-
 0.99271023,-0.61486818\H,0,-1.32244658,0.32432909,1.94988227\H,0,-2.00
 665693,0.17283025,-0.45587751\H,0,-0.6579676,2.11207048,-0.65711529\H,

 Normal termination of Gaussian 16 at Wed Apr  9 17:14:35 2025.
