 Gaussian 16, Revision C.01,

 ----------------------------------------------------------------------
 #t hf aug-cc-pvdz symm=none int=(grid=ultrafine) guess=(read,tcheck) s
 table=(opt,rrhf)
 ----------------------------------------------------------------------
 -----
 title
 -----
 Symbolic Z-matrix:
 Charge =  0 Multiplicity = 1

 SCF Done:  E(RHF) =  -302.768966539     A.U. after   17 cycles
 Normal termination of Gaussian 16 at Wed Apr  9 15:33:06 2025.
 Gaussian 16:  ES64L-G16RevC.01  3-Jul-2019

 ----------------------------------------------------------------------
 #t hf aug-cc-pvdz iop(5/13=1,5/36=2,99/5=2) pseudo=read geom=check gue
 ss=(read,tcheck) scf=(maxcycle=1)
 ----------------------------------------------------------------------
 -----
 title
 -----
 Structure from the checkpoint file:  "Grambow2020_wb97xd3_006957_forward_mol1.chk"
 Charge =  0 Multiplicity = 1

                         Standard orientation:
 ---------------------------------------------------------------------
 Center     Atomic      Atomic             Coordinates (Angstroms)
 Number     Number       Type             X           Y           Z
 ---------------------------------------------------------------------
      1          6           0        0.781934    1.564301    0.136535
      2          6           0        0.872040    0.071530   -0.085584
      3          6           0        2.226942   -0.497056   -0.442647
      4          7           0        0.211900   -0.741275    0.964101
      5          6           0       -0.635600   -1.037176   -0.157281
      6          6           0       -1.831560   -0.215586   -0.200513
      7          7           0       -2.849509    0.322206   -0.266341
      8          1           0        1.175102    2.106830   -0.723341
      9          1           0        1.376831    1.837774    1.011273
     10          1           0       -0.247847    1.885204    0.302190
     11          1           0        2.893464   -0.375427    0.412892
     12          1           0        2.135907   -1.561076   -0.655996
     13          1           0        2.655682    0.012228   -1.306792
     14          1           0       -0.234992   -0.096764    1.612979
     15          1           0        0.226585   -0.191365   -1.040584
 ---------------------------------------------------------------------

 SCF Done:  E(RHF) =  -302.856547266     A.U. after    2 cycles

 The electronic state is 1-A.
 Alpha  occ. eigenvalues --  -15.66551 -15.65454 -11.34307 -11.34238 -11.29351
 Alpha  occ. eigenvalues --  -11.26817 -11.25686  -1.28183  -1.20116  -1.06279
 Alpha  occ. eigenvalues --   -0.97933  -0.93621  -0.83871  -0.72761  -0.67035
 Alpha  occ. eigenvalues --   -0.64564  -0.61035  -0.58290  -0.56630  -0.54834
 Alpha  occ. eigenvalues --   -0.54545  -0.53362  -0.52657  -0.48001  -0.44820
 Alpha  occ. eigenvalues --   -0.35954
 Alpha virt. eigenvalues --    0.02539   0.03757   0.04270   0.05417   0.06604
 Alpha virt. eigenvalues --    0.07123   0.07181   0.07454   0.07647   0.09388
 Alpha virt. eigenvalues --    0.11483   0.12595   0.12907   0.13405   0.14275

 Mulliken charges:
               1
     1  C    0.601753
     2  C   -1.125827
     3  C    0.793265
     4  N   -0.652397
     5  C    0.045676
     6  C   -0.080135
     7  N   -0.240852
     8  H   -0.038068
     9  H    0.090609
    10  H   -0.084767
    11  H    0.044190
    12  H    0.006900
    13  H    0.007244
    14  H    0.106048
    15  H    0.526361
 Sum of Mulliken charges =  -0.00000

 Dipole moment (field-independent basis, Debye):
    X=              4.1966    Y=              2.1233    Z=              0.4040  Tot=              4.7205

 Test job not archived.
 1\1\GINC-SE043\SP\RHF\Aug-CC-pVDZ\C5H8N2\OHZDE\09-Apr-2025\0\\#t hf au
 g-cc-pvdz iop(5/13=1,5/36=2,99/5=2) pseudo=read geom=check guess=(read
 ,tcheck) scf=(maxcycle=1)\\title\\0,1\C,0,-0.6437672,1.23106603,-0.013
 20007\C,0,-0.22973492,-0.22022079,0.07717011\C,0,-1.27361185,-1.213014
 87,0.53676063\N,0,0.49580291,-0.72184153,-1.11457075\C,0,1.54327348,-0
 .78530347,-0.13370837\C,0,2.4154449,0.37489393,-0.15511678\N,0,3.21245
 969,1.20827305,-0.15976962\H,0,-1.06090531,1.57306996,0.93407785\H,0,-
 1.41202989,1.34224355,-0.78213922\H,0,0.19942284,1.87509021,-0.2684081

 Normal termination of Gaussian 16 at Wed Apr  9 15:33:11 2025.
