 Gaussian 16, Revision C.01,

 ----------------------------------------------------------------------
 #t hf aug-cc-pvdz symm=none int=(grid=ultrafine) guess=(read,tcheck) s
 table=(opt,rrhf)
 ----------------------------------------------------------------------
 -----
 title
 -----
 Symbolic Z-matrix:
 Charge =  0 Multiplicity = 1

 SCF Done:  E(RHF) =  -268.820305522     A.U. after   14 cycles
 Normal termination of Gaussian 16 at Wed Apr  9 14:18:17 2025.
 Gaussian 16:  ES64L-G16RevC.01  3-Jul-2019

 ----------------------------------------------------------------------
 #t hf aug-cc-pvdz iop(5/13=1,5/36=2,99/5=2) pseudo=read geom=check gue
 ss=(read,tcheck) scf=(maxcycle=1)
 ----------------------------------------------------------------------
 -----
 title
 -----
 Structure from the checkpoint file:  "Grambow2020_b97d3_007086_forward_mol2.chk"
 Charge =  0 Multiplicity = 1

                         Standard orientation:
 ---------------------------------------------------------------------
 Center     Atomic      Atomic             Coordinates (Angstroms)
 Number     Number       Type             X           Y           Z
 ---------------------------------------------------------------------
      1          6           0        1.954401   -0.907131    0.119354
      2          6           0        1.200639    0.334185   -0.365746
      3          6           0       -0.145698    0.536664    0.350090
      4          8           0       -0.669708    1.794146   -0.099450
      5          6           0       -1.084789   -0.566931    0.088446
      6          6           0       -1.884455   -1.458617   -0.131093
      7          1           0        2.158460   -0.851487    1.198913
      8          1           0        2.917009   -1.003234   -0.400631
      9          1           0        1.371975   -1.819235   -0.068734
     10          1           0        1.005125    0.275363   -1.445377
     11          1           0        1.793344    1.242993   -0.187539
     12          1           0        0.045687    0.566629    1.441534
     13          1           0       -1.589765    1.850756    0.219935
     14          1           0       -2.584752   -2.243979   -0.328803
 ---------------------------------------------------------------------

 SCF Done:  E(RHF) =  -268.905145799     A.U. after    2 cycles

 The electronic state is 1-A.
 Alpha  occ. eigenvalues --  -20.58452 -11.32473 -11.25719 -11.25211 -11.24082
 Alpha  occ. eigenvalues --  -11.23069  -1.32999  -1.07171  -1.01660  -0.92968
 Alpha  occ. eigenvalues --   -0.83071  -0.74129  -0.70585  -0.68114  -0.62281
 Alpha  occ. eigenvalues --   -0.59147  -0.56324  -0.51492  -0.50451  -0.49617
 Alpha  occ. eigenvalues --   -0.48135  -0.40433  -0.39413
 Alpha virt. eigenvalues --    0.03380   0.04044   0.04562   0.05200   0.06280
 Alpha virt. eigenvalues --    0.07165   0.07757   0.07894   0.10478   0.11289
 Alpha virt. eigenvalues --    0.12165   0.13112   0.13773   0.14178   0.15373

 Mulliken charges:
               1
     1  C    0.365297
     2  C    0.088144
     3  C    0.309266
     4  O   -0.618675
     5  C   -0.673876
     6  C    1.098046
     7  H   -0.038113
     8  H   -0.060152
     9  H   -0.040653
    10  H   -0.055422
    11  H    0.019705
    12  H   -0.060891
    13  H    0.171942
    14  H   -0.504618
 Sum of Mulliken charges =  -0.00000

 Dipole moment (field-independent basis, Debye):
    X=             -0.4018    Y=             -1.0939    Z=              0.8757  Tot=              1.4577

 Test job not archived.
 1\1\GINC-SE039\SP\RHF\Aug-CC-pVDZ\C5H8O1\OHZDE\09-Apr-2025\0\\#t hf au
 g-cc-pvdz iop(5/13=1,5/36=2,99/5=2) pseudo=read geom=check guess=(read
 ,tcheck) scf=(maxcycle=1)\\title\\0,1\C,0,-1.43518525,1.07035201,-0.27
 31692\C,0,-1.01070193,-0.37021702,0.02502696\C,0,0.44229682,-0.4778547
 8,0.51823035\O,0,0.65550434,-1.84816989,0.88526467\C,0,1.40835533,-0.0
 3247429,-0.4999252\C,0,2.22565384,0.31162044,-1.3344241\H,0,-1.3408235
 2,1.70542451,0.62011892\H,0,-2.48259969,1.10508975,-0.60172895\H,0,-0.
 81362867,1.50713874,-1.06652686\H,0,-1.11281455,-1.00056737,-0.8691319

 Normal termination of Gaussian 16 at Wed Apr  9 14:18:21 2025.
