 Gaussian 16, Revision C.01,

 ----------------------------------------------------------------------
 #t hf aug-cc-pvdz symm=none int=(grid=ultrafine) guess=(read,tcheck) s
 table=(opt,rrhf)
 ----------------------------------------------------------------------
 -----
 title
 -----
 Symbolic Z-matrix:
 Charge =  0 Multiplicity = 1

 SCF Done:  E(RHF) =  -317.572765460     A.U. after   16 cycles
 Normal termination of Gaussian 16 at Wed Apr  9 16:49:59 2025.
 Gaussian 16:  ES64L-G16RevC.01  3-Jul-2019

 ----------------------------------------------------------------------
 #t hf aug-cc-pvdz iop(5/13=1,5/36=2,99/5=2) pseudo=read geom=check gue
 ss=(read,tcheck) scf=(maxcycle=1)
 ----------------------------------------------------------------------
 -----
 title
 -----
 Structure from the checkpoint file:  "Grambow2020_wb97xd3_008969_reverse_mol1.chk"
 Charge =  0 Multiplicity = 1

                         Standard orientation:
 ---------------------------------------------------------------------
 Center     Atomic      Atomic             Coordinates (Angstroms)
 Number     Number       Type             X           Y           Z
 ---------------------------------------------------------------------
      1          7           0        2.132017   -0.000945    0.237426
      2          6           0        0.740126   -0.001328    0.132611
      3          6           0        0.007094   -1.209725   -0.342700
      4          7           0       -1.263712   -1.129028   -0.110179
      5          6           0       -1.315884    0.001305    0.627900
      6          7           0       -1.260824    1.131532   -0.110731
      7          6           0        0.010174    1.208314   -0.343109
      8          1           0        2.605091   -0.841816   -0.045648
      9          1           0        2.604071    0.840217   -0.047182
     10          1           0        0.461027   -2.046929   -0.863341
     11          1           0       -0.038929    0.000394    1.253813
     12          1           0        0.467311    2.045825   -0.861463
 ---------------------------------------------------------------------

 SCF Done:  E(RHF) =  -317.661121128     A.U. after    2 cycles

 The electronic state is 1-A.
 Alpha  occ. eigenvalues --  -15.65463 -15.65452 -15.64747 -11.34412 -11.32565
 Alpha  occ. eigenvalues --  -11.31275 -11.31266  -1.34260  -1.20115  -1.19885
 Alpha  occ. eigenvalues --   -0.99748  -0.89248  -0.86154  -0.72614  -0.72594
 Alpha  occ. eigenvalues --   -0.68857  -0.67220  -0.64180  -0.60994  -0.51571
 Alpha  occ. eigenvalues --   -0.49635  -0.45352  -0.41671  -0.39399  -0.34558
 Alpha virt. eigenvalues --    0.02225   0.03418   0.04362   0.05606   0.07081
 Alpha virt. eigenvalues --    0.07272   0.09876   0.10066   0.10756   0.11639
 Alpha virt. eigenvalues --    0.11800   0.13997   0.14012   0.14227   0.14556

 Mulliken charges:
               1
     1  N   -0.383640
     2  C    0.061076
     3  C    0.587252
     4  N   -0.512384
     5  C    0.093650
     6  N   -0.512417
     7  C    0.583084
     8  H   -0.011147
     9  H   -0.010603
    10  H   -0.250032
    11  H    0.605125
    12  H   -0.249964
 Sum of Mulliken charges =  -0.00000

 Dipole moment (field-independent basis, Debye):
    X=              4.4690    Y=             -0.0070    Z=             -1.3602  Tot=              4.6714

 Test job not archived.
 1\1\GINC-SE041\SP\RHF\Aug-CC-pVDZ\C4H5N3\OHZDE\09-Apr-2025\0\\#t hf au
 g-cc-pvdz iop(5/13=1,5/36=2,99/5=2) pseudo=read geom=check guess=(read
 ,tcheck) scf=(maxcycle=1)\\title\\0,1\N,0,-1.62857325,0.01651527,0.639
 65445\C,0,-0.2884888,-0.00410568,0.24966272\C,0,0.3743026,1.22092159,-
 0.2827793\N,0,1.66209967,1.09682767,-0.32407265\C,0,1.82394292,-0.0862
 115,0.30787815\N,0,1.57865769,-1.15685812,-0.47925041\C,0,0.28509437,-
 1.18977693,-0.44859173\H,0,-2.11931735,0.88575859,0.51891183\H,0,-2.17
 8535,-0.79114052,0.40169552\H,0,-0.14647155,2.10382013,-0.63959423\H,0

 Normal termination of Gaussian 16 at Wed Apr  9 16:50:03 2025.
