 Gaussian 16, Revision C.01,

 ----------------------------------------------------------------------
 #t hf aug-cc-pvdz symm=none int=(grid=ultrafine) guess=(read,tcheck) s
 table=(opt,rrhf)
 ----------------------------------------------------------------------
 -----
 title
 -----
 Symbolic Z-matrix:
 Charge =  0 Multiplicity = 1

 SCF Done:  E(RHF) =  -323.925470350     A.U. after   14 cycles
 Normal termination of Gaussian 16 at Wed Apr  9 03:53:01 2025.
 Gaussian 16:  ES64L-G16RevC.01  3-Jul-2019

 ----------------------------------------------------------------------
 #t hf aug-cc-pvdz iop(5/13=1,5/36=2,99/5=2) pseudo=read geom=check gue
 ss=(read,tcheck) scf=(maxcycle=1)
 ----------------------------------------------------------------------
 -----
 title
 -----
 Structure from the checkpoint file:  "Grambow2020_wb97xd3_008328_reverse_mol2.chk"
 Charge =  0 Multiplicity = 1

                         Standard orientation:
 ---------------------------------------------------------------------
 Center     Atomic      Atomic             Coordinates (Angstroms)
 Number     Number       Type             X           Y           Z
 ---------------------------------------------------------------------
      1          7           0        2.171010   -1.015922   -0.494040
      2          6           0        1.662245   -0.099772   -0.024992
      3          6           0        0.988051    1.063967    0.543398
      4          6           0       -0.234131    1.511824   -0.275303
      5          6           0       -1.515088    0.708046   -0.058818
      6          6           0       -1.451458   -0.777355   -0.386523
      7          8           0       -0.794229   -1.506509    0.636850
      8          1           0        0.010857   -1.891845    0.285984
      9          1           0        0.701533    0.816787    1.567711
     10          1           0        1.723380    1.869865    0.590240
     11          1           0        0.032686    1.510459   -1.335918
     12          1           0       -0.433829    2.552603   -0.010523
     13          1           0       -1.843276    0.805402    0.980995
     14          1           0       -2.298196    1.160405   -0.674924
     15          1           0       -0.962968   -0.935520   -1.354704
     16          1           0       -2.471137   -1.164900   -0.471950
 ---------------------------------------------------------------------

 SCF Done:  E(RHF) =  -324.025583381     A.U. after    2 cycles

 The electronic state is 1-A.
 Alpha  occ. eigenvalues --  -20.56668 -15.63903 -11.29283 -11.29144 -11.28911
 Alpha  occ. eigenvalues --  -11.26222 -11.24348  -1.32201  -1.20300  -1.09846
 Alpha  occ. eigenvalues --   -1.01547  -0.91249  -0.81404  -0.72621  -0.69990
 Alpha  occ. eigenvalues --   -0.67222  -0.62573  -0.60707  -0.59712  -0.56389
 Alpha  occ. eigenvalues --   -0.54554  -0.53282  -0.51864  -0.48652  -0.46247
 Alpha  occ. eigenvalues --   -0.45974  -0.44778
 Alpha virt. eigenvalues --    0.02768   0.03875   0.04516   0.05001   0.06323
 Alpha virt. eigenvalues --    0.06710   0.06941   0.07769   0.08052   0.10240
 Alpha virt. eigenvalues --    0.12512   0.13189   0.13650   0.14184   0.14415

 Mulliken charges:
               1
     1  N   -0.258614
     2  C   -0.217227
     3  C    0.428370
     4  C    0.137651
     5  C    0.106655
     6  C    0.810255
     7  O   -0.558130
     8  H    0.171293
     9  H    0.019714
    10  H    0.022986
    11  H   -0.137557
    12  H   -0.070271
    13  H   -0.075804
    14  H   -0.053870
    15  H   -0.131010
    16  H   -0.194443
 Sum of Mulliken charges =  -0.00000

 Dipole moment (field-independent basis, Debye):
    X=             -1.5706    Y=              3.6050    Z=             -0.1482  Tot=              3.9351

 Test job not archived.
 1\1\GINC-SE049\SP\RHF\Aug-CC-pVDZ\C5H9N1O1\OHZDE\09-Apr-2025\0\\#t hf
 aug-cc-pvdz iop(5/13=1,5/36=2,99/5=2) pseudo=read geom=check guess=(re
 ad,tcheck) scf=(maxcycle=1)\\title\\0,1\N,0,2.60518515,0.50427239,0.94
 528311\C,0,1.91069763,-0.27219245,0.46261512\C,0,0.99741725,-1.2442158
 9,-0.13150888\C,0,-0.44531594,-1.10824357,0.38289083\C,0,-1.27785268,0
 .00666208,-0.24770045\C,0,-0.75494005,1.42653978,-0.07927897\O,0,0.316
 98664,1.69331014,-0.96850005\H,0,1.11520932,1.85962712,-0.46359003\H,0
 ,1.0377055,-1.12110459,-1.21577294\H,0,1.38720834,-2.23665728,0.104069

 Normal termination of Gaussian 16 at Wed Apr  9 03:53:07 2025.
