 Gaussian 16, Revision C.01,

 ----------------------------------------------------------------------
 #t hf aug-cc-pvdz symm=none int=(grid=ultrafine) guess=(read,tcheck) s
 table=(opt,rrhf)
 ----------------------------------------------------------------------
 -----
 title
 -----
 Symbolic Z-matrix:
 Charge =  0 Multiplicity = 1

 SCF Done:  E(RHF) =  -338.544082458     A.U. after   16 cycles
 Normal termination of Gaussian 16 at Wed Apr  9 16:26:58 2025.
 Gaussian 16:  ES64L-G16RevC.01  3-Jul-2019

 ----------------------------------------------------------------------
 #t hf aug-cc-pvdz iop(5/13=1,5/36=2,99/5=2) pseudo=read geom=check gue
 ss=(read,tcheck) scf=(maxcycle=1)
 ----------------------------------------------------------------------
 -----
 title
 -----
 Structure from the checkpoint file:  "Grambow2020_wb97xd3_008309_forward_mol1.chk"
 Charge =  0 Multiplicity = 1

                         Standard orientation:
 ---------------------------------------------------------------------
 Center     Atomic      Atomic             Coordinates (Angstroms)
 Number     Number       Type             X           Y           Z
 ---------------------------------------------------------------------
      1          6           0        2.380670    0.177418   -0.134017
      2          8           0        1.444781   -0.666526    0.001918
      3          6           0        0.146354   -0.260588   -0.080658
      4          6           0       -0.248969    1.069984   -0.193488
      5          7           0       -1.602474    0.867756   -0.058896
      6          6           0       -1.901000   -0.463349    0.071112
      7          7           0       -0.828291   -1.199525    0.070349
      8          1           0        2.183094    1.115046   -0.641173
      9          1           0        3.372503   -0.201846    0.075778
     10          1           0        1.787944    1.336041    1.362027
     11          1           0        1.049684    1.499585    1.085449
     12          1           0       -2.286336    1.601452   -0.108577
     13          1           0       -2.912116   -0.836482    0.153294
 ---------------------------------------------------------------------

 SCF Done:  E(RHF) =  -338.650061777     A.U. after    2 cycles

 The electronic state is 1-A.
 Alpha  occ. eigenvalues --  -20.71716 -15.65788 -15.60686 -11.41376 -11.29709
 Alpha  occ. eigenvalues --  -11.29511 -11.21474  -1.49990  -1.29658  -1.13085
 Alpha  occ. eigenvalues --   -1.03919  -0.95072  -0.84118  -0.82220  -0.76003
 Alpha  occ. eigenvalues --   -0.72037  -0.70611  -0.65923  -0.61237  -0.57894
 Alpha  occ. eigenvalues --   -0.56888  -0.54738  -0.44680  -0.38421  -0.34142
 Alpha  occ. eigenvalues --   -0.28642
 Alpha virt. eigenvalues --    0.01798   0.03198   0.03758   0.05093   0.06024
 Alpha virt. eigenvalues --    0.06993   0.08126   0.09186   0.10826   0.11616
 Alpha virt. eigenvalues --    0.11814   0.13518   0.13570   0.13809   0.15793

 Mulliken charges:
               1
     1  C    0.836072
     2  O   -0.375045
     3  C    0.252101
     4  C   -0.041279
     5  N   -0.335435
     6  C    0.753107
     7  N   -0.640649
     8  H   -0.086309
     9  H   -0.266349
    10  H    0.106689
    11  H    0.147643
    12  H   -0.106163
    13  H   -0.244383
 Sum of Mulliken charges =  -0.00000

 Dipole moment (field-independent basis, Debye):
    X=              2.4752    Y=              1.1763    Z=             -0.3000  Tot=              2.7569

 Test job not archived.
 1\1\GINC-SE131\SP\RHF\Aug-CC-pVDZ\C4H6N2O1\OHZDE\09-Apr-2025\0\\#t hf
 aug-cc-pvdz iop(5/13=1,5/36=2,99/5=2) pseudo=read geom=check guess=(re
 ad,tcheck) scf=(maxcycle=1)\\title\\0,1\C,0,2.20920423,-0.06931548,-0.
 26119099\O,0,1.20889438,0.33848324,-0.92428033\C,0,-0.02518003,0.36327
 21,-0.34638513\C,0,-0.30395599,-0.14671945,0.9191686\N,0,-1.67090009,-
 0.003927,0.87378049\C,0,-2.07691845,0.57328788,-0.3008826\N,0,-1.07261
 59,0.80932071,-1.09355266\H,0,2.16625885,-0.06923774,0.82211219\H,0,3.
 12183456,-0.18084941,-0.83237729\H,0,1.44674399,-1.8597893,0.11925045\

 Normal termination of Gaussian 16 at Wed Apr  9 16:27:02 2025.
