 Gaussian 16, Revision C.01,

 ----------------------------------------------------------------------
 #t hf aug-cc-pvdz symm=none int=(grid=ultrafine) guess=(read,tcheck) s
 table=(opt,rrhf)
 ----------------------------------------------------------------------
 -----
 title
 -----
 Symbolic Z-matrix:
 Charge =  0 Multiplicity = 1

 SCF Done:  E(RHF) =  -302.809835568     A.U. after   15 cycles
 Normal termination of Gaussian 16 at Wed Apr  9 03:34:28 2025.
 Gaussian 16:  ES64L-G16RevC.01  3-Jul-2019

 ----------------------------------------------------------------------
 #t hf aug-cc-pvdz iop(5/13=1,5/36=2,99/5=2) pseudo=read geom=check gue
 ss=(read,tcheck) scf=(maxcycle=1)
 ----------------------------------------------------------------------
 -----
 title
 -----
 Structure from the checkpoint file:  "Grambow2020_wb97xd3_007167_reverse_mol2.chk"
 Charge =  0 Multiplicity = 1

                         Standard orientation:
 ---------------------------------------------------------------------
 Center     Atomic      Atomic             Coordinates (Angstroms)
 Number     Number       Type             X           Y           Z
 ---------------------------------------------------------------------
      1          6           0       -0.408730    1.691574    0.601062
      2          6           0       -0.244087    0.504602   -0.344869
      3          6           0        2.011459   -0.042294   -0.820033
      4          7           0        0.972623   -0.280751   -0.024570
      5          6           0        0.910926   -1.059114    1.044931
      6          6           0       -1.440559   -0.347260   -0.339187
      7          7           0       -2.416932   -0.947528   -0.344450
      8          1           0       -0.592266    1.354904    1.619402
      9          1           0       -1.249140    2.304069    0.275454
     10          1           0        0.500995    2.290428    0.578227
     11          1           0       -0.117931    0.863557   -1.365231
     12          1           0        2.948570   -0.526845   -0.601806
     13          1           0        1.880542    0.594527   -1.675872
     14          1           0       -0.022198   -1.151208    1.572330
     15          1           0        1.787538   -1.616518    1.329215
 ---------------------------------------------------------------------

 SCF Done:  E(RHF) =  -302.902776233     A.U. after    2 cycles

 The electronic state is 1-A.
 Alpha  occ. eigenvalues --  -15.76141 -15.65516 -11.35794 -11.30089 -11.26999
 Alpha  occ. eigenvalues --  -11.25154 -11.25122  -1.30739  -1.21108  -1.08724
 Alpha  occ. eigenvalues --   -0.99076  -0.93768  -0.81712  -0.73824  -0.71529
 Alpha  occ. eigenvalues --   -0.66547  -0.64633  -0.59798  -0.57766  -0.57359
 Alpha  occ. eigenvalues --   -0.55678  -0.54731  -0.53047  -0.48311  -0.47444
 Alpha  occ. eigenvalues --   -0.25154
 Alpha virt. eigenvalues --    0.02776   0.03766   0.04020   0.05033   0.06264
 Alpha virt. eigenvalues --    0.06607   0.07387   0.08029   0.08426   0.09863
 Alpha virt. eigenvalues --    0.11659   0.12807   0.13315   0.14078   0.14667

 Mulliken charges:
               1
     1  C    0.676440
     2  C    0.293763
     3  C    0.505756
     4  N    0.274161
     5  C    0.577653
     6  C   -0.423994
     7  N   -0.161818
     8  H   -0.011474
     9  H   -0.035779
    10  H   -0.025431
    11  H   -0.064711
    12  H   -0.395329
    13  H   -0.412182
    14  H   -0.398956
    15  H   -0.398099
 Sum of Mulliken charges =  -0.00000

 Dipole moment (field-independent basis, Debye):
    X=              1.8424    Y=              2.8821    Z=              0.1207  Tot=              3.4228

 Test job not archived.
 1\1\GINC-SE080\SP\RHF\Aug-CC-pVDZ\C5H8N2\OHZDE\09-Apr-2025\0\\#t hf au
 g-cc-pvdz iop(5/13=1,5/36=2,99/5=2) pseudo=read geom=check guess=(read
 ,tcheck) scf=(maxcycle=1)\\title\\0,1\C,0,-0.95461518,-1.20914035,0.67
 30401\C,0,-0.2487341,-0.50837251,-0.48516961\C,0,-0.42157053,1.8537256
 4,-0.43051848\N,0,0.30790981,0.80196251,-0.06932939\C,0,1.40791821,0.7
 715662,0.66724836\C,0,0.79268587,-1.36511869,-1.06713009\N,0,1.5528397
 ,-2.09122119,-1.52385097\H,0,-0.24684071,-1.47759713,1.45472782\H,0,-1
 .43973085,-2.11505958,0.31050315\H,0,-1.70864988,-0.53920606,1.0845829

 Normal termination of Gaussian 16 at Wed Apr  9 03:34:33 2025.
