 Gaussian 16, Revision C.01,

 ----------------------------------------------------------------------
 #t hf aug-cc-pvdz symm=none int=(grid=ultrafine) guess=(read,tcheck) s
 table=(opt,rrhf)
 ----------------------------------------------------------------------
 -----
 title
 -----
 Symbolic Z-matrix:
 Charge =  0 Multiplicity = 1

 SCF Done:  E(RHF) =  -325.063046175     A.U. after   13 cycles
 Normal termination of Gaussian 16 at Wed Apr  9 16:20:18 2025.
 Gaussian 16:  ES64L-G16RevC.01  3-Jul-2019

 ----------------------------------------------------------------------
 #t hf aug-cc-pvdz iop(5/13=1,5/36=2,99/5=2) pseudo=read geom=check gue
 ss=(read,tcheck) scf=(maxcycle=1)
 ----------------------------------------------------------------------
 -----
 title
 -----
 Structure from the checkpoint file:  "Grambow2020_wb97xd3_008097_reverse_mol2.chk"
 Charge =  0 Multiplicity = 1

                         Standard orientation:
 ---------------------------------------------------------------------
 Center     Atomic      Atomic             Coordinates (Angstroms)
 Number     Number       Type             X           Y           Z
 ---------------------------------------------------------------------
      1          6           0        3.396575   -0.279347    0.166018
      2          6           0        2.683227    0.770948   -0.210678
      3          7           0       -0.744396    0.768034    0.043357
      4          6           0       -1.836666    1.709697    0.058689
      5          6           0       -0.969377   -0.471900   -0.000306
      6          8           0        0.065321   -1.334078   -0.006130
      7          6           0       -2.290987   -1.187350   -0.048019
      8          1           0        3.572061   -0.500839    1.212915
      9          1           0        3.837208   -0.957324   -0.556307
     10          1           0        0.880508   -0.808069    0.020911
     11          1           0        2.505124    0.992171   -1.256954
     12          1           0        2.230401    1.444602    0.506400
     13          1           0       -1.631958    2.509538   -0.655652
     14          1           0       -2.816217    1.283096   -0.184900
     15          1           0       -1.909207    2.175200    1.045707
     16          1           0       -2.130050   -2.261884   -0.079473
     17          1           0       -2.856556   -0.888986   -0.931594
     18          1           0       -2.889746   -0.943414    0.830262
 ---------------------------------------------------------------------

 SCF Done:  E(RHF) =  -325.168931380     A.U. after    2 cycles

 The electronic state is 1-A.
 Alpha  occ. eigenvalues --  -20.59186 -15.59380 -11.34326 -11.25275 -11.24406
 Alpha  occ. eigenvalues --  -11.24331 -11.24143  -1.37354  -1.17741  -1.03447
 Alpha  occ. eigenvalues --   -1.00130  -0.92966  -0.79937  -0.79292  -0.68217
 Alpha  occ. eigenvalues --   -0.65247  -0.64822  -0.63398  -0.59486  -0.57409
 Alpha  occ. eigenvalues --   -0.56982  -0.56357  -0.55478  -0.53965  -0.50750
 Alpha  occ. eigenvalues --   -0.40385  -0.38085  -0.37587
 Alpha virt. eigenvalues --    0.03407   0.04353   0.04495   0.04586   0.05942
 Alpha virt. eigenvalues --    0.06117   0.06973   0.07584   0.08051   0.08807
 Alpha virt. eigenvalues --    0.09001   0.11094   0.12362   0.13230   0.13758

 Mulliken charges:
               1
     1  C    0.628717
     2  C    0.600356
     3  N   -0.506722
     4  C    0.799909
     5  C    0.220970
     6  O   -0.428978
     7  C    0.294613
     8  H   -0.296434
     9  H   -0.306918
    10  H    0.120731
    11  H   -0.300113
    12  H   -0.324160
    13  H   -0.183853
    14  H   -0.198636
    15  H   -0.124985
    16  H   -0.176817
    17  H    0.084927
    18  H    0.097392
 Sum of Mulliken charges =  -0.00000

 Dipole moment (field-independent basis, Debye):
    X=             -1.1782    Y=              0.1227    Z=             -0.0381  Tot=              1.1852

 Test job not archived.
 1\1\GINC-SE043\SP\RHF\Aug-CC-pVDZ\C5H11N1O1\OHZDE\09-Apr-2025\0\\#t hf
  aug-cc-pvdz iop(5/13=1,5/36=2,99/5=2) pseudo=read geom=check guess=(r
 ead,tcheck) scf=(maxcycle=1)\\title\\0,1\C,0,-3.18319256,-0.03049765,-
 1.36124748\C,0,-2.77818022,-0.40124059,-0.15609204\N,0,0.48775079,0.02
 763284,0.82518687\C,0,1.2637502,0.07082341,2.04008484\C,0,1.05874759,0
 .03233956,-0.29904509\O,0,0.31464574,-0.00077542,-1.42118625\C,0,2.529
 87139,0.07349212,-0.60710343\H,0,-3.34816406,1.01217179,-1.60918101\H,
 0,-3.37016999,-0.75396337,-2.14686836\H,0,-0.61675695,-0.03105774,-1.1

 Normal termination of Gaussian 16 at Wed Apr  9 16:20:26 2025.
