 Gaussian 16, Revision C.01,

 ----------------------------------------------------------------------
 #t hf aug-cc-pvdz symm=none int=(grid=ultrafine) guess=(read,tcheck) s
 table=(opt,rrhf)
 ----------------------------------------------------------------------
 -----
 title
 -----
 Symbolic Z-matrix:
 Charge =  0 Multiplicity = 1

 SCF Done:  E(RHF) =  -184.502832619     A.U. after   15 cycles
 Normal termination of Gaussian 16 at Wed Apr  9 14:12:51 2025.
 Gaussian 16:  ES64L-G16RevC.01  3-Jul-2019

 ----------------------------------------------------------------------
 #t hf aug-cc-pvdz iop(5/13=1,5/36=2,99/5=2) pseudo=read geom=check gue
 ss=(read,tcheck) scf=(maxcycle=1)
 ----------------------------------------------------------------------
 -----
 title
 -----
 Structure from the checkpoint file:  "Grambow2020_b97d3_006824_forward_mol1.chk"
 Charge =  0 Multiplicity = 1

                         Standard orientation:
 ---------------------------------------------------------------------
 Center     Atomic      Atomic             Coordinates (Angstroms)
 Number     Number       Type             X           Y           Z
 ---------------------------------------------------------------------
      1          7           0       -1.070743   -0.579384   -0.000020
      2          6           0       -1.002320    0.643049   -0.000068
      3          6           0        0.409859    0.112227    0.000202
      4          7           0        1.578567   -0.067995   -0.000095
 ---------------------------------------------------------------------

 SCF Done:  E(RHF) =  -184.552219827     A.U. after    2 cycles

 The electronic state is 1-A.
 Alpha  occ. eigenvalues --  -15.79123 -15.71079 -11.38705 -11.38478  -1.37446
 Alpha  occ. eigenvalues --   -1.22097  -0.81672  -0.72468  -0.63068  -0.60040
 Alpha  occ. eigenvalues --   -0.58199  -0.48255  -0.47053
 Alpha virt. eigenvalues --    0.00830   0.06009   0.06775   0.07525   0.08077
 Alpha virt. eigenvalues --    0.10265   0.11486   0.13318   0.13464   0.16647
 Alpha virt. eigenvalues --    0.17358   0.20975   0.21052   0.21692   0.22932

 Mulliken charges:
               1
     1  N   -0.201720
     2  C    0.277043
     3  C    0.049438
     4  N   -0.124760
 Sum of Mulliken charges =  -0.00000

 Dipole moment (field-independent basis, Debye):
    X=             -1.7870    Y=              0.1020    Z=              0.0003  Tot=              1.7899

 Test job not archived.
 1\1\GINC-SE120\SP\RHF\Aug-CC-pVDZ\C2N2\OHZDE\09-Apr-2025\0\\#t hf aug-
 cc-pvdz iop(5/13=1,5/36=2,99/5=2) pseudo=read geom=check guess=(read,t
 check) scf=(maxcycle=1)\\title\\0,1\N,0,-1.10354476,0.01220571,-0.4827
 0026\C,0,-0.90497087,0.07448946,0.72382902\C,0,0.43352892,0.20043011,0
 .03930043\N,0,1.56896071,0.31682372,-0.26989919\\Version=ES64L-G16RevC
 .01\State=1-A\HF=-184.5522198\RMSD=3.752e-03\Dipole=-0.690368,-0.07303
 56,0.1181865\Quadrupole=-1.1641173,1.2749672,-0.1108498,-0.2574629,0.5
 224893,0.0110411\PG=C01 [X(C2N2)]\\@

 Normal termination of Gaussian 16 at Wed Apr  9 14:12:53 2025.
