 Gaussian 16, Revision C.01,

 ----------------------------------------------------------------------
 #t hf aug-cc-pvdz symm=none int=(grid=ultrafine) guess=(read,tcheck) s
 table=(opt,rrhf)
 ----------------------------------------------------------------------
 -----
 title
 -----
 Symbolic Z-matrix:
 Charge =  0 Multiplicity = 1

 SCF Done:  E(RHF) =  -305.841208467     A.U. after   13 cycles
 Normal termination of Gaussian 16 at Wed Apr  9 14:26:23 2025.
 Gaussian 16:  ES64L-G16RevC.01  3-Jul-2019

 ----------------------------------------------------------------------
 #t hf aug-cc-pvdz iop(5/13=1,5/36=2,99/5=2) pseudo=read geom=check gue
 ss=(read,tcheck) scf=(maxcycle=1)
 ----------------------------------------------------------------------
 -----
 title
 -----
 Structure from the checkpoint file:  "Grambow2020_wb97xd3_006279_reverse_mol2.chk"
 Charge =  0 Multiplicity = 1

                         Standard orientation:
 ---------------------------------------------------------------------
 Center     Atomic      Atomic             Coordinates (Angstroms)
 Number     Number       Type             X           Y           Z
 ---------------------------------------------------------------------
      1          6           0        2.817760    0.293711   -0.419982
      2          6           0        2.010622   -0.634463    0.067145
      3          6           0        0.593325   -0.413015    0.501353
      4          8           0        0.092826    0.879857    0.232296
      5          6           0       -2.644358    0.279961    0.205340
      6          8           0       -2.677323   -0.575682   -0.632909
      7          1           0        3.830136    0.054491   -0.719433
      8          1           0        0.117299    1.013786   -0.718786
      9          1           0        2.502372    1.325779   -0.521814
     10          1           0        2.363298   -1.657353    0.173950
     11          1           0       -0.049414   -1.178947    0.047129
     12          1           0        0.521263   -0.545419    1.584907
     13          1           0       -2.481040    0.049249    1.273991
     14          1           0       -2.792035    1.347852   -0.038181
 ---------------------------------------------------------------------

 SCF Done:  E(RHF) =  -305.941162439     A.U. after    2 cycles

 The electronic state is 1-A.
 Alpha  occ. eigenvalues --  -20.58466 -20.58080 -11.34785 -11.29697 -11.24963
 Alpha  occ. eigenvalues --  -11.23688  -1.36821  -1.33868  -1.05870  -0.93479
 Alpha  occ. eigenvalues --   -0.85934  -0.77878  -0.70310  -0.69617  -0.67706
 Alpha  occ. eigenvalues --   -0.65920  -0.63422  -0.58701  -0.55803  -0.54197
 Alpha  occ. eigenvalues --   -0.51133  -0.47564  -0.44559  -0.37433
 Alpha virt. eigenvalues --    0.03343   0.04204   0.04408   0.05525   0.05984
 Alpha virt. eigenvalues --    0.06633   0.07990   0.08689   0.09815   0.10838
 Alpha virt. eigenvalues --    0.11274   0.12952   0.14374   0.14871   0.15613

 Mulliken charges:
               1
     1  C    0.489615
     2  C    0.363218
     3  C    0.695071
     4  O   -0.549748
     5  C    0.684061
     6  O   -0.418471
     7  H   -0.307545
     8  H    0.165057
     9  H   -0.302132
    10  H   -0.368779
    11  H   -0.089929
    12  H   -0.102572
    13  H   -0.125265
    14  H   -0.132579
 Sum of Mulliken charges =  -0.00000

 Dipole moment (field-independent basis, Debye):
    X=              0.7619    Y=              0.8501    Z=              1.0660  Tot=              1.5619

 Test job not archived.
 1\1\GINC-SE138\SP\RHF\Aug-CC-pVDZ\C4H8O2\OHZDE\09-Apr-2025\0\\#t hf au
 g-cc-pvdz iop(5/13=1,5/36=2,99/5=2) pseudo=read geom=check guess=(read
 ,tcheck) scf=(maxcycle=1)\\title\\0,1\C,0,-2.43623468,-0.66116893,0.14
 117661\C,0,-1.25762098,-1.1180933,0.53151114\C,0,0.06998641,-0.6488131
 3,0.01814681\O,0,0.00217729,0.45516385,-0.8599461\C,0,2.60316908,1.437
 78471,-0.51055284\O,0,2.62302216,1.60035287,0.6764815\H,0,-3.35470075,
 -1.04653919,0.56509981\H,0,-0.38700125,1.19073243,-0.37976858\H,0,-2.5
 2613574,0.10044457,-0.62489572\H,0,-1.2019079,-1.89584144,1.28920194\H

 Normal termination of Gaussian 16 at Wed Apr  9 14:26:27 2025.
