 Gaussian 16, Revision C.01,

 ----------------------------------------------------------------------
 #t hf aug-cc-pvdz symm=none int=(grid=ultrafine) guess=(read,tcheck) s
 table=(opt,rrhf)
 ----------------------------------------------------------------------
 -----
 title
 -----
 Symbolic Z-matrix:
 Charge =  0 Multiplicity = 1

 SCF Done:  E(RHF) =  -359.530785252     A.U. after   16 cycles
 Normal termination of Gaussian 16 at Wed Apr  9 03:45:30 2025.
 Gaussian 16:  ES64L-G16RevC.01  3-Jul-2019

 ----------------------------------------------------------------------
 #t hf aug-cc-pvdz iop(5/13=1,5/36=2,99/5=2) pseudo=read geom=check gue
 ss=(read,tcheck) scf=(maxcycle=1)
 ----------------------------------------------------------------------
 -----
 title
 -----
 Structure from the checkpoint file:  "Grambow2020_wb97xd3_007900_forward_mol1.chk"
 Charge =  0 Multiplicity = 1

                         Standard orientation:
 ---------------------------------------------------------------------
 Center     Atomic      Atomic             Coordinates (Angstroms)
 Number     Number       Type             X           Y           Z
 ---------------------------------------------------------------------
      1          6           0       -0.890747    1.568521    0.045949
      2          6           0       -0.360364    0.175107    0.167684
      3          7           0       -1.054930   -0.880474    0.057838
      4          8           0       -2.385702   -0.597543   -0.185453
      5          6           0        1.084559   -0.024491    0.493427
      6          6           0        1.870531   -1.147891   -0.043608
      7          8           0        2.006324    0.560460   -0.448811
      8          1           0       -1.624364    1.766875    0.829996
      9          1           0       -0.084172    2.297213    0.115516
     10          1           0       -1.402215    1.695719   -0.908874
     11          1           0       -2.780063   -1.468235   -0.268698
     12          1           0        1.345473    0.352878    1.482669
     13          1           0        2.744304   -1.330913    0.591035
     14          1           0        1.996698   -0.281032   -1.153110
 ---------------------------------------------------------------------

 SCF Done:  E(RHF) =  -359.638836397     A.U. after    2 cycles

 The electronic state is 1-A.
 Alpha  occ. eigenvalues --  -20.63492 -20.61712 -15.69121 -11.32292 -11.29384
 Alpha  occ. eigenvalues --  -11.28505 -11.24519  -1.39683  -1.38871  -1.16159
 Alpha  occ. eigenvalues --   -0.99130  -0.97738  -0.87741  -0.78566  -0.71459
 Alpha  occ. eigenvalues --   -0.70473  -0.67170  -0.64225  -0.61863  -0.60096
 Alpha  occ. eigenvalues --   -0.56664  -0.56118  -0.53310  -0.49616  -0.44225
 Alpha  occ. eigenvalues --   -0.39843  -0.38246
 Alpha virt. eigenvalues --    0.03426   0.04005   0.04621   0.04945   0.06666
 Alpha virt. eigenvalues --    0.07117   0.07340   0.08537   0.11954   0.12356
 Alpha virt. eigenvalues --    0.13028   0.13287   0.13659   0.14820   0.15137

 Mulliken charges:
               1
     1  C    0.518655
     2  C   -0.349298
     3  N   -0.271398
     4  O   -0.513281
     5  C    1.086598
     6  C   -0.021607
     7  O   -0.814743
     8  H    0.081516
     9  H   -0.126675
    10  H    0.045141
    11  H    0.179873
    12  H   -0.241440
    13  H   -0.065935
    14  H    0.492593
 Sum of Mulliken charges =  -0.00000

 Dipole moment (field-independent basis, Debye):
    X=             -0.4075    Y=              0.4149    Z=              1.2870  Tot=              1.4123

 Test job not archived.
 1\1\GINC-SE331\SP\RHF\Aug-CC-pVDZ\C4H7N1O2\OHZDE\09-Apr-2025\0\\#t hf
 aug-cc-pvdz iop(5/13=1,5/36=2,99/5=2) pseudo=read geom=check guess=(re
 ad,tcheck) scf=(maxcycle=1)\\title\\0,1\C,0,-1.22970069,-1.12641206,-0
 .11838324\C,0,-0.38701805,0.10578601,-0.02194139\N,0,-0.76781594,1.211
 67682,0.46870984\O,0,-2.07688826,1.1557168,0.90847199\C,0,0.99812784,0
 .08224402,-0.58280573\C,0,2.11254665,0.8281431,0.02538077\O,0,1.868358
 15,-0.91545627,-0.01103392\H,0,-2.09551212,-0.94677839,-0.75898455\H,0
 ,-0.65308465,-1.95942307,-0.51838623\H,0,-1.61235043,-1.40006123,0.865

 Normal termination of Gaussian 16 at Wed Apr  9 03:45:35 2025.
