 Gaussian 16, Revision C.01,

 ----------------------------------------------------------------------
 #t hf aug-cc-pvdz symm=none int=(grid=ultrafine) guess=(read,tcheck) s
 table=(opt,rrhf)
 ----------------------------------------------------------------------
 -----
 title
 -----
 Symbolic Z-matrix:
 Charge =  0 Multiplicity = 1

 SCF Done:  E(RHF) =  -302.744646939     A.U. after   16 cycles
 Normal termination of Gaussian 16 at Wed Apr  9 16:16:58 2025.
 Gaussian 16:  ES64L-G16RevC.01  3-Jul-2019

 ----------------------------------------------------------------------
 #t hf aug-cc-pvdz iop(5/13=1,5/36=2,99/5=2) pseudo=read geom=check gue
 ss=(read,tcheck) scf=(maxcycle=1)
 ----------------------------------------------------------------------
 -----
 title
 -----
 Structure from the checkpoint file:  "Grambow2020_wb97xd3_008038_reverse_mol1.chk"
 Charge =  0 Multiplicity = 1

                         Standard orientation:
 ---------------------------------------------------------------------
 Center     Atomic      Atomic             Coordinates (Angstroms)
 Number     Number       Type             X           Y           Z
 ---------------------------------------------------------------------
      1          6           0       -0.212480    1.889926   -0.342083
      2          6           0       -0.718131    0.771187    0.539981
      3          6           0       -1.964011   -0.699811   -0.223774
      4          7           0       -0.697201   -1.315976   -0.460247
      5          6           0        0.090394   -0.555669    0.493973
      6          6           0        1.510560   -0.404167    0.143982
      7          7           0        2.611428   -0.254103   -0.140537
      8          1           0       -0.047333    1.545324   -1.365631
      9          1           0       -0.915773    2.722226   -0.367922
     10          1           0        0.743377    2.259493    0.037609
     11          1           0       -0.980950    1.101608    1.542755
     12          1           0       -1.803668    0.544165   -0.160876
     13          1           0       -2.293762   -0.965878    0.788985
     14          1           0       -0.383691   -1.178138   -1.412360
     15          1           0        0.044219   -1.047045    1.470452
 ---------------------------------------------------------------------

 SCF Done:  E(RHF) =  -302.832588182     A.U. after    2 cycles

 The electronic state is 1-A.
 Alpha  occ. eigenvalues --  -15.65615 -15.64645 -11.34432 -11.31614 -11.29879
 Alpha  occ. eigenvalues --  -11.28805 -11.26423  -1.25960  -1.20670  -1.07305
 Alpha  occ. eigenvalues --   -0.99076  -0.92315  -0.80489  -0.74176  -0.70029
 Alpha  occ. eigenvalues --   -0.66346  -0.62396  -0.59450  -0.57714  -0.56729
 Alpha  occ. eigenvalues --   -0.55418  -0.53241  -0.48478  -0.48075  -0.41255
 Alpha  occ. eigenvalues --   -0.34020
 Alpha virt. eigenvalues --    0.02440   0.03547   0.04754   0.04775   0.06106
 Alpha virt. eigenvalues --    0.06428   0.07310   0.08111   0.09354   0.09884
 Alpha virt. eigenvalues --    0.11927   0.12511   0.13009   0.13160   0.14254

 Mulliken charges:
               1
     1  C    0.460969
     2  C   -0.501676
     3  C    0.102381
     4  N   -0.517574
     5  C    1.138365
     6  C   -0.436491
     7  N   -0.114222
     8  H    0.000769
     9  H   -0.108681
    10  H   -0.035955
    11  H   -0.245795
    12  H    0.438461
    13  H   -0.011235
    14  H    0.050564
    15  H   -0.219881
 Sum of Mulliken charges =   0.00000

 Dipole moment (field-independent basis, Debye):
    X=             -1.5725    Y=              2.2230    Z=              1.8587  Tot=              3.2969

 Test job not archived.
 1\1\GINC-SE168\SP\RHF\Aug-CC-pVDZ\C5H8N2\OHZDE\09-Apr-2025\0\\#t hf au
 g-cc-pvdz iop(5/13=1,5/36=2,99/5=2) pseudo=read geom=check guess=(read
 ,tcheck) scf=(maxcycle=1)\\title\\0,1\C,0,1.32588148,-0.50074073,-0.84
 887191\C,0,0.69163008,0.28681228,0.27486476\C,0,-0.68080117,1.78837329
 ,-0.12653132\N,0,-1.57304503,0.68056557,0.00404147\C,0,-0.70217374,-0.
 20641444,0.7548793\C,0,-0.95543681,-1.64072353,0.552561\N,0,-1.1261823
 1,-2.76052045,0.37289441\H,0,0.63033598,-0.63753276,-1.68024305\H,0,2.
 21956662,-0.00327336,-1.22552314\H,0,1.61001432,-1.49401356,-0.4923820

 Normal termination of Gaussian 16 at Wed Apr  9 16:17:03 2025.
