 Gaussian 16, Revision C.01,

 ----------------------------------------------------------------------
 #t hf aug-cc-pvdz symm=none int=(grid=ultrafine) guess=(read,tcheck) s
 table=(opt,rrhf)
 ----------------------------------------------------------------------
 -----
 title
 -----
 Symbolic Z-matrix:
 Charge =  0 Multiplicity = 1

 SCF Done:  E(RHF) =  -306.905657462     A.U. after   15 cycles

 1\1\GINC-SE048\Stability\RHF\Aug-CC-pVDZ\C4H10O2\OHZDE\09-Apr-2025\0\\
 #t hf aug-cc-pvdz symm=none int=(grid=ultrafine) guess=(read,tcheck) s
 table=(opt,rrhf)\\title\\0,1\C,0,-1.69525367,-0.54121513,0.01305648\C,
 0,-0.23793014,-0.12093644,0.14969967\C,0,0.77591406,-0.90103563,-0.477
 28278\O,0,1.18520775,0.51618708,-1.75635153\C,0,0.16333441,0.64741257,
 1.39583814\O,0,1.51322342,1.10545134,1.33481975\H,0,-1.88861151,-0.992
 57556,-0.97256384\H,0,-1.99208401,-1.28073713,0.77567184\H,0,-2.368207
 01,0.32278358,0.11524973\H,0,0.16180731,0.62943548,-0.95603121\H,0,0.4

 Normal termination of Gaussian 16 at Wed Apr  9 14:18:25 2025.
 Gaussian 16:  ES64L-G16RevC.01  3-Jul-2019

 ----------------------------------------------------------------------
 #t hf aug-cc-pvdz iop(5/13=1,5/36=2,99/5=2) pseudo=read geom=check gue
 ss=(read,tcheck) scf=(maxcycle=1)
 ----------------------------------------------------------------------
 -----
 title
 -----
 Structure from the checkpoint file:  "Grambow2020_b97d3_007104_forward_mol1.chk"
 Charge =  0 Multiplicity = 1

                         Standard orientation:
 ---------------------------------------------------------------------
 Center     Atomic      Atomic             Coordinates (Angstroms)
 Number     Number       Type             X           Y           Z
 ---------------------------------------------------------------------
      1          6           0        1.762443   -1.097775   -0.209915
      2          6           0        0.445723   -0.376821    0.046151
      3          6           0        0.417330    0.727673    0.945500
      4          8           0        0.057363    1.993569   -0.496717
      5          6           0       -0.837697   -1.174590   -0.097492
      6          8           0       -1.998478   -0.354057    0.025139
      7          1           0        2.611635   -0.397279   -0.182723
      8          1           0        1.962651   -1.884068    0.537242
      9          1           0        1.765553   -1.577877   -1.199509
     10          1           0        0.336464    0.749259   -0.769628
     11          1           0        1.353239    1.148166    1.322697
     12          1           0       -0.477378    0.991211    1.503175
     13          1           0        0.823863    2.586440   -0.670139
     14          1           0       -0.812468   -1.718346   -1.061923
     15          1           0       -0.929768   -1.932097    0.697995
     16          1           0       -1.831669    0.447570   -0.510026
 ---------------------------------------------------------------------

 SCF Done:  E(RHF) =  -307.001147202     A.U. after    2 cycles

 The electronic state is 1-A.
 Alpha  occ. eigenvalues --  -20.56736 -20.54399 -11.33610 -11.28871 -11.24356
 Alpha  occ. eigenvalues --  -11.22825  -1.31381  -1.24918  -1.08303  -0.94750
 Alpha  occ. eigenvalues --   -0.91906  -0.78509  -0.69426  -0.68084  -0.67053
 Alpha  occ. eigenvalues --   -0.61162  -0.58711  -0.57406  -0.56380  -0.55243
 Alpha  occ. eigenvalues --   -0.52086  -0.49009  -0.48249  -0.45503  -0.34026
 Alpha virt. eigenvalues --    0.02828   0.04247   0.04310   0.05052   0.06466
 Alpha virt. eigenvalues --    0.06557   0.07307   0.07508   0.08084   0.09531
 Alpha virt. eigenvalues --    0.10927   0.12965   0.13423   0.13868   0.14767

 Mulliken charges:
               1
     1  C    0.581893
     2  C   -1.219757
     3  C    0.834661
     4  O   -0.712638
     5  C    0.975080
     6  O   -0.579325
     7  H   -0.107568
     8  H   -0.001497
     9  H    0.008554
    10  H    0.698023
    11  H   -0.342929
    12  H   -0.327152
    13  H    0.137831
    14  H   -0.055731
    15  H   -0.081731
    16  H    0.192285
 Sum of Mulliken charges =  -0.00000

 Dipole moment (field-independent basis, Debye):
    X=              3.5569    Y=             -0.3460    Z=              0.9165  Tot=              3.6893

 Test job not archived.
 1\1\GINC-SE048\SP\RHF\Aug-CC-pVDZ\C4H10O2\OHZDE\09-Apr-2025\0\\#t hf a
 ug-cc-pvdz iop(5/13=1,5/36=2,99/5=2) pseudo=read geom=check guess=(rea
 d,tcheck) scf=(maxcycle=1)\\title\\0,1\C,0,-1.69525367,-0.54121513,0.0
 1305648\C,0,-0.23793014,-0.12093644,0.14969967\C,0,0.77591406,-0.90103
 563,-0.47728278\O,0,1.18520775,0.51618708,-1.75635153\C,0,0.16333441,0
 .64741257,1.39583814\O,0,1.51322342,1.10545134,1.33481975\H,0,-1.88861
 151,-0.99257556,-0.97256384\H,0,-1.99208401,-1.28073713,0.77567184\H,0
 ,-2.36820701,0.32278358,0.11524973\H,0,0.16180731,0.62943548,-0.956031

 Normal termination of Gaussian 16 at Wed Apr  9 14:18:30 2025.
