 Gaussian 16, Revision C.01,

 ----------------------------------------------------------------------
 #t hf aug-cc-pvdz symm=none int=(grid=ultrafine) guess=(read,tcheck) s
 table=(opt,rrhf)
 ----------------------------------------------------------------------
 -----
 title
 -----
 Symbolic Z-matrix:
 Charge =  0 Multiplicity = 1

 SCF Done:  E(RHF) =  -301.976860026     A.U. after   23 cycles
 Normal termination of Gaussian 16 at Wed Apr  9 03:09:21 2025.
 Gaussian 16:  ES64L-G16RevC.01  3-Jul-2019

 ----------------------------------------------------------------------
 #t hf aug-cc-pvdz iop(5/13=1,5/36=2,99/5=2) pseudo=read geom=check gue
 ss=(read,tcheck) scf=(maxcycle=1)
 ----------------------------------------------------------------------
 -----
 title
 -----
 Structure from the checkpoint file:  "Grambow2020_b97d3_006717_forward_mol1.chk"
 Charge =  0 Multiplicity = 1

                         Standard orientation:
 ---------------------------------------------------------------------
 Center     Atomic      Atomic             Coordinates (Angstroms)
 Number     Number       Type             X           Y           Z
 ---------------------------------------------------------------------
      1          8           0        1.179310    0.660435    0.254382
      2          6           0        1.242413   -0.732703   -0.088216
      3          6           0        0.074558   -1.378735   -0.027222
      4          6           0       -1.112211   -0.766209   -0.032363
      5          6           0       -1.908230    0.190100    0.081699
      6          8           0        0.156465    1.383384   -0.221961
      7          1           0        2.268854   -1.086591   -0.071483
      8          1           0       -2.734235    0.861320    0.208730
 ---------------------------------------------------------------------

 SCF Done:  E(RHF) =  -302.067631491     A.U. after    2 cycles

 The electronic state is 1-A.
 Alpha  occ. eigenvalues --  -20.69360 -20.61956 -11.37328 -11.34476 -11.31818
 Alpha  occ. eigenvalues --  -11.31102  -1.46027  -1.16452  -1.11833  -1.00704
 Alpha  occ. eigenvalues --   -0.87908  -0.76730  -0.72508  -0.71481  -0.67430
 Alpha  occ. eigenvalues --   -0.60657  -0.51970  -0.47680  -0.46170  -0.37736
 Alpha  occ. eigenvalues --   -0.36191
 Alpha virt. eigenvalues --   -0.05257   0.03231   0.03790   0.05243   0.07499
 Alpha virt. eigenvalues --    0.09187   0.10202   0.10288   0.11317   0.11966
 Alpha virt. eigenvalues --    0.13616   0.14568   0.15699   0.15905   0.16190

 Mulliken charges:
               1
     1  O   -0.378202
     2  C    1.109498
     3  C   -0.525192
     4  C    0.334273
     5  C    0.400082
     6  O   -0.412513
     7  H   -0.214194
     8  H   -0.313753
 Sum of Mulliken charges =  -0.00000

 Dipole moment (field-independent basis, Debye):
    X=             -1.5787    Y=             -2.2949    Z=             -0.1594  Tot=              2.7900

 Test job not archived.
 1\1\GINC-SE159\SP\RHF\Aug-CC-pVDZ\C4H2O2\OHZDE\09-Apr-2025\0\\#t hf au
 g-cc-pvdz iop(5/13=1,5/36=2,99/5=2) pseudo=read geom=check guess=(read
 ,tcheck) scf=(maxcycle=1)\\title\\0,1\O,0,-0.80910921,-0.37501392,1.13
 616977\C,0,-1.37824309,-0.54172277,-0.17168587\C,0,-0.697217,0.0469568
 2,-1.15891513\C,0,0.57839538,0.42839724,-1.05425724\C,0,1.64096209,0.7
 2473124,-0.46746794\O,0,0.51835435,-0.50111732,1.26923888\H,0,-2.40711
 43,-0.8819595,-0.10269294\H,0,2.59838377,1.07948921,-0.14120554\\Versi
 on=ES64L-G16RevC.01\State=1-A\HF=-302.0676315\RMSD=7.416e-03\Dipole=0.

 Normal termination of Gaussian 16 at Wed Apr  9 03:09:24 2025.
