 Gaussian 16, Revision C.01,

 ----------------------------------------------------------------------
 #t hf aug-cc-pvdz symm=none int=(grid=ultrafine) guess=(read,tcheck) s
 table=(opt,rrhf)
 ----------------------------------------------------------------------
 -----
 title
 -----
 Symbolic Z-matrix:
 Charge =  0 Multiplicity = 1

 SCF Done:  E(RHF) =  -305.646574756     A.U. after   16 cycles
 Normal termination of Gaussian 16 at Wed Apr  9 14:17:18 2025.
 Gaussian 16:  ES64L-G16RevC.01  3-Jul-2019

 ----------------------------------------------------------------------
 #t hf aug-cc-pvdz iop(5/13=1,5/36=2,99/5=2) pseudo=read geom=check gue
 ss=(read,tcheck) scf=(maxcycle=1)
 ----------------------------------------------------------------------
 -----
 title
 -----
 Structure from the checkpoint file:  "Grambow2020_b97d3_006963_reverse_mol1.chk"
 Charge =  0 Multiplicity = 1

                         Standard orientation:
 ---------------------------------------------------------------------
 Center     Atomic      Atomic             Coordinates (Angstroms)
 Number     Number       Type             X           Y           Z
 ---------------------------------------------------------------------
      1          8           0        2.132915   -0.647909   -0.293066
      2          6           0        0.809340    0.893654    0.640196
      3          6           0       -0.198540    1.293303   -0.375074
      4          6           0       -1.187060    0.161151   -0.539861
      5          6           0       -0.603850   -1.142811   -0.160780
      6          8           0       -1.551415   -0.480755    0.698036
      7          1           0        2.558707   -1.033683    0.501274
      8          1           0        0.442451    0.372600    1.520214
      9          1           0        1.707362    1.497135    0.751256
     10          1           0       -0.692907    2.231356   -0.043607
     11          1           0        0.279792    1.521017   -1.340224
     12          1           0       -2.023454    0.295562   -1.232090
     13          1           0        1.156714   -0.995506   -0.226588
     14          1           0       -1.000006   -2.090949   -0.556875
 ---------------------------------------------------------------------

 SCF Done:  E(RHF) =  -305.740697077     A.U. after    2 cycles

 The electronic state is 1-A.
 Alpha  occ. eigenvalues --  -20.57918 -20.55312 -11.39459 -11.28061 -11.27676
 Alpha  occ. eigenvalues --  -11.21980  -1.33488  -1.29719  -1.09381  -0.92811
 Alpha  occ. eigenvalues --   -0.84402  -0.77416  -0.72713  -0.70358  -0.65468
 Alpha  occ. eigenvalues --   -0.61928  -0.60115  -0.59760  -0.56444  -0.51695
 Alpha  occ. eigenvalues --   -0.50648  -0.46396  -0.41199  -0.28487
 Alpha virt. eigenvalues --    0.01674   0.02940   0.03907   0.04872   0.04986
 Alpha virt. eigenvalues --    0.06526   0.06643   0.07315   0.09690   0.11329
 Alpha virt. eigenvalues --    0.11739   0.12995   0.13502   0.14188   0.14982

 Mulliken charges:
               1
     1  O   -0.547221
     2  C    0.863522
     3  C   -0.059875
     4  C    0.575514
     5  C    0.014817
     6  O   -0.768498
     7  H    0.194880
     8  H   -0.036890
     9  H   -0.166653
    10  H    0.063886
    11  H    0.024404
    12  H   -0.269903
    13  H    0.428567
    14  H   -0.316550
 Sum of Mulliken charges =   0.00000

 Dipole moment (field-independent basis, Debye):
    X=              2.3591    Y=              4.0497    Z=              0.8578  Tot=              4.7646

 Test job not archived.
 1\1\GINC-SE174\SP\RHF\Aug-CC-pVDZ\C4H8O2\OHZDE\09-Apr-2025\0\\#t hf au
 g-cc-pvdz iop(5/13=1,5/36=2,99/5=2) pseudo=read geom=check guess=(read
 ,tcheck) scf=(maxcycle=1)\\title\\0,1\O,0,0.57899851,1.16549094,1.6816
 0906\C,0,1.21523527,-0.18006126,0.0130955\C,0,0.17578295,-1.23044311,-
 0.13708026\C,0,-1.052437,-0.60340057,-0.75707121\C,0,-1.12149153,0.850
 3964,-0.50044537\O,0,-0.75952692,0.34701217,-1.80019398\H,0,1.15155696
 ,1.9449482,1.52123713\H,0,1.33053052,0.5202695,-0.80957149\H,0,2.09433
 528,-0.39675648,0.6157503\H,0,0.58211557,-2.05406158,-0.76218826\H,0,-

 Normal termination of Gaussian 16 at Wed Apr  9 14:17:22 2025.
