 Gaussian 16, Revision C.01,

 ----------------------------------------------------------------------
 #t hf aug-cc-pvdz symm=none int=(grid=ultrafine) guess=(read,tcheck) s
 table=(opt,rrhf)
 ----------------------------------------------------------------------
 -----
 title
 -----
 Symbolic Z-matrix:
 Charge =  0 Multiplicity = 1

 SCF Done:  E(RHF) =  -302.748202421     A.U. after   17 cycles
 Normal termination of Gaussian 16 at Wed Apr  9 03:34:30 2025.
 Gaussian 16:  ES64L-G16RevC.01  3-Jul-2019

 ----------------------------------------------------------------------
 #t hf aug-cc-pvdz iop(5/13=1,5/36=2,99/5=2) pseudo=read geom=check gue
 ss=(read,tcheck) scf=(maxcycle=1)
 ----------------------------------------------------------------------
 -----
 title
 -----
 Structure from the checkpoint file:  "Grambow2020_wb97xd3_007167_forward_mol1.chk"
 Charge =  0 Multiplicity = 1

                         Standard orientation:
 ---------------------------------------------------------------------
 Center     Atomic      Atomic             Coordinates (Angstroms)
 Number     Number       Type             X           Y           Z
 ---------------------------------------------------------------------
      1          6           0       -0.275207    1.853436    0.421202
      2          6           0        0.011995    0.718521   -0.534346
      3          6           0        2.229712   -0.322964   -0.152811
      4          7           0        0.964145   -0.256786   -0.032669
      5          6           0        0.019955   -1.274522    0.467605
      6          6           0       -1.181233   -0.507185   -0.136887
      7          7           0       -2.364515   -0.592967   -0.240620
      8          1           0       -0.464298    1.482963    1.430380
      9          1           0       -1.186340    2.348561    0.081534
     10          1           0        0.535108    2.588983    0.461320
     11          1           0        0.297667    1.066575   -1.530613
     12          1           0        2.746743   -1.248338    0.071062
     13          1           0        2.779606    0.545438   -0.493501
     14          1           0        0.169958   -2.225080   -0.045009
     15          1           0        0.092815   -1.414541    1.549263
 ---------------------------------------------------------------------

 SCF Done:  E(RHF) =  -302.838270979     A.U. after    2 cycles

 The electronic state is 1-A.
 Alpha  occ. eigenvalues --  -15.76370 -15.51372 -11.38226 -11.29947 -11.27201
 Alpha  occ. eigenvalues --  -11.23719 -11.23268  -1.33234  -1.11490  -1.04775
 Alpha  occ. eigenvalues --   -1.01519  -0.91078  -0.83442  -0.74243  -0.72589
 Alpha  occ. eigenvalues --   -0.67766  -0.64533  -0.60061  -0.58151  -0.56641
 Alpha  occ. eigenvalues --   -0.52844  -0.49104  -0.47162  -0.43179  -0.36251
 Alpha  occ. eigenvalues --   -0.24596
 Alpha virt. eigenvalues --    0.00936   0.01596   0.02727   0.04381   0.05493
 Alpha virt. eigenvalues --    0.06015   0.06389   0.07658   0.08109   0.10296
 Alpha virt. eigenvalues --    0.10781   0.11571   0.12829   0.13079   0.13843

 Mulliken charges:
               1
     1  C    0.526579
     2  C    0.020876
     3  C    0.493869
     4  N    0.054142
     5  C    0.847748
     6  C   -0.003516
     7  N   -0.560120
     8  H   -0.087290
     9  H   -0.010137
    10  H   -0.085240
    11  H   -0.318199
    12  H   -0.276817
    13  H   -0.282991
    14  H   -0.142062
    15  H   -0.176843
 Sum of Mulliken charges =  -0.00000

 Dipole moment (field-independent basis, Debye):
    X=             10.8129    Y=              0.4675    Z=              0.7833  Tot=             10.8513

 Test job not archived.
 1\1\GINC-SE345\SP\RHF\Aug-CC-pVDZ\C5H8N2\OHZDE\09-Apr-2025\0\\#t hf au
 g-cc-pvdz iop(5/13=1,5/36=2,99/5=2) pseudo=read geom=check guess=(read
 ,tcheck) scf=(maxcycle=1)\\title\\0,1\C,0,-1.19173288,-1.2513006,0.451
 68807\C,0,-0.42597323,-0.46219075,-0.58489573\C,0,-0.37959692,1.969601
 25,-0.10243469\N,0,0.11288485,0.79575343,-0.09837504\C,0,1.49195186,0.
 36357468,0.19987507\C,0,1.23085281,-1.02459528,-0.43406666\N,0,1.79432
 338,-2.04925915,-0.6595447\H,0,-0.64308573,-1.3041283,1.39383492\H,0,-
 1.29580855,-2.2717268,0.07941656\H,0,-2.18812525,-0.84060476,0.6460588

 Normal termination of Gaussian 16 at Wed Apr  9 03:34:35 2025.
