 Gaussian 16, Revision C.01,

 ----------------------------------------------------------------------
 #t hf aug-cc-pvdz symm=none int=(grid=ultrafine) guess=(read,tcheck) s
 table=(opt,rrhf)
 ----------------------------------------------------------------------
 -----
 title
 -----
 Symbolic Z-matrix:
 Charge =  0 Multiplicity = 1

 SCF Done:  E(RHF) =  -338.648776024     A.U. after   14 cycles
 Normal termination of Gaussian 16 at Wed Apr  9 03:26:44 2025.
 Gaussian 16:  ES64L-G16RevC.01  3-Jul-2019

 ----------------------------------------------------------------------
 #t hf aug-cc-pvdz iop(5/13=1,5/36=2,99/5=2) pseudo=read geom=check gue
 ss=(read,tcheck) scf=(maxcycle=1)
 ----------------------------------------------------------------------
 -----
 title
 -----
 Structure from the checkpoint file:  "Grambow2020_wb97xd3_006696_forward_mol1.chk"
 Charge =  0 Multiplicity = 1

                         Standard orientation:
 ---------------------------------------------------------------------
 Center     Atomic      Atomic             Coordinates (Angstroms)
 Number     Number       Type             X           Y           Z
 ---------------------------------------------------------------------
      1          6           0        1.938169   -0.122843    0.797234
      2          6           0        0.996935   -0.719535   -0.699461
      3          6           0        0.966623    0.681406   -0.521431
      4          7           0       -0.277937    1.176026   -0.126098
      5          6           0       -0.965955    0.089340   -0.006325
      6          7           0       -2.249797   -0.024507    0.380439
      7          8           0       -0.311987   -1.054798   -0.271380
      8          1           0        2.972231   -0.230278    0.493102
      9          1           0        1.802398    0.755982    1.431607
     10          1           0        1.603483   -0.994721    1.349486
     11          1           0        1.712894    1.359145   -0.910534
     12          1           0       -2.716202   -0.897020    0.214235
     13          1           0       -2.799403    0.814439    0.392655
 ---------------------------------------------------------------------

 SCF Done:  E(RHF) =  -338.752012750     A.U. after    2 cycles

 The electronic state is 1-A.
 Alpha  occ. eigenvalues --  -20.63040 -15.66765 -15.60790 -11.39836 -11.30354
 Alpha  occ. eigenvalues --  -11.28101 -11.27227  -1.43974  -1.23099  -1.19576
 Alpha  occ. eigenvalues --   -1.04906  -0.91342  -0.84691  -0.80745  -0.75048
 Alpha  occ. eigenvalues --   -0.70413  -0.67995  -0.62784  -0.60369  -0.57751
 Alpha  occ. eigenvalues --   -0.56764  -0.50298  -0.47984  -0.45428  -0.36662
 Alpha  occ. eigenvalues --   -0.36205
 Alpha virt. eigenvalues --    0.02815   0.03830   0.04604   0.05100   0.06576
 Alpha virt. eigenvalues --    0.07130   0.09345   0.10627   0.11647   0.12142
 Alpha virt. eigenvalues --    0.13390   0.14303   0.15120   0.15294   0.15906

 Mulliken charges:
               1
     1  C    0.328195
     2  C   -0.147555
     3  C    0.952169
     4  N   -0.693828
     5  C    0.706656
     6  N   -0.156153
     7  O   -0.559623
     8  H   -0.100384
     9  H   -0.025549
    10  H   -0.059843
    11  H   -0.218425
    12  H   -0.018181
    13  H   -0.007479
 Sum of Mulliken charges =  -0.00000

 Dipole moment (field-independent basis, Debye):
    X=             -1.8042    Y=              0.9893    Z=              1.5000  Tot=              2.5463

 Test job not archived.
 1\1\GINC-SE222\SP\RHF\Aug-CC-pVDZ\C4H6N2O1\OHZDE\09-Apr-2025\0\\#t hf
 aug-cc-pvdz iop(5/13=1,5/36=2,99/5=2) pseudo=read geom=check guess=(re
 ad,tcheck) scf=(maxcycle=1)\\title\\0,1\C,0,-1.7957174,-0.00921883,0.2
 3745414\C,0,-0.72828679,0.84824059,-1.03038381\C,0,-0.62713069,-0.5605
 1562,-1.0509838\N,0,0.592856,-1.04844127,-0.57830406\C,0,1.1896533,0.0
 3989886,-0.22060343\N,0,2.40970702,0.15609419,0.33506338\O,0,0.4973243
 2,1.17816218,-0.39954319\H,0,-2.79230285,0.09276976,-0.17453835\H,0,-1
 .67720101,-0.96527695,0.75233474\H,0,-1.58521513,0.78559497,0.94535888

 Normal termination of Gaussian 16 at Wed Apr  9 03:26:49 2025.
