 Gaussian 16, Revision C.01,

 ----------------------------------------------------------------------
 #t hf aug-cc-pvdz symm=none int=(grid=ultrafine) guess=(read,tcheck) s
 table=(opt,rrhf)
 ----------------------------------------------------------------------
 -----
 title
 -----
 Symbolic Z-matrix:
 Charge =  0 Multiplicity = 1

 SCF Done:  E(RHF) =  -320.531761084     A.U. after   17 cycles
 Normal termination of Gaussian 16 at Wed Apr  9 14:19:06 2025.
 Gaussian 16:  ES64L-G16RevC.01  3-Jul-2019

 ----------------------------------------------------------------------
 #t hf aug-cc-pvdz iop(5/13=1,5/36=2,99/5=2) pseudo=read geom=check gue
 ss=(read,tcheck) scf=(maxcycle=1)
 ----------------------------------------------------------------------
 -----
 title
 -----
 Structure from the checkpoint file:  "Grambow2020_b97d3_007137_forward_mol1.chk"
 Charge =  0 Multiplicity = 1

                         Standard orientation:
 ---------------------------------------------------------------------
 Center     Atomic      Atomic             Coordinates (Angstroms)
 Number     Number       Type             X           Y           Z
 ---------------------------------------------------------------------
      1          8           0       -1.206277    1.035991   -0.411870
      2          6           0       -0.692620   -0.121088   -0.248452
      3          7           0       -1.029985   -1.158004    0.519451
      4          6           0        0.681952    0.728773    0.886806
      5          6           0        1.507276   -0.199315    0.033940
      6          8           0        0.566608   -0.395341   -1.018699
      7          1           0       -1.890486   -0.880699    1.017136
      8          1           0        0.667484    1.782467    0.625772
      9          1           0        0.399677    0.474038    1.906674
     10          1           0        1.748942   -1.130345    0.567203
     11          1           0        2.421987    0.285142   -0.342152
 ---------------------------------------------------------------------

 SCF Done:  E(RHF) =  -320.628504091     A.U. after    2 cycles

 The electronic state is 1-A.
 Alpha  occ. eigenvalues --  -20.60534 -20.55267 -15.60267 -11.42672 -11.40219
 Alpha  occ. eigenvalues --  -11.35235  -1.39248  -1.29690  -1.12196  -1.07651
 Alpha  occ. eigenvalues --   -0.90850  -0.78517  -0.74336  -0.69050  -0.67037
 Alpha  occ. eigenvalues --   -0.65865  -0.62028  -0.58331  -0.54402  -0.49430
 Alpha  occ. eigenvalues --   -0.47991  -0.42515  -0.35963
 Alpha virt. eigenvalues --   -0.03025   0.02323   0.03714   0.04245   0.06203
 Alpha virt. eigenvalues --    0.06517   0.08857   0.10848   0.11015   0.11735
 Alpha virt. eigenvalues --    0.12961   0.14374   0.14966   0.15188   0.15507

 Mulliken charges:
               1
     1  O   -0.614858
     2  C    0.650009
     3  N   -0.397111
     4  C    0.551221
     5  C    0.929458
     6  O   -0.769091
     7  H    0.029501
     8  H   -0.091656
     9  H   -0.088796
    10  H   -0.108325
    11  H   -0.090351
 Sum of Mulliken charges =  -0.00000

 Dipole moment (field-independent basis, Debye):
    X=              4.7055    Y=              1.8612    Z=              4.3796  Tot=              6.6923

 Test job not archived.
 1\1\GINC-SE159\SP\RHF\Aug-CC-pVDZ\C3H5N1O2\OHZDE\09-Apr-2025\0\\#t hf
 aug-cc-pvdz iop(5/13=1,5/36=2,99/5=2) pseudo=read geom=check guess=(re
 ad,tcheck) scf=(maxcycle=1)\\title\\0,1\O,0,1.48026169,-1.03724617,-0.
 72348348\C,0,1.13815621,-0.14368178,0.12143589\N,0,1.04528812,-0.14802
 743,1.45186542\C,0,-0.74125297,-0.5044575,-0.36660556\C,0,-0.70667714,
 1.00147927,-0.33747933\O,0,0.70336867,1.17279827,-0.45474998\H,0,1.348
 70325,-1.08529139,1.75931414\H,0,-0.70392812,-0.99608007,-1.33383497\H
 ,0,-1.13919847,-1.08665362,0.46248186\H,0,-1.10592364,1.39657683,0.608

 Normal termination of Gaussian 16 at Wed Apr  9 14:19:10 2025.
