 Gaussian 16, Revision C.01,

 ----------------------------------------------------------------------
 #t hf aug-cc-pvdz symm=none int=(grid=ultrafine) guess=(read,tcheck) s
 table=(opt,rrhf)
 ----------------------------------------------------------------------
 -----
 title
 -----
 Symbolic Z-matrix:
 Charge =  0 Multiplicity = 1

 SCF Done:  E(RHF) =  -355.936739850     A.U. after   13 cycles
 Normal termination of Gaussian 16 at Wed Apr  9 16:51:09 2025.
 Gaussian 16:  ES64L-G16RevC.01  3-Jul-2019

 ----------------------------------------------------------------------
 #t hf aug-cc-pvdz iop(5/13=1,5/36=2,99/5=2) pseudo=read geom=check gue
 ss=(read,tcheck) scf=(maxcycle=1)
 ----------------------------------------------------------------------
 -----
 title
 -----
 Structure from the checkpoint file:  "Grambow2020_wb97xd3_008997_reverse_mol2.chk"
 Charge =  0 Multiplicity = 1

                         Standard orientation:
 ---------------------------------------------------------------------
 Center     Atomic      Atomic             Coordinates (Angstroms)
 Number     Number       Type             X           Y           Z
 ---------------------------------------------------------------------
      1          6           0       -2.706540   -0.015004    0.299369
      2          7           0       -1.430019   -0.659234    0.097344
      3          6           0       -0.322973    0.096939   -0.239615
      4          8           0        2.460349    0.536243    0.618241
      5          7           0        0.818279   -0.722387   -0.387986
      6          6           0        2.105470   -0.411340   -0.021908
      7          7           0       -0.259898    1.334778   -0.480291
      8          1           0       -3.010209    0.499157   -0.614272
      9          1           0       -2.697675    0.710709    1.121113
     10          1           0       -3.455204   -0.774997    0.516321
     11          1           0       -1.231310   -1.437462    0.703321
     12          1           0        0.681980   -1.597115   -0.865624
     13          1           0        2.807020   -1.190952   -0.375086
     14          1           0       -1.131675    1.805052   -0.262239
 ---------------------------------------------------------------------

 SCF Done:  E(RHF) =  -356.048043392     A.U. after    2 cycles

 The electronic state is 1-A.
 Alpha  occ. eigenvalues --  -20.54947 -15.66981 -15.65720 -15.59531 -11.37285
 Alpha  occ. eigenvalues --  -11.36929 -11.28661  -1.36375  -1.28638  -1.18751
 Alpha  occ. eigenvalues --   -1.13527  -0.96960  -0.87178  -0.78019  -0.76650
 Alpha  occ. eigenvalues --   -0.71452  -0.68346  -0.65014  -0.62328  -0.60086
 Alpha  occ. eigenvalues --   -0.58630  -0.56594  -0.51163  -0.46043  -0.42706
 Alpha  occ. eigenvalues --   -0.41625  -0.36866
 Alpha virt. eigenvalues --    0.02092   0.02988   0.04182   0.04736   0.06091
 Alpha virt. eigenvalues --    0.07316   0.08225   0.09732   0.10985   0.12045
 Alpha virt. eigenvalues --    0.13246   0.13488   0.14088   0.14672   0.15086

 Mulliken charges:
               1
     1  C    0.790635
     2  N   -0.313422
     3  C    0.647167
     4  O   -0.407757
     5  N   -0.408203
     6  C    0.742592
     7  N   -0.288975
     8  H   -0.117933
     9  H   -0.074391
    10  H   -0.247359
    11  H   -0.078105
    12  H   -0.054680
    13  H   -0.201521
    14  H    0.011950
 Sum of Mulliken charges =  -0.00000

 Dipole moment (field-independent basis, Debye):
    X=             -4.0010    Y=             -4.9285    Z=             -0.3913  Tot=              6.3601

 Test job not archived.
 1\1\GINC-SE173\SP\RHF\Aug-CC-pVDZ\C3H7N3O1\OHZDE\09-Apr-2025\0\\#t hf
 aug-cc-pvdz iop(5/13=1,5/36=2,99/5=2) pseudo=read geom=check guess=(re
 ad,tcheck) scf=(maxcycle=1)\\title\\0,1\C,0,1.95294854,1.0231482,-0.10
 982968\N,0,0.78909654,0.36567036,0.43654551\C,0,-0.30841063,0.12683502
 ,-0.36926128\O,0,-2.09506064,-2.07738689,-1.15987884\N,0,-1.33128922,-
 0.52416982,0.35577516\C,0,-2.17475501,-1.50228295,-0.11271672\N,0,-0.4
 9378337,0.47465136,-1.56876491\H,0,1.67956353,2.01348302,-0.47836032\H
 ,0,2.41946901,0.46311809,-0.92880905\H,0,2.68802917,1.15563455,0.68216

 Normal termination of Gaussian 16 at Wed Apr  9 16:51:14 2025.
