 Gaussian 16, Revision C.01,

 ----------------------------------------------------------------------
 #t hf aug-cc-pvdz symm=none int=(grid=ultrafine) guess=(read,tcheck) s
 table=(opt,rrhf)
 ----------------------------------------------------------------------
 -----
 title
 -----
 Symbolic Z-matrix:
 Charge =  0 Multiplicity = 1

 SCF Done:  E(RHF) =  -262.498310681     A.U. after   17 cycles
 Normal termination of Gaussian 16 at Wed Apr  9 14:16:01 2025.
 Gaussian 16:  ES64L-G16RevC.01  3-Jul-2019

 ----------------------------------------------------------------------
 #t hf aug-cc-pvdz iop(5/13=1,5/36=2,99/5=2) pseudo=read geom=check gue
 ss=(read,tcheck) scf=(maxcycle=1)
 ----------------------------------------------------------------------
 -----
 title
 -----
 Structure from the checkpoint file:  "Grambow2020_b97d3_006900_reverse_mol1.chk"
 Charge =  0 Multiplicity = 1

                         Standard orientation:
 ---------------------------------------------------------------------
 Center     Atomic      Atomic             Coordinates (Angstroms)
 Number     Number       Type             X           Y           Z
 ---------------------------------------------------------------------
      1          6           0       -1.202252   -0.798954   -0.107972
      2          6           0        0.089513   -0.818608    0.554578
      3          7           0        1.214622   -0.747859   -0.296581
      4          7           0        1.282053    0.546189   -0.296547
      5          6           0        0.033097    1.094468    0.241656
      6          6           0       -1.272683    0.572394   -0.166344
      7          1           0       -1.682004   -1.574664   -0.697444
      8          1           0        0.251711   -0.627208    1.619031
      9          1           0        0.148473    2.108236    0.633800
     10          1           0       -2.080948    1.209527   -0.534998
 ---------------------------------------------------------------------

 SCF Done:  E(RHF) =  -262.568833838     A.U. after    2 cycles

 The electronic state is 1-A.
 Alpha  occ. eigenvalues --  -15.71481 -15.69175 -11.36013 -11.29433 -11.28474
 Alpha  occ. eigenvalues --  -11.27359  -1.35364  -1.12956  -1.02206  -0.88882
 Alpha  occ. eigenvalues --   -0.84128  -0.73714  -0.71209  -0.67221  -0.60949
 Alpha  occ. eigenvalues --   -0.59798  -0.54127  -0.48302  -0.43208  -0.38306
 Alpha  occ. eigenvalues --   -0.32812
 Alpha virt. eigenvalues --    0.03158   0.03458   0.03873   0.05887   0.06910
 Alpha virt. eigenvalues --    0.09028   0.09620   0.10884   0.11532   0.12509
 Alpha virt. eigenvalues --    0.12572   0.13161   0.14202   0.15180   0.15469

 Mulliken charges:
               1
     1  C    0.482983
     2  C    0.321517
     3  N   -0.443545
     4  N   -0.575236
     5  C    0.343274
     6  C    0.484274
     7  H   -0.208155
     8  H    0.108294
     9  H   -0.289661
    10  H   -0.223745
 Sum of Mulliken charges =   0.00000

 Dipole moment (field-independent basis, Debye):
    X=             -2.7354    Y=              0.0681    Z=              1.3905  Tot=              3.0693

 Test job not archived.
 1\1\GINC-SE138\SP\RHF\Aug-CC-pVDZ\C4H4N2\OHZDE\09-Apr-2025\0\\#t hf au
 g-cc-pvdz iop(5/13=1,5/36=2,99/5=2) pseudo=read geom=check guess=(read
 ,tcheck) scf=(maxcycle=1)\\title\\0,1\C,0,0.80605933,0.97979152,0.0901
 9822\C,0,0.97792371,-0.40449785,-0.31256881\N,0,0.92460836,-1.3560056,
 0.73008984\N,0,-0.35624117,-1.53873151,0.65838707\C,0,-0.95291434,-0.4
 6439166,-0.14157416\C,0,-0.5668709,0.93576153,0.04451723\H,0,1.4925566
 6,1.62755145,0.62731434\H,0,0.88632134,-0.77588358,-1.33710937\H,0,-1.
 91980461,-0.7407318,-0.57002815\H,0,-1.29163937,1.7371385,0.2107738\\V

 Normal termination of Gaussian 16 at Wed Apr  9 14:16:04 2025.
