 Gaussian 16, Revision C.01,

 ----------------------------------------------------------------------
 #t hf aug-cc-pvdz symm=none int=(grid=ultrafine) guess=(read,tcheck) s
 table=(opt,rrhf)
 ----------------------------------------------------------------------
 -----
 title
 -----
 Symbolic Z-matrix:
 Charge =  0 Multiplicity = 1

 SCF Done:  E(RHF) =  -343.582427991     A.U. after   15 cycles
 Normal termination of Gaussian 16 at Wed Apr  9 03:27:21 2025.
 Gaussian 16:  ES64L-G16RevC.01  3-Jul-2019

 ----------------------------------------------------------------------
 #t hf aug-cc-pvdz iop(5/13=1,5/36=2,99/5=2) pseudo=read geom=check gue
 ss=(read,tcheck) scf=(maxcycle=1)
 ----------------------------------------------------------------------
 -----
 title
 -----
 Structure from the checkpoint file:  "Grambow2020_wb97xd3_006723_reverse_mol2.chk"
 Charge =  0 Multiplicity = 1

                         Standard orientation:
 ---------------------------------------------------------------------
 Center     Atomic      Atomic             Coordinates (Angstroms)
 Number     Number       Type             X           Y           Z
 ---------------------------------------------------------------------
      1          8           0        2.528802    0.127601   -0.152991
      2          6           0        1.392070   -0.697566   -0.041436
      3          6           0        0.242918    0.041114    0.596546
      4          8           0       -0.189552    1.165293   -0.201840
      5          6           0       -1.555426    0.805165   -0.114070
      6          6           0       -1.801931   -1.120767   -0.569497
      7          6           0       -1.167359   -0.585637    0.587824
      8          1           0        2.293444    0.880068   -0.701599
      9          1           0        1.090507   -1.090640   -1.019069
     10          1           0        1.670368   -1.542502    0.592920
     11          1           0        0.532323    0.394091    1.591376
     12          1           0       -2.146264    1.408392    0.575959
     13          1           0       -1.106527   -1.067049   -1.424088
     14          1           0       -2.071191    0.783675   -1.084133
     15          1           0       -1.638295   -0.763045    1.551082
 ---------------------------------------------------------------------

 SCF Done:  E(RHF) =  -343.687492731     A.U. after    2 cycles

 The electronic state is 1-A.
 Alpha  occ. eigenvalues --  -20.59779 -20.58032 -11.34042 -11.31357 -11.29809
 Alpha  occ. eigenvalues --  -11.27574 -11.27008  -1.38722  -1.33343  -1.09673
 Alpha  occ. eigenvalues --   -1.02147  -0.90215  -0.86164  -0.77320  -0.72905
 Alpha  occ. eigenvalues --   -0.71228  -0.67229  -0.66059  -0.60979  -0.60697
 Alpha  occ. eigenvalues --   -0.57541  -0.54124  -0.51610  -0.48984  -0.48153
 Alpha  occ. eigenvalues --   -0.43834  -0.36114
 Alpha virt. eigenvalues --    0.03216   0.04119   0.04151   0.05085   0.06260
 Alpha virt. eigenvalues --    0.06379   0.06856   0.08334   0.09908   0.10368
 Alpha virt. eigenvalues --    0.11607   0.12766   0.13717   0.14187   0.14563

 Mulliken charges:
               1
     1  O   -0.541138
     2  C    0.831757
     3  C    0.480122
     4  O   -0.809891
     5  C    0.619232
     6  C   -0.302515
     7  C    0.588768
     8  H    0.151575
     9  H   -0.098745
    10  H   -0.083360
    11  H   -0.257208
    12  H   -0.191340
    13  H    0.019713
    14  H   -0.130298
    15  H   -0.276672
 Sum of Mulliken charges =  -0.00000

 Dipole moment (field-independent basis, Debye):
    X=             -0.6280    Y=              0.5614    Z=              0.8366  Tot=              1.1872

 Test job not archived.
 1\1\GINC-SE437\SP\RHF\Aug-CC-pVDZ\C5H8O2\OHZDE\09-Apr-2025\0\\#t hf au
 g-cc-pvdz iop(5/13=1,5/36=2,99/5=2) pseudo=read geom=check guess=(read
 ,tcheck) scf=(maxcycle=1)\\title\\0,1\O,0,2.41471076,0.7742488,0.85101
 227\C,0,1.62136185,0.15768804,-0.13689305\C,0,0.35860765,-0.41375552,0
 .45650532\O,0,-0.48555335,0.61154848,1.02604247\C,0,-1.64733551,0.1274
 8559,0.37877538\C,0,-1.29812352,-0.15902102,-1.56373832\C,0,-0.7675742
 7,-0.90890366,-0.47533081\H,0,1.89933468,1.48472043,1.24112609\H,0,1.3
 7493668,0.85944547,-0.94189295\H,0,2.21495239,-0.65402897,-0.56413975\

 Normal termination of Gaussian 16 at Wed Apr  9 03:27:26 2025.
