 Gaussian 16, Revision C.01,

 ----------------------------------------------------------------------
 #t hf aug-cc-pvdz symm=none int=(grid=ultrafine) guess=(read,tcheck) s
 table=(opt,rrhf)
 ----------------------------------------------------------------------
 -----
 title
 -----
 Symbolic Z-matrix:
 Charge =  0 Multiplicity = 1

 SCF Done:  E(RHF) =  -394.313982750     A.U. after   15 cycles
 Normal termination of Gaussian 16 at Wed Apr  9 15:36:45 2025.
 Gaussian 16:  ES64L-G16RevC.01  3-Jul-2019

 ----------------------------------------------------------------------
 #t hf aug-cc-pvdz iop(5/13=1,5/36=2,99/5=2) pseudo=read geom=check gue
 ss=(read,tcheck) scf=(maxcycle=1)
 ----------------------------------------------------------------------
 -----
 title
 -----
 Structure from the checkpoint file:  "Grambow2020_wb97xd3_007198_forward_mol1.chk"
 Charge =  0 Multiplicity = 1

                         Standard orientation:
 ---------------------------------------------------------------------
 Center     Atomic      Atomic             Coordinates (Angstroms)
 Number     Number       Type             X           Y           Z
 ---------------------------------------------------------------------
      1          7           0       -1.033801    1.668798   -0.000303
      2          6           0       -0.340381    0.606356   -0.000081
      3          8           0        1.004992    0.671733    0.001003
      4          6           0        1.653254   -0.540313    0.000123
      5          8           0        2.832614   -0.599975   -0.000613
      6          6           0       -2.013403   -0.409134   -0.000159
      7          8           0       -2.179372   -1.545924    0.000125
      8          1           0       -0.634764    2.597066   -0.000692
      9          1           0        0.951584   -1.386979    0.000244
     10          1           0       -2.142892    0.960192   -0.000848
 ---------------------------------------------------------------------

 SCF Done:  E(RHF) =  -394.440647277     A.U. after    2 cycles

 The electronic state is 1-A.
 Alpha  occ. eigenvalues --  -20.66747 -20.64982 -20.59800 -15.66072 -11.42113
 Alpha  occ. eigenvalues --  -11.39088 -11.35909  -1.46778  -1.45549  -1.38578
 Alpha  occ. eigenvalues --   -1.22763  -0.92994  -0.87397  -0.83412  -0.77754
 Alpha  occ. eigenvalues --   -0.72337  -0.69463  -0.69266  -0.66295  -0.65075
 Alpha  occ. eigenvalues --   -0.62742  -0.56088  -0.51709  -0.49255  -0.46778
 Alpha  occ. eigenvalues --   -0.39379
 Alpha virt. eigenvalues --    0.03029   0.04512   0.05219   0.06520   0.09366
 Alpha virt. eigenvalues --    0.09577   0.09984   0.10659   0.12104   0.13544
 Alpha virt. eigenvalues --    0.13562   0.14400   0.14444   0.15638   0.16290

 Mulliken charges:
               1
     1  N   -0.441757
     2  C    0.338761
     3  O   -0.571285
     4  C    0.799437
     5  O   -0.377396
     6  C    0.094493
     7  O   -0.280800
     8  H   -0.058268
     9  H   -0.109786
    10  H    0.606601
 Sum of Mulliken charges =  -0.00000

 Dipole moment (field-independent basis, Debye):
    X=             -2.5818    Y=              1.9434    Z=             -0.0006  Tot=              3.2315

 Test job not archived.
 1\1\GINC-SE097\SP\RHF\Aug-CC-pVDZ\C3H3N1O3\OHZDE\09-Apr-2025\0\\#t hf
 aug-cc-pvdz iop(5/13=1,5/36=2,99/5=2) pseudo=read geom=check guess=(re
 ad,tcheck) scf=(maxcycle=1)\\title\\0,1\N,0,-1.10735017,1.09513814,-0.
 66243205\C,0,-0.22567505,0.31816961,-0.18432824\O,0,1.07875641,0.64786
 518,-0.24806321\C,0,1.94487619,-0.26798063,0.29999035\O,0,3.11080821,-
 0.08077539,0.29718606\C,0,-1.66947312,-0.89810164,0.33176885\O,0,-1.61
 486684,-1.91346836,0.86645017\H,0,-0.89397457,1.9776022,-1.10587427\H,
 0,1.4196877,-1.14143598,0.71282936\H,0,-2.05768375,0.25802787,-0.30421

 Normal termination of Gaussian 16 at Wed Apr  9 15:36:49 2025.
