 Gaussian 16, Revision C.01,

 ----------------------------------------------------------------------
 #t hf aug-cc-pvdz symm=none int=(grid=ultrafine) guess=(read,tcheck) s
 table=(opt,rrhf)
 ----------------------------------------------------------------------
 -----
 title
 -----
 Symbolic Z-matrix:
 Charge =  0 Multiplicity = 1

 SCF Done:  E(RHF) =  -286.825421085     A.U. after   14 cycles
 Normal termination of Gaussian 16 at Wed Apr  9 03:40:33 2025.
 Gaussian 16:  ES64L-G16RevC.01  3-Jul-2019

 ----------------------------------------------------------------------
 #t hf aug-cc-pvdz iop(5/13=1,5/36=2,99/5=2) pseudo=read geom=check gue
 ss=(read,tcheck) scf=(maxcycle=1)
 ----------------------------------------------------------------------
 -----
 title
 -----
 Structure from the checkpoint file:  "Grambow2020_wb97xd3_007553_forward_mol2.chk"
 Charge =  0 Multiplicity = 1

                         Standard orientation:
 ---------------------------------------------------------------------
 Center     Atomic      Atomic             Coordinates (Angstroms)
 Number     Number       Type             X           Y           Z
 ---------------------------------------------------------------------
      1          6           0       -0.666797    1.602754    0.043789
      2          6           0       -0.642048    0.102869   -0.098727
      3          6           0        0.555794   -0.461063   -0.844708
      4          6           0        1.820037   -0.227579   -0.150365
      5          6           0        2.846024   -0.028067    0.434172
      6          6           0       -1.286860   -0.732837    0.931763
      7          7           0       -1.884504   -0.599123   -0.400490
      8          1           0        0.232916    1.957629    0.549488
      9          1           0       -1.533208    1.926339    0.623825
     10          1           0       -0.712978    2.083120   -0.937337
     11          1           0        0.603611   -0.015384   -1.843029
     12          1           0        0.405213   -1.532933   -0.985987
     13          1           0        3.761379    0.143335    0.949248
     14          1           0       -0.889951   -1.715544    1.159923
     15          1           0       -1.763455   -0.230440    1.766506
     16          1           0       -2.668896    0.041283   -0.374740
 ---------------------------------------------------------------------

 SCF Done:  E(RHF) =  -286.913370273     A.U. after    2 cycles

 The electronic state is 1-A.
 Alpha  occ. eigenvalues --  -15.62220 -11.28133 -11.26360 -11.26070 -11.24569
 Alpha  occ. eigenvalues --  -11.23571 -11.23267  -1.24998  -1.06476  -0.99506
 Alpha  occ. eigenvalues --   -0.95472  -0.87945  -0.78333  -0.71813  -0.68196
 Alpha  occ. eigenvalues --   -0.64878  -0.63205  -0.60006  -0.57331  -0.54761
 Alpha  occ. eigenvalues --   -0.51517  -0.47153  -0.46693  -0.39653  -0.39025
 Alpha  occ. eigenvalues --   -0.38077
 Alpha virt. eigenvalues --    0.03304   0.03860   0.04331   0.04691   0.05784
 Alpha virt. eigenvalues --    0.06791   0.07108   0.07857   0.09251   0.10072
 Alpha virt. eigenvalues --    0.10768   0.12567   0.12731   0.13344   0.14171

 Mulliken charges:
               1
     1  C    0.464471
     2  C   -0.809415
     3  C    0.182482
     4  C   -0.411724
     5  C    1.030446
     6  C    1.159282
     7  N   -0.627704
     8  H    0.026963
     9  H   -0.113651
    10  H    0.085186
    11  H    0.106746
    12  H    0.052857
    13  H   -0.554501
    14  H   -0.313445
    15  H   -0.291372
    16  H    0.013378
 Sum of Mulliken charges =  -0.00000

 Dipole moment (field-independent basis, Debye):
    X=             -0.4022    Y=              1.3625    Z=              0.9047  Tot=              1.6842

 Test job not archived.
 1\1\GINC-SE456\SP\RHF\Aug-CC-pVDZ\C6H9N1\OHZDE\09-Apr-2025\0\\#t hf au
 g-cc-pvdz iop(5/13=1,5/36=2,99/5=2) pseudo=read geom=check guess=(read
 ,tcheck) scf=(maxcycle=1)\\title\\0,1\C,0,-0.51078109,1.43999757,0.540
 08265\C,0,-0.54793179,-0.02248321,0.17904418\C,0,0.47032227,-0.4633398
 4,-0.85928974\C,0,1.84976764,-0.32669719,-0.3973403\C,0,2.97353553,-0.
 20897822,-0.00057155\C,0,-1.00043218,-1.00447164,1.18255726\N,0,-1.840
 81999,-0.68009417,0.0256286\H,0,0.47741637,1.72220241,0.90747584\H,0,-
 1.24139052,1.6695315,1.31811839\H,0,-0.73460331,2.05903124,-0.33295397

 Normal termination of Gaussian 16 at Wed Apr  9 03:40:38 2025.
