 Gaussian 16, Revision C.01,

 ----------------------------------------------------------------------
 #t hf aug-cc-pvdz symm=none int=(grid=ultrafine) guess=(read,tcheck) s
 table=(opt,rrhf)
 ----------------------------------------------------------------------
 -----
 title
 -----
 Symbolic Z-matrix:
 Charge =  0 Multiplicity = 1

 SCF Done:  E(RHF) =  -306.833824441     A.U. after   16 cycles

 1\1\GINC-SE163\Stability\RHF\Aug-CC-pVDZ\C4H10O2\OHZDE\09-Apr-2025\0\\
 #t hf aug-cc-pvdz symm=none int=(grid=ultrafine) guess=(read,tcheck) s
 table=(opt,rrhf)\\title\\0,1\O,0,-1.84387658,1.06491385,-1.14836798\C,
 0,-1.79437831,0.10803102,-0.11378734\C,0,-0.67845293,-0.87895829,-0.25
 315098\C,0,1.12965176,-0.44601868,1.58317275\C,0,1.62193155,0.58780479
 ,0.76048431\O,0,0.75751983,0.5570788,-0.75512704\H,0,-0.89762465,1.312
 75478,-1.27074683\H,0,-1.76588111,0.56387339,0.89339139\H,0,-2.7388356
 ,-0.47022986,-0.16860916\H,0,-0.5196399,-1.26462616,-1.26057341\H,0,-0

 Normal termination of Gaussian 16 at Wed Apr  9 14:19:27 2025.
 Gaussian 16:  ES64L-G16RevC.01  3-Jul-2019

 ----------------------------------------------------------------------
 #t hf aug-cc-pvdz iop(5/13=1,5/36=2,99/5=2) pseudo=read geom=check gue
 ss=(read,tcheck) scf=(maxcycle=1)
 ----------------------------------------------------------------------
 -----
 title
 -----
 Structure from the checkpoint file:  "Grambow2020_b97d3_007165_reverse_mol1.chk"
 Charge =  0 Multiplicity = 1

                         Standard orientation:
 ---------------------------------------------------------------------
 Center     Atomic      Atomic             Coordinates (Angstroms)
 Number     Number       Type             X           Y           Z
 ---------------------------------------------------------------------
      1          8           0       -2.141935   -0.581680   -0.361232
      2          6           0       -1.503157    0.674061   -0.301993
      3          6           0       -0.478612    0.782964    0.783045
      4          6           0        1.916946    0.867748   -0.257567
      5          6           0        1.843140   -0.535318   -0.375496
      6          8           0        0.378233   -1.085906    0.396598
      7          1           0       -1.399423   -1.217721   -0.235047
      8          1           0       -1.057485    0.976483   -1.267876
      9          1           0       -2.289452    1.421472   -0.072846
     10          1           0       -0.768462    0.355256    1.743209
     11          1           0        0.045874    1.727488    0.872297
     12          1           0        2.483715    1.328448    0.550187
     13          1           0        1.606067    1.508413   -1.080355
     14          1           0        2.559884   -1.142735    0.186812
     15          1           0        1.627030   -0.952163   -1.360634
     16          1           0        0.631964   -1.400976    1.293380
 ---------------------------------------------------------------------

 SCF Done:  E(RHF) =  -306.929956063     A.U. after    2 cycles

 The electronic state is 1-A.
 Alpha  occ. eigenvalues --  -20.56956 -20.56841 -11.35962 -11.31553 -11.28461
 Alpha  occ. eigenvalues --  -11.18330  -1.32624  -1.26380  -1.03590  -0.98933
 Alpha  occ. eigenvalues --   -0.86316  -0.78445  -0.72000  -0.68207  -0.65571
 Alpha  occ. eigenvalues --   -0.62908  -0.60556  -0.58967  -0.57560  -0.54126
 Alpha  occ. eigenvalues --   -0.52122  -0.48454  -0.48093  -0.46483  -0.26492
 Alpha virt. eigenvalues --    0.02823   0.03785   0.04529   0.05127   0.05702
 Alpha virt. eigenvalues --    0.06320   0.06686   0.07385   0.07559   0.08172
 Alpha virt. eigenvalues --    0.09493   0.12408   0.13466   0.14018   0.14552

 Mulliken charges:
               1
     1  O   -0.554193
     2  C    0.712394
     3  C    0.558549
     4  C    0.601280
     5  C    0.477611
     6  O   -0.670812
     7  H    0.235481
     8  H   -0.097121
     9  H   -0.055646
    10  H   -0.183083
    11  H   -0.089803
    12  H   -0.384154
    13  H   -0.340512
    14  H   -0.181402
    15  H   -0.243581
    16  H    0.214993
 Sum of Mulliken charges =   0.00000

 Dipole moment (field-independent basis, Debye):
    X=             -0.0821    Y=              1.4231    Z=              2.3368  Tot=              2.7373

 Test job not archived.
 1\1\GINC-SE163\SP\RHF\Aug-CC-pVDZ\C4H10O2\OHZDE\09-Apr-2025\0\\#t hf a
 ug-cc-pvdz iop(5/13=1,5/36=2,99/5=2) pseudo=read geom=check guess=(rea
 d,tcheck) scf=(maxcycle=1)\\title\\0,1\O,0,-1.84387658,1.06491385,-1.1
 4836798\C,0,-1.79437831,0.10803102,-0.11378734\C,0,-0.67845293,-0.8789
 5829,-0.25315098\C,0,1.12965176,-0.44601868,1.58317275\C,0,1.62193155,
 0.58780479,0.76048431\O,0,0.75751983,0.5570788,-0.75512704\H,0,-0.8976
 2465,1.31275478,-1.27074683\H,0,-1.76588111,0.56387339,0.89339139\H,0,
 -2.7388356,-0.47022986,-0.16860916\H,0,-0.5196399,-1.26462616,-1.26057

 Normal termination of Gaussian 16 at Wed Apr  9 14:19:32 2025.
