 Gaussian 16, Revision C.01,

 ----------------------------------------------------------------------
 #t hf aug-cc-pvdz symm=none int=(grid=ultrafine) guess=(read,tcheck) s
 table=(opt,rrhf)
 ----------------------------------------------------------------------
 -----
 title
 -----
 Symbolic Z-matrix:
 Charge =  0 Multiplicity = 1

 SCF Done:  E(RHF) =  -305.659436713     A.U. after   16 cycles
 Normal termination of Gaussian 16 at Wed Apr  9 14:24:22 2025.
 Gaussian 16:  ES64L-G16RevC.01  3-Jul-2019

 ----------------------------------------------------------------------
 #t hf aug-cc-pvdz iop(5/13=1,5/36=2,99/5=2) pseudo=read geom=check gue
 ss=(read,tcheck) scf=(maxcycle=1)
 ----------------------------------------------------------------------
 -----
 title
 -----
 Structure from the checkpoint file:  "Grambow2020_wb97xd3_006222_forward_mol1.chk"
 Charge =  0 Multiplicity = 1

                         Standard orientation:
 ---------------------------------------------------------------------
 Center     Atomic      Atomic             Coordinates (Angstroms)
 Number     Number       Type             X           Y           Z
 ---------------------------------------------------------------------
      1          6           0        2.258749   -0.045647   -0.128758
      2          8           0        0.904969   -0.251994   -0.460287
      3          6           0        0.060049   -0.695593    0.685641
      4          6           0       -0.250347    1.175863    0.107909
      5          6           0       -1.155016    0.072521    0.463838
      6          8           0       -2.133134   -0.232956   -0.529778
      7          1           0        2.778262   -1.007064   -0.094874
      8          1           0        2.342955    0.427892    0.854552
      9          1           0        2.706350    0.575097   -0.907957
     10          1           0        0.075970   -1.766273    0.874586
     11          1           0       -0.234131    1.582834   -0.898528
     12          1           0        0.170750    1.782176    0.899166
     13          1           0       -1.667966    0.259125    1.412320
     14          1           0       -1.827478   -1.017057   -0.990523
 ---------------------------------------------------------------------

 SCF Done:  E(RHF) =  -305.755842970     A.U. after    2 cycles

 The electronic state is 1-A.
 Alpha  occ. eigenvalues --  -20.60148 -20.56332 -11.36811 -11.29742 -11.28573
 Alpha  occ. eigenvalues --  -11.21612  -1.35354  -1.31350  -1.08567  -0.93682
 Alpha  occ. eigenvalues --   -0.89027  -0.79561  -0.70789  -0.69302  -0.66970
 Alpha  occ. eigenvalues --   -0.64562  -0.61374  -0.59392  -0.58416  -0.52801
 Alpha  occ. eigenvalues --   -0.50456  -0.46971  -0.44731  -0.26924
 Alpha virt. eigenvalues --    0.03076   0.04154   0.04783   0.05081   0.06206
 Alpha virt. eigenvalues --    0.06347   0.07152   0.07623   0.08172   0.10952
 Alpha virt. eigenvalues --    0.12566   0.13066   0.13894   0.14792   0.16006

 Mulliken charges:
               1
     1  C    0.793563
     2  O   -0.790281
     3  C    0.200587
     4  C    0.771959
     5  C    0.781318
     6  O   -0.652484
     7  H   -0.181620
     8  H   -0.041040
     9  H   -0.192486
    10  H   -0.462104
    11  H   -0.172161
    12  H   -0.201152
    13  H   -0.027328
    14  H    0.173229
 Sum of Mulliken charges =   0.00000

 Dipole moment (field-independent basis, Debye):
    X=              1.7964    Y=              2.1965    Z=             -0.3414  Tot=              2.8580

 Test job not archived.
 1\1\GINC-SE229\SP\RHF\Aug-CC-pVDZ\C4H8O2\OHZDE\09-Apr-2025\0\\#t hf au
 g-cc-pvdz iop(5/13=1,5/36=2,99/5=2) pseudo=read geom=check guess=(read
 ,tcheck) scf=(maxcycle=1)\\title\\0,1\C,0,1.66678676,-0.84023074,-0.68
 679977\O,0,0.62900487,0.11034435,-0.61878122\C,0,-0.72900439,-0.483944
 69,-0.45614598\C,0,-0.02059193,0.41071265,1.16564553\C,0,-1.3322558,0.
 43004353,0.50108594\O,0,-1.81190199,1.73528208,0.17922312\H,0,1.711444
 05,-1.2623734,-1.69435404\H,0,1.48537521,-1.65464914,0.02174971\H,0,2.
 60758894,-0.32896854,-0.47157574\H,0,-1.20432561,-0.79262591,-1.384098

 Normal termination of Gaussian 16 at Wed Apr  9 14:24:26 2025.
