 Gaussian 16, Revision C.01,

 ----------------------------------------------------------------------
 #t hf aug-cc-pvdz symm=none int=(grid=ultrafine) guess=(read,tcheck) s
 table=(opt,rrhf)
 ----------------------------------------------------------------------
 -----
 title
 -----
 Symbolic Z-matrix:
 Charge =  0 Multiplicity = 1

 SCF Done:  E(RHF) =  -359.608480828     A.U. after   18 cycles
 Normal termination of Gaussian 16 at Wed Apr  9 04:04:45 2025.
 Gaussian 16:  ES64L-G16RevC.01  3-Jul-2019

 ----------------------------------------------------------------------
 #t hf aug-cc-pvdz iop(5/13=1,5/36=2,99/5=2) pseudo=read geom=check gue
 ss=(read,tcheck) scf=(maxcycle=1)
 ----------------------------------------------------------------------
 -----
 title
 -----
 Structure from the checkpoint file:  "Grambow2020_wb97xd3_009257_forward_mol1.chk"
 Charge =  0 Multiplicity = 1

                         Standard orientation:
 ---------------------------------------------------------------------
 Center     Atomic      Atomic             Coordinates (Angstroms)
 Number     Number       Type             X           Y           Z
 ---------------------------------------------------------------------
      1          6           0        0.756234    1.744267   -0.241067
      2          6           0        0.254378    0.385845    0.007825
      3          6           0        1.201870   -0.704794    0.332347
      4          8           0        2.393510   -0.631786    0.173542
      5          6           0       -1.104860   -0.109096   -0.258728
      6          8           0       -0.975014   -1.359357   -0.599787
      7          7           0       -2.171467    0.386272    0.560022
      8          1           0        1.343755    2.048471    0.630427
      9          1           0        1.461606    1.751931   -1.078815
     10          1           0       -0.051583    2.453902   -0.409922
     11          1           0       -1.115479    0.522857   -1.219942
     12          1           0        0.699488   -1.562437    0.816190
     13          1           0       -2.075227    0.058106    1.511594
     14          1           0       -3.056002    0.055076    0.198018
 ---------------------------------------------------------------------

 SCF Done:  E(RHF) =  -359.718442928     A.U. after    2 cycles

 The electronic state is 1-A.
 Alpha  occ. eigenvalues --  -20.60939 -20.50389 -15.62796 -11.37925 -11.37171
 Alpha  occ. eigenvalues --  -11.34446 -11.28872  -1.39517  -1.30210  -1.14941
 Alpha  occ. eigenvalues --   -1.11451  -0.96858  -0.89370  -0.76877  -0.72519
 Alpha  occ. eigenvalues --   -0.68582  -0.68188  -0.66008  -0.62070  -0.61236
 Alpha  occ. eigenvalues --   -0.59363  -0.57382  -0.56126  -0.48055  -0.44032
 Alpha  occ. eigenvalues --   -0.40422  -0.37815
 Alpha virt. eigenvalues --   -0.02902   0.02628   0.03759   0.04190   0.05357
 Alpha virt. eigenvalues --    0.06548   0.06592   0.07516   0.09772   0.11571
 Alpha virt. eigenvalues --    0.12399   0.12978   0.13373   0.14285   0.14716

 Mulliken charges:
               1
     1  C    0.548459
     2  C   -0.909534
     3  C    0.687360
     4  O   -0.468196
     5  C    0.888684
     6  O   -0.751858
     7  N   -0.349693
     8  H    0.080031
     9  H    0.159679
    10  H   -0.063043
    11  H    0.206529
    12  H   -0.064268
    13  H    0.013568
    14  H    0.022281
 Sum of Mulliken charges =   0.00000

 Dipole moment (field-independent basis, Debye):
    X=             -0.5503    Y=              4.4515    Z=              1.7997  Tot=              4.8330

 Test job not archived.
 1\1\GINC-SE343\SP\RHF\Aug-CC-pVDZ\C4H7N1O2\OHZDE\09-Apr-2025\0\\#t hf
 aug-cc-pvdz iop(5/13=1,5/36=2,99/5=2) pseudo=read geom=check guess=(re
 ad,tcheck) scf=(maxcycle=1)\\title\\0,1\C,0,-1.12900893,-1.22722936,0.
 16140638\C,0,-0.3741671,0.03341839,0.17121431\C,0,-0.97796672,1.252516
 54,0.75583006\O,0,-2.14854481,1.36700192,1.01505023\C,0,0.86969498,0.3
 1613104,-0.56119639\O,0,0.82045594,1.5763474,-0.8864129\N,0,2.06474663
 ,-0.35027609,-0.13558405\H,0,-1.42138357,-1.449808,1.1920364\H,0,-2.07
 112477,-1.11332281,-0.38528604\H,0,-0.54421154,-2.05065718,-0.24435418

 Normal termination of Gaussian 16 at Wed Apr  9 04:04:49 2025.
