 Gaussian 16, Revision C.01,

 ----------------------------------------------------------------------
 #t hf aug-cc-pvdz symm=none int=(grid=ultrafine) guess=(read,tcheck) s
 table=(opt,rrhf)
 ----------------------------------------------------------------------
 -----
 title
 -----
 Symbolic Z-matrix:
 Charge =  0 Multiplicity = 1

 SCF Done:  E(RHF) =  -322.621129055     A.U. after   16 cycles
 Normal termination of Gaussian 16 at Wed Apr  9 15:21:00 2025.
 Gaussian 16:  ES64L-G16RevC.01  3-Jul-2019

 ----------------------------------------------------------------------
 #t hf aug-cc-pvdz iop(5/13=1,5/36=2,99/5=2) pseudo=read geom=check gue
 ss=(read,tcheck) scf=(maxcycle=1)
 ----------------------------------------------------------------------
 -----
 title
 -----
 Structure from the checkpoint file:  "Grambow2020_wb97xd3_006853_forward_mol1.chk"
 Charge =  0 Multiplicity = 1

                         Standard orientation:
 ---------------------------------------------------------------------
 Center     Atomic      Atomic             Coordinates (Angstroms)
 Number     Number       Type             X           Y           Z
 ---------------------------------------------------------------------
      1          6           0        2.600825   -0.479737    0.040696
      2          6           0        1.191540    0.049292   -0.036710
      3          6           0        0.083349   -0.879649   -0.062641
      4          6           0       -1.085424   -0.209757    0.014068
      5          7           0       -2.482068   -0.515869   -0.005849
      6          6           0       -1.464359    1.084405    0.180557
      7          8           0        0.971862    1.259930   -0.037225
      8          1           0        3.304170    0.295762   -0.255261
      9          1           0        2.728782   -1.362301   -0.588055
     10          1           0        2.817044   -0.771948    1.071367
     11          1           0        0.183000   -1.954654   -0.067033
     12          1           0       -2.900621   -0.817188    0.857125
     13          1           0       -2.822077   -0.983136   -0.831923
     14          1           0       -1.666293    1.737779   -0.663299
 ---------------------------------------------------------------------

 SCF Done:  E(RHF) =  -322.719771230     A.U. after    2 cycles

 The electronic state is 1-A.
 Alpha  occ. eigenvalues --  -20.53583 -15.68003 -11.32790 -11.31751 -11.28084
 Alpha  occ. eigenvalues --  -11.23382 -11.22340  -1.32900  -1.24089  -1.05100
 Alpha  occ. eigenvalues --   -1.00075  -0.94296  -0.78374  -0.73427  -0.72037
 Alpha  occ. eigenvalues --   -0.68359  -0.64728  -0.59990  -0.58873  -0.57222
 Alpha  occ. eigenvalues --   -0.54149  -0.51193  -0.47326  -0.43124  -0.41329
 Alpha  occ. eigenvalues --   -0.31611
 Alpha virt. eigenvalues --    0.02265   0.03767   0.04253   0.04907   0.06028
 Alpha virt. eigenvalues --    0.06411   0.07416   0.09728   0.10155   0.10846
 Alpha virt. eigenvalues --    0.11706   0.13172   0.13665   0.13745   0.14901

 Mulliken charges:
               1
     1  C    0.486317
     2  C   -0.416002
     3  C    1.362105
     4  C   -0.126397
     5  N   -0.178309
     6  C    0.031943
     7  O   -0.578739
     8  H   -0.068170
     9  H   -0.003868
    10  H    0.101794
    11  H   -0.524011
    12  H    0.076661
    13  H    0.023079
    14  H   -0.186402
 Sum of Mulliken charges =  -0.00000

 Dipole moment (field-independent basis, Debye):
    X=             -2.0867    Y=             -4.4916    Z=             -1.0961  Tot=              5.0725

 Test job not archived.
 1\1\GINC-SE100\SP\RHF\Aug-CC-pVDZ\C5H7N1O1\OHZDE\09-Apr-2025\0\\#t hf
 aug-cc-pvdz iop(5/13=1,5/36=2,99/5=2) pseudo=read geom=check guess=(re
 ad,tcheck) scf=(maxcycle=1)\\title\\0,1\C,0,2.51851552,-0.0697943,-0.0
 5009361\C,0,1.08317536,0.38914927,-0.01669449\C,0,0.02137814,-0.588061
 2,-0.11331785\C,0,-1.17459662,0.00559987,0.08131197\N,0,-2.5543526,-0.
 36980502,0.07349923\C,0,-1.6090949,1.25002275,0.41114302\O,0,0.8049740
 1,1.57841623,0.13214396\H,0,3.17081395,0.7708442,-0.27706776\H,0,2.663
 92686,-0.86597737,-0.78191826\H,0,2.7899352,-0.46696551,0.93123582\H,0

 Normal termination of Gaussian 16 at Wed Apr  9 15:21:05 2025.
