 Gaussian 16, Revision C.01,

 ----------------------------------------------------------------------
 #t hf aug-cc-pvdz symm=none int=(grid=ultrafine) guess=(read,tcheck) s
 table=(opt,rrhf)
 ----------------------------------------------------------------------
 -----
 title
 -----
 Symbolic Z-matrix:
 Charge =  0 Multiplicity = 1

 SCF Done:  E(RHF) =  -231.693213415     A.U. after   15 cycles
 Normal termination of Gaussian 16 at Wed Apr  9 14:15:16 2025.
 Gaussian 16:  ES64L-G16RevC.01  3-Jul-2019

 ----------------------------------------------------------------------
 #t hf aug-cc-pvdz iop(5/13=1,5/36=2,99/5=2) pseudo=read geom=check gue
 ss=(read,tcheck) scf=(maxcycle=1)
 ----------------------------------------------------------------------
 -----
 title
 -----
 Structure from the checkpoint file:  "Grambow2020_b97d3_006877_forward_mol1.chk"
 Charge =  0 Multiplicity = 1

                         Standard orientation:
 ---------------------------------------------------------------------
 Center     Atomic      Atomic             Coordinates (Angstroms)
 Number     Number       Type             X           Y           Z
 ---------------------------------------------------------------------
      1          6           0        1.231729   -0.436279   -0.522305
      2          6           0        0.620038    0.936455   -0.231221
      3          6           0       -0.920435    0.798502   -0.292053
      4          6           0       -1.162308   -0.716442   -0.279852
      5          6           0        0.159773   -0.941471    0.479013
      6          6           0        0.260360    0.507058    1.187792
      7          1           0        2.244271   -0.501875   -0.103537
      8          1           0        1.225521   -0.840918   -1.546846
      9          1           0        1.049522    1.909536   -0.484043
     10          1           0       -1.477673    1.545756   -0.866593
     11          1           0       -2.042688   -0.985579    0.318940
     12          1           0       -1.227461   -1.204207   -1.264443
     13          1           0        0.286067   -1.863706    1.054819
     14          1           0       -1.192502    1.054048    0.843452
 ---------------------------------------------------------------------

 SCF Done:  E(RHF) =  -231.757187721     A.U. after    2 cycles

 The electronic state is 1-A.
 Alpha  occ. eigenvalues --  -11.27469 -11.27107 -11.25160 -11.25107 -11.24912
 Alpha  occ. eigenvalues --  -11.24380  -1.20795  -0.98585  -0.95767  -0.85618
 Alpha  occ. eigenvalues --   -0.77063  -0.71264  -0.68730  -0.61963  -0.59278
 Alpha  occ. eigenvalues --   -0.53148  -0.51787  -0.50082  -0.47715  -0.45711
 Alpha  occ. eigenvalues --   -0.42103  -0.33828
 Alpha virt. eigenvalues --    0.03170   0.04070   0.04318   0.05038   0.06263
 Alpha virt. eigenvalues --    0.06620   0.07071   0.07824   0.10463   0.11502
 Alpha virt. eigenvalues --    0.12435   0.12955   0.13227   0.13916   0.14574

 Mulliken charges:
               1
     1  C    0.605502
     2  C    0.440423
     3  C   -0.195974
     4  C    0.613933
     5  C    0.304784
     6  C   -0.514549
     7  H   -0.174152
     8  H   -0.175469
     9  H   -0.376306
    10  H   -0.224363
    11  H   -0.092246
    12  H   -0.209101
    13  H   -0.361492
    14  H    0.359010
 Sum of Mulliken charges =  -0.00000

 Dipole moment (field-independent basis, Debye):
    X=             -0.7225    Y=             -0.6007    Z=             -2.3516  Tot=              2.5323

 Test job not archived.
 1\1\GINC-SE163\SP\RHF\Aug-CC-pVDZ\C6H8\OHZDE\09-Apr-2025\0\\#t hf aug-
 cc-pvdz iop(5/13=1,5/36=2,99/5=2) pseudo=read geom=check guess=(read,t
 check) scf=(maxcycle=1)\\title\\0,1\C,0,-1.13958419,-0.23512474,0.7846
 4744\C,0,-0.5583703,1.04898557,0.18753209\C,0,0.92998191,0.79088599,-0
 .15007554\C,0,1.077487,-0.7332299,-0.05509976\C,0,-0.4121413,-0.919004
 13,-0.40282125\C,0,-0.62531554,0.45966685,-1.21801747\H,0,-2.23015989,
 -0.25619808,0.66171504\H,0,-0.8743387,-0.54059407,1.80923978\H,0,-0.84
 911789,2.07362467,0.43419524\H,0,1.66274411,1.54045385,0.16647881\H,0,

 Normal termination of Gaussian 16 at Wed Apr  9 14:15:20 2025.
