 Gaussian 16, Revision C.01,

 ----------------------------------------------------------------------
 #t hf aug-cc-pvdz symm=none int=(grid=ultrafine) guess=(read,tcheck) s
 table=(opt,rrhf)
 ----------------------------------------------------------------------
 -----
 title
 -----
 Symbolic Z-matrix:
 Charge =  0 Multiplicity = 1

 SCF Done:  E(RHF) =  -286.642213818     A.U. after   16 cycles
 Normal termination of Gaussian 16 at Wed Apr  9 16:14:12 2025.
 Gaussian 16:  ES64L-G16RevC.01  3-Jul-2019

 ----------------------------------------------------------------------
 #t hf aug-cc-pvdz iop(5/13=1,5/36=2,99/5=2) pseudo=read geom=check gue
 ss=(read,tcheck) scf=(maxcycle=1)
 ----------------------------------------------------------------------
 -----
 title
 -----
 Structure from the checkpoint file:  "Grambow2020_wb97xd3_007997_forward_mol1.chk"
 Charge =  0 Multiplicity = 1

                         Standard orientation:
 ---------------------------------------------------------------------
 Center     Atomic      Atomic             Coordinates (Angstroms)
 Number     Number       Type             X           Y           Z
 ---------------------------------------------------------------------
      1          6           0        2.268222   -1.325287   -0.001191
      2          6           0        1.381104   -0.159575   -0.068078
      3          6           0        1.075952    1.035575    0.045568
      4          6           0        0.264525    2.122170    0.016934
      5          6           0       -1.111844   -0.048701   -0.502637
      6          6           0       -1.508470   -0.460929    0.830754
      7          7           0       -2.279230   -0.714136   -0.400994
      8          1           0        1.872140   -2.081059    0.681445
      9          1           0        3.265223   -1.047881    0.351647
     10          1           0        2.376376   -1.794943   -0.980711
     11          1           0        0.293080    2.806657   -0.823100
     12          1           0       -0.171406    2.501372    0.933922
     13          1           0       -0.509856    0.322983   -1.295214
     14          1           0       -1.980023    0.231982    1.517670
     15          1           0       -0.972421   -1.286967    1.285810
     16          1           0       -2.435437   -1.632710   -0.792613
 ---------------------------------------------------------------------

 SCF Done:  E(RHF) =  -286.732027484     A.U. after    2 cycles

 The electronic state is 1-A.
 Alpha  occ. eigenvalues --  -15.67256 -11.34598 -11.30802 -11.24224 -11.21785
 Alpha  occ. eigenvalues --  -11.21522 -11.21403  -1.30429  -1.04772  -0.97526
 Alpha  occ. eigenvalues --   -0.92523  -0.87212  -0.85012  -0.74626  -0.66863
 Alpha  occ. eigenvalues --   -0.64393  -0.58886  -0.58422  -0.57220  -0.56447
 Alpha  occ. eigenvalues --   -0.55560  -0.52105  -0.45967  -0.38360  -0.34410
 Alpha  occ. eigenvalues --   -0.24356
 Alpha virt. eigenvalues --    0.02643   0.04079   0.04278   0.04701   0.05839
 Alpha virt. eigenvalues --    0.06595   0.07097   0.07196   0.07895   0.08362
 Alpha virt. eigenvalues --    0.10728   0.11777   0.12406   0.12883   0.13678

 Mulliken charges:
               1
     1  C    0.113560
     2  C   -0.357512
     3  C   -0.723271
     4  C    0.714630
     5  C    0.573906
     6  C    1.018250
     7  N   -0.465793
     8  H    0.059888
     9  H    0.129731
    10  H    0.077628
    11  H   -0.203467
    12  H   -0.266333
    13  H   -0.174279
    14  H   -0.242466
    15  H   -0.245845
    16  H   -0.008627
 Sum of Mulliken charges =  -0.00000

 Dipole moment (field-independent basis, Debye):
    X=             -1.9284    Y=             -3.3740    Z=             -0.0150  Tot=              3.8862

 Test job not archived.
 1\1\GINC-SE163\SP\RHF\Aug-CC-pVDZ\C6H9N1\OHZDE\09-Apr-2025\0\\#t hf au
 g-cc-pvdz iop(5/13=1,5/36=2,99/5=2) pseudo=read geom=check guess=(read
 ,tcheck) scf=(maxcycle=1)\\title\\0,1\C,0,1.68176767,0.82299726,1.8025
 4396\C,0,1.095948,-0.09369466,0.81927053\C,0,1.10999775,-0.9616783,-0.
 06437191\C,0,0.59044145,-1.79693381,-0.9983586\C,0,-1.29899919,-0.2889
 3907,0.0180023\C,0,-1.24986155,0.86262498,-0.86328135\N,0,-2.4564761,0
 .37528086,-0.16904397\H,0,1.41902312,1.85958303,1.57777691\H,0,2.77271
 597,0.75118425,1.81415158\H,0,1.31935289,0.60542326,2.80904817\H,0,0.4

 Normal termination of Gaussian 16 at Wed Apr  9 16:14:18 2025.
