 Gaussian 16, Revision C.01,

 ----------------------------------------------------------------------
 #t hf aug-cc-pvdz symm=none int=(grid=ultrafine) guess=(read,tcheck) s
 table=(opt,rrhf)
 ----------------------------------------------------------------------
 -----
 title
 -----
 Symbolic Z-matrix:
 Charge =  0 Multiplicity = 1

 SCF Done:  E(RHF) =  -304.572942754     A.U. after   15 cycles
 Normal termination of Gaussian 16 at Wed Apr  9 03:14:50 2025.
 Gaussian 16:  ES64L-G16RevC.01  3-Jul-2019

 ----------------------------------------------------------------------
 #t hf aug-cc-pvdz iop(5/13=1,5/36=2,99/5=2) pseudo=read geom=check gue
 ss=(read,tcheck) scf=(maxcycle=1)
 ----------------------------------------------------------------------
 -----
 title
 -----
 Structure from the checkpoint file:  "Grambow2020_b97d3_007020_forward_mol1.chk"
 Charge =  0 Multiplicity = 1

                         Standard orientation:
 ---------------------------------------------------------------------
 Center     Atomic      Atomic             Coordinates (Angstroms)
 Number     Number       Type             X           Y           Z
 ---------------------------------------------------------------------
      1          8           0        1.370433   -1.116011   -0.396882
      2          6           0        1.186681    0.049070    0.378124
      3          6           0        0.652300    1.284118   -0.379576
      4          6           0       -0.176136    0.278481    0.867814
      5          6           0       -1.295149   -0.458996    0.315338
      6          8           0       -2.161098   -0.065983   -0.464467
      7          1           0        2.272821   -1.084106   -0.767479
      8          1           0        2.033362    0.258986    1.047217
      9          1           0        1.143681    2.237519   -0.162972
     10          1           0        0.370773    1.087668   -1.414203
     11          1           0       -0.359677    1.502299    0.286177
     12          1           0       -1.341810   -1.462450    0.811856
 ---------------------------------------------------------------------

 SCF Done:  E(RHF) =  -304.665297270     A.U. after    2 cycles

 The electronic state is 1-A.
 Alpha  occ. eigenvalues --  -20.61013 -20.55075 -11.34413 -11.34354 -11.31084
 Alpha  occ. eigenvalues --  -11.27701  -1.36144  -1.32861  -1.15167  -0.94116
 Alpha  occ. eigenvalues --   -0.88308  -0.76786  -0.74992  -0.67766  -0.67179
 Alpha  occ. eigenvalues --   -0.64213  -0.59908  -0.59091  -0.54169  -0.52215
 Alpha  occ. eigenvalues --   -0.49400  -0.43382  -0.35587
 Alpha virt. eigenvalues --    0.02184   0.03945   0.04416   0.05590   0.06801
 Alpha virt. eigenvalues --    0.07134   0.09761   0.10698   0.10964   0.11430
 Alpha virt. eigenvalues --    0.12870   0.13796   0.14758   0.15170   0.16004

 Mulliken charges:
               1
     1  O   -0.594107
     2  C    1.048671
     3  C    0.181091
     4  C   -0.769277
     5  C    0.760192
     6  O   -0.563739
     7  H    0.176135
     8  H   -0.194159
     9  H   -0.112479
    10  H   -0.084090
    11  H    0.200351
    12  H   -0.048590
 Sum of Mulliken charges =   0.00000

 Dipole moment (field-independent basis, Debye):
    X=              5.5095    Y=              1.3578    Z=              0.0283  Tot=              5.6744

 Test job not archived.
 1\1\GINC-SE454\SP\RHF\Aug-CC-pVDZ\C4H6O2\OHZDE\09-Apr-2025\0\\#t hf au
 g-cc-pvdz iop(5/13=1,5/36=2,99/5=2) pseudo=read geom=check guess=(read
 ,tcheck) scf=(maxcycle=1)\\title\\0,1\O,0,-1.35580219,1.03814067,0.377
 94854\C,0,-0.94482522,-0.21859993,-0.11552289\C,0,0.19321903,-0.192487
 65,-1.15916526\C,0,0.23002902,-0.80460946,0.53716662\C,0,1.0838228,0.0
 0167083,1.38701524\O,0,2.20124651,0.45315636,1.14217277\H,0,-2.0519060
 8,1.37519393,-0.2174484\H,0,-1.78719677,-0.87380433,-0.37959788\H,0,0.
 06489272,-0.83629804,-2.03460092\H,0,0.63098297,0.79280645,-1.31997867

 Normal termination of Gaussian 16 at Wed Apr  9 03:14:54 2025.
