 Gaussian 16, Revision C.01,

 ----------------------------------------------------------------------
 #t hf aug-cc-pvdz symm=none int=(grid=ultrafine) guess=(read,tcheck) s
 table=(opt,rrhf)
 ----------------------------------------------------------------------
 -----
 title
 -----
 Symbolic Z-matrix:
 Charge =  0 Multiplicity = 1

 SCF Done:  E(RHF) =  -306.569413373     A.U. after   17 cycles
 Normal termination of Gaussian 16 at Wed Apr  9 16:28:12 2025.
 Gaussian 16:  ES64L-G16RevC.01  3-Jul-2019

 ----------------------------------------------------------------------
 #t hf aug-cc-pvdz iop(5/13=1,5/36=2,99/5=2) pseudo=read geom=check gue
 ss=(read,tcheck) scf=(maxcycle=1)
 ----------------------------------------------------------------------
 -----
 title
 -----
 Structure from the checkpoint file:  "Grambow2020_wb97xd3_008431_reverse_mol2.chk"
 Charge =  0 Multiplicity = 1

                         Standard orientation:
 ---------------------------------------------------------------------
 Center     Atomic      Atomic             Coordinates (Angstroms)
 Number     Number       Type             X           Y           Z
 ---------------------------------------------------------------------
      1          6           0       -0.007172    1.294634    0.403461
      2          6           0        2.222310   -0.141277   -0.126236
      3          6           0        0.072585   -0.117977    0.967002
      4          8           0       -1.181429   -0.689419    0.708899
      5          6           0       -1.445521   -0.244608   -0.636974
      6          6           0       -0.155112    0.516125   -0.915927
      7          6           0        0.882698   -0.544237   -0.405533
      8          1           0       -0.855182    1.893873    0.735231
      9          1           0        0.935742    1.825244    0.470885
     10          1           0        2.823334   -1.063221   -0.026239
     11          1           0        0.429885   -0.391112    1.954378
     12          1           0       -2.335235    0.388247   -0.656239
     13          1           0       -1.599974   -1.116059   -1.277215
     14          1           0       -0.031570    0.980277   -1.890831
     15          1           0        0.665698   -1.577856   -0.695922
 ---------------------------------------------------------------------

 SCF Done:  E(RHF) =  -306.659411529     A.U. after    2 cycles

 The electronic state is 1-A.
 Alpha  occ. eigenvalues --  -20.58457 -11.32913 -11.29468 -11.26082 -11.26061
 Alpha  occ. eigenvalues --  -11.24943 -11.23756  -1.37487  -1.13359  -1.00140
 Alpha  occ. eigenvalues --   -0.97101  -0.84428  -0.80233  -0.74904  -0.71219
 Alpha  occ. eigenvalues --   -0.67653  -0.64468  -0.58604  -0.56065  -0.54922
 Alpha  occ. eigenvalues --   -0.54195  -0.50838  -0.46689  -0.45773  -0.41561
 Alpha  occ. eigenvalues --   -0.35098
 Alpha virt. eigenvalues --    0.03197   0.03971   0.04206   0.04769   0.05980
 Alpha virt. eigenvalues --    0.06255   0.06968   0.07168   0.08594   0.10595
 Alpha virt. eigenvalues --    0.11250   0.12178   0.12982   0.13220   0.13995

 Mulliken charges:
               1
     1  C    0.687872
     2  C   -0.068689
     3  C    0.541782
     4  O   -0.727933
     5  C    1.100584
     6  C    0.049794
     7  C    0.462486
     8  H   -0.154635
     9  H   -0.207818
    10  H   -0.196858
    11  H   -0.343089
    12  H   -0.234427
    13  H   -0.236135
    14  H   -0.296556
    15  H   -0.376378
 Sum of Mulliken charges =  -0.00000

 Dipole moment (field-independent basis, Debye):
    X=             -0.8955    Y=             -0.2326    Z=             -1.1291  Tot=              1.4597

 Test job not archived.
 1\1\GINC-SE087\SP\RHF\Aug-CC-pVDZ\C6H8O1\OHZDE\09-Apr-2025\0\\#t hf au
 g-cc-pvdz iop(5/13=1,5/36=2,99/5=2) pseudo=read geom=check guess=(read
 ,tcheck) scf=(maxcycle=1)\\title\\0,1\C,0,0.49510476,0.84703299,0.8841
 4625\C,0,1.76504944,-0.09803627,-1.30836299\C,0,0.52233599,-0.66197396
 ,0.68027248\O,0,-0.78427405,-1.09402712,0.94824954\C,0,-1.57744523,-0.
 08632344,0.28916853\C,0,-0.46624787,0.7634416,-0.31483743\C,0,0.414687
 59,-0.37419393,-0.94066162\H,0,0.08938182,1.19314437,1.83487027\H,0,1.
 43713084,1.31994366,0.63092079\H,0,2.10722281,-0.93888314,-1.93852359\

 Normal termination of Gaussian 16 at Wed Apr  9 16:28:18 2025.
