 Gaussian 16, Revision C.01,

 ----------------------------------------------------------------------
 #t hf aug-cc-pvdz symm=none int=(grid=ultrafine) guess=(read,tcheck) s
 table=(opt,rrhf)
 ----------------------------------------------------------------------
 -----
 title
 -----
 Symbolic Z-matrix:
 Charge =  0 Multiplicity = 1

 SCF Done:  E(RHF) =  -380.590324640     A.U. after   16 cycles
 Normal termination of Gaussian 16 at Wed Apr  9 16:31:08 2025.
 Gaussian 16:  ES64L-G16RevC.01  3-Jul-2019

 ----------------------------------------------------------------------
 #t hf aug-cc-pvdz iop(5/13=1,5/36=2,99/5=2) pseudo=read geom=check gue
 ss=(read,tcheck) scf=(maxcycle=1)
 ----------------------------------------------------------------------
 -----
 title
 -----
 Structure from the checkpoint file:  "Grambow2020_wb97xd3_008484_reverse_mol1.chk"
 Charge =  0 Multiplicity = 1

                         Standard orientation:
 ---------------------------------------------------------------------
 Center     Atomic      Atomic             Coordinates (Angstroms)
 Number     Number       Type             X           Y           Z
 ---------------------------------------------------------------------
      1          6           0        2.516730    0.891029   -0.121603
      2          8           0        2.029705   -0.394667   -0.549133
      3          6           0        0.972686   -0.916484    0.057404
      4          8           0        0.440755   -0.197101    0.971484
      5          6           0       -0.885420   -0.672137   -0.171514
      6          6           0       -1.775214    0.485146    0.259577
      7          8           0       -2.990388    0.383361   -0.454347
      8          1           0        2.762909    0.885252    0.939538
      9          1           0        3.410183    1.069559   -0.713762
     10          1           0        1.776475    1.668684   -0.310638
     11          1           0       -0.765128   -0.655939   -1.253971
     12          1           0       -1.207032   -1.643901    0.179858
     13          1           0       -1.929184    0.476211    1.340570
     14          1           0       -1.327148    1.439179   -0.014797
     15          1           0       -3.534334   -0.297118   -0.054010
 ---------------------------------------------------------------------

 SCF Done:  E(RHF) =  -380.713312033     A.U. after    2 cycles

 The electronic state is 1-A.
 Alpha  occ. eigenvalues --  -20.59967 -20.59790 -20.59629 -11.35121 -11.33413
 Alpha  occ. eigenvalues --  -11.31025 -11.28849  -1.41475  -1.35076  -1.31987
 Alpha  occ. eigenvalues --   -1.03216  -0.96906  -0.88450  -0.79312  -0.73565
 Alpha  occ. eigenvalues --   -0.70477  -0.68363  -0.67461  -0.64856  -0.62932
 Alpha  occ. eigenvalues --   -0.61041  -0.56683  -0.55232  -0.52012  -0.51373
 Alpha  occ. eigenvalues --   -0.50122  -0.47337  -0.34291
 Alpha virt. eigenvalues --    0.02922   0.04007   0.04844   0.05372   0.06203
 Alpha virt. eigenvalues --    0.06715   0.06887   0.08132   0.09852   0.10598
 Alpha virt. eigenvalues --    0.11489   0.12754   0.13619   0.14665   0.15465

 Mulliken charges:
               1
     1  C    0.824132
     2  O   -0.539638
     3  C    0.144380
     4  O   -0.537647
     5  C    0.406716
     6  C    0.794744
     7  O   -0.532796
     8  H   -0.093793
     9  H   -0.234389
    10  H   -0.132429
    11  H    0.057673
    12  H   -0.075862
    13  H   -0.076483
    14  H   -0.155400
    15  H    0.150794
 Sum of Mulliken charges =   0.00000

 Dipole moment (field-independent basis, Debye):
    X=             -1.5880    Y=              0.7488    Z=              0.5272  Tot=              1.8332

 Test job not archived.
 1\1\GINC-SE026\SP\RHF\Aug-CC-pVDZ\C4H8O3\OHZDE\09-Apr-2025\0\\#t hf au
 g-cc-pvdz iop(5/13=1,5/36=2,99/5=2) pseudo=read geom=check guess=(read
 ,tcheck) scf=(maxcycle=1)\\title\\0,1\C,0,-2.60301802,0.30295835,-0.42
 688959\O,0,-2.04690239,-0.23002605,0.7895201\C,0,-0.90583742,-0.902658
 1,0.73469836\O,0,-0.36451083,-0.99225871,-0.42069808\C,0,0.90186582,-0
 .35823194,0.71294287\C,0,1.7244336,0.24025943,-0.41934169\O,0,2.883646
 96,0.81574085,0.14788096\H,0,-2.76327247,-0.48334727,-1.16357051\H,0,-
 3.55213431,0.74575712,-0.13725099\H,0,-1.94668946,1.06161354,-0.853661

 Normal termination of Gaussian 16 at Wed Apr  9 16:31:13 2025.
