 Gaussian 16, Revision C.01,

 ----------------------------------------------------------------------
 #t hf aug-cc-pvdz symm=none int=(grid=ultrafine) guess=(read,tcheck) s
 table=(opt,rrhf)
 ----------------------------------------------------------------------
 -----
 title
 -----
 Symbolic Z-matrix:
 Charge =  0 Multiplicity = 1

 SCF Done:  E(RHF) =  -360.692335762     A.U. after   18 cycles
 Normal termination of Gaussian 16 at Wed Apr  9 16:00:14 2025.
 Gaussian 16:  ES64L-G16RevC.01  3-Jul-2019

 ----------------------------------------------------------------------
 #t hf aug-cc-pvdz iop(5/13=1,5/36=2,99/5=2) pseudo=read geom=check gue
 ss=(read,tcheck) scf=(maxcycle=1)
 ----------------------------------------------------------------------
 -----
 title
 -----
 Structure from the checkpoint file:  "Grambow2020_wb97xd3_007668_reverse_mol1.chk"
 Charge =  0 Multiplicity = 1

                         Standard orientation:
 ---------------------------------------------------------------------
 Center     Atomic      Atomic             Coordinates (Angstroms)
 Number     Number       Type             X           Y           Z
 ---------------------------------------------------------------------
      1          6           0       -2.172725   -0.577941   -0.574153
      2          8           0       -1.719303    0.372482    0.355598
      3          6           0       -0.469182    0.096944    0.904819
      4          6           0        0.702317    0.338427   -0.097356
      5          7           0        1.798199   -0.426443    0.172285
      6          8           0        1.470741   -1.609026   -0.174063
      7          6           0        0.907084    1.794982   -0.411285
      8          1           0       -3.195458   -0.309325   -0.832032
      9          1           0       -1.561989   -0.572412   -1.485759
     10          1           0       -2.159535   -1.589544   -0.149743
     11          1           0       -0.415931   -0.923022    1.300727
     12          1           0       -0.353088    0.810583    1.726012
     13          1           0        0.450110   -0.969106   -0.672718
     14          1           0        1.170268    2.368697    0.483116
     15          1           0       -0.024346    2.207048   -0.801676
     16          1           0        1.686102    1.940064   -1.158350
 ---------------------------------------------------------------------

 SCF Done:  E(RHF) =  -360.803902952     A.U. after    2 cycles

 The electronic state is 1-A.
 Alpha  occ. eigenvalues --  -20.64442 -20.58859 -15.77782 -11.31895 -11.29182
 Alpha  occ. eigenvalues --  -11.26786 -11.23972  -1.46440  -1.36060  -1.11902
 Alpha  occ. eigenvalues --   -0.99120  -0.96071  -0.89942  -0.80935  -0.71652
 Alpha  occ. eigenvalues --   -0.70200  -0.68532  -0.67817  -0.62634  -0.61261
 Alpha  occ. eigenvalues --   -0.58523  -0.55626  -0.54586  -0.52250  -0.50332
 Alpha  occ. eigenvalues --   -0.46731  -0.44878  -0.36286
 Alpha virt. eigenvalues --    0.03327   0.04039   0.04277   0.04870   0.05415
 Alpha virt. eigenvalues --    0.06702   0.07010   0.07268   0.08167   0.08696
 Alpha virt. eigenvalues --    0.11477   0.11987   0.13490   0.13961   0.14590

 Mulliken charges:
               1
     1  C    0.769219
     2  O   -0.658333
     3  C    0.924447
     4  C   -0.674356
     5  N   -0.197956
     6  O   -0.617429
     7  C    0.517850
     8  H   -0.275047
     9  H   -0.052543
    10  H   -0.063897
    11  H   -0.064921
    12  H   -0.210002
    13  H    0.541203
    14  H    0.087304
    15  H    0.029111
    16  H   -0.054651
 Sum of Mulliken charges =  -0.00000

 Dipole moment (field-independent basis, Debye):
    X=             -1.2315    Y=              0.7974    Z=             -0.3733  Tot=              1.5138

 Test job not archived.
 1\1\GINC-SE141\SP\RHF\Aug-CC-pVDZ\C4H9N1O2\OHZDE\09-Apr-2025\0\\#t hf
 aug-cc-pvdz iop(5/13=1,5/36=2,99/5=2) pseudo=read geom=check guess=(re
 ad,tcheck) scf=(maxcycle=1)\\title\\0,1\C,0,2.06637675,0.42563978,-0.2
 3240619\O,0,1.36942178,-0.32606584,0.72807443\C,0,0.11739381,0.1821523
 2,1.06646534\C,0,-0.94883305,-0.03167945,-0.05269237\N,0,-1.94356157,0
 .90018151,-0.02369578\O,0,-1.40552393,1.97324214,-0.45351501\C,0,-1.32
 818576,-1.47683268,-0.22490686\H,0,3.06141424,-0.0074406,-0.31595572\H
 ,0,1.57481354,0.38132548,-1.21243504\H,0,2.15263942,1.47698213,0.06905

 Normal termination of Gaussian 16 at Wed Apr  9 16:00:20 2025.
