 Gaussian 16, Revision C.01,

 ----------------------------------------------------------------------
 #t hf aug-cc-pvdz symm=none int=(grid=ultrafine) guess=(read,tcheck) s
 table=(opt,rrhf)
 ----------------------------------------------------------------------
 -----
 title
 -----
 Symbolic Z-matrix:
 Charge =  0 Multiplicity = 1

 SCF Done:  E(RHF) =  -305.689173015     A.U. after   14 cycles
 Normal termination of Gaussian 16 at Wed Apr  9 14:26:25 2025.
 Gaussian 16:  ES64L-G16RevC.01  3-Jul-2019

 ----------------------------------------------------------------------
 #t hf aug-cc-pvdz iop(5/13=1,5/36=2,99/5=2) pseudo=read geom=check gue
 ss=(read,tcheck) scf=(maxcycle=1)
 ----------------------------------------------------------------------
 -----
 title
 -----
 Structure from the checkpoint file:  "Grambow2020_wb97xd3_006279_forward_mol1.chk"
 Charge =  0 Multiplicity = 1

                         Standard orientation:
 ---------------------------------------------------------------------
 Center     Atomic      Atomic             Coordinates (Angstroms)
 Number     Number       Type             X           Y           Z
 ---------------------------------------------------------------------
      1          6           0        1.518505   -0.517199   -0.666646
      2          6           0        0.892052   -0.389663    0.584189
      3          6           0        0.316717    1.006536    0.701361
      4          8           0       -0.444379    1.062991   -0.533221
      5          6           0       -1.387588   -0.312404   -0.434105
      6          8           0       -0.874085   -0.989671    0.539178
      7          1           0        1.918514   -1.469771   -0.984655
      8          1           0        0.320172    0.442006   -1.094225
      9          1           0        2.093203    0.349912   -0.991221
     10          1           0        1.064458   -0.995752    1.464825
     11          1           0       -0.334438    1.156868    1.556435
     12          1           0        1.071850    1.790080    0.635591
     13          1           0       -2.395897    0.085723   -0.280857
     14          1           0       -1.228275   -0.669246   -1.462347
 ---------------------------------------------------------------------

 SCF Done:  E(RHF) =  -305.784686857     A.U. after    2 cycles

 The electronic state is 1-A.
 Alpha  occ. eigenvalues --  -20.63382 -20.53689 -11.35976 -11.32320 -11.31834
 Alpha  occ. eigenvalues --  -11.18641  -1.39859  -1.29361  -1.06856  -0.94616
 Alpha  occ. eigenvalues --   -0.86784  -0.80112  -0.75284  -0.70504  -0.66542
 Alpha  occ. eigenvalues --   -0.64607  -0.60697  -0.58752  -0.55468  -0.54642
 Alpha  occ. eigenvalues --   -0.50883  -0.48022  -0.43612  -0.31516
 Alpha virt. eigenvalues --    0.03349   0.04618   0.04661   0.04976   0.06610
 Alpha virt. eigenvalues --    0.06755   0.07177   0.08232   0.09577   0.12034
 Alpha virt. eigenvalues --    0.12857   0.13619   0.14384   0.14424   0.15212

 Mulliken charges:
               1
     1  C    0.250676
     2  C    0.533637
     3  C    0.908171
     4  O   -0.818774
     5  C    0.874869
     6  O   -0.689669
     7  H   -0.345045
     8  H    0.485868
     9  H   -0.187833
    10  H   -0.320606
    11  H   -0.194574
    12  H   -0.214700
    13  H   -0.244129
    14  H   -0.037891
 Sum of Mulliken charges =  -0.00000

 Dipole moment (field-independent basis, Debye):
    X=              0.2566    Y=              1.9094    Z=              0.3942  Tot=              1.9664

 Test job not archived.
 1\1\GINC-SE131\SP\RHF\Aug-CC-pVDZ\C4H8O2\OHZDE\09-Apr-2025\0\\#t hf au
 g-cc-pvdz iop(5/13=1,5/36=2,99/5=2) pseudo=read geom=check guess=(read
 ,tcheck) scf=(maxcycle=1)\\title\\0,1\C,0,-1.51254876,0.21387358,0.145
 26813\C,0,-0.45238917,-0.48102164,0.75064253\C,0,0.36959371,-1.1535657
 7,-0.3292375\O,0,0.6110837,-0.01635745,-1.1981957\C,0,1.25479294,1.108
 17972,-0.1435704\O,0,1.02754627,0.62008208,1.03106706\H,0,-2.16906242,
 0.83593915,0.73734558\H,0,-0.40717548,0.43202752,-0.98143441\H,0,-1.99
 810751,-0.30398369,-0.68151111\H,0,-0.3910062,-0.80821131,1.78106355\H

 Normal termination of Gaussian 16 at Wed Apr  9 14:26:30 2025.
