 Gaussian 16, Revision C.01,

 ----------------------------------------------------------------------
 #t hf aug-cc-pvdz symm=none int=(grid=ultrafine) guess=(read,tcheck) s
 table=(opt,rrhf)
 ----------------------------------------------------------------------
 -----
 title
 -----
 Symbolic Z-matrix:
 Charge =  0 Multiplicity = 1

 SCF Done:  E(RHF) =  -317.421250917     A.U. after   18 cycles
 Normal termination of Gaussian 16 at Wed Apr  9 16:50:59 2025.
 Gaussian 16:  ES64L-G16RevC.01  3-Jul-2019

 ----------------------------------------------------------------------
 #t hf aug-cc-pvdz iop(5/13=1,5/36=2,99/5=2) pseudo=read geom=check gue
 ss=(read,tcheck) scf=(maxcycle=1)
 ----------------------------------------------------------------------
 -----
 title
 -----
 Structure from the checkpoint file:  "Grambow2020_wb97xd3_008979_reverse_mol1.chk"
 Charge =  0 Multiplicity = 1

                         Standard orientation:
 ---------------------------------------------------------------------
 Center     Atomic      Atomic             Coordinates (Angstroms)
 Number     Number       Type             X           Y           Z
 ---------------------------------------------------------------------
      1          7           0        1.452289    1.336961   -0.275248
      2          6           0        0.244711   -0.550664   -0.736386
      3          6           0        0.938911   -1.433559   -0.009684
      4          7           0        0.413083   -0.330254    0.709872
      5          6           0       -0.813656    0.097821    1.096823
      6          7           0       -1.624706    0.347776    0.087440
      7          6           0       -1.001170   -0.028156   -1.046950
      8          1           0        1.900583    1.443986    0.633631
      9          1           0        0.827583    2.142864   -0.343560
     10          1           0        1.880794   -1.934995    0.120174
     11          1           0       -1.026797    0.346585    2.124107
     12          1           0       -1.479592    0.007531   -2.011618
 ---------------------------------------------------------------------

 SCF Done:  E(RHF) =  -317.516834591     A.U. after    2 cycles

 The electronic state is 1-A.
 Alpha  occ. eigenvalues --  -15.74214 -15.67314 -15.58709 -11.35166 -11.34300
 Alpha  occ. eigenvalues --  -11.34241 -11.31978  -1.39045  -1.23160  -1.06091
 Alpha  occ. eigenvalues --   -1.02427  -0.94028  -0.83061  -0.80339  -0.72826
 Alpha  occ. eigenvalues --   -0.66913  -0.64092  -0.62166  -0.58424  -0.52060
 Alpha  occ. eigenvalues --   -0.48304  -0.46635  -0.42813  -0.35640  -0.26904
 Alpha virt. eigenvalues --    0.01959   0.03346   0.03509   0.03998   0.05798
 Alpha virt. eigenvalues --    0.07697   0.08069   0.09116   0.09457   0.09832
 Alpha virt. eigenvalues --    0.11188   0.12817   0.13736   0.14501   0.14896

 Mulliken charges:
               1
     1  N   -0.325739
     2  C    0.111925
     3  C    0.406444
     4  N   -0.327465
     5  C    0.705065
     6  N   -0.604106
     7  C    0.859552
     8  H    0.007775
     9  H   -0.018193
    10  H   -0.361080
    11  H   -0.256107
    12  H   -0.198072
 Sum of Mulliken charges =  -0.00000

 Dipole moment (field-independent basis, Debye):
    X=             -0.4468    Y=             -1.7306    Z=              1.1800  Tot=              2.1417

 Test job not archived.
 1\1\GINC-SE105\SP\RHF\Aug-CC-pVDZ\C4H5N3\OHZDE\09-Apr-2025\0\\#t hf au
 g-cc-pvdz iop(5/13=1,5/36=2,99/5=2) pseudo=read geom=check guess=(read
 ,tcheck) scf=(maxcycle=1)\\title\\0,1\N,0,-1.56260413,0.27500684,0.883
 07711\C,0,-0.26520385,-0.04506665,-0.97388964\C,0,0.05334208,1.2274174
 8,-1.23623759\N,0,0.41370382,0.76178061,0.05405644\C,0,1.32027195,-0.1
 0403047,0.57016994\N,0,1.16120895,-1.34345437,0.14867017\C,0,0.1915428
 8,-1.34059074,-0.78765337\H,0,-1.35818522,1.04436407,1.51930488\H,0,-1
 .49664056,-0.55968209,1.46903484\H,0,-0.31361397,2.19576626,-1.5244901

 Normal termination of Gaussian 16 at Wed Apr  9 16:51:03 2025.
