 Gaussian 16, Revision C.01,

 ----------------------------------------------------------------------
 #t hf aug-cc-pvdz symm=none int=(grid=ultrafine) guess=(read,tcheck) s
 table=(opt,rrhf)
 ----------------------------------------------------------------------
 -----
 title
 -----
 Symbolic Z-matrix:
 Charge =  0 Multiplicity = 1

 SCF Done:  E(RHF) =  -302.827540713     A.U. after   15 cycles
 Normal termination of Gaussian 16 at Wed Apr  9 16:53:17 2025.
 Gaussian 16:  ES64L-G16RevC.01  3-Jul-2019

 ----------------------------------------------------------------------
 #t hf aug-cc-pvdz iop(5/13=1,5/36=2,99/5=2) pseudo=read geom=check gue
 ss=(read,tcheck) scf=(maxcycle=1)
 ----------------------------------------------------------------------
 -----
 title
 -----
 Structure from the checkpoint file:  "Grambow2020_wb97xd3_009044_reverse_mol2.chk"
 Charge =  0 Multiplicity = 1

                         Standard orientation:
 ---------------------------------------------------------------------
 Center     Atomic      Atomic             Coordinates (Angstroms)
 Number     Number       Type             X           Y           Z
 ---------------------------------------------------------------------
      1          7           0        2.089547   -0.430876   -0.228531
      2          6           0        0.950194    0.150092    0.467577
      3          6           0        0.383609    1.426088   -0.167384
      4          7           0       -0.908382    1.236987   -0.187540
      5          6           0       -0.213726   -0.819297    0.625237
      6          6           0       -0.995754   -1.195168   -0.606566
      7          6           0       -1.431151   -0.049067    0.255570
      8          1           0        2.776611    0.294080   -0.396782
      9          1           0        1.797355   -0.761105   -1.140460
     10          1           0        1.291634    0.447233    1.466771
     11          1           0       -0.222288   -1.508357    1.457768
     12          1           0       -0.603161   -0.955068   -1.587459
     13          1           0       -1.570938   -2.110359   -0.558016
     14          1           0       -2.362514   -0.048825    0.805271
     15          1           0       -1.533897    1.923733   -0.581196
 ---------------------------------------------------------------------

 SCF Done:  E(RHF) =  -302.916819697     A.U. after    2 cycles

 The electronic state is 1-A.
 Alpha  occ. eigenvalues --  -15.67194 -15.60282 -11.28650 -11.26485 -11.25038
 Alpha  occ. eigenvalues --  -11.24875 -11.24797  -1.27030  -1.14776  -1.11645
 Alpha  occ. eigenvalues --   -0.95610  -0.85950  -0.80060  -0.77825  -0.72269
 Alpha  occ. eigenvalues --   -0.65823  -0.64236  -0.59084  -0.57051  -0.56595
 Alpha  occ. eigenvalues --   -0.53048  -0.50577  -0.43601  -0.39933  -0.38980
 Alpha  occ. eigenvalues --   -0.33927
 Alpha virt. eigenvalues --    0.02827   0.03857   0.04095   0.04768   0.06288
 Alpha virt. eigenvalues --    0.06701   0.07307   0.08613   0.09644   0.11642
 Alpha virt. eigenvalues --    0.12177   0.12389   0.13667   0.14273   0.14529

 Mulliken charges:
               1
     1  N   -0.486198
     2  C    0.555599
     3  C   -0.169288
     4  N   -0.266565
     5  C    0.527179
     6  C    0.731669
     7  C    0.718457
     8  H    0.015180
     9  H    0.026254
    10  H   -0.117408
    11  H   -0.382962
    12  H   -0.381327
    13  H   -0.342141
    14  H   -0.323079
    15  H   -0.105371
 Sum of Mulliken charges =  -0.00000

 Dipole moment (field-independent basis, Debye):
    X=             -3.0876    Y=             -1.0340    Z=             -0.0559  Tot=              3.2566

 Test job not archived.
 1\1\GINC-SE226\SP\RHF\Aug-CC-pVDZ\C5H8N2\OHZDE\09-Apr-2025\0\\#t hf au
 g-cc-pvdz iop(5/13=1,5/36=2,99/5=2) pseudo=read geom=check guess=(read
 ,tcheck) scf=(maxcycle=1)\\title\\0,1\N,0,2.14936436,0.22706734,-0.608
 60447\C,0,1.07134891,-0.44816094,0.10003224\C,0,0.71107546,0.15741106,
 1.46232605\N,0,-0.59261681,0.23301295,1.45356162\C,0,-0.21931743,-0.52
 457446,-0.7047169\C,0,-0.99252464,0.74917709,-0.92808563\C,0,-1.303843
 2,-0.14001674,0.23759491\H,0,2.93521374,0.34131531,0.02013578\H,0,1.85
 369995,1.16138839,-0.86486332\H,0,1.40756971,-1.47017031,0.31384662\H,

 Normal termination of Gaussian 16 at Wed Apr  9 16:53:23 2025.
