 Gaussian 16, Revision C.01,

 ----------------------------------------------------------------------
 #t hf aug-cc-pvdz symm=none int=(grid=ultrafine) guess=(read,tcheck) s
 table=(opt,rrhf)
 ----------------------------------------------------------------------
 -----
 title
 -----
 Symbolic Z-matrix:
 Charge =  0 Multiplicity = 1

 SCF Done:  E(RHF) =  -359.550565646     A.U. after   19 cycles
 Normal termination of Gaussian 16 at Wed Apr  9 15:40:05 2025.
 Gaussian 16:  ES64L-G16RevC.01  3-Jul-2019

 ----------------------------------------------------------------------
 #t hf aug-cc-pvdz iop(5/13=1,5/36=2,99/5=2) pseudo=read geom=check gue
 ss=(read,tcheck) scf=(maxcycle=1)
 ----------------------------------------------------------------------
 -----
 title
 -----
 Structure from the checkpoint file:  "Grambow2020_wb97xd3_007276_forward_mol1.chk"
 Charge =  0 Multiplicity = 1

                         Standard orientation:
 ---------------------------------------------------------------------
 Center     Atomic      Atomic             Coordinates (Angstroms)
 Number     Number       Type             X           Y           Z
 ---------------------------------------------------------------------
      1          8           0       -2.086329    0.303858   -0.007225
      2          6           0       -0.849993   -0.058129    0.452871
      3          6           0       -0.317615   -1.441510   -0.046310
      4          7           0        0.990322   -1.155391   -0.566817
      5          6           0        1.542666   -0.312093    0.391226
      6          6           0        0.402301    0.776465   -0.113433
      7          8           0        0.633374    1.978032   -0.131970
      8          1           0       -2.092025    0.292863   -0.969952
      9          1           0       -0.885502    0.068504    1.537932
     10          1           0       -0.233735   -2.120030    0.809346
     11          1           0       -0.969050   -1.885266   -0.799571
     12          1           0        0.272523    0.213136   -1.208636
     13          1           0        2.542150    0.046452    0.166031
     14          1           0        1.392874   -0.571437    1.440005
 ---------------------------------------------------------------------

 SCF Done:  E(RHF) =  -359.656724899     A.U. after    2 cycles

 The electronic state is 1-A.
 Alpha  occ. eigenvalues --  -20.61519 -20.52940 -15.74067 -11.35321 -11.35073
 Alpha  occ. eigenvalues --  -11.30951 -11.29499  -1.38530  -1.32685  -1.27423
 Alpha  occ. eigenvalues --   -1.02006  -0.97273  -0.85165  -0.83090  -0.73311
 Alpha  occ. eigenvalues --   -0.69441  -0.67121  -0.65009  -0.63819  -0.61399
 Alpha  occ. eigenvalues --   -0.59216  -0.57330  -0.54599  -0.51431  -0.47995
 Alpha  occ. eigenvalues --   -0.38417  -0.37000
 Alpha virt. eigenvalues --    0.00690   0.02759   0.03372   0.04574   0.04867
 Alpha virt. eigenvalues --    0.06558   0.06986   0.07386   0.09786   0.10722
 Alpha virt. eigenvalues --    0.12821   0.13347   0.13860   0.13998   0.14689

 Mulliken charges:
               1
     1  O   -0.462953
     2  C    0.414519
     3  C    0.622444
     4  N   -0.551106
     5  C    0.735946
     6  C    0.160348
     7  O   -0.588540
     8  H    0.135503
     9  H   -0.179697
    10  H   -0.013506
    11  H   -0.191267
    12  H    0.236610
    13  H   -0.205966
    14  H   -0.112333
 Sum of Mulliken charges =  -0.00000

 Dipole moment (field-independent basis, Debye):
    X=             -0.4543    Y=             -5.3578    Z=              0.6186  Tot=              5.4125

 Test job not archived.
 1\1\GINC-SE226\SP\RHF\Aug-CC-pVDZ\C4H7N1O2\OHZDE\09-Apr-2025\0\\#t hf
 aug-cc-pvdz iop(5/13=1,5/36=2,99/5=2) pseudo=read geom=check guess=(re
 ad,tcheck) scf=(maxcycle=1)\\title\\0,1\O,0,2.11881818,-0.14921317,0.3
 7402929\C,0,0.75336726,-0.09137425,0.43274889\C,0,0.10165907,1.1981711
 ,-0.16616728\N,0,-0.89149732,0.70631932,-1.08006632\C,0,-1.50387428,-0
 .32109734,-0.37049635\C,0,-0.05238044,-1.10195162,-0.52380263\O,0,0.00
 62318,-2.31767233,-0.65065153\H,0,2.41077669,-0.04278484,-0.53724976\H
 ,0,0.48862072,-0.31418143,1.46953241\H,0,-0.3840913,1.7583675,0.639933

 Normal termination of Gaussian 16 at Wed Apr  9 15:40:10 2025.
