 Gaussian 16, Revision C.01,

 ----------------------------------------------------------------------
 #t hf aug-cc-pvdz symm=none int=(grid=ultrafine) guess=(read,tcheck) s
 table=(opt,rrhf)
 ----------------------------------------------------------------------
 -----
 title
 -----
 Symbolic Z-matrix:
 Charge =  0 Multiplicity = 1

 SCF Done:  E(RHF) =  -374.474901340     A.U. after   17 cycles
 Normal termination of Gaussian 16 at Wed Apr  9 15:45:42 2025.
 Gaussian 16:  ES64L-G16RevC.01  3-Jul-2019

 ----------------------------------------------------------------------
 #t hf aug-cc-pvdz iop(5/13=1,5/36=2,99/5=2) pseudo=read geom=check gue
 ss=(read,tcheck) scf=(maxcycle=1)
 ----------------------------------------------------------------------
 -----
 title
 -----
 Structure from the checkpoint file:  "Grambow2020_wb97xd3_007332_forward_mol1.chk"
 Charge =  0 Multiplicity = 1

                         Standard orientation:
 ---------------------------------------------------------------------
 Center     Atomic      Atomic             Coordinates (Angstroms)
 Number     Number       Type             X           Y           Z
 ---------------------------------------------------------------------
      1          7           0       -1.782269   -0.883299   -0.168558
      2          6           0       -0.774491    0.051238    0.041242
      3          6           0       -1.479413    1.353211    0.173828
      4          8           0        0.280420    0.269196   -0.976826
      5          6           0        1.219349   -0.056839   -0.025278
      6          8           0        2.400126   -0.011006   -0.080687
      7          7           0        0.284418   -0.434532    0.925497
      8          1           0       -1.502924   -1.849842   -0.111178
      9          1           0       -2.418971   -0.657970   -0.914478
     10          1           0       -1.198893    1.809515    1.140898
     11          1           0        0.368711   -0.228060    1.907536
 ---------------------------------------------------------------------

 SCF Done:  E(RHF) =  -374.588540136     A.U. after    2 cycles

 The electronic state is 1-A.
 Alpha  occ. eigenvalues --  -20.63209 -20.57427 -15.67757 -15.65916 -11.43680
 Alpha  occ. eigenvalues --  -11.41264 -11.32327  -1.46999  -1.37110  -1.23013
 Alpha  occ. eigenvalues --   -1.18393  -1.00260  -0.84172  -0.83348  -0.76909
 Alpha  occ. eigenvalues --   -0.74144  -0.71129  -0.68862  -0.63702  -0.59728
 Alpha  occ. eigenvalues --   -0.58706  -0.52134  -0.50792  -0.46986  -0.44664
 Alpha  occ. eigenvalues --   -0.40495
 Alpha virt. eigenvalues --    0.02044   0.02764   0.03583   0.04511   0.06647
 Alpha virt. eigenvalues --    0.08313   0.10072   0.11175   0.11292   0.12574
 Alpha virt. eigenvalues --    0.13498   0.14924   0.15245   0.15872   0.16306

 Mulliken charges:
               1
     1  N   -0.364698
     2  C    1.411899
     3  C   -0.043576
     4  O   -0.704859
     5  C    0.497730
     6  O   -0.351012
     7  N   -0.482602
     8  H    0.047170
     9  H    0.049732
    10  H   -0.039625
    11  H   -0.020159
 Sum of Mulliken charges =  -0.00000

 Dipole moment (field-independent basis, Debye):
    X=             -3.4849    Y=             -1.2297    Z=              2.9238  Tot=              4.7123

 Test job not archived.
 1\1\GINC-SE026\SP\RHF\Aug-CC-pVDZ\C3H4N2O2\OHZDE\09-Apr-2025\0\\#t hf
 aug-cc-pvdz iop(5/13=1,5/36=2,99/5=2) pseudo=read geom=check guess=(re
 ad,tcheck) scf=(maxcycle=1)\\title\\0,1\N,0,-1.5181841,-0.26057318,-0.
 40548006\C,0,-0.28236356,0.23716713,-0.00799392\C,0,-0.58769598,1.5189
 5205,0.68006513\O,0,0.76212311,0.55926654,-1.00904634\C,0,1.59747365,-
 0.33134378,-0.37474973\O,0,2.7412462,-0.56427164,-0.56693394\N,0,0.621
 13503,-0.79942297,0.49034279\H,0,-1.52110376,-1.21117368,-0.73996786\H
 ,0,-2.08628575,0.38588878,-0.92692643\H,0,-0.16283217,1.48191441,1.699

 Normal termination of Gaussian 16 at Wed Apr  9 15:45:46 2025.
