 Gaussian 16, Revision C.01,

 ----------------------------------------------------------------------
 #t hf aug-cc-pvdz symm=none int=(grid=ultrafine) guess=(read,tcheck) s
 table=(opt,rrhf)
 ----------------------------------------------------------------------
 -----
 title
 -----
 Symbolic Z-matrix:
 Charge =  0 Multiplicity = 1

 SCF Done:  E(RHF) =  -262.419459604     A.U. after   18 cycles
 Normal termination of Gaussian 16 at Wed Apr  9 14:16:01 2025.
 Gaussian 16:  ES64L-G16RevC.01  3-Jul-2019

 ----------------------------------------------------------------------
 #t hf aug-cc-pvdz iop(5/13=1,5/36=2,99/5=2) pseudo=read geom=check gue
 ss=(read,tcheck) scf=(maxcycle=1)
 ----------------------------------------------------------------------
 -----
 title
 -----
 Structure from the checkpoint file:  "Grambow2020_b97d3_006910_reverse_mol1.chk"
 Charge =  0 Multiplicity = 1

                         Standard orientation:
 ---------------------------------------------------------------------
 Center     Atomic      Atomic             Coordinates (Angstroms)
 Number     Number       Type             X           Y           Z
 ---------------------------------------------------------------------
      1          6           0       -1.382056    0.045362    0.054857
      2          6           0       -0.617582    1.159923   -0.012239
      3          7           0        0.789197    1.110319    0.025024
      4          7           0        1.327634   -0.006305   -0.047433
      5          6           0        1.901345   -1.065037    0.151667
      6          6           0       -1.795313   -1.221293   -0.151217
      7          1           0       -2.562402    0.029379   -0.177941
      8          1           0       -1.030192    2.161734   -0.022738
      9          1           0        2.304556   -1.687446   -0.650930
     10          1           0       -2.168149   -1.745501    0.750076
 ---------------------------------------------------------------------

 SCF Done:  E(RHF) =  -262.497013649     A.U. after    2 cycles

 The electronic state is 1-A.
 Alpha  occ. eigenvalues --  -15.77518 -15.69756 -11.31748 -11.30774 -11.30215
 Alpha  occ. eigenvalues --  -11.29695  -1.35838  -1.15672  -1.10830  -0.97804
 Alpha  occ. eigenvalues --   -0.81338  -0.72569  -0.69803  -0.67779  -0.62557
 Alpha  occ. eigenvalues --   -0.59136  -0.54925  -0.49480  -0.41479  -0.39809
 Alpha  occ. eigenvalues --   -0.28943
 Alpha virt. eigenvalues --    0.03023   0.03824   0.04553   0.05377   0.06596
 Alpha virt. eigenvalues --    0.07319   0.08742   0.09752   0.10791   0.11672
 Alpha virt. eigenvalues --    0.12106   0.12886   0.14310   0.14869   0.15426

 Mulliken charges:
               1
     1  C   -0.004862
     2  C    1.196143
     3  N   -0.329720
     4  N    0.098704
     5  C   -0.115948
     6  C   -0.307755
     7  H   -0.004676
     8  H   -0.232112
     9  H   -0.234292
    10  H   -0.065482
 Sum of Mulliken charges =   0.00000

 Dipole moment (field-independent basis, Debye):
    X=             -1.6024    Y=             -0.1251    Z=             -0.1139  Tot=              1.6113

 Test job not archived.
 1\1\GINC-SE229\SP\RHF\Aug-CC-pVDZ\C4H4N2\OHZDE\09-Apr-2025\0\\#t hf au
 g-cc-pvdz iop(5/13=1,5/36=2,99/5=2) pseudo=read geom=check guess=(read
 ,tcheck) scf=(maxcycle=1)\\title\\0,1\C,0,0.63174208,0.85318904,-0.094
 92497\C,0,1.26379166,-0.34324248,-0.11015178\N,0,0.58595659,-1.5549000
 9,0.12501638\N,0,-0.6539,-1.51852679,0.18371739\C,0,-1.82915168,-1.512
 70805,0.51303175\C,0,-0.32369953,1.78345279,-0.29342571\H,0,1.12770613
 ,1.87623681,-0.48870172\H,0,2.3360373,-0.44550705,-0.22768364\H,0,-2.6
 4948577,-1.65990553,-0.19373423\H,0,-0.52082478,2.44541034,0.57207053\

 Normal termination of Gaussian 16 at Wed Apr  9 14:16:05 2025.
