 Gaussian 16, Revision C.01,

 ----------------------------------------------------------------------
 #t hf aug-cc-pvdz symm=none int=(grid=ultrafine) guess=(read,tcheck) s
 table=(opt,rrhf)
 ----------------------------------------------------------------------
 -----
 title
 -----
 Symbolic Z-matrix:
 Charge =  0 Multiplicity = 1

 SCF Done:  E(RHF) =  -306.582726065     A.U. after   16 cycles
 Normal termination of Gaussian 16 at Wed Apr  9 15:46:04 2025.
 Gaussian 16:  ES64L-G16RevC.01  3-Jul-2019

 ----------------------------------------------------------------------
 #t hf aug-cc-pvdz iop(5/13=1,5/36=2,99/5=2) pseudo=read geom=check gue
 ss=(read,tcheck) scf=(maxcycle=1)
 ----------------------------------------------------------------------
 -----
 title
 -----
 Structure from the checkpoint file:  "Grambow2020_wb97xd3_007356_reverse_mol2.chk"
 Charge =  0 Multiplicity = 1

                         Standard orientation:
 ---------------------------------------------------------------------
 Center     Atomic      Atomic             Coordinates (Angstroms)
 Number     Number       Type             X           Y           Z
 ---------------------------------------------------------------------
      1          6           0        2.024041   -0.122880   -0.754985
      2          6           0        2.016099   -0.075871    0.712749
      3          6           0        0.689436   -0.000717   -0.030153
      4          6           0       -0.345486    1.114031   -0.080203
      5          6           0       -1.308709   -0.032982    0.324529
      6          8           0       -2.614711   -0.091598   -0.150993
      7          6           0       -0.293694   -1.082150   -0.025871
      8          1           0        2.329661    0.760302   -1.300225
      9          1           0        2.201517   -1.069342   -1.246685
     10          1           0        2.204547   -0.984161    1.267640
     11          1           0        2.308752    0.842720    1.205161
     12          1           0       -0.259790    1.961796    0.600484
     13          1           0       -0.534104    1.467857   -1.092792
     14          1           0       -1.286313   -0.078167    1.431423
     15          1           0       -2.736707   -0.964815   -0.533461
 ---------------------------------------------------------------------

 SCF Done:  E(RHF) =  -306.674572025     A.U. after    2 cycles

 The electronic state is 1-A.
 Alpha  occ. eigenvalues --  -20.57662 -11.29757 -11.26571 -11.26487 -11.25989
 Alpha  occ. eigenvalues --  -11.25520 -11.24404  -1.33696  -1.18493  -1.08605
 Alpha  occ. eigenvalues --   -0.89238  -0.84815  -0.83912  -0.72770  -0.69292
 Alpha  occ. eigenvalues --   -0.67008  -0.64624  -0.60005  -0.57363  -0.56434
 Alpha  occ. eigenvalues --   -0.53787  -0.49640  -0.47860  -0.42903  -0.41595
 Alpha  occ. eigenvalues --   -0.35380
 Alpha virt. eigenvalues --    0.03292   0.04093   0.04447   0.04873   0.06305
 Alpha virt. eigenvalues --    0.06386   0.06633   0.07525   0.08212   0.09400
 Alpha virt. eigenvalues --    0.11412   0.12688   0.12915   0.13478   0.14076

 Mulliken charges:
               1
     1  C    0.604282
     2  C    0.520733
     3  C   -0.033645
     4  C    0.416635
     5  C    0.761739
     6  O   -0.637961
     7  C   -0.699587
     8  H   -0.222172
     9  H   -0.216032
    10  H   -0.237763
    11  H   -0.228175
    12  H   -0.163315
    13  H   -0.090475
    14  H    0.068776
    15  H    0.156962
 Sum of Mulliken charges =  -0.00000

 Dipole moment (field-independent basis, Debye):
    X=              2.3319    Y=              1.1852    Z=              0.3391  Tot=              2.6377

 Test job not archived.
 1\1\GINC-SE220\SP\RHF\Aug-CC-pVDZ\C6H8O1\OHZDE\09-Apr-2025\0\\#t hf au
 g-cc-pvdz iop(5/13=1,5/36=2,99/5=2) pseudo=read geom=check guess=(read
 ,tcheck) scf=(maxcycle=1)\\title\\0,1\C,0,-1.78017358,0.12079157,-0.66
 772586\C,0,-1.65519583,-0.29110814,0.73628044\C,0,-0.3922634,0.0476383
 1,-0.04336095\C,0,0.79597316,-0.82766734,-0.41506726\C,0,1.59770897,0.
 32657764,0.24233881\O,0,2.83960889,0.7222228,-0.2438172\C,0,0.40924981
 ,1.24325645,0.20988556\H,0,-1.98542839,-0.63572925,-1.41354537\H,0,-2.
 13824548,1.11639327,-0.89048025\H,0,-1.93981838,0.4035409,1.51400825\H

 Normal termination of Gaussian 16 at Wed Apr  9 15:46:09 2025.
