 Gaussian 16, Revision C.01,

 ----------------------------------------------------------------------
 #t hf aug-cc-pvdz symm=none int=(grid=ultrafine) guess=(read,tcheck) s
 table=(opt,rrhf)
 ----------------------------------------------------------------------
 -----
 title
 -----
 Symbolic Z-matrix:
 Charge =  0 Multiplicity = 1

 SCF Done:  E(RHF) =  -305.755830783     A.U. after   14 cycles
 Normal termination of Gaussian 16 at Wed Apr  9 14:18:16 2025.
 Gaussian 16:  ES64L-G16RevC.01  3-Jul-2019

 ----------------------------------------------------------------------
 #t hf aug-cc-pvdz iop(5/13=1,5/36=2,99/5=2) pseudo=read geom=check gue
 ss=(read,tcheck) scf=(maxcycle=1)
 ----------------------------------------------------------------------
 -----
 title
 -----
 Structure from the checkpoint file:  "Grambow2020_b97d3_007090_reverse_mol1.chk"
 Charge =  0 Multiplicity = 1

                         Standard orientation:
 ---------------------------------------------------------------------
 Center     Atomic      Atomic             Coordinates (Angstroms)
 Number     Number       Type             X           Y           Z
 ---------------------------------------------------------------------
      1          6           0        0.887977    1.453545   -0.258982
      2          6           0        0.675480    0.044508    0.281079
      3          6           0        1.927485   -0.819755    0.264532
      4          8           0       -0.301581   -0.669470   -0.606998
      5          6           0       -1.592241   -0.511002   -0.388654
      6          8           0       -1.999065    0.283739    0.583916
      7          1           0        1.649367    1.970595    0.342576
      8          1           0        1.237113    1.414804   -1.299702
      9          1           0       -0.042146    2.031389   -0.214461
     10          1           0        0.235180    0.079645    1.284689
     11          1           0        1.710803   -1.831907    0.629218
     12          1           0        2.693800   -0.372522    0.913071
     13          1           0        2.333730   -0.893901   -0.753213
     14          1           0       -2.804883   -0.316035   -0.105366
 ---------------------------------------------------------------------

 SCF Done:  E(RHF) =  -305.853967934     A.U. after    2 cycles

 The electronic state is 1-A.
 Alpha  occ. eigenvalues --  -20.62697 -20.60125 -11.37926 -11.31613 -11.24232
 Alpha  occ. eigenvalues --  -11.23974  -1.41928  -1.33699  -1.06968  -0.94819
 Alpha  occ. eigenvalues --   -0.86194  -0.78474  -0.75793  -0.68217  -0.65751
 Alpha  occ. eigenvalues --   -0.61831  -0.57635  -0.56694  -0.55750  -0.54494
 Alpha  occ. eigenvalues --   -0.52653  -0.49885  -0.48363  -0.38561
 Alpha virt. eigenvalues --    0.03515   0.04688   0.04764   0.05028   0.06513
 Alpha virt. eigenvalues --    0.07315   0.07498   0.07780   0.10230   0.10972
 Alpha virt. eigenvalues --    0.12933   0.14176   0.14251   0.14805   0.15561

 Mulliken charges:
               1
     1  C    0.374031
     2  C   -0.171269
     3  C    0.468581
     4  O   -0.491497
     5  C    0.126093
     6  O   -0.625357
     7  H    0.008008
     8  H    0.034856
     9  H   -0.069636
    10  H   -0.109568
    11  H   -0.035260
    12  H    0.030043
    13  H    0.007726
    14  H    0.453248
 Sum of Mulliken charges =  -0.00000

 Dipole moment (field-independent basis, Debye):
    X=              1.5559    Y=              0.3671    Z=              0.3983  Tot=              1.6475

 Test job not archived.
 1\1\GINC-SE120\SP\RHF\Aug-CC-pVDZ\C4H8O2\OHZDE\09-Apr-2025\0\\#t hf au
 g-cc-pvdz iop(5/13=1,5/36=2,99/5=2) pseudo=read geom=check guess=(read
 ,tcheck) scf=(maxcycle=1)\\title\\0,1\C,0,0.23438468,1.39987288,0.0328
 106\C,0,-0.25582805,-0.02449192,-0.19758078\C,0,-1.7339819,-0.22598309
 ,0.10108972\O,0,0.46095424,-0.94005792,0.75165812\C,0,1.64422513,-1.41
 051078,0.40941224\O,0,2.18307202,-1.05304494,-0.74161924\H,0,-0.325978
 47,2.0937283,-0.61021764\H,0,0.07577519,1.69355504,1.07927572\H,0,1.30
 02865,1.48768424,-0.20626696\H,0,-0.0113089,-0.35571746,-1.2138643\H,0

 Normal termination of Gaussian 16 at Wed Apr  9 14:18:21 2025.
