 Gaussian 16, Revision C.01,

 ----------------------------------------------------------------------
 #t hf aug-cc-pvdz symm=none int=(grid=ultrafine) guess=(read,tcheck) s
 table=(opt,rrhf)
 ----------------------------------------------------------------------
 -----
 title
 -----
 Symbolic Z-matrix:
 Charge =  0 Multiplicity = 1

 SCF Done:  E(RHF) =  -194.968727575     A.U. after   14 cycles
 Normal termination of Gaussian 16 at Wed Apr  9 03:06:34 2025.
 Gaussian 16:  ES64L-G16RevC.01  3-Jul-2019

 ----------------------------------------------------------------------
 #t hf aug-cc-pvdz iop(5/13=1,5/36=2,99/5=2) pseudo=read geom=check gue
 ss=(read,tcheck) scf=(maxcycle=1)
 ----------------------------------------------------------------------
 -----
 title
 -----
 Structure from the checkpoint file:  "Grambow2020_b97d3_006580_reverse_mol1.chk"
 Charge =  0 Multiplicity = 1

                         Standard orientation:
 ---------------------------------------------------------------------
 Center     Atomic      Atomic             Coordinates (Angstroms)
 Number     Number       Type             X           Y           Z
 ---------------------------------------------------------------------
      1          6           0        2.018596    0.449118    0.093416
      2          6           0        0.280743   -0.881636   -0.692054
      3          6           0       -0.496330   -1.227503    0.549411
      4          6           0       -0.978965   -0.129090   -0.370039
      5          6           0       -1.107020    1.300865    0.126868
      6          1           0        1.813766    0.299620    1.152955
      7          1           0        1.764275    1.447858   -0.265950
      8          1           0        3.032634    0.139646   -0.184267
      9          1           0        1.411262   -0.450874   -0.732608
     10          1           0       -0.973025   -2.212203    0.562626
     11          1           0       -0.143894   -0.907012    1.531982
     12          1           0       -1.769993   -0.396831   -1.082639
     13          1           0       -2.116933    1.477028    0.526109
     14          1           0       -0.388615    1.508823    0.930100
     15          1           0       -0.931616    2.023414   -0.683918
 ---------------------------------------------------------------------

 SCF Done:  E(RHF) =  -195.030269068     A.U. after    2 cycles

 The electronic state is 1-A.
 Alpha  occ. eigenvalues --  -11.26518 -11.26273 -11.24542 -11.23738 -11.23647
 Alpha  occ. eigenvalues --   -1.13463  -0.96290  -0.95008  -0.80035  -0.74600
 Alpha  occ. eigenvalues --   -0.64368  -0.62326  -0.58778  -0.58207  -0.56240
 Alpha  occ. eigenvalues --   -0.54193  -0.49955  -0.43765  -0.41726  -0.30723
 Alpha virt. eigenvalues --    0.03334   0.04366   0.04793   0.04883   0.06406
 Alpha virt. eigenvalues --    0.06570   0.06829   0.07581   0.08104   0.09639
 Alpha virt. eigenvalues --    0.09760   0.11844   0.13005   0.14938   0.15621

 Mulliken charges:
               1
     1  C    0.250352
     2  C   -0.204606
     3  C    0.786131
     4  C    0.429980
     5  C    0.280271
     6  H   -0.129491
     7  H   -0.059583
     8  H   -0.205802
     9  H   -0.049877
    10  H   -0.306109
    11  H   -0.336638
    12  H   -0.296618
    13  H   -0.051444
    14  H   -0.132515
    15  H    0.025949
 Sum of Mulliken charges =  -0.00000

 Dipole moment (field-independent basis, Debye):
    X=              0.1127    Y=              1.3407    Z=              1.3321  Tot=              1.8933

 Test job not archived.
 1\1\GINC-SE159\SP\RHF\Aug-CC-pVDZ\C5H10\OHZDE\09-Apr-2025\0\\#t hf aug
 -cc-pvdz iop(5/13=1,5/36=2,99/5=2) pseudo=read geom=check guess=(read,
 tcheck) scf=(maxcycle=1)\\title\\0,1\C,0,1.61857392,-1.11026324,0.0684
 2935\C,0,0.59915516,0.83231689,0.83990392\C,0,0.11318539,1.50582053,-0
 .41505764\C,0,-0.84507974,0.71289657,0.44391568\C,0,-1.55956459,-0.507
 55465,-0.11114952\H,0,1.55206012,-0.86701224,-0.99144535\H,0,0.9365579
 5,-1.90333515,0.38018933\H,0,2.65094676,-1.28084465,0.39440619\H,0,1.4
 2488042,-0.05039407,0.90527827\H,0,0.11523253,2.59989369,-0.40831728\H

 Normal termination of Gaussian 16 at Wed Apr  9 03:06:38 2025.
