 Gaussian 16, Revision C.01,

 ----------------------------------------------------------------------
 #t hf aug-cc-pvdz symm=none int=(grid=ultrafine) guess=(read,tcheck) s
 table=(opt,rrhf)
 ----------------------------------------------------------------------
 -----
 title
 -----
 Symbolic Z-matrix:
 Charge =  0 Multiplicity = 1

 SCF Done:  E(RHF) =  -308.920267692     A.U. after   15 cycles

 1\1\GINC-SE015\Stability\RHF\Aug-CC-pVDZ\C6H12O1\OHZDE\09-Apr-2025\0\\
 #t hf aug-cc-pvdz symm=none int=(grid=ultrafine) guess=(read,tcheck) s
 table=(opt,rrhf)\\title\\0,1\C,0,2.49995553,-0.83496954,0.0293111\O,0,
 1.49057257,-0.09496733,-0.63443315\C,0,0.79373638,0.73288924,0.1582874
 4\C,0,-0.23975122,1.52570128,-0.61042544\C,0,-1.45850597,1.24414435,0.
 26532388\C,0,-1.06025441,-0.14681252,0.7341062\C,0,-1.28290177,-1.2949
 7703,-0.20731027\H,0,2.04668771,-1.56860694,0.70418253\H,0,3.14703482,
 -0.17003827,0.60392265\H,0,3.07137411,-1.35766356,-0.73595995\H,0,0.29

 Normal termination of Gaussian 16 at Wed Apr  9 03:54:05 2025.
 Gaussian 16:  ES64L-G16RevC.01  3-Jul-2019

 ----------------------------------------------------------------------
 #t hf aug-cc-pvdz iop(5/13=1,5/36=2,99/5=2) pseudo=read geom=check gue
 ss=(read,tcheck) scf=(maxcycle=1)
 ----------------------------------------------------------------------
 -----
 title
 -----
 Structure from the checkpoint file:  "Grambow2020_wb97xd3_008406_forward_mol1.chk"
 Charge =  0 Multiplicity = 1

                         Standard orientation:
 ---------------------------------------------------------------------
 Center     Atomic      Atomic             Coordinates (Angstroms)
 Number     Number       Type             X           Y           Z
 ---------------------------------------------------------------------
      1          6           0       -2.537830    0.258529    0.244243
      2          8           0       -1.418873   -0.262467   -0.451107
      3          6           0       -0.456736   -0.764396    0.337368
      4          6           0        0.691567   -1.342811   -0.459127
      5          6           0        1.849614   -0.634867    0.240384
      6          6           0        1.117625    0.646542    0.608226
      7          6           0        0.933635    1.681800   -0.463457
      8          1           0       -2.254748    1.167094    0.786002
      9          1           0       -2.924619   -0.476186    0.952488
     10          1           0       -3.292452    0.506240   -0.500441
     11          1           0       -0.043028   -0.013776    1.173588
     12          1           0        0.706962   -2.434592   -0.456390
     13          1           0        0.627543   -1.015109   -1.502555
     14          1           0        2.747528   -0.496811   -0.367280
     15          1           0        2.142532   -1.170627    1.145278
     16          1           0        1.385559    1.085021    1.572277
     17          1           0        1.898732    2.088005   -0.785661
     18          1           0        0.439067    1.272859   -1.348435
     19          1           0        0.330655    2.518827   -0.105832
 ---------------------------------------------------------------------

 SCF Done:  E(RHF) =  -309.018061986     A.U. after    2 cycles

 The electronic state is 1-A.
 Alpha  occ. eigenvalues --  -20.59337 -11.28441 -11.28411 -11.25616 -11.23229
 Alpha  occ. eigenvalues --  -11.22804 -11.22561  -1.36751  -1.10667  -0.99383
 Alpha  occ. eigenvalues --   -0.95573  -0.87140  -0.84186  -0.74474  -0.68673
 Alpha  occ. eigenvalues --   -0.66726  -0.65097  -0.63534  -0.57295  -0.55911
 Alpha  occ. eigenvalues --   -0.54529  -0.54317  -0.51262  -0.50753  -0.47950
 Alpha  occ. eigenvalues --   -0.46970  -0.45740  -0.27405
 Alpha virt. eigenvalues --    0.03390   0.04305   0.04569   0.04652   0.06218
 Alpha virt. eigenvalues --    0.06422   0.06709   0.06824   0.07379   0.08943
 Alpha virt. eigenvalues --    0.09419   0.10013   0.11461   0.12426   0.13836

 Mulliken charges:
               1
     1  C    0.761203
     2  O   -0.597027
     3  C   -0.069294
     4  C    0.370967
     5  C    0.614688
     6  C   -0.120217
     7  C    0.505055
     8  H   -0.092395
     9  H   -0.054386
    10  H   -0.256703
    11  H    0.118648
    12  H   -0.122722
    13  H   -0.163914
    14  H   -0.206654
    15  H   -0.114477
    16  H   -0.357417
    17  H   -0.031985
    18  H   -0.085274
    19  H   -0.098096
 Sum of Mulliken charges =  -0.00000

 Dipole moment (field-independent basis, Debye):
    X=              0.3259    Y=              1.2916    Z=              0.4313  Tot=              1.4002

 Test job not archived.
 1\1\GINC-SE015\SP\RHF\Aug-CC-pVDZ\C6H12O1\OHZDE\09-Apr-2025\0\\#t hf a
 ug-cc-pvdz iop(5/13=1,5/36=2,99/5=2) pseudo=read geom=check guess=(rea
 d,tcheck) scf=(maxcycle=1)\\title\\0,1\C,0,2.49995553,-0.83496954,0.02
 93111\O,0,1.49057257,-0.09496733,-0.63443315\C,0,0.79373638,0.73288924
 ,0.15828744\C,0,-0.23975122,1.52570128,-0.61042544\C,0,-1.45850597,1.2
 4414435,0.26532388\C,0,-1.06025441,-0.14681252,0.7341062\C,0,-1.282901
 77,-1.29497703,-0.20731027\H,0,2.04668771,-1.56860694,0.70418253\H,0,3
 .14703482,-0.17003827,0.60392265\H,0,3.07137411,-1.35766356,-0.7359599

 Normal termination of Gaussian 16 at Wed Apr  9 03:54:13 2025.
