 Gaussian 16, Revision C.01,

 ----------------------------------------------------------------------
 #t hf aug-cc-pvdz symm=none int=(grid=ultrafine) guess=(read,tcheck) s
 table=(opt,rrhf)
 ----------------------------------------------------------------------
 -----
 title
 -----
 Symbolic Z-matrix:
 Charge =  0 Multiplicity = 1

 SCF Done:  E(RHF) =  -342.411024553     A.U. after   17 cycles
 Normal termination of Gaussian 16 at Wed Apr  9 03:58:38 2025.
 Gaussian 16:  ES64L-G16RevC.01  3-Jul-2019

 ----------------------------------------------------------------------
 #t hf aug-cc-pvdz iop(5/13=1,5/36=2,99/5=2) pseudo=read geom=check gue
 ss=(read,tcheck) scf=(maxcycle=1)
 ----------------------------------------------------------------------
 -----
 title
 -----
 Structure from the checkpoint file:  "Grambow2020_wb97xd3_008764_reverse_mol2.chk"
 Charge =  0 Multiplicity = 1

                         Standard orientation:
 ---------------------------------------------------------------------
 Center     Atomic      Atomic             Coordinates (Angstroms)
 Number     Number       Type             X           Y           Z
 ---------------------------------------------------------------------
      1          8           0       -2.582308   -0.842441   -0.228222
      2          6           0       -1.625235   -0.374218    0.321155
      3          6           0       -0.782656    0.688624   -0.303135
      4          8           0        0.107276    1.376094    0.559714
      5          6           0        2.885022   -0.728570    0.084526
      6          6           0        1.441061   -0.668566    0.095467
      7          6           0        0.678807    0.531789   -0.411190
      8          1           0       -1.310547   -0.699353    1.332641
      9          1           0       -1.295238    1.293279   -1.046707
     10          1           0        3.229316    0.008584   -0.670006
     11          1           0        1.466017   -1.467826   -0.703340
     12          1           0        0.967664   -1.154606    0.950386
     13          1           0        1.161046    1.056341   -1.235849
 ---------------------------------------------------------------------

 SCF Done:  E(RHF) =  -342.515765528     A.U. after    2 cycles

 The electronic state is 1-A.
 Alpha  occ. eigenvalues --  -20.62483 -20.59712 -11.36599 -11.34038 -11.32987
 Alpha  occ. eigenvalues --  -11.29576 -11.28474  -1.43016  -1.38667  -1.09762
 Alpha  occ. eigenvalues --   -0.99366  -0.91750  -0.84304  -0.79185  -0.73637
 Alpha  occ. eigenvalues --   -0.71977  -0.68296  -0.63468  -0.61692  -0.58774
 Alpha  occ. eigenvalues --   -0.56960  -0.55092  -0.52311  -0.47351  -0.45616
 Alpha  occ. eigenvalues --   -0.37997
 Alpha virt. eigenvalues --    0.02960   0.04120   0.04496   0.04704   0.05566
 Alpha virt. eigenvalues --    0.06599   0.06912   0.08473   0.09830   0.10755
 Alpha virt. eigenvalues --    0.11465   0.12624   0.13287   0.13672   0.14316

 Mulliken charges:
               1
     1  O   -0.462214
     2  C    0.690720
     3  C    0.557922
     4  O   -0.707070
     5  C   -0.075332
     6  C    0.043754
     7  C    0.560585
     8  H   -0.035160
     9  H   -0.249445
    10  H   -0.118326
    11  H    0.280580
    12  H   -0.135417
    13  H   -0.350598
 Sum of Mulliken charges =  -0.00000

 Dipole moment (field-independent basis, Debye):
    X=              0.9281    Y=              0.9662    Z=             -1.4730  Tot=              1.9911

 Test job not archived.
 1\1\GINC-SE339\SP\RHF\Aug-CC-pVDZ\C5H6O2\OHZDE\09-Apr-2025\0\\#t hf au
 g-cc-pvdz iop(5/13=1,5/36=2,99/5=2) pseudo=read geom=check guess=(read
 ,tcheck) scf=(maxcycle=1)\\title\\0,1\O,0,1.83058042,2.07196104,-1.207
 07895\C,0,1.58189548,1.18194286,-0.44349513\C,0,1.02917712,-0.12990205
 ,-0.89391364\O,0,1.08233661,-1.19201133,0.04321007\C,0,-2.08178624,-0.
 65852976,1.48369994\C,0,-0.96395349,-0.01995763,0.82687431\C,0,-0.1909
 184,-0.68822716,-0.28416845\H,0,1.75386022,1.27773783,0.64696216\H,0,1
 .25694596,-0.38628113,-1.92524215\H,0,-2.45437988,-1.44110876,0.790882

 Normal termination of Gaussian 16 at Wed Apr  9 03:58:42 2025.
