 Gaussian 16, Revision C.01,

 ----------------------------------------------------------------------
 #t hf aug-cc-pvdz symm=none int=(grid=ultrafine) guess=(read,tcheck) s
 table=(opt,rrhf)
 ----------------------------------------------------------------------
 -----
 title
 -----
 Symbolic Z-matrix:
 Charge =  0 Multiplicity = 1

 SCF Done:  E(RHF) =  -287.987736806     A.U. after   13 cycles

 1\1\GINC-SE412\Stability\RHF\Aug-CC-pVDZ\C6H11N1\OHZDE\09-Apr-2025\0\\
 #t hf aug-cc-pvdz symm=none int=(grid=ultrafine) guess=(read,tcheck) s
 table=(opt,rrhf)\\title\\0,1\C,0,3.13543179,-0.81144992,-0.41016086\C,
 0,1.8792559,-1.08144773,-0.72261151\C,0,-1.18967102,0.68248667,0.49356
 82\C,0,-1.67450489,-0.73195764,0.69678484\C,0,-1.77301016,1.39321618,-
 0.70260798\C,0,0.02955905,1.15139945,1.11610401\N,0,-0.9802605,1.51728
 337,1.75093588\H,0,3.60431093,-1.23389458,0.47130656\H,0,1.10741792,1.
 23715915,1.16920373\H,0,3.74826183,-0.16199875,-1.02489514\H,0,1.26760

 Normal termination of Gaussian 16 at Wed Apr  9 03:40:35 2025.
 Gaussian 16:  ES64L-G16RevC.01  3-Jul-2019

 ----------------------------------------------------------------------
 #t hf aug-cc-pvdz iop(5/13=1,5/36=2,99/5=2) pseudo=read geom=check gue
 ss=(read,tcheck) scf=(maxcycle=1)
 ----------------------------------------------------------------------
 -----
 title
 -----
 Structure from the checkpoint file:  "Grambow2020_wb97xd3_007530_reverse_mol2.chk"
 Charge =  0 Multiplicity = 1

                         Standard orientation:
 ---------------------------------------------------------------------
 Center     Atomic      Atomic             Coordinates (Angstroms)
 Number     Number       Type             X           Y           Z
 ---------------------------------------------------------------------
      1          6           0       -3.437116    0.263405    0.121525
      2          6           0       -2.474057   -0.641639    0.077789
      3          6           0        1.216364   -0.023832   -0.011536
      4          6           0        1.157132   -1.058607   -1.108234
      5          6           0        1.761571   -0.517914    1.305616
      6          6           0        0.427306    1.187048   -0.083011
      7          7           0        1.609139    1.388060   -0.428671
      8          1           0       -3.835456    0.712238   -0.781341
      9          1           0       -0.499662    1.735296    0.027035
     10          1           0       -3.870658    0.588818    1.060351
     11          1           0       -2.042627   -0.968627   -0.861569
     12          1           0       -2.075142   -1.092988    0.979342
     13          1           0        0.759273   -0.635642   -2.030829
     14          1           0        2.156130   -1.451431   -1.316965
     15          1           0        0.526614   -1.902721   -0.815659
     16          1           0        2.757654   -0.948712    1.171630
     17          1           0        1.834975    0.292465    2.030794
     18          1           0        1.117730   -1.295887    1.725011
 ---------------------------------------------------------------------

 SCF Done:  E(RHF) =  -288.077702807     A.U. after    2 cycles

 The electronic state is 1-A.
 Alpha  occ. eigenvalues --  -15.64108 -11.29137 -11.28429 -11.25051 -11.24863
 Alpha  occ. eigenvalues --  -11.22861 -11.22794  -1.28276  -1.04108  -1.01997
 Alpha  occ. eigenvalues --   -0.94188  -0.80226  -0.78899  -0.76665  -0.65695
 Alpha  occ. eigenvalues --   -0.64067  -0.61065  -0.60451  -0.59648  -0.56182
 Alpha  occ. eigenvalues --   -0.54362  -0.51599  -0.51334  -0.49960  -0.40916
 Alpha  occ. eigenvalues --   -0.39261  -0.37642
 Alpha virt. eigenvalues --    0.03239   0.03890   0.04199   0.05276   0.05758
 Alpha virt. eigenvalues --    0.05920   0.06843   0.07186   0.08058   0.08243
 Alpha virt. eigenvalues --    0.09866   0.10793   0.11472   0.12283   0.12694

 Mulliken charges:
               1
     1  C    0.514406
     2  C    0.762237
     3  C   -0.295140
     4  C    0.533132
     5  C    0.472521
     6  C    0.311812
     7  N   -0.755434
     8  H   -0.273212
     9  H   -0.141732
    10  H   -0.278006
    11  H   -0.387174
    12  H   -0.324398
    13  H   -0.057365
    14  H   -0.014397
    15  H    0.002337
    16  H    0.008027
    17  H   -0.056986
    18  H   -0.020628
 Sum of Mulliken charges =   0.00000

 Dipole moment (field-independent basis, Debye):
    X=             -2.0284    Y=             -1.1591    Z=              0.7574  Tot=              2.4560

 Test job not archived.
 1\1\GINC-SE412\SP\RHF\Aug-CC-pVDZ\C6H11N1\OHZDE\09-Apr-2025\0\\#t hf a
 ug-cc-pvdz iop(5/13=1,5/36=2,99/5=2) pseudo=read geom=check guess=(rea
 d,tcheck) scf=(maxcycle=1)\\title\\0,1\C,0,3.13543179,-0.81144992,-0.4
 1016086\C,0,1.8792559,-1.08144773,-0.72261151\C,0,-1.18967102,0.682486
 67,0.4935682\C,0,-1.67450489,-0.73195764,0.69678484\C,0,-1.77301016,1.
 39321618,-0.70260798\C,0,0.02955905,1.15139945,1.11610401\N,0,-0.98026
 05,1.51728337,1.75093588\H,0,3.60431093,-1.23389458,0.47130656\H,0,1.1
 0741792,1.23715915,1.16920373\H,0,3.74826183,-0.16199875,-1.02489514\H

 Normal termination of Gaussian 16 at Wed Apr  9 03:40:41 2025.
