 Gaussian 16, Revision C.01,

 ----------------------------------------------------------------------
 #t hf aug-cc-pvdz symm=none int=(grid=ultrafine) guess=(read,tcheck) s
 table=(opt,rrhf)
 ----------------------------------------------------------------------
 -----
 title
 -----
 Symbolic Z-matrix:
 Charge =  0 Multiplicity = 1

 SCF Done:  E(RHF) =  -341.304653541     A.U. after   15 cycles
 Normal termination of Gaussian 16 at Wed Apr  9 16:58:02 2025.
 Gaussian 16:  ES64L-G16RevC.01  3-Jul-2019

 ----------------------------------------------------------------------
 #t hf aug-cc-pvdz iop(5/13=1,5/36=2,99/5=2) pseudo=read geom=check gue
 ss=(read,tcheck) scf=(maxcycle=1)
 ----------------------------------------------------------------------
 -----
 title
 -----
 Structure from the checkpoint file:  "Grambow2020_wb97xd3_009094_forward_mol1.chk"
 Charge =  0 Multiplicity = 1

                         Standard orientation:
 ---------------------------------------------------------------------
 Center     Atomic      Atomic             Coordinates (Angstroms)
 Number     Number       Type             X           Y           Z
 ---------------------------------------------------------------------
      1          8           0        1.716629    1.503941   -0.193564
      2          6           0        1.113939    0.542696   -0.087562
      3          6           0       -2.066772    0.977940    0.306723
      4          6           0       -1.931181   -0.224562   -0.247251
      5          6           0       -0.797055   -1.121925   -0.065949
      6          6           0        0.467785   -0.691794    0.034994
      7          8           0        1.687589   -1.138448    0.216454
      8          1           0       -1.350758    1.367038    1.022488
      9          1           0       -2.921199    1.603204    0.082162
     10          1           0       -2.724964   -0.594735   -0.890276
     11          1           0       -0.957111   -2.193573   -0.043227
 ---------------------------------------------------------------------

 SCF Done:  E(RHF) =  -341.412024114     A.U. after    2 cycles

 The electronic state is 1-A.
 Alpha  occ. eigenvalues --  -20.70611 -20.57012 -11.48045 -11.36556 -11.27588
 Alpha  occ. eigenvalues --  -11.27504 -11.25980  -1.51463  -1.36234  -1.11288
 Alpha  occ. eigenvalues --   -1.01331  -0.94046  -0.83123  -0.80219  -0.71320
 Alpha  occ. eigenvalues --   -0.70537  -0.69114  -0.67992  -0.63042  -0.59115
 Alpha  occ. eigenvalues --   -0.57409  -0.53759  -0.45423  -0.43793  -0.33450
 Alpha virt. eigenvalues --    0.02852   0.03154   0.04095   0.04824   0.06405
 Alpha virt. eigenvalues --    0.07335   0.09072   0.10694   0.11049   0.11912
 Alpha virt. eigenvalues --    0.12711   0.13107   0.14072   0.14716   0.15145

 Mulliken charges:
               1
     1  O   -0.130200
     2  C   -0.247972
     3  C    0.546151
     4  C    0.567548
     5  C    0.665646
     6  C    0.689346
     7  O   -0.746974
     8  H   -0.312709
     9  H   -0.303316
    10  H   -0.348420
    11  H   -0.379097
 Sum of Mulliken charges =  -0.00000

 Dipole moment (field-independent basis, Debye):
    X=             -3.5689    Y=              1.2129    Z=             -0.5337  Tot=              3.8069

 Test job not archived.
 1\1\GINC-SE220\SP\RHF\Aug-CC-pVDZ\C5H4O2\OHZDE\09-Apr-2025\0\\#t hf au
 g-cc-pvdz iop(5/13=1,5/36=2,99/5=2) pseudo=read geom=check guess=(read
 ,tcheck) scf=(maxcycle=1)\\title\\0,1\O,0,-0.09138252,2.8270131,-0.366
 54335\C,0,0.40274814,1.85073565,-0.0484549\C,0,-1.52610166,-0.74284729
 ,-0.16965429\C,0,-0.28711821,-1.20494216,-0.32022683\C,0,0.9168531,-0.
 61306099,0.24942339\C,0,1.09957992,0.70943336,0.36185771\O,0,1.9668273
 7,1.58696774,0.80701433\H,0,-1.75288155,0.0996963,0.47461603\H,0,-2.36
 292918,-1.21589539,-0.6670198\H,0,-0.13441551,-2.10454231,-0.91014297\

 Normal termination of Gaussian 16 at Wed Apr  9 16:58:06 2025.
