 Gaussian 16, Revision C.01,

 ----------------------------------------------------------------------
 #t hf aug-cc-pvdz symm=none int=(grid=ultrafine) guess=(read,tcheck) s
 table=(opt,rrhf)
 ----------------------------------------------------------------------
 -----
 title
 -----
 Symbolic Z-matrix:
 Charge =  0 Multiplicity = 1

 SCF Done:  E(RHF) =  -354.564392390     A.U. after   16 cycles
 Normal termination of Gaussian 16 at Wed Apr  9 03:39:14 2025.
 Gaussian 16:  ES64L-G16RevC.01  3-Jul-2019

 ----------------------------------------------------------------------
 #t hf aug-cc-pvdz iop(5/13=1,5/36=2,99/5=2) pseudo=read geom=check gue
 ss=(read,tcheck) scf=(maxcycle=1)
 ----------------------------------------------------------------------
 -----
 title
 -----
 Structure from the checkpoint file:  "Grambow2020_wb97xd3_007475_forward_mol1.chk"
 Charge =  0 Multiplicity = 1

                         Standard orientation:
 ---------------------------------------------------------------------
 Center     Atomic      Atomic             Coordinates (Angstroms)
 Number     Number       Type             X           Y           Z
 ---------------------------------------------------------------------
      1          7           0       -2.355169   -0.166884   -0.036209
      2          6           0       -1.045258   -0.130871    0.098517
      3          6           0       -0.316521    1.164774    0.461900
      4          7           0        0.647352    1.101822   -0.566977
      5          6           0        1.122771   -0.139821    0.134994
      6          8           0        2.273421   -0.561791    0.082173
      7          7           0       -0.137262   -1.028554   -0.102557
      8          1           0       -2.846612   -0.969720   -0.385496
      9          1           0       -2.872902    0.666101    0.185560
     10          1           0        0.720425    0.208186    1.282061
     11          1           0        1.346311    1.828145   -0.458940
     12          1           0       -0.184994   -1.947565   -0.512845
 ---------------------------------------------------------------------

 SCF Done:  E(RHF) =  -354.668245131     A.U. after    2 cycles

 The electronic state is 1-A.
 Alpha  occ. eigenvalues --  -20.48671 -15.72407 -15.68801 -15.63561 -11.40699
 Alpha  occ. eigenvalues --  -11.38958 -11.32567  -1.36174  -1.29643  -1.23720
 Alpha  occ. eigenvalues --   -1.17770  -0.94864  -0.87682  -0.81190  -0.77490
 Alpha  occ. eigenvalues --   -0.74662  -0.70316  -0.64286  -0.60111  -0.59535
 Alpha  occ. eigenvalues --   -0.56532  -0.49381  -0.45088  -0.41134  -0.39092
 Alpha  occ. eigenvalues --   -0.34064
 Alpha virt. eigenvalues --    0.00674   0.02928   0.04933   0.05921   0.06364
 Alpha virt. eigenvalues --    0.06746   0.09398   0.09712   0.10358   0.12294
 Alpha virt. eigenvalues --    0.12992   0.13436   0.14526   0.14983   0.16054

 Mulliken charges:
               1
     1  N   -0.185646
     2  C    1.036095
     3  C   -0.188754
     4  N   -0.533067
     5  C    0.723611
     6  O   -0.561239
     7  N   -0.438025
     8  H   -0.025018
     9  H    0.040688
    10  H    0.236289
    11  H    0.000519
    12  H   -0.105452
 Sum of Mulliken charges =  -0.00000

 Dipole moment (field-independent basis, Debye):
    X=             -8.6223    Y=             -1.3660    Z=             -1.0247  Tot=              8.7898

 Test job not archived.
 1\1\GINC-SE328\SP\RHF\Aug-CC-pVDZ\C3H5N3O1\OHZDE\09-Apr-2025\0\\#t hf
 aug-cc-pvdz iop(5/13=1,5/36=2,99/5=2) pseudo=read geom=check guess=(re
 ad,tcheck) scf=(maxcycle=1)\\title\\0,1\N,0,2.04207107,-0.02000966,0.0
 4080134\C,0,0.73344827,-0.06599463,-0.10309669\C,0,-0.11452685,1.20785
 724,-0.09682186\N,0,-1.06065808,0.7672359,0.85306784\C,0,-1.42470757,-
 0.26066886,-0.18198812\O,0,-2.53105194,-0.78268788,-0.27333434\N,0,-0.
 08624253,-1.06221039,-0.18300495\H,0,2.60816637,-0.8410941,0.15664413\
 H,0,2.47899308,0.88498774,0.07502255\H,0,-1.06490129,0.43474162,-1.174

 Normal termination of Gaussian 16 at Wed Apr  9 03:39:19 2025.
