 Gaussian 16, Revision C.01,

 ----------------------------------------------------------------------
 #t hf aug-cc-pvdz symm=none int=(grid=ultrafine) guess=(read,tcheck) s
 table=(opt,rrhf)
 ----------------------------------------------------------------------
 -----
 title
 -----
 Symbolic Z-matrix:
 Charge =  0 Multiplicity = 1

 SCF Done:  E(RHF) =  -339.246131329     A.U. after   16 cycles
 Normal termination of Gaussian 16 at Wed Apr  9 14:11:54 2025.
 Gaussian 16:  ES64L-G16RevC.01  3-Jul-2019

 ----------------------------------------------------------------------
 #t hf aug-cc-pvdz iop(5/13=1,5/36=2,99/5=2) pseudo=read geom=check gue
 ss=(read,tcheck) scf=(maxcycle=1)
 ----------------------------------------------------------------------
 -----
 title
 -----
 Structure from the checkpoint file:  "Grambow2020_b97d3_006818_forward_mol1.chk"
 Charge =  0 Multiplicity = 1

                         Standard orientation:
 ---------------------------------------------------------------------
 Center     Atomic      Atomic             Coordinates (Angstroms)
 Number     Number       Type             X           Y           Z
 ---------------------------------------------------------------------
      1          8           0       -2.343712   -0.765854   -0.455937
      2          6           0       -1.703068   -0.227794    0.440463
      3          6           0       -0.333174    0.256550    0.215974
      4          8           0       -0.067234    1.419603   -0.174497
      5          6           0        1.849114    0.009893   -0.005677
      6          8           0        2.664826   -0.813142   -0.013186
      7          1           0       -2.038409   -0.200559    1.506120
      8          1           0        1.130145    1.243808   -0.261724
 ---------------------------------------------------------------------

 SCF Done:  E(RHF) =  -339.351167241     A.U. after    2 cycles

 The electronic state is 1-A.
 Alpha  occ. eigenvalues --  -20.69280 -20.66289 -20.59201 -11.41996 -11.37391
 Alpha  occ. eigenvalues --  -11.35400  -1.48062  -1.42989  -1.36433  -0.97498
 Alpha  occ. eigenvalues --   -0.85399  -0.80313  -0.77642  -0.71829  -0.67607
 Alpha  occ. eigenvalues --   -0.67079  -0.65484  -0.60989  -0.57007  -0.54812
 Alpha  occ. eigenvalues --   -0.48262  -0.38041
 Alpha virt. eigenvalues --    0.03133   0.04392   0.04842   0.06566   0.07564
 Alpha virt. eigenvalues --    0.08826   0.09208   0.10471   0.11724   0.13016
 Alpha virt. eigenvalues --    0.13706   0.14494   0.15012   0.15737   0.16151

 Mulliken charges:
               1
     1  O   -0.493413
     2  C    0.759233
     3  C   -0.100300
     4  O   -0.593537
     5  C    0.126138
     6  O   -0.249669
     7  H   -0.025147
     8  H    0.576694
 Sum of Mulliken charges =  -0.00000

 Dipole moment (field-independent basis, Debye):
    X=              1.8845    Y=              1.7403    Z=              2.3148  Tot=              3.4552

 Test job not archived.
 1\1\GINC-SE162\SP\RHF\Aug-CC-pVDZ\C3H2O3\OHZDE\09-Apr-2025\0\\#t hf au
 g-cc-pvdz iop(5/13=1,5/36=2,99/5=2) pseudo=read geom=check guess=(read
 ,tcheck) scf=(maxcycle=1)\\title\\0,1\O,0,-2.26343229,0.18959299,1.007
 88778\C,0,-1.21998589,0.79929418,0.80064002\C,0,-0.1568489,0.23062749,
 -0.04075923\O,0,-0.08370043,0.41588141,-1.28020015\C,0,1.56048386,-1.0
 961181,-0.44432472\O,0,2.20761795,-1.91002974,0.06713833\H,0,-0.936914
 05,1.73645907,1.339538\H,0,0.87489174,-0.30804331,-1.45126303\\Version
 =ES64L-G16RevC.01\State=1-A\HF=-339.3511672\RMSD=3.461e-03\Dipole=1.14

 Normal termination of Gaussian 16 at Wed Apr  9 14:11:56 2025.
