 Gaussian 16, Revision C.01,

 ----------------------------------------------------------------------
 #t hf aug-cc-pvdz symm=none int=(grid=ultrafine) guess=(read,tcheck) s
 table=(opt,rrhf)
 ----------------------------------------------------------------------
 -----
 title
 -----
 Symbolic Z-matrix:
 Charge =  0 Multiplicity = 1

 SCF Done:  E(RHF) =  -302.765400948     A.U. after   15 cycles
 Normal termination of Gaussian 16 at Wed Apr  9 04:05:51 2025.
 Gaussian 16:  ES64L-G16RevC.01  3-Jul-2019

 ----------------------------------------------------------------------
 #t hf aug-cc-pvdz iop(5/13=1,5/36=2,99/5=2) pseudo=read geom=check gue
 ss=(read,tcheck) scf=(maxcycle=1)
 ----------------------------------------------------------------------
 -----
 title
 -----
 Structure from the checkpoint file:  "Grambow2020_wb97xd3_009323_forward_mol1.chk"
 Charge =  0 Multiplicity = 1

                         Standard orientation:
 ---------------------------------------------------------------------
 Center     Atomic      Atomic             Coordinates (Angstroms)
 Number     Number       Type             X           Y           Z
 ---------------------------------------------------------------------
      1          6           0        2.440679   -0.537790    0.002597
      2          7           0        1.060476   -0.117122   -0.032778
      3          6           0       -0.055812   -0.869527   -0.002369
      4          6           0       -1.153261   -0.051979    0.011445
      5          6           0       -2.589187   -0.464404   -0.015381
      6          6           0       -0.670770    1.290526    0.094891
      7          7           0        0.719984    1.196005    0.076496
      8          1           0        2.725722   -0.892345    0.995067
      9          1           0        3.055019    0.322068   -0.254086
     10          1           0        2.610400   -1.329555   -0.727344
     11          1           0        0.016756   -1.948276    0.011249
     12          1           0       -2.695644   -1.538778   -0.174814
     13          1           0       -3.121377    0.053616   -0.814763
     14          1           0       -3.087520   -0.211185    0.921764
     15          1           0        0.203536    1.791322   -0.810199
 ---------------------------------------------------------------------

 SCF Done:  E(RHF) =  -302.855217258     A.U. after    2 cycles

 The electronic state is 1-A.
 Alpha  occ. eigenvalues --  -15.70303 -15.68812 -11.29853 -11.29510 -11.24076
 Alpha  occ. eigenvalues --  -11.22781 -11.22716  -1.35377  -1.13243  -1.07390
 Alpha  occ. eigenvalues --   -0.97934  -0.91176  -0.80849  -0.76772  -0.70108
 Alpha  occ. eigenvalues --   -0.67440  -0.61186  -0.59382  -0.58692  -0.56309
 Alpha  occ. eigenvalues --   -0.54580  -0.53408  -0.47154  -0.41936  -0.34759
 Alpha  occ. eigenvalues --   -0.33163
 Alpha virt. eigenvalues --    0.02480   0.03787   0.04147   0.04885   0.06407
 Alpha virt. eigenvalues --    0.06662   0.07079   0.08655   0.10142   0.10512
 Alpha virt. eigenvalues --    0.11295   0.11531   0.13513   0.13830   0.14393

 Mulliken charges:
               1
     1  C    0.876911
     2  N   -0.393707
     3  C    0.804750
     4  C   -0.224393
     5  C    0.476573
     6  C   -0.428240
     7  N   -0.533545
     8  H   -0.085421
     9  H   -0.184589
    10  H   -0.146412
    11  H   -0.455880
    12  H   -0.085591
    13  H    0.011665
    14  H    0.051861
    15  H    0.316018
 Sum of Mulliken charges =  -0.00000

 Dipole moment (field-independent basis, Debye):
    X=              2.5546    Y=             -4.0610    Z=             -1.0598  Tot=              4.9133

 Test job not archived.
 1\1\GINC-SE058\SP\RHF\Aug-CC-pVDZ\C5H8N2\OHZDE\09-Apr-2025\0\\#t hf au
 g-cc-pvdz iop(5/13=1,5/36=2,99/5=2) pseudo=read geom=check guess=(read
 ,tcheck) scf=(maxcycle=1)\\title\\0,1\C,0,-2.47526807,-0.05476998,-0.4
 0166037\N,0,-1.09827975,0.17317919,-0.03407984\C,0,0.00090261,-0.51423
 262,-0.39794606\C,0,1.10917679,0.09026855,0.13051986\C,0,2.52679218,-0
 .37081118,0.02819648\C,0,0.66310546,1.28332255,0.77837998\N,0,-0.72374
 981,1.29625852,0.63718619\H,0,-2.66378077,0.22440246,-1.44015987\H,0,-
 3.09638519,0.55916483,0.24637737\H,0,-2.73371809,-1.10382512,-0.256069

 Normal termination of Gaussian 16 at Wed Apr  9 04:05:56 2025.
