 Gaussian 16, Revision C.01,

 ----------------------------------------------------------------------
 #t hf aug-cc-pvdz symm=none int=(grid=ultrafine) guess=(read,tcheck) s
 table=(opt,rrhf)
 ----------------------------------------------------------------------
 -----
 title
 -----
 Symbolic Z-matrix:
 Charge =  0 Multiplicity = 1

 SCF Done:  E(RHF) =  -343.542976893     A.U. after   17 cycles
 Normal termination of Gaussian 16 at Wed Apr  9 15:23:59 2025.
 Gaussian 16:  ES64L-G16RevC.01  3-Jul-2019

 ----------------------------------------------------------------------
 #t hf aug-cc-pvdz iop(5/13=1,5/36=2,99/5=2) pseudo=read geom=check gue
 ss=(read,tcheck) scf=(maxcycle=1)
 ----------------------------------------------------------------------
 -----
 title
 -----
 Structure from the checkpoint file:  "Grambow2020_wb97xd3_006880_forward_mol1.chk"
 Charge =  0 Multiplicity = 1

                         Standard orientation:
 ---------------------------------------------------------------------
 Center     Atomic      Atomic             Coordinates (Angstroms)
 Number     Number       Type             X           Y           Z
 ---------------------------------------------------------------------
      1          6           0       -0.582109    1.468142   -0.574278
      2          6           0       -0.639445    0.319452    0.220785
      3          6           0       -1.085438   -1.009317   -0.631976
      4          6           0       -1.974677   -0.486480    0.371719
      5          8           0        0.324231    0.132057    1.081156
      6          6           0        1.772484    0.257375    0.063690
      7          8           0        2.096189   -0.818490   -0.391711
      8          1           0       -1.166415    1.563388   -1.482432
      9          1           0        1.149506    0.987557   -0.651864
     10          1           0       -0.138435    2.371362   -0.176437
     11          1           0       -1.296255   -0.840789   -1.678463
     12          1           0       -0.402007   -1.809900   -0.392591
     13          1           0       -2.876604    0.031255    0.078599
     14          1           0       -1.994625   -0.954040    1.346730
     15          1           0        2.416576    0.847603    0.741261
 ---------------------------------------------------------------------

 SCF Done:  E(RHF) =  -343.650597486     A.U. after    2 cycles

 The electronic state is 1-A.
 Alpha  occ. eigenvalues --  -20.53389 -20.49500 -11.34327 -11.33400 -11.33022
 Alpha  occ. eigenvalues --  -11.30353 -11.29471  -1.33330  -1.28545  -1.14964
 Alpha  occ. eigenvalues --   -1.02539  -0.86894  -0.83338  -0.78033  -0.71722
 Alpha  occ. eigenvalues --   -0.70270  -0.65010  -0.63666  -0.61957  -0.59309
 Alpha  occ. eigenvalues --   -0.57251  -0.55259  -0.53914  -0.47738  -0.41662
 Alpha  occ. eigenvalues --   -0.37713  -0.34541
 Alpha virt. eigenvalues --   -0.00342   0.02212   0.03568   0.04315   0.05060
 Alpha virt. eigenvalues --    0.06068   0.06879   0.07412   0.07666   0.08946
 Alpha virt. eigenvalues --    0.12049   0.12539   0.13547   0.13704   0.14097

 Mulliken charges:
               1
     1  C    0.462205
     2  C    0.038940
     3  C    0.721272
     4  C    0.981682
     5  O   -0.821532
     6  C    0.784725
     7  O   -0.591857
     8  H   -0.293634
     9  H   -0.030110
    10  H   -0.140242
    11  H   -0.285000
    12  H   -0.145257
    13  H   -0.328306
    14  H   -0.197753
    15  H   -0.155131
 Sum of Mulliken charges =   0.00000

 Dipole moment (field-independent basis, Debye):
    X=             -6.4914    Y=              3.6133    Z=             -1.9716  Tot=              7.6865

 Test job not archived.
 1\1\GINC-SE454\SP\RHF\Aug-CC-pVDZ\C5H8O2\OHZDE\09-Apr-2025\0\\#t hf au
 g-cc-pvdz iop(5/13=1,5/36=2,99/5=2) pseudo=read geom=check guess=(read
 ,tcheck) scf=(maxcycle=1)\\title\\0,1\C,0,-0.41019405,1.36056628,-0.14
 181364\C,0,-0.25938489,0.10040793,0.44483809\C,0,-0.84029358,-1.104730
 18,-0.50485945\C,0,-1.50545298,-0.80399687,0.7355562\O,0,0.87326463,-0
 .15639453,1.04081211\C,0,2.06161918,0.22004385,-0.22191788\O,0,2.31048
 052,-0.74811297,-0.90777498\H,0,-1.18034115,1.5585979,-0.87862097\H,0,
 1.27672553,1.01122701,-0.65924567\H,0,0.08228575,2.2172837,0.29912788\

 Normal termination of Gaussian 16 at Wed Apr  9 15:24:04 2025.
