 Gaussian 16, Revision C.01,

 ----------------------------------------------------------------------
 #t hf aug-cc-pvdz symm=none int=(grid=ultrafine) guess=(read,tcheck) s
 table=(opt,rrhf)
 ----------------------------------------------------------------------
 -----
 title
 -----
 Symbolic Z-matrix:
 Charge =  0 Multiplicity = 1

 SCF Done:  E(RHF) =  -245.685192840     A.U. after   15 cycles
 Normal termination of Gaussian 16 at Wed Apr  9 14:20:01 2025.
 Gaussian 16:  ES64L-G16RevC.01  3-Jul-2019

 ----------------------------------------------------------------------
 #t hf aug-cc-pvdz iop(5/13=1,5/36=2,99/5=2) pseudo=read geom=check gue
 ss=(read,tcheck) scf=(maxcycle=1)
 ----------------------------------------------------------------------
 -----
 title
 -----
 Structure from the checkpoint file:  "Grambow2020_b97d3_007202_forward_mol1.chk"
 Charge =  0 Multiplicity = 1

                         Standard orientation:
 ---------------------------------------------------------------------
 Center     Atomic      Atomic             Coordinates (Angstroms)
 Number     Number       Type             X           Y           Z
 ---------------------------------------------------------------------
      1          8           0       -1.734280   -0.616150    0.180756
      2          6           0       -1.218446    0.471204    0.008763
      3          6           0        0.268137    0.680554   -0.180574
      4          6           0        1.752601   -0.207470    0.585508
      5          7           0        0.987007   -0.545010   -0.573362
      6          1           0       -1.809132    1.413866   -0.024808
      7          1           0        0.537645    1.566746   -0.761684
      8          1           0        2.470341    0.573690    0.226555
      9          1           0        0.603160    0.839631    0.970848
     10          1           0        0.349426   -1.315392   -0.325606
 ---------------------------------------------------------------------

 SCF Done:  E(RHF) =  -245.756560498     A.U. after    2 cycles

 The electronic state is 1-A.
 Alpha  occ. eigenvalues --  -20.60689 -15.65559 -11.38452 -11.33602 -11.30890
 Alpha  occ. eigenvalues --   -1.38750  -1.25108  -0.99448  -0.86919  -0.80825
 Alpha  occ. eigenvalues --   -0.72579  -0.68701  -0.64622  -0.60444  -0.56663
 Alpha  occ. eigenvalues --   -0.55714  -0.47278  -0.46162  -0.36099
 Alpha virt. eigenvalues --    0.02519   0.04285   0.04655   0.05721   0.06607
 Alpha virt. eigenvalues --    0.07330   0.09928   0.11226   0.11409   0.12738
 Alpha virt. eigenvalues --    0.13229   0.14433   0.14948   0.15382   0.16348

 Mulliken charges:
               1
     1  O   -0.465024
     2  C    0.641117
     3  C    0.073719
     4  C    0.039418
     5  N   -0.547511
     6  H   -0.073164
     7  H   -0.224611
     8  H   -0.035502
     9  H    0.426799
    10  H    0.164758
 Sum of Mulliken charges =  -0.00000

 Dipole moment (field-independent basis, Debye):
    X=             -0.0741    Y=              3.8042    Z=             -0.9318  Tot=              3.9174

 Test job not archived.
 1\1\GINC-SE016\SP\RHF\Aug-CC-pVDZ\C3H5N1O1\OHZDE\09-Apr-2025\0\\#t hf
 aug-cc-pvdz iop(5/13=1,5/36=2,99/5=2) pseudo=read geom=check guess=(re
 ad,tcheck) scf=(maxcycle=1)\\title\\0,1\O,0,1.29284676,-0.02769422,1.7
 3498501\C,0,1.3069628,-0.33461161,0.55871611\C,0,0.18873127,-0.0183054
 9,-0.41036224\C,0,-1.6863648,0.03516572,-0.16488999\N,0,-0.70824516,1.
 05297458,0.05959166\H,0,2.15835028,-0.8804005,0.09406415\H,0,0.4985726
 8,0.07924886,-1.45446\H,0,-1.88112018,0.07516417,-1.26701503\H,0,-0.48
 345214,-1.01602634,-0.28371086\H,0,-0.53506453,1.11596783,1.07321018\\

 Normal termination of Gaussian 16 at Wed Apr  9 14:20:03 2025.
