 Gaussian 16, Revision C.01,

 ----------------------------------------------------------------------
 #t hf aug-cc-pvdz symm=none int=(grid=ultrafine) guess=(read,tcheck) s
 table=(opt,rrhf)
 ----------------------------------------------------------------------
 -----
 title
 -----
 Symbolic Z-matrix:
 Charge =  0 Multiplicity = 1

 SCF Done:  E(RHF) =  -284.772914674     A.U. after   15 cycles
 Normal termination of Gaussian 16 at Wed Apr  9 14:23:16 2025.
 Gaussian 16:  ES64L-G16RevC.01  3-Jul-2019

 ----------------------------------------------------------------------
 #t hf aug-cc-pvdz iop(5/13=1,5/36=2,99/5=2) pseudo=read geom=check gue
 ss=(read,tcheck) scf=(maxcycle=1)
 ----------------------------------------------------------------------
 -----
 title
 -----
 Structure from the checkpoint file:  "Grambow2020_wb97xd3_006090_reverse_mol2.chk"
 Charge =  0 Multiplicity = 1

                         Standard orientation:
 ---------------------------------------------------------------------
 Center     Atomic      Atomic             Coordinates (Angstroms)
 Number     Number       Type             X           Y           Z
 ---------------------------------------------------------------------
      1          6           0        1.712600   -1.138907   -0.064219
      2          6           0        1.157366    0.165461    0.434604
      3          7           0        0.815075    1.161499   -0.543240
      4          6           0       -0.279222    0.583317    0.259661
      5          6           0       -1.183281   -0.323303   -0.459952
      6          8           0       -2.335433   -0.295330    0.174457
      7          1           0        1.245655   -1.413726   -1.007565
      8          1           0        1.539544   -1.937666    0.659770
      9          1           0        2.789721   -1.043697   -0.217899
     10          1           0        1.584421    0.517931    1.370896
     11          1           0        1.006311    2.097162   -0.207516
     12          1           0       -0.697300    1.195377    1.058811
     13          1           0       -2.935185   -0.902634   -0.270039
 ---------------------------------------------------------------------

 SCF Done:  E(RHF) =  -284.859087098     A.U. after    2 cycles

 The electronic state is 1-A.
 Alpha  occ. eigenvalues --  -20.63827 -15.63224 -11.30180 -11.28436 -11.26487
 Alpha  occ. eigenvalues --  -11.22407  -1.40589  -1.25269  -0.98649  -0.96480
 Alpha  occ. eigenvalues --   -0.83360  -0.77637  -0.73346  -0.68765  -0.63509
 Alpha  occ. eigenvalues --   -0.60922  -0.57703  -0.56008  -0.53343  -0.47882
 Alpha  occ. eigenvalues --   -0.46014  -0.39641  -0.35910
 Alpha virt. eigenvalues --    0.03233   0.03780   0.04488   0.05090   0.06300
 Alpha virt. eigenvalues --    0.07212   0.08210   0.09750   0.11579   0.12095
 Alpha virt. eigenvalues --    0.13165   0.13981   0.14514   0.14724   0.15364

 Mulliken charges:
               1
     1  C    0.453220
     2  C    0.012955
     3  N   -0.611929
     4  C    1.026539
     5  C   -0.069167
     6  O   -0.465105
     7  H    0.042758
     8  H    0.055198
     9  H    0.028182
    10  H   -0.352912
    11  H   -0.006087
    12  H   -0.353571
    13  H    0.239917
 Sum of Mulliken charges =   0.00000

 Dipole moment (field-independent basis, Debye):
    X=             -0.2381    Y=              0.2788    Z=              2.0600  Tot=              2.0924

 Test job not archived.
 1\1\GINC-SE009\SP\RHF\Aug-CC-pVDZ\C4H7N1O1\OHZDE\09-Apr-2025\0\\#t hf
 aug-cc-pvdz iop(5/13=1,5/36=2,99/5=2) pseudo=read geom=check guess=(re
 ad,tcheck) scf=(maxcycle=1)\\title\\0,1\C,0,-1.10835557,-0.53466266,1.
 20588729\C,0,-0.43448191,-0.80747148,-0.10939026\N,0,-0.82451983,-0.00
 61407,-1.23685378\C,0,0.56094327,0.12580195,-0.74745302\C,0,0.87300725
 ,1.3846995,-0.05831055\O,0,2.16708418,1.58101892,-0.19073315\H,0,-1.31
 120444,0.5285861,1.31461387\H,0,-0.48199028,-0.86022766,2.03883272\H,0
 ,-2.05282471,-1.08105637,1.25388639\H,0,-0.20889275,-1.85419149,-0.301

 Normal termination of Gaussian 16 at Wed Apr  9 14:23:20 2025.
