 Gaussian 16, Revision C.01,

 ----------------------------------------------------------------------
 #t hf aug-cc-pvdz symm=none int=(grid=ultrafine) guess=(read,tcheck) s
 table=(opt,rrhf)
 ----------------------------------------------------------------------
 -----
 title
 -----
 Symbolic Z-matrix:
 Charge =  0 Multiplicity = 1

 SCF Done:  E(RHF) =  -333.559022330     A.U. after   17 cycles
 Normal termination of Gaussian 16 at Wed Apr  9 15:33:42 2025.
 Gaussian 16:  ES64L-G16RevC.01  3-Jul-2019

 ----------------------------------------------------------------------
 #t hf aug-cc-pvdz iop(5/13=1,5/36=2,99/5=2) pseudo=read geom=check gue
 ss=(read,tcheck) scf=(maxcycle=1)
 ----------------------------------------------------------------------
 -----
 title
 -----
 Structure from the checkpoint file:  "Grambow2020_wb97xd3_006982_reverse_mol1.chk"
 Charge =  0 Multiplicity = 1

                         Standard orientation:
 ---------------------------------------------------------------------
 Center     Atomic      Atomic             Coordinates (Angstroms)
 Number     Number       Type             X           Y           Z
 ---------------------------------------------------------------------
      1          7           0        2.211634   -0.277403   -0.252143
      2          6           0        0.948057    0.067473    0.102440
      3          6           0       -0.178109   -0.728070    0.589033
      4          7           0       -1.030368   -1.199935   -0.327464
      5          6           0       -1.691958   -0.046342   -0.303368
      6          7           0       -1.076601    1.052319    0.199753
      7          7           0        0.355937    1.189555   -0.057772
      8          1           0        2.770956    0.474647   -0.620909
      9          1           0        2.701004   -0.933090    0.330342
     10          1           0       -0.436366   -0.697505    1.651011
     11          1           0       -2.727754    0.045830   -0.625693
 ---------------------------------------------------------------------

 SCF Done:  E(RHF) =  -333.652607436     A.U. after    2 cycles

 The electronic state is 1-A.
 Alpha  occ. eigenvalues --  -15.67488 -15.66395 -15.64637 -15.62741 -11.40823
 Alpha  occ. eigenvalues --  -11.35343 -11.34132  -1.35956  -1.24888  -1.18578
 Alpha  occ. eigenvalues --   -1.07267  -0.93346  -0.84867  -0.77301  -0.75032
 Alpha  occ. eigenvalues --   -0.71976  -0.66631  -0.65445  -0.57099  -0.52499
 Alpha  occ. eigenvalues --   -0.50987  -0.45091  -0.39645  -0.38994  -0.32747
 Alpha virt. eigenvalues --    0.01496   0.03356   0.04166   0.05481   0.06199
 Alpha virt. eigenvalues --    0.08691   0.09713   0.10936   0.11290   0.12189
 Alpha virt. eigenvalues --    0.12458   0.13820   0.14726   0.15362   0.16322

 Mulliken charges:
               1
     1  N   -0.200427
     2  C    0.549997
     3  C    0.753826
     4  N   -0.730255
     5  C    0.824379
     6  N   -0.728598
     7  N   -0.304140
     8  H    0.000556
     9  H    0.005083
    10  H    0.004017
    11  H   -0.174437
 Sum of Mulliken charges =   0.00000

 Dipole moment (field-independent basis, Debye):
    X=              3.1897    Y=             -2.5033    Z=              1.9481  Tot=              4.4984

 Test job not archived.
 1\1\GINC-SE168\SP\RHF\Aug-CC-pVDZ\C3H4N4\OHZDE\09-Apr-2025\0\\#t hf au
 g-cc-pvdz iop(5/13=1,5/36=2,99/5=2) pseudo=read geom=check guess=(read
 ,tcheck) scf=(maxcycle=1)\\title\\0,1\N,0,2.01893546,-0.4400068,-0.200
 50652\C,0,0.69533115,-0.18303701,-0.35326569\C,0,-0.17374634,0.8333382
 7,0.23800089\N,0,-0.81276659,0.50542757,1.3663169\C,0,-1.77930862,-0.0
 6344462,0.65130666\N,0,-1.52955152,-0.40064694,-0.63817605\N,0,-0.1876
 0884,-0.88948697,-0.9504985\H,0,2.35320296,-1.25669584,-0.68598878\H,0
 ,2.65061809,0.34064369,-0.18444576\H,0,-0.47606153,1.69516202,-0.36307

 Normal termination of Gaussian 16 at Wed Apr  9 15:33:46 2025.
