 Gaussian 16, Revision C.01,

 ----------------------------------------------------------------------
 #t hf aug-cc-pvdz symm=none int=(grid=ultrafine) guess=(read,tcheck) s
 table=(opt,rrhf)
 ----------------------------------------------------------------------
 -----
 title
 -----
 Symbolic Z-matrix:
 Charge =  0 Multiplicity = 1

 SCF Done:  E(RHF) =  -302.805262772     A.U. after   17 cycles
 Normal termination of Gaussian 16 at Wed Apr  9 15:39:05 2025.
 Gaussian 16:  ES64L-G16RevC.01  3-Jul-2019

 ----------------------------------------------------------------------
 #t hf aug-cc-pvdz iop(5/13=1,5/36=2,99/5=2) pseudo=read geom=check gue
 ss=(read,tcheck) scf=(maxcycle=1)
 ----------------------------------------------------------------------
 -----
 title
 -----
 Structure from the checkpoint file:  "Grambow2020_wb97xd3_007245_forward_mol1.chk"
 Charge =  0 Multiplicity = 1

                         Standard orientation:
 ---------------------------------------------------------------------
 Center     Atomic      Atomic             Coordinates (Angstroms)
 Number     Number       Type             X           Y           Z
 ---------------------------------------------------------------------
      1          6           0       -2.642833   -0.481020   -0.028140
      2          7           0       -1.304199    0.044403    0.075576
      3          6           0        0.243775    1.994433   -0.167967
      4          7           0        1.039748    1.075192    0.005047
      5          6           0        1.037289   -0.215121    0.023185
      6          6           0        2.274031   -1.053164   -0.000271
      7          6           0       -0.312203   -0.748968    0.013162
      8          1           0       -2.678197   -1.569584   -0.162164
      9          1           0       -3.207349   -0.219765    0.869864
     10          1           0       -3.150039   -0.009964   -0.872412
     11          1           0       -0.077211    2.629918    0.657877
     12          1           0        3.157210   -0.417376    0.032950
     13          1           0        2.311546   -1.734039    0.853496
     14          1           0        2.328599   -1.659969   -0.908139
     15          1           0       -0.433759   -1.833349   -0.075655
 ---------------------------------------------------------------------

 SCF Done:  E(RHF) =  -302.897826437     A.U. after    2 cycles

 The electronic state is 1-A.
 Alpha  occ. eigenvalues --  -15.67854 -15.62775 -11.29071 -11.28584 -11.28312
 Alpha  occ. eigenvalues --  -11.26102 -11.24512  -1.27067  -1.19190  -1.05059
 Alpha  occ. eigenvalues --   -0.96342  -0.91206  -0.81932  -0.71390  -0.68140
 Alpha  occ. eigenvalues --   -0.65633  -0.60901  -0.59562  -0.58738  -0.57023
 Alpha  occ. eigenvalues --   -0.54527  -0.52715  -0.46232  -0.42581  -0.40685
 Alpha  occ. eigenvalues --   -0.28880
 Alpha virt. eigenvalues --    0.03181   0.03876   0.04305   0.05020   0.06150
 Alpha virt. eigenvalues --    0.06669   0.06777   0.08689   0.09172   0.10205
 Alpha virt. eigenvalues --    0.10425   0.11108   0.12792   0.13594   0.13951

 Mulliken charges:
               1
     1  C    0.699589
     2  N   -0.574699
     3  C    0.172004
     4  N   -0.277986
     5  C   -0.114854
     6  C    0.470582
     7  C    0.785181
     8  H   -0.121176
     9  H   -0.146266
    10  H   -0.140925
    11  H   -0.233628
    12  H   -0.160487
    13  H    0.040382
    14  H    0.046448
    15  H   -0.444166
 Sum of Mulliken charges =  -0.00000

 Dipole moment (field-independent basis, Debye):
    X=             -0.0550    Y=             -2.4015    Z=              1.0936  Tot=              2.6394

 Test job not archived.
 1\1\GINC-SE131\SP\RHF\Aug-CC-pVDZ\C5H8N2\OHZDE\09-Apr-2025\0\\#t hf au
 g-cc-pvdz iop(5/13=1,5/36=2,99/5=2) pseudo=read geom=check guess=(read
 ,tcheck) scf=(maxcycle=1)\\title\\0,1\C,0,-2.45882485,0.39988058,-0.57
 985721\N,0,-1.25191019,-0.03687929,0.07692645\C,0,-0.10069105,-0.70117
 236,2.19625682\N,0,0.85009521,-0.60973229,1.42414678\C,0,1.09585315,-0
 .15066779,0.243424\C,0,2.4709535,0.0436745,-0.3076908\C,0,-0.12382209,
 0.20390651,-0.45863697\H,0,-2.2781678,0.92866984,-1.52427732\H,0,-3.09
 852625,-0.46316936,-0.77802559\H,0,-3.0132514,1.06143956,0.088647\H,0,

 Normal termination of Gaussian 16 at Wed Apr  9 15:39:11 2025.
