 Gaussian 16, Revision C.01,

 ----------------------------------------------------------------------
 #t hf aug-cc-pvdz symm=none int=(grid=ultrafine) guess=(read,tcheck) s
 table=(opt,rrhf)
 ----------------------------------------------------------------------
 -----
 title
 -----
 Symbolic Z-matrix:
 Charge =  0 Multiplicity = 1

 SCF Done:  E(RHF) =  -295.725915533     A.U. after   18 cycles
 Normal termination of Gaussian 16 at Wed Apr  9 14:05:55 2025.
 Gaussian 16:  ES64L-G16RevC.01  3-Jul-2019

 ----------------------------------------------------------------------
 #t hf aug-cc-pvdz iop(5/13=1,5/36=2,99/5=2) pseudo=read geom=check gue
 ss=(read,tcheck) scf=(maxcycle=1)
 ----------------------------------------------------------------------
 -----
 title
 -----
 Structure from the checkpoint file:  "Grambow2020_b97d3_006778_forward_mol1.chk"
 Charge =  0 Multiplicity = 1

                         Standard orientation:
 ---------------------------------------------------------------------
 Center     Atomic      Atomic             Coordinates (Angstroms)
 Number     Number       Type             X           Y           Z
 ---------------------------------------------------------------------
      1          7           0        2.133358   -0.325642    0.122716
      2          6           0        0.928068    0.057935   -0.307533
      3          7           0        0.228313    1.081906   -0.156907
      4          7           0       -0.983003    1.308466    0.192855
      5          6           0       -1.748957   -0.793404    0.059873
      6          7           0       -0.796036   -1.486339   -0.055119
      7          1           0        2.496038   -1.190121   -0.264953
      8          1           0        2.404684   -0.151787    1.091703
      9          1           0       -1.282270    2.196136   -0.246328
     10          1           0       -2.771545   -0.490146    0.180721
 ---------------------------------------------------------------------

 SCF Done:  E(RHF) =  -295.813285874     A.U. after    2 cycles

 The electronic state is 1-A.
 Alpha  occ. eigenvalues --  -15.72122 -15.68565 -15.65035 -15.63381 -11.33765
 Alpha  occ. eigenvalues --  -11.29758  -1.31156  -1.21405  -1.16749  -1.04363
 Alpha  occ. eigenvalues --   -0.78760  -0.78058  -0.72775  -0.69797  -0.64922
 Alpha  occ. eigenvalues --   -0.56376  -0.55387  -0.50086  -0.45623  -0.43793
 Alpha  occ. eigenvalues --   -0.36817  -0.32645
 Alpha virt. eigenvalues --    0.02855   0.03657   0.05022   0.05395   0.08670
 Alpha virt. eigenvalues --    0.10314   0.10486   0.11374   0.12762   0.13774
 Alpha virt. eigenvalues --    0.14410   0.15455   0.16629   0.16970   0.17755

 Mulliken charges:
               1
     1  N   -0.137674
     2  C    0.245808
     3  N   -0.049589
     4  N   -0.254592
     5  C    0.329576
     6  N   -0.298160
     7  H    0.107196
     8  H    0.033265
     9  H    0.063851
    10  H   -0.039682
 Sum of Mulliken charges =  -0.00000

 Dipole moment (field-independent basis, Debye):
    X=              0.8658    Y=              0.5940    Z=              0.8864  Tot=              1.3741

 Test job not archived.
 1\1\GINC-SE054\SP\RHF\Aug-CC-pVDZ\C2H4N4\OHZDE\09-Apr-2025\0\\#t hf au
 g-cc-pvdz iop(5/13=1,5/36=2,99/5=2) pseudo=read geom=check guess=(read
 ,tcheck) scf=(maxcycle=1)\\title\\0,1\N,0,2.07563832,-0.33495319,-0.09
 681506\C,0,0.82031858,-0.30601061,0.35958817\N,0,-0.17033806,-1.059176
 94,0.24911906\N,0,-1.39827855,-0.8993205,-0.07883766\C,0,-1.45733811,1
 .33960229,-0.00161358\N,0,-0.33199171,1.69780305,0.08041346\H,0,2.7011
 932,0.37976709,0.25956086\H,0,2.25744366,-0.61041556,-1.06317288\H,0,-
 1.95347468,-1.63504061,0.39113498\H,0,-2.52567265,1.37280198,-0.100689

 Normal termination of Gaussian 16 at Wed Apr  9 14:05:59 2025.
