 Gaussian 16, Revision C.01,

 ----------------------------------------------------------------------
 #t hf aug-cc-pvdz symm=none int=(grid=ultrafine) guess=(read,tcheck) s
 table=(opt,rrhf)
 ----------------------------------------------------------------------
 -----
 title
 -----
 Symbolic Z-matrix:
 Charge =  0 Multiplicity = 1

 SCF Done:  E(RHF) =  -359.526812463     A.U. after   17 cycles
 Normal termination of Gaussian 16 at Wed Apr  9 16:11:09 2025.
 Gaussian 16:  ES64L-G16RevC.01  3-Jul-2019

 ----------------------------------------------------------------------
 #t hf aug-cc-pvdz iop(5/13=1,5/36=2,99/5=2) pseudo=read geom=check gue
 ss=(read,tcheck) scf=(maxcycle=1)
 ----------------------------------------------------------------------
 -----
 title
 -----
 Structure from the checkpoint file:  "Grambow2020_wb97xd3_007904_forward_mol1.chk"
 Charge =  0 Multiplicity = 1

                         Standard orientation:
 ---------------------------------------------------------------------
 Center     Atomic      Atomic             Coordinates (Angstroms)
 Number     Number       Type             X           Y           Z
 ---------------------------------------------------------------------
      1          6           0        0.433499    1.568579    0.364980
      2          6           0        0.276706    0.154022   -0.049879
      3          7           0        1.166355   -0.722196   -0.208212
      4          8           0        2.452748   -0.241493   -0.056199
      5          6           0       -1.235875   -0.300815   -0.507999
      6          6           0       -1.389795   -1.284189    0.566451
      7          8           0       -2.086240    0.645541   -0.259523
      8          1           0        1.331733    1.686573    0.968685
      9          1           0        0.516589    2.202762   -0.520817
     10          1           0       -0.460243    1.879252    0.901913
     11          1           0        2.995245   -1.020973   -0.196668
     12          1           0       -1.098603   -0.697148   -1.530822
     13          1           0       -2.332838   -1.244034    1.102578
     14          1           0       -0.555641   -1.809028    1.017069
 ---------------------------------------------------------------------

 SCF Done:  E(RHF) =  -359.635441818     A.U. after    2 cycles

 The electronic state is 1-A.
 Alpha  occ. eigenvalues --  -20.62702 -20.47153 -15.69630 -11.37895 -11.31750
 Alpha  occ. eigenvalues --  -11.30960 -11.23330  -1.40316  -1.27005  -1.16463
 Alpha  occ. eigenvalues --   -1.02428  -0.98179  -0.85444  -0.75855  -0.72162
 Alpha  occ. eigenvalues --   -0.68923  -0.67186  -0.65629  -0.62350  -0.58470
 Alpha  occ. eigenvalues --   -0.56449  -0.55987  -0.51960  -0.45882  -0.40342
 Alpha  occ. eigenvalues --   -0.37895  -0.37146
 Alpha virt. eigenvalues --   -0.01688   0.02657   0.03929   0.04585   0.04977
 Alpha virt. eigenvalues --    0.06366   0.07244   0.08148   0.10305   0.11436
 Alpha virt. eigenvalues --    0.12759   0.13235   0.14102   0.14442   0.15026

 Mulliken charges:
               1
     1  C    0.342856
     2  C   -0.357174
     3  N   -0.245316
     4  O   -0.506278
     5  C    0.848965
     6  C    0.591478
     7  O   -0.835613
     8  H    0.016649
     9  H    0.086379
    10  H    0.055862
    11  H    0.178935
    12  H    0.011075
    13  H   -0.110217
    14  H   -0.077602
 Sum of Mulliken charges =  -0.00000

 Dipole moment (field-independent basis, Debye):
    X=              2.3474    Y=             -4.4817    Z=              1.8322  Tot=              5.3808

 Test job not archived.
 1\1\GINC-SE113\SP\RHF\Aug-CC-pVDZ\C4H7N1O2\OHZDE\09-Apr-2025\0\\#t hf
 aug-cc-pvdz iop(5/13=1,5/36=2,99/5=2) pseudo=read geom=check guess=(re
 ad,tcheck) scf=(maxcycle=1)\\title\\0,1\C,0,-0.97385143,-1.24033909,0.
 20500213\C,0,-0.29518817,0.0569029,-0.02790051\N,0,-0.69169349,1.21530
 453,0.26397267\O,0,-1.9711877,1.24982175,0.78425526\C,0,1.08885099,-0.
 00101686,-0.91431736\C,0,1.9395182,0.49583317,0.16950179\O,0,1.4422202
 7,-1.23129659,-1.11923489\H,0,-1.64312815,-1.16690336,1.06050386\H,0,-
 1.55685611,-1.51218943,-0.67813461\H,0,-0.21992638,-2.01218506,0.34443

 Normal termination of Gaussian 16 at Wed Apr  9 16:11:15 2025.
