 Gaussian 16, Revision C.01,

 ----------------------------------------------------------------------
 #t hf aug-cc-pvdz symm=none int=(grid=ultrafine) guess=(read,tcheck) s
 table=(opt,rrhf)
 ----------------------------------------------------------------------
 -----
 title
 -----
 Symbolic Z-matrix:
 Charge =  0 Multiplicity = 1

 SCF Done:  E(RHF) =  -324.920489823     A.U. after   16 cycles
 Normal termination of Gaussian 16 at Wed Apr  9 16:21:28 2025.
 Gaussian 16:  ES64L-G16RevC.01  3-Jul-2019

 ----------------------------------------------------------------------
 #t hf aug-cc-pvdz iop(5/13=1,5/36=2,99/5=2) pseudo=read geom=check gue
 ss=(read,tcheck) scf=(maxcycle=1)
 ----------------------------------------------------------------------
 -----
 title
 -----
 Structure from the checkpoint file:  "Grambow2020_wb97xd3_008124_reverse_mol1.chk"
 Charge =  0 Multiplicity = 1

                         Standard orientation:
 ---------------------------------------------------------------------
 Center     Atomic      Atomic             Coordinates (Angstroms)
 Number     Number       Type             X           Y           Z
 ---------------------------------------------------------------------
      1          6           0        2.228805    0.364266    0.548398
      2          7           0        1.334966    0.570425   -0.403667
      3          6           0        0.294459   -0.437585   -0.464555
      4          8           0        0.636506   -1.605752   -0.536424
      5          6           0       -0.900026    0.115168    0.050032
      6          6           0       -1.418666    1.494983   -0.268827
      7          6           0       -1.959541   -0.858440    0.484868
      8          1           0        0.973719    0.254250    1.791960
      9          1           0        2.845130    1.190722    0.876857
     10          1           0        2.562579   -0.650840    0.706185
     11          1           0        1.033477    1.524682   -0.522733
     12          1           0        0.160417    0.209551    1.477881
     13          1           0       -2.274933    1.417207   -0.947585
     14          1           0       -0.705365    2.161946   -0.756304
     15          1           0       -1.778028    2.002349    0.630687
     16          1           0       -2.605884   -0.416058    1.247169
     17          1           0       -2.597899   -1.136648   -0.361908
     18          1           0       -1.520209   -1.774462    0.875351
 ---------------------------------------------------------------------

 SCF Done:  E(RHF) =  -325.024062233     A.U. after    2 cycles

 The electronic state is 1-A.
 Alpha  occ. eigenvalues --  -20.51344 -15.69947 -11.35702 -11.34396 -11.24353
 Alpha  occ. eigenvalues --  -11.23916 -11.21560  -1.34037  -1.24824  -1.06872
 Alpha  occ. eigenvalues --   -0.95530  -0.93484  -0.86568  -0.79034  -0.71348
 Alpha  occ. eigenvalues --   -0.66769  -0.66106  -0.62909  -0.60181  -0.57430
 Alpha  occ. eigenvalues --   -0.56428  -0.53928  -0.52759  -0.51064  -0.49421
 Alpha  occ. eigenvalues --   -0.45563  -0.43009  -0.27633
 Alpha virt. eigenvalues --    0.02211   0.03654   0.04352   0.05328   0.05841
 Alpha virt. eigenvalues --    0.06216   0.06820   0.07571   0.07953   0.08551
 Alpha virt. eigenvalues --    0.09318   0.10148   0.11193   0.12626   0.12981

 Mulliken charges:
               1
     1  C    0.612455
     2  N   -0.347260
     3  C    0.644335
     4  O   -0.653253
     5  C   -1.168391
     6  C    0.523395
     7  C    0.735641
     8  H   -0.241875
     9  H   -0.216427
    10  H   -0.132282
    11  H    0.012930
    12  H    0.594936
    13  H    0.036054
    14  H   -0.277604
    15  H   -0.010640
    16  H    0.001623
    17  H    0.005750
    18  H   -0.119388
 Sum of Mulliken charges =   0.00000

 Dipole moment (field-independent basis, Debye):
    X=              1.5834    Y=              5.0424    Z=              0.9292  Tot=              5.3662

 Test job not archived.
 1\1\GINC-SE168\SP\RHF\Aug-CC-pVDZ\C5H11N1O1\OHZDE\09-Apr-2025\0\\#t hf
  aug-cc-pvdz iop(5/13=1,5/36=2,99/5=2) pseudo=read geom=check guess=(r
 ead,tcheck) scf=(maxcycle=1)\\title\\0,1\C,0,2.38600355,0.15999283,-0.
 54258226\N,0,1.54023896,-0.66370996,0.05245902\C,0,0.56073525,0.000204
 ,0.89045444\O,0,0.96861395,0.77493595,1.73910091\C,0,-0.6900142,-0.030
 02752,0.23330793\C,0,-1.26217992,-1.2316793,-0.47606374\C,0,-1.7196172
 7,0.96079737,0.69994627\H,0,1.06731192,1.1137166,-1.23918353\H,0,2.936
 60355,-0.18793278,-1.40661911\H,0,2.76384761,0.98942041,0.0370951\H,0,

 Normal termination of Gaussian 16 at Wed Apr  9 16:21:35 2025.
