 Gaussian 16, Revision C.01,

 ----------------------------------------------------------------------
 #t hf aug-cc-pvdz symm=none int=(grid=ultrafine) guess=(read,tcheck) s
 table=(opt,rrhf)
 ----------------------------------------------------------------------
 -----
 title
 -----
 Symbolic Z-matrix:
 Charge =  0 Multiplicity = 1

 SCF Done:  E(RHF) =  -380.758572973     A.U. after   13 cycles
 Normal termination of Gaussian 16 at Wed Apr  9 03:40:29 2025.
 Gaussian 16:  ES64L-G16RevC.01  3-Jul-2019

 ----------------------------------------------------------------------
 #t hf aug-cc-pvdz iop(5/13=1,5/36=2,99/5=2) pseudo=read geom=check gue
 ss=(read,tcheck) scf=(maxcycle=1)
 ----------------------------------------------------------------------
 -----
 title
 -----
 Structure from the checkpoint file:  "Grambow2020_wb97xd3_007514_reverse_mol2.chk"
 Charge =  0 Multiplicity = 1

                         Standard orientation:
 ---------------------------------------------------------------------
 Center     Atomic      Atomic             Coordinates (Angstroms)
 Number     Number       Type             X           Y           Z
 ---------------------------------------------------------------------
      1          8           0        2.460595   -0.241454   -0.740508
      2          6           0        1.952171    0.084454    0.541730
      3          6           0        0.586853   -0.557534    0.680110
      4          6           0       -0.426726    0.056461   -0.285211
      5          8           0       -0.642167    1.409285    0.000180
      6          6           0       -1.722734   -0.707214   -0.242156
      7          8           0       -2.771311   -0.178076    0.016871
      8          1           0        3.190945    0.342286   -0.945790
      9          1           0        1.856102    1.168222    0.664960
     10          1           0        2.614929   -0.295495    1.328558
     11          1           0        0.226485   -0.425266    1.703942
     12          1           0        0.681217   -1.630908    0.488214
     13          1           0       -0.028878   -0.055249   -1.305661
     14          1           0       -1.663219   -1.790099   -0.461359
     15          1           0       -1.591903    1.511463    0.147959
 ---------------------------------------------------------------------

 SCF Done:  E(RHF) =  -380.878931556     A.U. after    2 cycles

 The electronic state is 1-A.
 Alpha  occ. eigenvalues --  -20.59251 -20.58017 -20.57521 -11.35627 -11.30528
 Alpha  occ. eigenvalues --  -11.29405 -11.24934  -1.38995  -1.33559  -1.32866
 Alpha  occ. eigenvalues --   -1.06705  -0.96496  -0.84273  -0.80641  -0.74542
 Alpha  occ. eigenvalues --   -0.73414  -0.69399  -0.66187  -0.65160  -0.60235
 Alpha  occ. eigenvalues --   -0.58045  -0.56798  -0.55575  -0.54125  -0.50819
 Alpha  occ. eigenvalues --   -0.48152  -0.45259  -0.44607
 Alpha virt. eigenvalues --    0.03238   0.04184   0.04454   0.05275   0.06499
 Alpha virt. eigenvalues --    0.06699   0.07098   0.07937   0.10116   0.11646
 Alpha virt. eigenvalues --    0.12652   0.13062   0.14140   0.14448   0.14602

 Mulliken charges:
               1
     1  O   -0.557233
     2  C    0.867622
     3  C   -0.083650
     4  C    0.303215
     5  O   -0.597941
     6  C    0.829533
     7  O   -0.507275
     8  H    0.144636
     9  H   -0.107590
    10  H   -0.104051
    11  H   -0.069165
    12  H   -0.083573
    13  H   -0.048045
    14  H   -0.159501
    15  H    0.173017
 Sum of Mulliken charges =  -0.00000

 Dipole moment (field-independent basis, Debye):
    X=              2.5302    Y=             -1.1519    Z=              0.4202  Tot=              2.8117

 Test job not archived.
 1\1\GINC-SE105\SP\RHF\Aug-CC-pVDZ\C4H8O3\OHZDE\09-Apr-2025\0\\#t hf au
 g-cc-pvdz iop(5/13=1,5/36=2,99/5=2) pseudo=read geom=check guess=(read
 ,tcheck) scf=(maxcycle=1)\\title\\0,1\O,0,-1.61646107,1.64618647,0.116
 01531\C,0,-1.5241598,0.33101389,-0.40422062\C,0,-0.60663593,-0.4660430
 9,0.50034451\C,0,0.82997997,0.05305571,0.44697189\O,0,1.37593191,-0.09
 933515,-0.83236738\C,0,1.68003518,-0.64681,1.4727815\O,0,2.67838769,-1
 .24861705,1.17661344\H,0,-1.97818483,2.224336,-0.55570011\H,0,-1.11541
 47,0.33567336,-1.4200329\H,0,-2.51208521,-0.14435582,-0.43133105\H,0,-

 Normal termination of Gaussian 16 at Wed Apr  9 03:40:34 2025.
