 Gaussian 16, Revision C.01,

 ----------------------------------------------------------------------
 #t hf aug-cc-pvdz symm=none int=(grid=ultrafine) guess=(read,tcheck) s
 table=(opt,rrhf)
 ----------------------------------------------------------------------
 -----
 title
 -----
 Symbolic Z-matrix:
 Charge =  0 Multiplicity = 1

 SCF Done:  E(RHF) =  -373.320945729     A.U. after   16 cycles
 Normal termination of Gaussian 16 at Wed Apr  9 04:04:27 2025.
 Gaussian 16:  ES64L-G16RevC.01  3-Jul-2019

 ----------------------------------------------------------------------
 #t hf aug-cc-pvdz iop(5/13=1,5/36=2,99/5=2) pseudo=read geom=check gue
 ss=(read,tcheck) scf=(maxcycle=1)
 ----------------------------------------------------------------------
 -----
 title
 -----
 Structure from the checkpoint file:  "Grambow2020_wb97xd3_009226_reverse_mol1.chk"
 Charge =  0 Multiplicity = 1

                         Standard orientation:
 ---------------------------------------------------------------------
 Center     Atomic      Atomic             Coordinates (Angstroms)
 Number     Number       Type             X           Y           Z
 ---------------------------------------------------------------------
      1          7           0        0.357560    1.473333   -0.018317
      2          6           0        0.557897    0.254782   -0.074993
      3          8           0       -0.287059   -0.821509   -0.055474
      4          6           0       -1.637639   -0.663463    0.012778
      5          8           0       -2.228034    0.366677    0.051364
      6          6           0        2.032687   -0.334899   -0.598251
      7          7           0        2.088881   -0.322645    0.585421
      8          1           0       -0.632555    1.706729    0.000698
      9          1           0       -2.089458   -1.661409    0.025261
 ---------------------------------------------------------------------

 SCF Done:  E(RHF) =  -373.434093574     A.U. after    2 cycles

 The electronic state is 1-A.
 Alpha  occ. eigenvalues --  -20.69295 -20.62813 -15.71247 -15.66584 -11.45855
 Alpha  occ. eigenvalues --  -11.45415 -11.31464  -1.50037  -1.41168  -1.30621
 Alpha  occ. eigenvalues --   -1.22356  -0.99810  -0.83312  -0.78667  -0.76571
 Alpha  occ. eigenvalues --   -0.74463  -0.68252  -0.67162  -0.62549  -0.58199
 Alpha  occ. eigenvalues --   -0.55514  -0.51973  -0.51595  -0.47819  -0.45585
 Alpha virt. eigenvalues --    0.02770   0.04531   0.05230   0.07247   0.07547
 Alpha virt. eigenvalues --    0.08839   0.09336   0.10299   0.11256   0.12745
 Alpha virt. eigenvalues --    0.13011   0.14466   0.15102   0.15738   0.17064

 Mulliken charges:
               1
     1  N   -0.217124
     2  C    0.424646
     3  O   -0.442288
     4  C    0.781522
     5  O   -0.347214
     6  C    0.155246
     7  N   -0.248971
     8  H    0.106050
     9  H   -0.211867
 Sum of Mulliken charges =  -0.00000

 Dipole moment (field-independent basis, Debye):
    X=             -2.3033    Y=             -2.0869    Z=              0.0504  Tot=              3.1085

 Test job not archived.
 1\1\GINC-SE284\SP\RHF\Aug-CC-pVDZ\C3H2N2O2\OHZDE\09-Apr-2025\0\\#t hf
 aug-cc-pvdz iop(5/13=1,5/36=2,99/5=2) pseudo=read geom=check guess=(re
 ad,tcheck) scf=(maxcycle=1)\\title\\0,1\N,0,-1.40573037,-0.52947895,-0
 .4782922\C,0,-0.73097667,0.32147873,0.11229328\O,0,0.61641083,0.457341
 89,0.30932555\C,0,1.50415315,-0.43385625,-0.21161797\O,0,1.24497666,-1
 .38448059,-0.87523247\C,0,-1.40000613,1.80107901,0.51193077\N,0,-1.501
 48384,1.1260651,1.4806649\H,0,-0.8326762,-1.23246805,-0.9393543\H,0,2.
 50887155,-0.1180839,0.09007944\\Version=ES64L-G16RevC.01\State=1-A\HF=

 Normal termination of Gaussian 16 at Wed Apr  9 04:04:30 2025.
