 Gaussian 16, Revision C.01,

 ----------------------------------------------------------------------
 #t hf aug-cc-pvdz symm=none int=(grid=ultrafine) guess=(read,tcheck) s
 table=(opt,rrhf)
 ----------------------------------------------------------------------
 -----
 title
 -----
 Symbolic Z-matrix:
 Charge =  0 Multiplicity = 1

 SCF Done:  E(RHF) =  -337.381447311     A.U. after   13 cycles
 Normal termination of Gaussian 16 at Wed Apr  9 17:16:12 2025.
 Gaussian 16:  ES64L-G16RevC.01  3-Jul-2019

 ----------------------------------------------------------------------
 #t hf aug-cc-pvdz iop(5/13=1,5/36=2,99/5=2) pseudo=read geom=check gue
 ss=(read,tcheck) scf=(maxcycle=1)
 ----------------------------------------------------------------------
 -----
 title
 -----
 Structure from the checkpoint file:  "Grambow2020_wb97xd3_009446_reverse_mol2.chk"
 Charge =  0 Multiplicity = 1

                         Standard orientation:
 ---------------------------------------------------------------------
 Center     Atomic      Atomic             Coordinates (Angstroms)
 Number     Number       Type             X           Y           Z
 ---------------------------------------------------------------------
      1          7           0        1.051284    0.000101   -1.108078
      2          6           0        0.750897    0.758889   -0.000374
      3          6           0       -0.709716    1.235303    0.004479
      4          8           0       -1.426813    0.000785   -0.006175
      5          6           0       -0.711234   -1.234337    0.004057
      6          6           0        0.749681   -0.759689   -0.002091
      7          7           0        1.055070   -0.001285    1.104613
      8          1           0       -0.952122    1.803668   -0.891943
      9          1           0       -0.949077    1.789784    0.910463
     10          1           0       -0.949989   -1.789213    0.910093
     11          1           0       -0.956545   -1.803223   -0.891391
 ---------------------------------------------------------------------

 SCF Done:  E(RHF) =  -337.479103868     A.U. after    2 cycles

 The electronic state is 1-A.
 Alpha  occ. eigenvalues --  -20.61448 -15.65926 -15.65885 -11.38628 -11.38462
 Alpha  occ. eigenvalues --  -11.34401 -11.34371  -1.44189  -1.35146  -1.12289
 Alpha  occ. eigenvalues --   -1.05506  -0.93525  -0.82940  -0.76009  -0.70896
 Alpha  occ. eigenvalues --   -0.66976  -0.65167  -0.64368  -0.56633  -0.55987
 Alpha  occ. eigenvalues --   -0.52411  -0.51239  -0.48739  -0.47369  -0.35270
 Alpha virt. eigenvalues --    0.03237   0.03855   0.04911   0.05676   0.06560
 Alpha virt. eigenvalues --    0.06900   0.07051   0.10456   0.11125   0.11476
 Alpha virt. eigenvalues --    0.11663   0.13429   0.13454   0.14614   0.14875

 Mulliken charges:
               1
     1  N   -0.721137
     2  C    0.128070
     3  C    1.130629
     4  O   -0.689074
     5  C    1.130328
     6  C    0.128856
     7  N   -0.720642
     8  H   -0.096776
     9  H   -0.096553
    10  H   -0.096521
    11  H   -0.097178
 Sum of Mulliken charges =  -0.00000

 Dipole moment (field-independent basis, Debye):
    X=             -1.3846    Y=              0.0016    Z=              0.0340  Tot=              1.3850

 Test job not archived.
 1\1\GINC-SE226\SP\RHF\Aug-CC-pVDZ\C4H4N2O1\OHZDE\09-Apr-2025\0\\#t hf
 aug-cc-pvdz iop(5/13=1,5/36=2,99/5=2) pseudo=read geom=check guess=(re
 ad,tcheck) scf=(maxcycle=1)\\title\\0,1\N,0,0.82138292,-0.21661465,1.4
 9150904\C,0,0.76906859,0.8132032,0.58060994\C,0,0.93601656,0.32420095,
 -0.86624421\O,0,-0.16790232,-0.56989615,-1.00882323\C,0,-1.07079199,-0
 .76015137,0.08034147\C,0,-0.46413601,0.14519376,1.16289442\N,0,-0.4260
 1461,1.46509333,0.77605557\H,0,1.86690648,-0.22375224,-1.00249024\H,0,
 0.84043541,1.14051452,-1.58042113\H,0,-2.06777115,-0.43012481,-0.20759

 Normal termination of Gaussian 16 at Wed Apr  9 17:16:16 2025.
