 Gaussian 16, Revision C.01,

 ----------------------------------------------------------------------
 #t hf aug-cc-pvdz symm=none int=(grid=ultrafine) guess=(read,tcheck) s
 table=(opt,rrhf)
 ----------------------------------------------------------------------
 -----
 title
 -----
 Symbolic Z-matrix:
 Charge =  0 Multiplicity = 1

 SCF Done:  E(RHF) =  -302.750915466     A.U. after   15 cycles
 Normal termination of Gaussian 16 at Wed Apr  9 04:05:52 2025.
 Gaussian 16:  ES64L-G16RevC.01  3-Jul-2019

 ----------------------------------------------------------------------
 #t hf aug-cc-pvdz iop(5/13=1,5/36=2,99/5=2) pseudo=read geom=check gue
 ss=(read,tcheck) scf=(maxcycle=1)
 ----------------------------------------------------------------------
 -----
 title
 -----
 Structure from the checkpoint file:  "Grambow2020_wb97xd3_009342_forward_mol1.chk"
 Charge =  0 Multiplicity = 1

                         Standard orientation:
 ---------------------------------------------------------------------
 Center     Atomic      Atomic             Coordinates (Angstroms)
 Number     Number       Type             X           Y           Z
 ---------------------------------------------------------------------
      1          6           0        2.123453   -0.456888    0.114700
      2          7           0        0.832678    0.091395   -0.209293
      3          6           0       -0.283257   -0.589632   -0.675419
      4          6           0       -1.433993    0.242840   -0.617640
      5          6           0       -1.321965   -1.254223    0.580122
      6          6           0       -0.837275    1.362515    0.112387
      7          7           0        0.448581    1.264458    0.313075
      8          1           0        2.137336   -0.905686    1.113760
      9          1           0        2.866224    0.337269    0.077099
     10          1           0        2.382030   -1.220500   -0.618884
     11          1           0       -0.116544   -1.434348   -1.331402
     12          1           0       -2.103684   -0.725407    1.112176
     13          1           0       -0.529084   -1.496757    1.291521
     14          1           0       -1.745027   -2.140627    0.123008
     15          1           0       -1.341842    2.267404    0.421348
 ---------------------------------------------------------------------

 SCF Done:  E(RHF) =  -302.840115418     A.U. after    2 cycles

 The electronic state is 1-A.
 Alpha  occ. eigenvalues --  -15.68296 -15.67750 -11.30470 -11.28658 -11.28108
 Alpha  occ. eigenvalues --  -11.25868 -11.22832  -1.34781  -1.11112  -1.08974
 Alpha  occ. eigenvalues --   -0.94582  -0.91877  -0.80424  -0.77108  -0.70913
 Alpha  occ. eigenvalues --   -0.66200  -0.61509  -0.59328  -0.58439  -0.57332
 Alpha  occ. eigenvalues --   -0.55589  -0.53856  -0.46446  -0.42306  -0.35252
 Alpha  occ. eigenvalues --   -0.33651
 Alpha virt. eigenvalues --    0.02619   0.03829   0.04187   0.04853   0.06433
 Alpha virt. eigenvalues --    0.06930   0.07776   0.07936   0.09634   0.10830
 Alpha virt. eigenvalues --    0.11787   0.12445   0.12942   0.13622   0.14011

 Mulliken charges:
               1
     1  C    0.851944
     2  N   -0.265328
     3  C    0.706486
     4  C   -0.638498
     5  C    0.387341
     6  C    0.745555
     7  N   -0.503866
     8  H   -0.101145
     9  H   -0.179692
    10  H   -0.177880
    11  H   -0.350619
    12  H   -0.071875
    13  H   -0.070699
    14  H   -0.064912
    15  H   -0.266815
 Sum of Mulliken charges =  -0.00000

 Dipole moment (field-independent basis, Debye):
    X=              2.2406    Y=             -2.9618    Z=              1.1205  Tot=              3.8792

 Test job not archived.
 1\1\GINC-SE044\SP\RHF\Aug-CC-pVDZ\C5H8N2\OHZDE\09-Apr-2025\0\\#t hf au
 g-cc-pvdz iop(5/13=1,5/36=2,99/5=2) pseudo=read geom=check guess=(read
 ,tcheck) scf=(maxcycle=1)\\title\\0,1\C,0,-1.9351852,-0.43590679,-0.63
 452525\N,0,-0.90437178,0.08630555,0.22361517\C,0,0.23180547,-0.5692680
 8,0.67716517\C,0,1.13422767,0.3536484,1.27248122\C,0,1.62359763,-0.464
 50407,-0.39470948\C,0,0.43589668,1.58608604,0.90354434\N,0,-0.72361241
 ,1.41004286,0.33094909\H,0,-1.64596182,-0.3972943,-1.69026774\H,0,-2.8
 4163132,0.15020151,-0.49799912\H,0,-2.13709813,-1.47167774,-0.36153691

 Normal termination of Gaussian 16 at Wed Apr  9 04:05:57 2025.
