 Gaussian 16, Revision C.01,

 ----------------------------------------------------------------------
 #t hf aug-cc-pvdz symm=none int=(grid=ultrafine) guess=(read,tcheck) s
 table=(opt,rrhf)
 ----------------------------------------------------------------------
 -----
 title
 -----
 Symbolic Z-matrix:
 Charge =  0 Multiplicity = 1

 SCF Done:  E(RHF) =  -224.638192681     A.U. after   17 cycles
 Normal termination of Gaussian 16 at Wed Apr  9 14:15:57 2025.
 Gaussian 16:  ES64L-G16RevC.01  3-Jul-2019

 ----------------------------------------------------------------------
 #t hf aug-cc-pvdz iop(5/13=1,5/36=2,99/5=2) pseudo=read geom=check gue
 ss=(read,tcheck) scf=(maxcycle=1)
 ----------------------------------------------------------------------
 -----
 title
 -----
 Structure from the checkpoint file:  "Grambow2020_b97d3_006886_forward_mol1.chk"
 Charge =  0 Multiplicity = 1

                         Standard orientation:
 ---------------------------------------------------------------------
 Center     Atomic      Atomic             Coordinates (Angstroms)
 Number     Number       Type             X           Y           Z
 ---------------------------------------------------------------------
      1          7           0       -1.301492   -0.232111   -0.235605
      2          6           0       -0.210880   -0.863192    0.325476
      3          6           0        1.095434   -0.627580   -0.278588
      4          6           0        0.856620    0.720848   -0.037427
      5          7           0       -0.483564    1.049133    0.213039
      6          1           0       -1.175528   -0.221832   -1.264643
      7          1           0       -0.354827   -1.246798    1.343723
      8          1           0        2.010512   -1.170037   -0.078248
      9          1           0        1.568188    1.539055    0.100361
 ---------------------------------------------------------------------

 SCF Done:  E(RHF) =  -224.698175990     A.U. after    2 cycles

 The electronic state is 1-A.
 Alpha  occ. eigenvalues --  -15.67449 -15.65332 -11.39404 -11.33461 -11.23868
 Alpha  occ. eigenvalues --   -1.30828  -1.08796  -1.01246  -0.85119  -0.76723
 Alpha  occ. eigenvalues --   -0.70367  -0.66515  -0.61415  -0.53845  -0.49979
 Alpha  occ. eigenvalues --   -0.46213  -0.41692  -0.30596
 Alpha virt. eigenvalues --    0.02908   0.03495   0.04714   0.05261   0.06274
 Alpha virt. eigenvalues --    0.10502   0.10525   0.10950   0.11438   0.12864
 Alpha virt. eigenvalues --    0.14787   0.15114   0.15683   0.16777   0.17105

 Mulliken charges:
               1
     1  N   -0.508012
     2  C    0.933387
     3  C    0.185887
     4  C    0.710261
     5  N   -0.748477
     6  H    0.145044
     7  H   -0.194078
     8  H   -0.322893
     9  H   -0.201120
 Sum of Mulliken charges =  -0.00000

 Dipole moment (field-independent basis, Debye):
    X=              2.2574    Y=             -2.0332    Z=              0.3359  Tot=              3.0565

 Test job not archived.
 1\1\GINC-SE009\SP\RHF\Aug-CC-pVDZ\C3H4N2\OHZDE\09-Apr-2025\0\\#t hf au
 g-cc-pvdz iop(5/13=1,5/36=2,99/5=2) pseudo=read geom=check guess=(read
 ,tcheck) scf=(maxcycle=1)\\title\\0,1\N,0,-1.46475503,-0.50234379,0.02
 410939\C,0,-0.6710634,0.62502607,-0.0158853\C,0,0.6393337,0.55624907,0
 .62050541\C,0,0.88905097,-0.51553894,-0.22941196\N,0,-0.25147078,-1.08
 878784,-0.81009495\H,0,-1.33491573,-0.95706027,0.94675016\H,0,-0.94919
 741,1.37648102,-0.76599124\H,0,1.30290921,1.38515506,0.83108877\H,0,1.
 84215546,-0.90079538,-0.60082428\\Version=ES64L-G16RevC.01\State=1-A\H

 Normal termination of Gaussian 16 at Wed Apr  9 14:16:00 2025.
