 Gaussian 16, Revision C.01,

 ----------------------------------------------------------------------
 #t hf aug-cc-pvdz symm=none int=(grid=ultrafine) guess=(read,tcheck) s
 table=(opt,rrhf)
 ----------------------------------------------------------------------
 -----
 title
 -----
 Symbolic Z-matrix:
 Charge =  0 Multiplicity = 1

 SCF Done:  E(RHF) =  -337.467031922     A.U. after   16 cycles
 Normal termination of Gaussian 16 at Wed Apr  9 04:04:00 2025.
 Gaussian 16:  ES64L-G16RevC.01  3-Jul-2019

 ----------------------------------------------------------------------
 #t hf aug-cc-pvdz iop(5/13=1,5/36=2,99/5=2) pseudo=read geom=check gue
 ss=(read,tcheck) scf=(maxcycle=1)
 ----------------------------------------------------------------------
 -----
 title
 -----
 Structure from the checkpoint file:  "Grambow2020_wb97xd3_009179_forward_mol1.chk"
 Charge =  0 Multiplicity = 1

                         Standard orientation:
 ---------------------------------------------------------------------
 Center     Atomic      Atomic             Coordinates (Angstroms)
 Number     Number       Type             X           Y           Z
 ---------------------------------------------------------------------
      1          8           0        2.268248    0.030146    0.140506
      2          6           0        1.075585    0.032749   -0.022839
      3          6           0        0.238215    1.228115   -0.092443
      4          6           0       -1.095980    1.125247   -0.000644
      5          7           0       -1.701216   -0.103937    0.111707
      6          6           0       -0.992846   -1.242794   -0.047981
      7          7           0        0.335928   -1.174041   -0.189706
      8          1           0        0.721549    2.192118   -0.162277
      9          1           0       -1.754820    1.985276   -0.012031
     10          1           0       -2.696835   -0.169045    0.227818
     11          1           0       -0.208722   -2.163570    0.351874
 ---------------------------------------------------------------------

 SCF Done:  E(RHF) =  -337.568304567     A.U. after    2 cycles

 The electronic state is 1-A.
 Alpha  occ. eigenvalues --  -20.54844 -15.70813 -15.65936 -11.37236 -11.33818
 Alpha  occ. eigenvalues --  -11.33299 -11.26348  -1.36255  -1.31084  -1.19971
 Alpha  occ. eigenvalues --   -1.08062  -0.90950  -0.89451  -0.80285  -0.74609
 Alpha  occ. eigenvalues --   -0.67941  -0.65097  -0.62844  -0.61517  -0.55273
 Alpha  occ. eigenvalues --   -0.53560  -0.48664  -0.45183  -0.37348  -0.36768
 Alpha virt. eigenvalues --    0.01709   0.03608   0.04705   0.06188   0.06731
 Alpha virt. eigenvalues --    0.08356   0.09732   0.10375   0.11181   0.11685
 Alpha virt. eigenvalues --    0.12628   0.13405   0.13789   0.13837   0.15323

 Mulliken charges:
               1
     1  O   -0.458721
     2  C    0.397342
     3  C    0.634776
     4  C    0.734170
     5  N   -0.343023
     6  C    0.038639
     7  N   -0.676627
     8  H   -0.363705
     9  H   -0.312597
    10  H   -0.029613
    11  H    0.379358
 Sum of Mulliken charges =  -0.00000

 Dipole moment (field-independent basis, Debye):
    X=             -6.1547    Y=              2.1633    Z=              0.5823  Tot=              6.5498

 Test job not archived.
 1\1\GINC-SE038\SP\RHF\Aug-CC-pVDZ\C4H4N2O1\OHZDE\09-Apr-2025\0\\#t hf
 aug-cc-pvdz iop(5/13=1,5/36=2,99/5=2) pseudo=read geom=check guess=(re
 ad,tcheck) scf=(maxcycle=1)\\title\\0,1\O,0,2.20329516,-1.43533329,0.0
 3531035\C,0,1.17463774,-0.82382761,-0.09529886\C,0,1.05320558,0.632171
 71,-0.07935494\C,0,-0.15160851,1.20882445,0.04303467\N,0,-1.29374423,0
 .44642575,0.1070741\C,0,-1.25462441,-0.88245768,-0.13130106\N,0,-0.071
 51898,-1.48286058,-0.30517172\H,0,1.95637615,1.22465542,-0.11156665\H,
 0,-0.28780302,2.28243337,0.09465648\H,0,-2.1870909,0.88398578,0.246540

 Normal termination of Gaussian 16 at Wed Apr  9 04:04:05 2025.
