 Gaussian 16, Revision C.01,

 ----------------------------------------------------------------------
 #t hf aug-cc-pvdz symm=none int=(grid=ultrafine) guess=(read,tcheck) s
 table=(opt,rrhf)
 ----------------------------------------------------------------------
 -----
 title
 -----
 Symbolic Z-matrix:
 Charge =  0 Multiplicity = 1

 SCF Done:  E(RHF) =  -338.655199477     A.U. after   16 cycles
 Normal termination of Gaussian 16 at Wed Apr  9 16:31:58 2025.
 Gaussian 16:  ES64L-G16RevC.01  3-Jul-2019

 ----------------------------------------------------------------------
 #t hf aug-cc-pvdz iop(5/13=1,5/36=2,99/5=2) pseudo=read geom=check gue
 ss=(read,tcheck) scf=(maxcycle=1)
 ----------------------------------------------------------------------
 -----
 title
 -----
 Structure from the checkpoint file:  "Grambow2020_wb97xd3_008544_reverse_mol1.chk"
 Charge =  0 Multiplicity = 1

                         Standard orientation:
 ---------------------------------------------------------------------
 Center     Atomic      Atomic             Coordinates (Angstroms)
 Number     Number       Type             X           Y           Z
 ---------------------------------------------------------------------
      1          6           0        2.569912   -0.527478    0.001660
      2          6           0        1.040656   -0.080982   -0.002771
      3          7           0        1.478225    1.081635   -0.009379
      4          8           0       -1.150235    1.260496    0.001930
      5          6           0       -1.260548    0.039244    0.004435
      6          7           0       -2.486751   -0.564256    0.039465
      7          6           0       -0.090704   -0.825011    0.000749
      8          1           0        3.304610    0.278953   -0.001021
      9          1           0        2.676960   -1.098120    0.920722
     10          1           0        2.679816   -1.107462   -0.911178
     11          1           0       -2.577634   -1.539500   -0.173363
     12          1           0       -3.283630    0.027680   -0.110658
     13          1           0       -0.094451   -1.901808    0.025014
 ---------------------------------------------------------------------

 SCF Done:  E(RHF) =  -338.757713692     A.U. after    2 cycles

 The electronic state is 1-A.
 Alpha  occ. eigenvalues --  -20.51429 -15.72295 -15.63397 -11.35200 -11.33816
 Alpha  occ. eigenvalues --  -11.31366 -11.22501  -1.33180  -1.26349  -1.16351
 Alpha  occ. eigenvalues --   -1.01925  -0.98356  -0.81662  -0.73653  -0.68541
 Alpha  occ. eigenvalues --   -0.67918  -0.66248  -0.61032  -0.60323  -0.59144
 Alpha  occ. eigenvalues --   -0.57772  -0.54208  -0.51611  -0.43511  -0.40961
 Alpha  occ. eigenvalues --   -0.32703
 Alpha virt. eigenvalues --    0.02431   0.03281   0.04710   0.04878   0.06114
 Alpha virt. eigenvalues --    0.07157   0.08528   0.09666   0.12103   0.12434
 Alpha virt. eigenvalues --    0.12644   0.13408   0.13871   0.14459   0.14732

 Mulliken charges:
               1
     1  C    0.324836
     2  C   -0.765093
     3  N   -0.338842
     4  O   -0.580102
     5  C    0.507580
     6  N   -0.187325
     7  C    1.301824
     8  H   -0.014575
     9  H    0.126320
    10  H    0.129225
    11  H   -0.028684
    12  H    0.000625
    13  H   -0.475789
 Sum of Mulliken charges =  -0.00000

 Dipole moment (field-independent basis, Debye):
    X=              2.1671    Y=             -4.9983    Z=             -0.5165  Tot=              5.4723

 Test job not archived.
 1\1\GINC-SE042\SP\RHF\Aug-CC-pVDZ\C4H6N2O1\OHZDE\09-Apr-2025\0\\#t hf
 aug-cc-pvdz iop(5/13=1,5/36=2,99/5=2) pseudo=read geom=check guess=(re
 ad,tcheck) scf=(maxcycle=1)\\title\\0,1\C,0,-2.3390419,0.28942124,-0.0
 4336672\C,0,-0.82334526,-0.14787314,-0.26572294\N,0,-1.26992923,-0.907
 4294,-1.14140874\O,0,1.33942652,-1.26653827,-1.08462333\C,0,1.46181542
 ,-0.43524209,-0.19153835\N,0,2.68317137,-0.15017374,0.35255519\C,0,0.3
 0869266,0.26501423,0.3519989\H,0,-3.07758282,-0.20146915,-0.67874314\H
 ,0,-2.54000269,0.03196222,0.99350179\H,0,-2.34212897,1.35510563,-0.257

 Normal termination of Gaussian 16 at Wed Apr  9 16:32:02 2025.
