 Gaussian 16, Revision C.01,

 ----------------------------------------------------------------------
 #t hf aug-cc-pvdz symm=none int=(grid=ultrafine) guess=(read,tcheck) s
 table=(opt,rrhf)
 ----------------------------------------------------------------------
 -----
 title
 -----
 Symbolic Z-matrix:
 Charge =  0 Multiplicity = 1

 SCF Done:  E(RHF) =  -307.657772352     A.U. after   16 cycles

 1\1\GINC-SE454\Stability\RHF\Aug-CC-pVDZ\C6H10O1\OHZDE\09-Apr-2025\0\\
 #t hf aug-cc-pvdz symm=none int=(grid=ultrafine) guess=(read,tcheck) s
 table=(opt,rrhf)\\title\\0,1\C,0,1.96323723,0.04793771,0.0108672\C,0,0
 .52428321,-0.35863995,0.04937233\C,0,0.04654785,-1.48145056,0.55908715
 \C,0,-1.41329352,-1.38314979,0.38668866\C,0,-1.36208236,-0.00871718,-0
 .34022543\C,0,-0.25088842,1.57790476,-0.82495497\O,0,0.26131441,2.3570
 4587,0.14125747\H,0,2.115433,1.04927217,0.41334476\H,0,2.35863721,0.02
 661894,-1.00722974\H,0,2.54297226,-0.65474684,0.61642802\H,0,0.6284613

 Normal termination of Gaussian 16 at Wed Apr  9 16:03:14 2025.
 Gaussian 16:  ES64L-G16RevC.01  3-Jul-2019

 ----------------------------------------------------------------------
 #t hf aug-cc-pvdz iop(5/13=1,5/36=2,99/5=2) pseudo=read geom=check gue
 ss=(read,tcheck) scf=(maxcycle=1)
 ----------------------------------------------------------------------
 -----
 title
 -----
 Structure from the checkpoint file:  "Grambow2020_wb97xd3_007728_forward_mol1.chk"
 Charge =  0 Multiplicity = 1

                         Standard orientation:
 ---------------------------------------------------------------------
 Center     Atomic      Atomic             Coordinates (Angstroms)
 Number     Number       Type             X           Y           Z
 ---------------------------------------------------------------------
      1          6           0        0.732938    1.832005    0.135804
      2          6           0       -0.242504    0.699126    0.086055
      3          6           0       -1.523413    0.788814   -0.230128
      4          6           0       -2.024809   -0.595214   -0.170223
      5          6           0       -0.666417   -1.201782    0.284681
      6          6           0        1.292709   -0.902012    0.527672
      7          8           0        2.064167   -0.622216   -0.535129
      8          1           0        1.634338    1.620119   -0.439005
      9          1           0        1.029567    2.060716    1.161971
     10          1           0        0.259284    2.722063   -0.288473
     11          1           0       -2.059571    1.698668   -0.483500
     12          1           0       -2.355920   -0.990962   -1.134627
     13          1           0       -2.823351   -0.773091    0.556957
     14          1           0       -0.715876   -1.550008    1.310537
     15          1           0       -0.400948   -2.037903   -0.355735
     16          1           0        1.448884   -0.112085    1.268869
     17          1           0        2.059227   -1.385406   -1.119126
 ---------------------------------------------------------------------

 SCF Done:  E(RHF) =  -307.752452678     A.U. after    2 cycles

 The electronic state is 1-A.
 Alpha  occ. eigenvalues --  -20.60128 -11.28397 -11.27996 -11.26671 -11.23183
 Alpha  occ. eigenvalues --  -11.23154 -11.23013  -1.36457  -1.11846  -0.99904
 Alpha  occ. eigenvalues --   -0.92362  -0.87466  -0.83407  -0.70194  -0.66852
 Alpha  occ. eigenvalues --   -0.65121  -0.63929  -0.62556  -0.59882  -0.56742
 Alpha  occ. eigenvalues --   -0.54506  -0.51286  -0.50581  -0.49380  -0.41236
 Alpha  occ. eigenvalues --   -0.35587  -0.30176
 Alpha virt. eigenvalues --    0.03243   0.04332   0.04368   0.04851   0.06262
 Alpha virt. eigenvalues --    0.06438   0.06719   0.07221   0.08584   0.09293
 Alpha virt. eigenvalues --    0.10752   0.12431   0.12869   0.12991   0.13700

 Mulliken charges:
               1
     1  C    0.218556
     2  C   -0.698292
     3  C    0.377340
     4  C    0.038382
     5  C    0.749194
     6  C    0.293289
     7  O   -0.436813
     8  H    0.065620
     9  H    0.047532
    10  H   -0.168577
    11  H   -0.344967
    12  H   -0.015600
    13  H   -0.045801
    14  H   -0.027886
    15  H   -0.176395
    16  H   -0.065428
    17  H    0.189846
 Sum of Mulliken charges =  -0.00000

 Dipole moment (field-independent basis, Debye):
    X=             -1.1130    Y=             -0.0024    Z=             -0.8175  Tot=              1.3809

 Test job not archived.
 1\1\GINC-SE454\SP\RHF\Aug-CC-pVDZ\C6H10O1\OHZDE\09-Apr-2025\0\\#t hf a
 ug-cc-pvdz iop(5/13=1,5/36=2,99/5=2) pseudo=read geom=check guess=(rea
 d,tcheck) scf=(maxcycle=1)\\title\\0,1\C,0,1.96323723,0.04793771,0.010
 8672\C,0,0.52428321,-0.35863995,0.04937233\C,0,0.04654785,-1.48145056,
 0.55908715\C,0,-1.41329352,-1.38314979,0.38668866\C,0,-1.36208236,-0.0
 0871718,-0.34022543\C,0,-0.25088842,1.57790476,-0.82495497\O,0,0.26131
 441,2.35704587,0.14125747\H,0,2.115433,1.04927217,0.41334476\H,0,2.358
 63721,0.02661894,-1.00722974\H,0,2.54297226,-0.65474684,0.61642802\H,0

 Normal termination of Gaussian 16 at Wed Apr  9 16:03:20 2025.
