 Gaussian 16, Revision C.01,

 ----------------------------------------------------------------------
 #t hf aug-cc-pvdz symm=none int=(grid=ultrafine) guess=(read,tcheck) s
 table=(opt,rrhf)
 ----------------------------------------------------------------------
 -----
 title
 -----
 Symbolic Z-matrix:
 Charge =  0 Multiplicity = 1

 SCF Done:  E(RHF) =  -324.964821673     A.U. after   14 cycles
 Normal termination of Gaussian 16 at Wed Apr  9 03:51:58 2025.
 Gaussian 16:  ES64L-G16RevC.01  3-Jul-2019

 ----------------------------------------------------------------------
 #t hf aug-cc-pvdz iop(5/13=1,5/36=2,99/5=2) pseudo=read geom=check gue
 ss=(read,tcheck) scf=(maxcycle=1)
 ----------------------------------------------------------------------
 -----
 title
 -----
 Structure from the checkpoint file:  "Grambow2020_wb97xd3_008235_reverse_mol1.chk"
 Charge =  0 Multiplicity = 1

                         Standard orientation:
 ---------------------------------------------------------------------
 Center     Atomic      Atomic             Coordinates (Angstroms)
 Number     Number       Type             X           Y           Z
 ---------------------------------------------------------------------
      1          6           0        2.310714   -0.855790   -0.420241
      2          6           0        1.515273   -0.033136    0.542068
      3          6           0        1.162187    1.302054    0.300662
      4          7           0       -0.857122    1.058576   -0.651553
      5          6           0       -1.225179   -0.101401   -0.158403
      6          8           0       -0.394161   -1.034710    0.029856
      7          6           0       -2.662877   -0.385083    0.242492
      8          1           0        3.282695   -1.126208   -0.003754
      9          1           0        1.745315   -1.764180   -0.613586
     10          1           0        2.451670   -0.328014   -1.363115
     11          1           0        1.289611   -0.445294    1.516289
     12          1           0        2.316495    1.020609    0.892708
     13          1           0        0.675625    1.886095    1.066111
     14          1           0        1.461554    1.779922   -0.618056
     15          1           0       -1.625049    1.719355   -0.649221
     16          1           0       -2.992138   -1.305128   -0.241761
     17          1           0       -3.345216    0.423122   -0.023599
     18          1           0       -2.708129   -0.552495    1.320542
 ---------------------------------------------------------------------

 SCF Done:  E(RHF) =  -325.067781357     A.U. after    2 cycles

 The electronic state is 1-A.
 Alpha  occ. eigenvalues --  -20.47686 -15.54152 -11.34105 -11.32815 -11.29583
 Alpha  occ. eigenvalues --  -11.25162 -11.20534  -1.27545  -1.14506  -1.08358
 Alpha  occ. eigenvalues --   -0.98114  -0.94026  -0.82038  -0.71355  -0.69442
 Alpha  occ. eigenvalues --   -0.65273  -0.63745  -0.59739  -0.58213  -0.56752
 Alpha  occ. eigenvalues --   -0.55954  -0.55128  -0.52554  -0.52245  -0.46520
 Alpha  occ. eigenvalues --   -0.40874  -0.35190  -0.32796
 Alpha virt. eigenvalues --    0.02425   0.03974   0.04328   0.04850   0.06245
 Alpha virt. eigenvalues --    0.06272   0.06731   0.07395   0.07629   0.09058
 Alpha virt. eigenvalues --    0.09222   0.11319   0.12322   0.13541   0.13889

 Mulliken charges:
               1
     1  C    0.300939
     2  C    0.262280
     3  C    0.860917
     4  N   -0.481071
     5  C    0.098630
     6  O   -0.703856
     7  C    0.444960
     8  H    0.017633
     9  H    0.056967
    10  H   -0.026590
    11  H   -0.284895
    12  H    0.144885
    13  H   -0.232955
    14  H   -0.237311
    15  H   -0.070204
    16  H   -0.011543
    17  H   -0.136375
    18  H   -0.002412
 Sum of Mulliken charges =   0.00000

 Dipole moment (field-independent basis, Debye):
    X=              3.6482    Y=              2.5068    Z=              2.2190  Tot=              4.9515

 Test job not archived.
 1\1\GINC-SE041\SP\RHF\Aug-CC-pVDZ\C5H11N1O1\OHZDE\09-Apr-2025\0\\#t hf
  aug-cc-pvdz iop(5/13=1,5/36=2,99/5=2) pseudo=read geom=check guess=(r
 ead,tcheck) scf=(maxcycle=1)\\title\\0,1\C,0,-2.06349063,0.3855591,-0.
 98389233\C,0,-1.16084837,0.85967748,0.1097141\C,0,-1.04888353,0.210691
 5,1.34743799\N,0,0.68078333,-1.17004995,0.96611412\C,0,1.30242776,-0.5
 2829367,0.00386787\O,0,0.66826755,0.10412986,-0.88774855\C,0,2.8184955
 4,-0.48134079,-0.08273578\H,0,-2.85826457,1.10632856,-1.18429112\H,0,-
 1.4561031,0.27315122,-1.8786971\H,0,-2.50126346,-0.58166624,-0.7384207

 Normal termination of Gaussian 16 at Wed Apr  9 03:52:07 2025.
