 Gaussian 16, Revision C.01,

 ----------------------------------------------------------------------
 #t hf aug-cc-pvdz symm=none int=(grid=ultrafine) guess=(read,tcheck) s
 table=(opt,rrhf)
 ----------------------------------------------------------------------
 -----
 title
 -----
 Symbolic Z-matrix:
 Charge =  0 Multiplicity = 1

 SCF Done:  E(RHF) =  -346.099264209     A.U. after   12 cycles

 1\1\GINC-SE057\Stability\RHF\Aug-CC-pVDZ\C5H12O2\OHZDE\09-Apr-2025\0\\
 #t hf aug-cc-pvdz symm=none int=(grid=ultrafine) guess=(read,tcheck) s
 table=(opt,rrhf)\\title\\0,1\C,0,2.31418468,0.21389116,1.36091123\C,0,
 0.85265774,0.54243446,1.09389149\C,0,0.33259387,-0.08566034,-0.1957706
 8\O,0,0.46757898,-1.49422726,-0.185889\C,0,-1.12100418,0.29880642,-0.4
 8016233\C,0,-1.58043827,-0.13932518,-1.85828449\O,0,-1.89152737,-0.323
 23689,0.54558286\H,0,2.46248206,-0.86453383,1.42437429\H,0,2.95552301,
 0.5888649,0.55896129\H,0,2.65550237,0.66065346,2.29621276\H,0,0.226746

 Normal termination of Gaussian 16 at Wed Apr  9 16:20:21 2025.
 Gaussian 16:  ES64L-G16RevC.01  3-Jul-2019

 ----------------------------------------------------------------------
 #t hf aug-cc-pvdz iop(5/13=1,5/36=2,99/5=2) pseudo=read geom=check gue
 ss=(read,tcheck) scf=(maxcycle=1)
 ----------------------------------------------------------------------
 -----
 title
 -----
 Structure from the checkpoint file:  "Grambow2020_wb97xd3_008070_forward_mol2.chk"
 Charge =  0 Multiplicity = 1

                         Standard orientation:
 ---------------------------------------------------------------------
 Center     Atomic      Atomic             Coordinates (Angstroms)
 Number     Number       Type             X           Y           Z
 ---------------------------------------------------------------------
      1          6           0        2.771766   -0.049283   -0.189903
      2          6           0        1.415666    0.628017   -0.322415
      3          6           0        0.253316   -0.356976   -0.239171
      4          8           0        0.262494   -1.078940    0.977819
      5          6           0       -1.100675    0.330014   -0.429939
      6          6           0       -2.242517   -0.660205   -0.563810
      7          8           0       -1.271569    1.167649    0.711096
      8          1           0        2.846092   -0.583165    0.757972
      9          1           0        2.929726   -0.775698   -0.991409
     10          1           0        3.583559    0.678565   -0.235877
     11          1           0        1.288172    1.383689    0.458278
     12          1           0        1.351939    1.156711   -1.279364
     13          1           0        0.366015   -1.108095   -1.028459
     14          1           0       -0.049355   -0.469720    1.655196
     15          1           0       -1.045403    0.952626   -1.333398
     16          1           0       -2.267198   -1.331094    0.295651
     17          1           0       -3.202599   -0.141683   -0.636210
     18          1           0       -2.125167   -1.260525   -1.467878
     19          1           0       -2.188525    1.439307    0.765605
 ---------------------------------------------------------------------

 SCF Done:  E(RHF) =  -346.209072730     A.U. after    2 cycles

 The electronic state is 1-A.
 Alpha  occ. eigenvalues --  -20.58020 -20.55943 -11.29271 -11.28166 -11.23084
 Alpha  occ. eigenvalues --  -11.22166 -11.21375  -1.34335  -1.30914  -1.05349
 Alpha  occ. eigenvalues --   -1.01341  -0.92420  -0.83256  -0.80578  -0.71771
 Alpha  occ. eigenvalues --   -0.67398  -0.64897  -0.63361  -0.62047  -0.57543
 Alpha  occ. eigenvalues --   -0.56044  -0.54933  -0.53125  -0.52131  -0.51374
 Alpha  occ. eigenvalues --   -0.48166  -0.47536  -0.45280  -0.43200
 Alpha virt. eigenvalues --    0.03138   0.04172   0.04527   0.04930   0.06029
 Alpha virt. eigenvalues --    0.06344   0.06708   0.06941   0.08750   0.08844
 Alpha virt. eigenvalues --    0.09495   0.09698   0.12073   0.13876   0.13912

 Mulliken charges:
               1
     1  C    0.496943
     2  C    0.156022
     3  C    0.331649
     4  O   -0.675780
     5  C    0.496232
     6  C    0.501310
     7  O   -0.713698
     8  H   -0.019569
     9  H   -0.075352
    10  H   -0.052751
    11  H   -0.104222
    12  H   -0.109376
    13  H   -0.323365
    14  H    0.196842
    15  H   -0.208986
    16  H    0.034584
    17  H   -0.077636
    18  H   -0.015407
    19  H    0.162563
 Sum of Mulliken charges =  -0.00000

 Dipole moment (field-independent basis, Debye):
    X=             -1.8890    Y=              1.2190    Z=             -1.3521  Tot=              2.6235

 Test job not archived.
 1\1\GINC-SE057\SP\RHF\Aug-CC-pVDZ\C5H12O2\OHZDE\09-Apr-2025\0\\#t hf a
 ug-cc-pvdz iop(5/13=1,5/36=2,99/5=2) pseudo=read geom=check guess=(rea
 d,tcheck) scf=(maxcycle=1)\\title\\0,1\C,0,2.31418468,0.21389116,1.360
 91123\C,0,0.85265774,0.54243446,1.09389149\C,0,0.33259387,-0.08566034,
 -0.19577068\O,0,0.46757898,-1.49422726,-0.185889\C,0,-1.12100418,0.298
 80642,-0.48016233\C,0,-1.58043827,-0.13932518,-1.85828449\O,0,-1.89152
 737,-0.32323689,0.54558286\H,0,2.46248206,-0.86453383,1.42437429\H,0,2
 .95552301,0.5888649,0.55896129\H,0,2.65550237,0.66065346,2.29621276\H,

 Normal termination of Gaussian 16 at Wed Apr  9 16:20:29 2025.
