 Gaussian 16, Revision C.01,

 ----------------------------------------------------------------------
 #t hf aug-cc-pvdz symm=none int=(grid=ultrafine) guess=(read,tcheck) s
 table=(opt,rrhf)
 ----------------------------------------------------------------------
 -----
 title
 -----
 Symbolic Z-matrix:
 Charge =  0 Multiplicity = 1

 SCF Done:  E(RHF) =  -338.702541418     A.U. after   14 cycles
 Normal termination of Gaussian 16 at Wed Apr  9 16:32:56 2025.
 Gaussian 16:  ES64L-G16RevC.01  3-Jul-2019

 ----------------------------------------------------------------------
 #t hf aug-cc-pvdz iop(5/13=1,5/36=2,99/5=2) pseudo=read geom=check gue
 ss=(read,tcheck) scf=(maxcycle=1)
 ----------------------------------------------------------------------
 -----
 title
 -----
 Structure from the checkpoint file:  "Grambow2020_wb97xd3_008558_reverse_mol2.chk"
 Charge =  0 Multiplicity = 1

                         Standard orientation:
 ---------------------------------------------------------------------
 Center     Atomic      Atomic             Coordinates (Angstroms)
 Number     Number       Type             X           Y           Z
 ---------------------------------------------------------------------
      1          7           0       -2.015947    1.142276   -0.082839
      2          6           0       -2.309038   -0.122451    0.205785
      3          8           0       -1.324178   -0.993903   -0.025456
      4          6           0       -0.033422   -0.644425   -0.519716
      5          6           0        0.873122   -0.208103    0.633766
      6          6           0        2.196723    0.169999    0.149963
      7          7           0        3.222886    0.470640   -0.264436
      8          1           0       -1.158594    1.503300   -0.481408
      9          1           0       -2.750516    1.811360    0.058668
     10          1           0       -0.080625    0.116148   -1.303756
     11          1           0        0.358146   -1.551222   -0.977714
     12          1           0        0.441856    0.638087    1.171961
     13          1           0        0.970282   -1.026980    1.348036
 ---------------------------------------------------------------------

 SCF Done:  E(RHF) =  -338.807406267     A.U. after    2 cycles

 The electronic state is 1-A.
 Alpha  occ. eigenvalues --  -20.62755 -15.67437 -15.65232 -11.33711 -11.32588
 Alpha  occ. eigenvalues --  -11.31004 -11.30117  -1.40716  -1.21332  -1.20748
 Alpha  occ. eigenvalues --   -1.09462  -0.95658  -0.83565  -0.77215  -0.74623
 Alpha  occ. eigenvalues --   -0.70706  -0.68149  -0.65218  -0.61636  -0.56602
 Alpha  occ. eigenvalues --   -0.55429  -0.53977  -0.48415  -0.47492  -0.46055
 Alpha  occ. eigenvalues --   -0.37519
 Alpha virt. eigenvalues --    0.02447   0.03791   0.04033   0.05073   0.06517
 Alpha virt. eigenvalues --    0.07340   0.08436   0.10337   0.10456   0.12190
 Alpha virt. eigenvalues --    0.12942   0.13423   0.13542   0.14330   0.14972

 Mulliken charges:
               1
     1  N    0.005673
     2  C    0.089978
     3  O   -0.532691
     4  C    0.868222
     5  C    0.422368
     6  C   -0.311945
     7  N   -0.173889
     8  H    0.045137
     9  H    0.015838
    10  H   -0.175965
    11  H   -0.258077
    12  H   -0.057633
    13  H    0.062983
 Sum of Mulliken charges =  -0.00000

 Dipole moment (field-independent basis, Debye):
    X=             -0.9589    Y=              2.0091    Z=             -0.1712  Tot=              2.2328

 Test job not archived.
 1\1\GINC-SE138\SP\RHF\Aug-CC-pVDZ\C4H6N2O1\OHZDE\09-Apr-2025\0\\#t hf
 aug-cc-pvdz iop(5/13=1,5/36=2,99/5=2) pseudo=read geom=check guess=(re
 ad,tcheck) scf=(maxcycle=1)\\title\\0,1\N,0,-2.12121569,0.37106782,-0.
 20098457\C,0,-2.00209458,-0.90773812,0.14427898\O,0,-0.77776231,-1.418
 53496,-0.00720094\C,0,0.35249413,-0.68670966,-0.47563814\C,0,1.0108223
 4,0.06635798,0.68290041\C,0,2.16231042,0.83634364,0.22448648\N,0,3.054
 53223,1.43884617,-0.1705489\H,0,-1.40882519,0.97614488,-0.58909672\H,0
 ,-3.03907433,0.76887901,-0.11991963\H,0,0.0996965,-0.01450166,-1.30004

 Normal termination of Gaussian 16 at Wed Apr  9 16:33:01 2025.
