 Gaussian 16, Revision C.01,

 ----------------------------------------------------------------------
 #t hf aug-cc-pvdz symm=none int=(grid=ultrafine) guess=(read,tcheck) s
 table=(opt,rrhf)
 ----------------------------------------------------------------------
 -----
 title
 -----
 Symbolic Z-matrix:
 Charge =  0 Multiplicity = 1

 SCF Done:  E(RHF) =  -324.950716446     A.U. after   14 cycles
 Normal termination of Gaussian 16 at Wed Apr  9 16:21:26 2025.
 Gaussian 16:  ES64L-G16RevC.01  3-Jul-2019

 ----------------------------------------------------------------------
 #t hf aug-cc-pvdz iop(5/13=1,5/36=2,99/5=2) pseudo=read geom=check gue
 ss=(read,tcheck) scf=(maxcycle=1)
 ----------------------------------------------------------------------
 -----
 title
 -----
 Structure from the checkpoint file:  "Grambow2020_wb97xd3_008119_forward_mol1.chk"
 Charge =  0 Multiplicity = 1

                         Standard orientation:
 ---------------------------------------------------------------------
 Center     Atomic      Atomic             Coordinates (Angstroms)
 Number     Number       Type             X           Y           Z
 ---------------------------------------------------------------------
      1          6           0       -2.801133    0.042645   -0.335685
      2          7           0       -1.367302    0.084769   -0.581304
      3          6           0       -0.504411   -0.051596    0.373516
      4          8           0       -0.337482   -0.213659    1.536458
      5          6           0        1.146951    0.074452   -0.588661
      6          6           0        1.804065    1.289853    0.038632
      7          6           0        1.818672   -1.248305   -0.270087
      8          1           0       -3.226800   -0.867630   -0.762521
      9          1           0       -3.276467    0.898644   -0.815643
     10          1           0       -3.026032    0.067628    0.731749
     11          1           0       -0.082040    0.127261   -1.052087
     12          1           0        1.191299    0.208781   -1.693179
     13          1           0        1.783335    1.203503    1.126360
     14          1           0        1.294220    2.213532   -0.240747
     15          1           0        2.847919    1.371400   -0.273821
     16          1           0        2.861885   -1.241241   -0.595047
     17          1           0        1.801194   -1.423608    0.806914
     18          1           0        1.317594   -2.084673   -0.760804
 ---------------------------------------------------------------------

 SCF Done:  E(RHF) =  -325.053991976     A.U. after    2 cycles

 The electronic state is 1-A.
 Alpha  occ. eigenvalues --  -20.57348 -15.62196 -11.40670 -11.26461 -11.26291
 Alpha  occ. eigenvalues --  -11.23607 -11.23593  -1.38676  -1.21196  -1.07799
 Alpha  occ. eigenvalues --   -0.96685  -0.94295  -0.83332  -0.72950  -0.69624
 Alpha  occ. eigenvalues --   -0.66670  -0.63842  -0.63622  -0.58909  -0.57808
 Alpha  occ. eigenvalues --   -0.56970  -0.54715  -0.54172  -0.51582  -0.50404
 Alpha  occ. eigenvalues --   -0.45802  -0.38621  -0.38257
 Alpha virt. eigenvalues --    0.03059   0.04069   0.04324   0.04781   0.06162
 Alpha virt. eigenvalues --    0.06259   0.07073   0.07474   0.08271   0.08608
 Alpha virt. eigenvalues --    0.09584   0.11163   0.12962   0.14289   0.14332

 Mulliken charges:
               1
     1  C    0.735990
     2  N   -0.606209
     3  C    0.023489
     4  O   -0.373848
     5  C   -1.129075
     6  C    0.754423
     7  C    0.753140
     8  H   -0.118200
     9  H   -0.153131
    10  H   -0.142036
    11  H    0.431612
    12  H    0.063374
    13  H   -0.007613
    14  H   -0.072745
    15  H   -0.039869
    16  H   -0.040097
    17  H   -0.006630
    18  H   -0.072576
 Sum of Mulliken charges =  -0.00000

 Dipole moment (field-independent basis, Debye):
    X=              0.5209    Y=              0.3383    Z=             -2.6346  Tot=              2.7068

 Test job not archived.
 1\1\GINC-SE129\SP\RHF\Aug-CC-pVDZ\C5H11N1O1\OHZDE\09-Apr-2025\0\\#t hf
  aug-cc-pvdz iop(5/13=1,5/36=2,99/5=2) pseudo=read geom=check guess=(r
 ead,tcheck) scf=(maxcycle=1)\\title\\0,1\C,0,2.95425812,0.39051267,-0.
 18043103\N,0,1.5266469,0.23199786,-0.41447181\C,0,0.69289749,0.0229709
 3,0.55301285\O,0,0.5550563,-0.12576651,1.72153402\C,0,-0.96955011,-0.0
 6833799,-0.39387535\C,0,-1.45307495,-1.47196289,-0.07997129\C,0,-1.779
 03648,1.04271557,0.2485236\H,0,3.25216454,1.42301584,-0.3732253\H,0,3.
 50739096,-0.25660512,-0.86184169\H,0,3.22338124,0.13382596,0.84538671\

 Normal termination of Gaussian 16 at Wed Apr  9 16:21:34 2025.
