 Gaussian 16, Revision C.01,

 ----------------------------------------------------------------------
 #t hf aug-cc-pvdz symm=none int=(grid=ultrafine) guess=(read,tcheck) s
 table=(opt,rrhf)
 ----------------------------------------------------------------------
 -----
 title
 -----
 Symbolic Z-matrix:
 Charge =  0 Multiplicity = 1

 SCF Done:  E(RHF) =  -353.433958307     A.U. after   16 cycles
 Normal termination of Gaussian 16 at Wed Apr  9 16:06:46 2025.
 Gaussian 16:  ES64L-G16RevC.01  3-Jul-2019

 ----------------------------------------------------------------------
 #t hf aug-cc-pvdz iop(5/13=1,5/36=2,99/5=2) pseudo=read geom=check gue
 ss=(read,tcheck) scf=(maxcycle=1)
 ----------------------------------------------------------------------
 -----
 title
 -----
 Structure from the checkpoint file:  "Grambow2020_wb97xd3_007769_forward_mol1.chk"
 Charge =  0 Multiplicity = 1

                         Standard orientation:
 ---------------------------------------------------------------------
 Center     Atomic      Atomic             Coordinates (Angstroms)
 Number     Number       Type             X           Y           Z
 ---------------------------------------------------------------------
      1          8           0        2.653436    0.566247   -0.000165
      2          6           0        1.825992   -0.307003    0.001092
      3          7           0        0.474957   -0.045494   -0.002684
      4          6           0       -1.317920    1.428977    0.000720
      5          7           0       -2.208660    0.687858    0.000263
      6          6           0       -1.492307   -1.232463    0.001468
      7          7           0       -0.323688   -1.055433   -0.000654
      8          1           0        2.091857   -1.381279    0.006294
      9          1           0       -0.658682    2.269698    0.000815
     10          1           0       -2.353514   -1.863972   -0.003934
 ---------------------------------------------------------------------

 SCF Done:  E(RHF) =  -353.542273756     A.U. after    2 cycles

 The electronic state is 1-A.
 Alpha  occ. eigenvalues --  -20.53843 -15.76166 -15.67632 -15.65668 -11.37841
 Alpha  occ. eigenvalues --  -11.35378 -11.34303  -1.36866  -1.33423  -1.23184
 Alpha  occ. eigenvalues --   -1.14337  -0.88593  -0.82158  -0.80404  -0.74639
 Alpha  occ. eigenvalues --   -0.68738  -0.64021  -0.62830  -0.59951  -0.54040
 Alpha  occ. eigenvalues --   -0.51011  -0.48837  -0.46308  -0.40477  -0.36227
 Alpha virt. eigenvalues --    0.02320   0.03846   0.04568   0.05909   0.07752
 Alpha virt. eigenvalues --    0.08934   0.09124   0.09602   0.10809   0.11776
 Alpha virt. eigenvalues --    0.13201   0.14558   0.14654   0.15399   0.15970

 Mulliken charges:
               1
     1  O   -0.470054
     2  C    0.693591
     3  N   -0.354306
     4  C    0.300502
     5  N   -0.283638
     6  C    0.150473
     7  N    0.267190
     8  H   -0.170917
     9  H   -0.002451
    10  H   -0.130390
 Sum of Mulliken charges =  -0.00000

 Dipole moment (field-independent basis, Debye):
    X=             -4.5173    Y=             -2.3251    Z=              0.0036  Tot=              5.0806

 Test job not archived.
 1\1\GINC-SE097\SP\RHF\Aug-CC-pVDZ\C3H3N3O1\OHZDE\09-Apr-2025\0\\#t hf
 aug-cc-pvdz iop(5/13=1,5/36=2,99/5=2) pseudo=read geom=check guess=(re
 ad,tcheck) scf=(maxcycle=1)\\title\\0,1\O,0,2.85687942,0.0610456,0.147
 52248\C,0,1.8533982,-0.57848365,0.32432716\N,0,0.5999459,-0.07558708,0
 .06041578\C,0,-0.80686724,1.62976119,-0.64750054\N,0,-1.8416557,1.1233
 2215,-0.52337246\C,0,-1.58318951,-0.77931769,0.19353081\N,0,-0.4067466
 ,-0.84597184,0.28600982\H,0,1.86662613,-1.61493958,0.71209488\H,0,0.02
 561617,2.2727743,-0.83434894\H,0,-2.56400478,-1.19260339,0.28132203\\V

 Normal termination of Gaussian 16 at Wed Apr  9 16:06:51 2025.
