 Gaussian 16, Revision C.01,

 ----------------------------------------------------------------------
 #t hf aug-cc-pvdz symm=none int=(grid=ultrafine) guess=(read,tcheck) s
 table=(opt,rrhf)
 ----------------------------------------------------------------------
 -----
 title
 -----
 Symbolic Z-matrix:
 Charge =  0 Multiplicity = 1

 SCF Done:  E(RHF) =  -284.702510848     A.U. after   20 cycles
 Normal termination of Gaussian 16 at Wed Apr  9 14:23:22 2025.
 Gaussian 16:  ES64L-G16RevC.01  3-Jul-2019

 ----------------------------------------------------------------------
 #t hf aug-cc-pvdz iop(5/13=1,5/36=2,99/5=2) pseudo=read geom=check gue
 ss=(read,tcheck) scf=(maxcycle=1)
 ----------------------------------------------------------------------
 -----
 title
 -----
 Structure from the checkpoint file:  "Grambow2020_wb97xd3_006092_reverse_mol1.chk"
 Charge =  0 Multiplicity = 1

                         Standard orientation:
 ---------------------------------------------------------------------
 Center     Atomic      Atomic             Coordinates (Angstroms)
 Number     Number       Type             X           Y           Z
 ---------------------------------------------------------------------
      1          6           0        1.817200   -0.304952   -0.731954
      2          6           0        0.917991    0.020723    0.441003
      3          7           0        0.328478    1.272971    0.380734
      4          6           0       -0.297683   -0.855663    0.664003
      5          6           0       -1.427626   -0.562586   -0.105485
      6          8           0       -1.683885    0.523214   -0.615233
      7          1           0        1.244758   -0.220422   -1.656246
      8          1           0        2.214414   -1.317595   -0.652811
      9          1           0        2.646726    0.402831   -0.774167
     10          1           0        1.434990   -0.106792    1.411287
     11          1           0       -0.100509    1.468660    1.285989
     12          1           0       -0.268178   -1.669388    1.377304
     13          1           0       -2.059770   -1.438926   -0.340036
 ---------------------------------------------------------------------

 SCF Done:  E(RHF) =  -284.789397951     A.U. after    2 cycles

 The electronic state is 1-A.
 Alpha  occ. eigenvalues --  -20.55080 -15.71021 -11.32281 -11.30724 -11.26611
 Alpha  occ. eigenvalues --  -11.23793  -1.33497  -1.21328  -1.01696  -0.98147
 Alpha  occ. eigenvalues --   -0.84315  -0.75487  -0.72439  -0.66797  -0.62122
 Alpha  occ. eigenvalues --   -0.60908  -0.58328  -0.55007  -0.54225  -0.51014
 Alpha  occ. eigenvalues --   -0.47247  -0.41731  -0.31345
 Alpha virt. eigenvalues --   -0.00345   0.02525   0.04056   0.04373   0.05322
 Alpha virt. eigenvalues --    0.06505   0.06889   0.07929   0.10378   0.11581
 Alpha virt. eigenvalues --    0.12458   0.13573   0.13955   0.14513   0.15323

 Mulliken charges:
               1
     1  C    0.411985
     2  C    0.127047
     3  N   -0.292309
     4  C    0.223263
     5  C    0.523104
     6  O   -0.541484
     7  H    0.046835
     8  H   -0.005102
     9  H   -0.006935
    10  H   -0.029742
    11  H    0.094511
    12  H   -0.391248
    13  H   -0.159928
 Sum of Mulliken charges =  -0.00000

 Dipole moment (field-independent basis, Debye):
    X=              2.7575    Y=             -2.2397    Z=              2.9929  Tot=              4.6451

 Test job not archived.
 1\1\GINC-SE026\SP\RHF\Aug-CC-pVDZ\C4H7N1O1\OHZDE\09-Apr-2025\0\\#t hf
 aug-cc-pvdz iop(5/13=1,5/36=2,99/5=2) pseudo=read geom=check guess=(re
 ad,tcheck) scf=(maxcycle=1)\\title\\0,1\C,0,-1.07058848,-0.49481352,1.
 15715417\C,0,-0.36501548,-0.58027181,-0.17900921\N,0,-0.9211808,0.2093
 1781,-1.17224187\C,0,1.08322313,-0.13959816,-0.24271243\C,0,1.31246609
 ,1.23410232,-0.36588034\O,0,0.52274276,2.05271634,-0.82488221\H,0,-1.0
 8504875,0.54396799,1.48862992\H,0,-0.56200847,-1.09937781,1.90904281\H
 ,0,-2.10123033,-0.83941144,1.05774985\H,0,-0.27051574,-1.62394616,-0.5

 Normal termination of Gaussian 16 at Wed Apr  9 14:23:26 2025.
