 Gaussian 16, Revision C.01,

 ----------------------------------------------------------------------
 #t hf aug-cc-pvdz symm=none int=(grid=ultrafine) guess=(read,tcheck) s
 table=(opt,rrhf)
 ----------------------------------------------------------------------
 -----
 title
 -----
 Symbolic Z-matrix:
 Charge =  0 Multiplicity = 1

 SCF Done:  E(RHF) =  -373.189497187     A.U. after   18 cycles
 Normal termination of Gaussian 16 at Wed Apr  9 03:26:58 2025.
 Gaussian 16:  ES64L-G16RevC.01  3-Jul-2019

 ----------------------------------------------------------------------
 #t hf aug-cc-pvdz iop(5/13=1,5/36=2,99/5=2) pseudo=read geom=check gue
 ss=(read,tcheck) scf=(maxcycle=1)
 ----------------------------------------------------------------------
 -----
 title
 -----
 Structure from the checkpoint file:  "Grambow2020_wb97xd3_006700_reverse_mol1.chk"
 Charge =  0 Multiplicity = 1

                         Standard orientation:
 ---------------------------------------------------------------------
 Center     Atomic      Atomic             Coordinates (Angstroms)
 Number     Number       Type             X           Y           Z
 ---------------------------------------------------------------------
      1          8           0        2.755009    0.413620   -0.144966
      2          6           0        1.727734   -0.141796    0.004322
      3          6           0        0.508630   -0.521659    0.237025
      4          7           0       -0.569000   -1.198836   -0.001135
      5          6           0       -1.726934   -0.660838   -0.144205
      6          7           0       -1.903342    0.731534   -0.012318
      7          8           0       -0.847690    1.322383    0.077553
      8          1           0        1.603568   -1.409001    0.337347
      9          1           0       -2.612304   -1.262142   -0.286731
 ---------------------------------------------------------------------

 SCF Done:  E(RHF) =  -373.301907097     A.U. after    2 cycles

 The electronic state is 1-A.
 Alpha  occ. eigenvalues --  -20.67288 -20.61555 -15.79069 -15.73356 -11.42597
 Alpha  occ. eigenvalues --  -11.36637 -11.34992  -1.50249  -1.41790  -1.30273
 Alpha  occ. eigenvalues --   -1.13148  -1.04562  -0.90476  -0.79630  -0.75978
 Alpha  occ. eigenvalues --   -0.72794  -0.69361  -0.67027  -0.64429  -0.63173
 Alpha  occ. eigenvalues --   -0.56221  -0.54731  -0.48860  -0.41718  -0.37048
 Alpha virt. eigenvalues --   -0.00537   0.02750   0.03642   0.06555   0.07709
 Alpha virt. eigenvalues --    0.08976   0.09652   0.11275   0.12784   0.13011
 Alpha virt. eigenvalues --    0.13476   0.14177   0.14985   0.15321   0.16434

 Mulliken charges:
               1
     1  O   -0.243655
     2  C   -0.156964
     3  C    0.540493
     4  N   -0.214300
     5  C    0.699683
     6  N   -0.076866
     7  O   -0.427470
     8  H    0.091712
     9  H   -0.212633
 Sum of Mulliken charges =  -0.00000

 Dipole moment (field-independent basis, Debye):
    X=             -2.5675    Y=             -3.3070    Z=             -0.1564  Tot=              4.1896

 Test job not archived.
 1\1\GINC-SE021\SP\RHF\Aug-CC-pVDZ\C3H2N2O2\OHZDE\09-Apr-2025\0\\#t hf
 aug-cc-pvdz iop(5/13=1,5/36=2,99/5=2) pseudo=read geom=check guess=(re
 ad,tcheck) scf=(maxcycle=1)\\title\\0,1\O,0,-2.88379312,-0.4766671,-0.
 46815632\C,0,-1.83971659,-0.02060951,-0.17153544\C,0,-0.62393076,0.237
 67228,0.20238353\N,0,0.5126985,0.85409703,0.13404651\C,0,1.64100759,0.
 24978234,0.02248452\N,0,1.71330609,-1.15790627,0.00247937\O,0,0.617392
 54,-1.67379649,-0.06394436\H,0,-1.66291976,1.1881681,0.31808731\H,0,2.
 57306052,0.79478961,0.02425388\\Version=ES64L-G16RevC.01\State=1-A\HF=

 Normal termination of Gaussian 16 at Wed Apr  9 03:27:01 2025.
