 Gaussian 16, Revision C.01,

 ----------------------------------------------------------------------
 #t hf aug-cc-pvdz symm=none int=(grid=ultrafine) guess=(read,tcheck) s
 table=(opt,rrhf)
 ----------------------------------------------------------------------
 -----
 title
 -----
 Symbolic Z-matrix:
 Charge =  0 Multiplicity = 1

 SCF Done:  E(RHF) =  -231.732506660     A.U. after   13 cycles
 Normal termination of Gaussian 16 at Wed Apr  9 14:15:13 2025.
 Gaussian 16:  ES64L-G16RevC.01  3-Jul-2019

 ----------------------------------------------------------------------
 #t hf aug-cc-pvdz iop(5/13=1,5/36=2,99/5=2) pseudo=read geom=check gue
 ss=(read,tcheck) scf=(maxcycle=1)
 ----------------------------------------------------------------------
 -----
 title
 -----
 Structure from the checkpoint file:  "Grambow2020_b97d3_006875_reverse_mol2.chk"
 Charge =  0 Multiplicity = 1

                         Standard orientation:
 ---------------------------------------------------------------------
 Center     Atomic      Atomic             Coordinates (Angstroms)
 Number     Number       Type             X           Y           Z
 ---------------------------------------------------------------------
      1          6           0        0.751691   -0.198982   -1.060527
      2          6           0        0.539492    0.974386   -0.006372
      3          6           0       -0.938997    1.153669   -0.005541
      4          6           0       -1.350973   -0.316432   -0.000885
      5          6           0        0.009117   -1.042741    0.006073
      6          6           0        0.746779   -0.185051    1.065444
      7          1           0        1.819117   -0.437476   -1.156585
      8          1           0        0.289503   -0.082820   -2.050442
      9          1           0        1.181782    1.861138   -0.011249
     10          1           0        0.279579   -0.055523    2.051369
     11          1           0       -1.988378   -0.514893    0.878052
     12          1           0       -1.981398   -0.520841   -0.883667
     13          1           0        0.043151   -2.137902    0.013065
     14          1           0        1.813984   -0.420781    1.170302
 ---------------------------------------------------------------------

 SCF Done:  E(RHF) =  -231.796354928     A.U. after    2 cycles

 The electronic state is 1-A.
 Alpha  occ. eigenvalues --  -11.26570 -11.25594 -11.25567 -11.25266 -11.25020
 Alpha  occ. eigenvalues --  -11.24038  -1.18777  -0.97192  -0.93005  -0.90624
 Alpha  occ. eigenvalues --   -0.76171  -0.70869  -0.66908  -0.62916  -0.60909
 Alpha  occ. eigenvalues --   -0.52866  -0.49847  -0.48343  -0.47937  -0.46138
 Alpha  occ. eigenvalues --   -0.45563  -0.34382
 Alpha virt. eigenvalues --    0.03106   0.04173   0.04258   0.04905   0.06450
 Alpha virt. eigenvalues --    0.06672   0.06696   0.07999   0.09047   0.09659
 Alpha virt. eigenvalues --    0.12373   0.12424   0.13078   0.13345   0.14380

 Mulliken charges:
               1
     1  C    0.577781
     2  C    0.442075
     3  C   -0.412734
     4  C    0.411972
     5  C    0.337083
     6  C    0.577297
     7  H   -0.279638
     8  H   -0.232113
     9  H   -0.341840
    10  H   -0.234064
    11  H   -0.131261
    12  H   -0.128388
    13  H   -0.305871
    14  H   -0.280298
 Sum of Mulliken charges =  -0.00000

 Dipole moment (field-independent basis, Debye):
    X=              1.5732    Y=             -2.3122    Z=              0.0069  Tot=              2.7966

 Test job not archived.
 1\1\GINC-SE097\SP\RHF\Aug-CC-pVDZ\C6H8\OHZDE\09-Apr-2025\0\\#t hf aug-
 cc-pvdz iop(5/13=1,5/36=2,99/5=2) pseudo=read geom=check guess=(read,t
 check) scf=(maxcycle=1)\\title\\0,1\C,0,-1.11096907,-0.16198113,0.5640
 9778\C,0,-0.13821244,1.09344675,0.46061451\C,0,1.13607628,0.5709611,1.
 02742071\C,0,1.14934792,-0.79585053,0.34727905\C,0,-0.14606754,-0.7638
 7328,-0.48836179\C,0,-0.03446855,0.66814299,-1.07053078\H,0,-2.1036614
 8,0.09062896,0.16880743\H,0,-1.19701433,-0.65939225,1.53991629\H,0,-0.
 47574032,2.09476165,0.74755156\H,0,0.88043326,0.94236944,-1.61353695\H

 Normal termination of Gaussian 16 at Wed Apr  9 14:15:17 2025.
