 Gaussian 16, Revision C.01,

 ----------------------------------------------------------------------
 #t hf aug-cc-pvdz symm=none int=(grid=ultrafine) guess=(read,tcheck) s
 table=(opt,rrhf)
 ----------------------------------------------------------------------
 -----
 title
 -----
 Symbolic Z-matrix:
 Charge =  0 Multiplicity = 1

 SCF Done:  E(RHF) =  -358.441636152     A.U. after   17 cycles
 Normal termination of Gaussian 16 at Wed Apr  9 03:28:07 2025.
 Gaussian 16:  ES64L-G16RevC.01  3-Jul-2019

 ----------------------------------------------------------------------
 #t hf aug-cc-pvdz iop(5/13=1,5/36=2,99/5=2) pseudo=read geom=check gue
 ss=(read,tcheck) scf=(maxcycle=1)
 ----------------------------------------------------------------------
 -----
 title
 -----
 Structure from the checkpoint file:  "Grambow2020_wb97xd3_006752_forward_mol1.chk"
 Charge =  0 Multiplicity = 1

                         Standard orientation:
 ---------------------------------------------------------------------
 Center     Atomic      Atomic             Coordinates (Angstroms)
 Number     Number       Type             X           Y           Z
 ---------------------------------------------------------------------
      1          8           0        2.005455   -0.888213   -0.361595
      2          6           0        1.647891    0.105112    0.197220
      3          6           0        0.238138    0.683914    0.061932
      4          8           0        0.088484    1.872940    0.029964
      5          7           0       -0.821053   -0.217272   -0.062478
      6          6           0       -2.108813    0.139886   -0.239037
      7          6           0       -0.841624   -1.532912    0.322146
      8          1           0        2.329713    0.761628    0.767680
      9          1           0       -2.701887   -0.456117   -0.909892
     10          1           0       -2.502109    1.025785    0.245316
     11          1           0       -1.493670   -1.795255    1.137622
     12          1           0       -0.249742   -2.268949   -0.203901
 ---------------------------------------------------------------------

 SCF Done:  E(RHF) =  -358.553313573     A.U. after    2 cycles

 The electronic state is 1-A.
 Alpha  occ. eigenvalues --  -20.62081 -20.60622 -15.72290 -11.40968 -11.38516
 Alpha  occ. eigenvalues --  -11.30286 -11.28671  -1.42473  -1.40299  -1.28541
 Alpha  occ. eigenvalues --   -0.99916  -0.94910  -0.90340  -0.77533  -0.73698
 Alpha  occ. eigenvalues --   -0.72667  -0.69779  -0.68193  -0.65053  -0.61131
 Alpha  occ. eigenvalues --   -0.60659  -0.56324  -0.54991  -0.46427  -0.44118
 Alpha  occ. eigenvalues --   -0.28741
 Alpha virt. eigenvalues --    0.02233   0.03439   0.04150   0.04523   0.04965
 Alpha virt. eigenvalues --    0.06883   0.07107   0.09371   0.10122   0.11390
 Alpha virt. eigenvalues --    0.11772   0.13025   0.13478   0.14240   0.15083

 Mulliken charges:
               1
     1  O   -0.395902
     2  C    0.709703
     3  C    0.219033
     4  O   -0.381310
     5  N   -0.383744
     6  C    0.656077
     7  C    0.638890
     8  H   -0.089522
     9  H   -0.213738
    10  H   -0.269123
    11  H   -0.229377
    12  H   -0.260987
 Sum of Mulliken charges =  -0.00000

 Dipole moment (field-independent basis, Debye):
    X=             -0.8019    Y=             -0.3904    Z=              1.2335  Tot=              1.5222

 Test job not archived.
 1\1\GINC-SE125\SP\RHF\Aug-CC-pVDZ\C4H5N1O2\OHZDE\09-Apr-2025\0\\#t hf
 aug-cc-pvdz iop(5/13=1,5/36=2,99/5=2) pseudo=read geom=check guess=(re
 ad,tcheck) scf=(maxcycle=1)\\title\\0,1\O,0,1.71887683,1.21514666,1.37
 173815\C,0,1.93963053,0.44561272,0.48522542\C,0,0.91684368,-0.57700636
 ,-0.01364907\O,0,1.28656524,-1.66742878,-0.34754321\N,0,-0.42704886,-0
 .19826127,-0.01608758\C,0,-1.44521511,-1.00383349,-0.37864857\C,0,-0.9
 3054493,1.07676151,-0.02483259\H,0,2.93529998,0.31927646,0.02262291\H,
 0,-2.356821,-0.93774276,0.18845651\H,0,-1.31674247,-1.72027178,-1.1813

 Normal termination of Gaussian 16 at Wed Apr  9 03:28:12 2025.
