 Gaussian 16, Revision C.01,

 ----------------------------------------------------------------------
 #t hf aug-cc-pvdz symm=none int=(grid=ultrafine) guess=(read,tcheck) s
 table=(opt,rrhf)
 ----------------------------------------------------------------------
 -----
 title
 -----
 Symbolic Z-matrix:
 Charge =  0 Multiplicity = 1

 SCF Done:  E(RHF) =  -306.605356315     A.U. after   15 cycles
 Normal termination of Gaussian 16 at Wed Apr  9 15:41:59 2025.
 Gaussian 16:  ES64L-G16RevC.01  3-Jul-2019

 ----------------------------------------------------------------------
 #t hf aug-cc-pvdz iop(5/13=1,5/36=2,99/5=2) pseudo=read geom=check gue
 ss=(read,tcheck) scf=(maxcycle=1)
 ----------------------------------------------------------------------
 -----
 title
 -----
 Structure from the checkpoint file:  "Grambow2020_wb97xd3_007304_reverse_mol2.chk"
 Charge =  0 Multiplicity = 1

                         Standard orientation:
 ---------------------------------------------------------------------
 Center     Atomic      Atomic             Coordinates (Angstroms)
 Number     Number       Type             X           Y           Z
 ---------------------------------------------------------------------
      1          6           0        3.035565   -0.810877   -0.093116
      2          6           0        2.960270    0.479939    0.186818
      3          6           0       -0.321040    0.437963   -0.083585
      4          8           0       -0.358354    1.582072   -0.108700
      5          6           0       -0.609822   -0.888192   -0.038972
      6          6           0       -1.975946   -1.076924    0.037960
      7          6           0       -2.983292    0.008507    0.071756
      8          1           0        0.154103   -1.652616   -0.062892
      9          1           0        3.024403   -1.563114    0.687862
     10          1           0        3.119347   -1.168045   -1.113413
     11          1           0        2.979045    1.233813   -0.592205
     12          1           0        2.883057    0.837003    1.207706
     13          1           0       -2.660429    1.061240    0.030787
     14          1           0       -3.684016   -0.171697   -0.748669
     15          1           0       -3.583089   -0.135654    0.975256
 ---------------------------------------------------------------------

 SCF Done:  E(RHF) =  -306.703474670     A.U. after    2 cycles

 The electronic state is 1-A.
 Alpha  occ. eigenvalues --  -20.68407 -11.43635 -11.26481 -11.25662 -11.25472
 Alpha  occ. eigenvalues --  -11.25230 -11.23606  -1.48961  -1.11325  -1.04717
 Alpha  occ. eigenvalues --   -0.97985  -0.82314  -0.80704  -0.77190  -0.71084
 Alpha  occ. eigenvalues --   -0.68929  -0.66274  -0.65970  -0.60854  -0.58080
 Alpha  occ. eigenvalues --   -0.56641  -0.53794  -0.52165  -0.40365  -0.39949
 Alpha  occ. eigenvalues --   -0.31744
 Alpha virt. eigenvalues --    0.03412   0.04402   0.04641   0.04754   0.06375
 Alpha virt. eigenvalues --    0.06506   0.06779   0.06811   0.08020   0.09027
 Alpha virt. eigenvalues --    0.10420   0.11590   0.11851   0.12584   0.13259

 Mulliken charges:
               1
     1  C    0.588112
     2  C    0.634708
     3  C   -0.317842
     4  O   -0.223759
     5  C    1.284196
     6  C   -0.941630
     7  C    0.439706
     8  H   -0.249447
     9  H   -0.297562
    10  H   -0.285221
    11  H   -0.302345
    12  H   -0.288400
    13  H   -0.162430
    14  H    0.062383
    15  H    0.059531
 Sum of Mulliken charges =   0.00000

 Dipole moment (field-independent basis, Debye):
    X=              1.7799    Y=              0.9755    Z=             -0.0758  Tot=              2.0311

 Test job not archived.
 1\1\GINC-SE042\SP\RHF\Aug-CC-pVDZ\C6H8O1\OHZDE\09-Apr-2025\0\\#t hf au
 g-cc-pvdz iop(5/13=1,5/36=2,99/5=2) pseudo=read geom=check guess=(read
 ,tcheck) scf=(maxcycle=1)\\title\\0,1\C,0,-2.98519989,-0.36695958,0.44
 823572\C,0,-2.74144716,0.62355118,-0.39420738\C,0,0.48659655,0.4874670
 3,0.24068632\O,0,0.65485128,1.49823958,-0.27023084\C,0,0.62163034,-0.7
 147072,0.85762761\C,0,1.9585984,-1.01196307,1.03648064\C,0,3.08523176,
 -0.1483776,0.61343838\H,0,-0.22581389,-1.31903833,1.14937712\H,0,-3.00
 830594,-1.39994109,0.11910528\H,0,-3.17933789,-0.18534146,1.49938752\H

 Normal termination of Gaussian 16 at Wed Apr  9 15:42:04 2025.
