 Gaussian 16, Revision C.01,

 ----------------------------------------------------------------------
 #t hf aug-cc-pvdz symm=none int=(grid=ultrafine) guess=(read,tcheck) s
 table=(opt,rrhf)
 ----------------------------------------------------------------------
 -----
 title
 -----
 Symbolic Z-matrix:
 Charge =  0 Multiplicity = 1

 SCF Done:  E(RHF) =  -322.603920095     A.U. after   16 cycles
 Normal termination of Gaussian 16 at Wed Apr  9 15:47:01 2025.
 Gaussian 16:  ES64L-G16RevC.01  3-Jul-2019

 ----------------------------------------------------------------------
 #t hf aug-cc-pvdz iop(5/13=1,5/36=2,99/5=2) pseudo=read geom=check gue
 ss=(read,tcheck) scf=(maxcycle=1)
 ----------------------------------------------------------------------
 -----
 title
 -----
 Structure from the checkpoint file:  "Grambow2020_wb97xd3_007388_reverse_mol1.chk"
 Charge =  0 Multiplicity = 1

                         Standard orientation:
 ---------------------------------------------------------------------
 Center     Atomic      Atomic             Coordinates (Angstroms)
 Number     Number       Type             X           Y           Z
 ---------------------------------------------------------------------
      1          6           0       -1.415775    0.067474    0.741165
      2          6           0       -1.075152    1.030942   -0.297601
      3          6           0        0.365848    1.382277   -0.352899
      4          8           0        1.347252    0.566723    0.360123
      5          6           0        1.312201   -0.752271    0.132195
      6          7           0        0.337828   -1.474184   -0.221548
      7          6           0       -0.953168   -0.884937   -0.392185
      8          1           0       -0.772849   -0.036435    1.613703
      9          1           0       -2.469322   -0.025057    0.988331
     10          1           0       -1.012159   -0.230369   -1.334896
     11          1           0        0.432636    2.371173    0.107244
     12          1           0        0.717763    1.475519   -1.381887
     13          1           0        2.280211   -1.212789    0.315562
     14          1           0       -1.722817   -1.617447   -0.622256
 ---------------------------------------------------------------------

 SCF Done:  E(RHF) =  -322.700379530     A.U. after    2 cycles

 The electronic state is 1-A.
 Alpha  occ. eigenvalues --  -20.61586 -15.62482 -11.35638 -11.31405 -11.30612
 Alpha  occ. eigenvalues --  -11.27286 -11.25317  -1.39675  -1.21311  -1.12283
 Alpha  occ. eigenvalues --   -0.98414  -0.91936  -0.83054  -0.75857  -0.71574
 Alpha  occ. eigenvalues --   -0.70359  -0.65019  -0.62106  -0.59743  -0.57398
 Alpha  occ. eigenvalues --   -0.56154  -0.53326  -0.49608  -0.41829  -0.41436
 Alpha  occ. eigenvalues --   -0.34579
 Alpha virt. eigenvalues --    0.03482   0.04014   0.04396   0.04781   0.06558
 Alpha virt. eigenvalues --    0.06861   0.07642   0.09765   0.10172   0.11264
 Alpha virt. eigenvalues --    0.12885   0.13559   0.13720   0.14088   0.14407

 Mulliken charges:
               1
     1  C    1.036664
     2  C   -0.944846
     3  C    0.901548
     4  O   -0.510329
     5  C    0.454362
     6  N   -0.317695
     7  C    0.323297
     8  H   -0.172921
     9  H   -0.209077
    10  H    0.176990
    11  H   -0.086622
    12  H   -0.074872
    13  H   -0.363995
    14  H   -0.212505
 Sum of Mulliken charges =  -0.00000

 Dipole moment (field-independent basis, Debye):
    X=              0.2291    Y=              0.2205    Z=              0.3774  Tot=              0.4935

 Test job not archived.
 1\1\GINC-SE174\SP\RHF\Aug-CC-pVDZ\C5H7N1O1\OHZDE\09-Apr-2025\0\\#t hf
 aug-cc-pvdz iop(5/13=1,5/36=2,99/5=2) pseudo=read geom=check guess=(re
 ad,tcheck) scf=(maxcycle=1)\\title\\0,1\C,0,-1.3709533,-0.28236717,0.3
 4795038\C,0,-0.91364925,0.90326729,-0.3651219\C,0,0.40981558,1.4076727
 8,0.07871556\O,0,1.2713368,0.57121947,0.91226753\C,0,1.51340306,-0.669
 65082,0.47116499\N,0,0.8052454,-1.40223124,-0.27551783\C,0,-0.46422367
 ,-0.92930187,-0.73135115\H,0,-0.988623,-0.49428232,1.34514105\H,0,-2.4
 2255541,-0.53343148,0.24443837\H,0,-0.36248312,-0.10585273,-1.52647677

 Normal termination of Gaussian 16 at Wed Apr  9 15:47:06 2025.
