 Gaussian 16, Revision C.01,

 ----------------------------------------------------------------------
 #t hf aug-cc-pvdz symm=none int=(grid=ultrafine) guess=(read,tcheck) s
 table=(opt,rrhf)
 ----------------------------------------------------------------------
 -----
 title
 -----
 Symbolic Z-matrix:
 Charge =  0 Multiplicity = 1

 SCF Done:  E(RHF) =  -344.784580808     A.U. after   15 cycles

 1\1\GINC-SE220\Stability\RHF\Aug-CC-pVDZ\C5H10O2\OHZDE\09-Apr-2025\0\\
 #t hf aug-cc-pvdz symm=none int=(grid=ultrafine) guess=(read,tcheck) s
 table=(opt,rrhf)\\title\\0,1\C,0,-2.34935841,-0.56114424,-0.3661786\C,
 0,-1.14201002,0.32679769,-0.63040748\C,0,0.16417083,-0.26984934,-0.125
 92722\O,0,0.32956591,-1.50622902,-0.8138629\C,0,1.34343605,0.67288206,
 -0.37506477\C,0,2.46872714,0.58347393,0.46848133\O,0,2.19518343,1.0016
 1137,1.64193542\H,0,-3.26308951,-0.09413738,-0.73777183\H,0,-2.2380772
 9,-1.52806358,-0.85646788\H,0,-2.47937113,-0.74015822,0.70433316\H,0,-

 Normal termination of Gaussian 16 at Wed Apr  9 16:10:15 2025.
 Gaussian 16:  ES64L-G16RevC.01  3-Jul-2019

 ----------------------------------------------------------------------
 #t hf aug-cc-pvdz iop(5/13=1,5/36=2,99/5=2) pseudo=read geom=check gue
 ss=(read,tcheck) scf=(maxcycle=1)
 ----------------------------------------------------------------------
 -----
 title
 -----
 Structure from the checkpoint file:  "Grambow2020_wb97xd3_007831_forward_mol1.chk"
 Charge =  0 Multiplicity = 1

                         Standard orientation:
 ---------------------------------------------------------------------
 Center     Atomic      Atomic             Coordinates (Angstroms)
 Number     Number       Type             X           Y           Z
 ---------------------------------------------------------------------
      1          6           0       -2.714880   -0.542491   -0.322381
      2          6           0       -1.450735   -0.581703    0.523992
      3          6           0       -0.283975    0.167078   -0.104176
      4          8           0       -0.710330    1.518322   -0.251170
      5          6           0        0.975445    0.066966    0.759142
      6          6           0        2.233002    0.185888    0.134439
      7          8           0        2.478354   -0.829757   -0.596949
      8          1           0       -3.522623   -1.094740    0.160997
      9          1           0       -3.049534    0.482986   -0.477635
     10          1           0       -2.545385   -0.992911   -1.303879
     11          1           0       -1.642939   -0.143048    1.508225
     12          1           0       -1.137316   -1.614341    0.693694
     13          1           0       -0.079527   -0.259266   -1.096375
     14          1           0       -0.015919    2.014535   -0.686489
     15          1           0        1.462194   -1.174930    0.077437
     16          1           0        0.835904    0.538354    1.730368
     17          1           0        2.997817    0.960412    0.232515
 ---------------------------------------------------------------------

 SCF Done:  E(RHF) =  -344.893127852     A.U. after    2 cycles

 The electronic state is 1-A.
 Alpha  occ. eigenvalues --  -20.60889 -20.56966 -11.37670 -11.30413 -11.22658
 Alpha  occ. eigenvalues --  -11.22193 -11.21559  -1.39797  -1.32600  -1.06302
 Alpha  occ. eigenvalues --   -1.01248  -0.91055  -0.83234  -0.79315  -0.73830
 Alpha  occ. eigenvalues --   -0.71679  -0.66194  -0.62144  -0.59846  -0.58650
 Alpha  occ. eigenvalues --   -0.58242  -0.55134  -0.51134  -0.50179  -0.48399
 Alpha  occ. eigenvalues --   -0.47211  -0.45634  -0.35356
 Alpha virt. eigenvalues --    0.02916   0.04156   0.04623   0.05362   0.05516
 Alpha virt. eigenvalues --    0.06096   0.07290   0.07446   0.07829   0.08932
 Alpha virt. eigenvalues --    0.09884   0.10956   0.12001   0.13457   0.13802

 Mulliken charges:
               1
     1  C    0.432708
     2  C    0.243365
     3  C    0.054297
     4  O   -0.598589
     5  C    0.055970
     6  C    0.800367
     7  O   -0.672023
     8  H   -0.047810
     9  H   -0.020778
    10  H   -0.078139
    11  H   -0.087468
    12  H   -0.068693
    13  H   -0.288339
    14  H    0.127888
    15  H    0.635257
    16  H   -0.324700
    17  H   -0.163315
 Sum of Mulliken charges =  -0.00000

 Dipole moment (field-independent basis, Debye):
    X=              1.2065    Y=              1.0817    Z=              0.5185  Tot=              1.7014

 Test job not archived.
 1\1\GINC-SE220\SP\RHF\Aug-CC-pVDZ\C5H10O2\OHZDE\09-Apr-2025\0\\#t hf a
 ug-cc-pvdz iop(5/13=1,5/36=2,99/5=2) pseudo=read geom=check guess=(rea
 d,tcheck) scf=(maxcycle=1)\\title\\0,1\C,0,-2.34935841,-0.56114424,-0.
 3661786\C,0,-1.14201002,0.32679769,-0.63040748\C,0,0.16417083,-0.26984
 934,-0.12592722\O,0,0.32956591,-1.50622902,-0.8138629\C,0,1.34343605,0
 .67288206,-0.37506477\C,0,2.46872714,0.58347393,0.46848133\O,0,2.19518
 343,1.00161137,1.64193542\H,0,-3.26308951,-0.09413738,-0.73777183\H,0,
 -2.23807729,-1.52806358,-0.85646788\H,0,-2.47937113,-0.74015822,0.7043

 Normal termination of Gaussian 16 at Wed Apr  9 16:10:21 2025.
