 Gaussian 16, Revision C.01,

 ----------------------------------------------------------------------
 #t hf aug-cc-pvdz symm=none int=(grid=ultrafine) guess=(read,tcheck) s
 table=(opt,rrhf)
 ----------------------------------------------------------------------
 -----
 title
 -----
 Symbolic Z-matrix:
 Charge =  0 Multiplicity = 1

 SCF Done:  E(RHF) =  -359.596912496     A.U. after   15 cycles
 Normal termination of Gaussian 16 at Wed Apr  9 17:12:26 2025.
 Gaussian 16:  ES64L-G16RevC.01  3-Jul-2019

 ----------------------------------------------------------------------
 #t hf aug-cc-pvdz iop(5/13=1,5/36=2,99/5=2) pseudo=read geom=check gue
 ss=(read,tcheck) scf=(maxcycle=1)
 ----------------------------------------------------------------------
 -----
 title
 -----
 Structure from the checkpoint file:  "Grambow2020_wb97xd3_009389_forward_mol1.chk"
 Charge =  0 Multiplicity = 1

                         Standard orientation:
 ---------------------------------------------------------------------
 Center     Atomic      Atomic             Coordinates (Angstroms)
 Number     Number       Type             X           Y           Z
 ---------------------------------------------------------------------
      1          6           0       -2.089065   -0.713940    0.000902
      2          7           0       -0.680702   -0.381374   -0.002155
      3          6           0        0.269023   -1.288907    0.000179
      4          8           0        1.493772   -1.051173   -0.000737
      5          6           0       -0.174767    1.015960    0.001057
      6          8           0       -1.027381    1.863358   -0.000656
      7          6           0        2.198210    0.695370    0.000734
      8          1           0       -2.215833   -1.797748   -0.013664
      9          1           0       -2.563764   -0.301895    0.891001
     10          1           0       -2.571754   -0.276432   -0.872437
     11          1           0       -0.040620   -2.343884    0.002371
     12          1           0        3.109548    0.106037    0.001611
     13          1           0        2.048350    1.268735    0.900789
     14          1           0        2.047453    1.266429   -0.900678
 ---------------------------------------------------------------------

 SCF Done:  E(RHF) =  -359.711897608     A.U. after    2 cycles

 The electronic state is 1-A.
 Alpha  occ. eigenvalues --  -20.60319 -20.51778 -15.66438 -11.39553 -11.35428
 Alpha  occ. eigenvalues --  -11.27862 -11.27273  -1.39441  -1.31910  -1.22254
 Alpha  occ. eigenvalues --   -0.98364  -0.96799  -0.87064  -0.75875  -0.72447
 Alpha  occ. eigenvalues --   -0.66644  -0.66093  -0.62806  -0.62302  -0.59724
 Alpha  occ. eigenvalues --   -0.58019  -0.56407  -0.52005  -0.51233  -0.50641
 Alpha  occ. eigenvalues --   -0.40957  -0.28689
 Alpha virt. eigenvalues --    0.02744   0.03420   0.04739   0.05063   0.06404
 Alpha virt. eigenvalues --    0.06788   0.07121   0.08978   0.09323   0.11231
 Alpha virt. eigenvalues --    0.12278   0.13182   0.13740   0.13793   0.14367

 Mulliken charges:
               1
     1  C    0.740021
     2  N   -0.323444
     3  C    0.608586
     4  O   -0.403361
     5  C    0.034459
     6  O   -0.516145
     7  C    0.819948
     8  H   -0.239926
     9  H   -0.101916
    10  H   -0.104849
    11  H   -0.354739
    12  H   -0.202739
    13  H    0.021842
    14  H    0.022263
 Sum of Mulliken charges =  -0.00000

 Dipole moment (field-independent basis, Debye):
    X=              1.6948    Y=             -3.9260    Z=              0.0051  Tot=              4.2762

 Test job not archived.
 1\1\GINC-SE162\SP\RHF\Aug-CC-pVDZ\C4H7N1O2\OHZDE\09-Apr-2025\0\\#t hf
 aug-cc-pvdz iop(5/13=1,5/36=2,99/5=2) pseudo=read geom=check guess=(re
 ad,tcheck) scf=(maxcycle=1)\\title\\0,1\C,0,-1.96756335,-0.69383004,-0
 .60054755\N,0,-0.68275123,-0.18658155,-0.16920723\C,0,-0.53335724,0.98
 096272,0.41399228\O,0,0.55153339,1.46028825,0.80101535\C,0,0.5895267,-
 0.9323721,-0.35258712\O,0,0.47616404,-2.00413468,-0.88504428\C,0,2.196
 41741,0.56542397,0.60046263\H,0,-2.75326081,0.02098372,-0.35026509\H,0
 ,-1.95545379,-0.8622958,-1.67705488\H,0,-2.16924765,-1.64655694,-0.111

 Normal termination of Gaussian 16 at Wed Apr  9 17:12:31 2025.
