 Gaussian 16, Revision C.01,

 ----------------------------------------------------------------------
 #t hf aug-cc-pvdz symm=none int=(grid=ultrafine) guess=(read,tcheck) s
 table=(opt,rrhf)
 ----------------------------------------------------------------------
 -----
 title
 -----
 Symbolic Z-matrix:
 Charge =  0 Multiplicity = 1

 SCF Done:  E(RHF) =  -343.538260639     A.U. after   16 cycles
 Normal termination of Gaussian 16 at Wed Apr  9 16:00:08 2025.
 Gaussian 16:  ES64L-G16RevC.01  3-Jul-2019

 ----------------------------------------------------------------------
 #t hf aug-cc-pvdz iop(5/13=1,5/36=2,99/5=2) pseudo=read geom=check gue
 ss=(read,tcheck) scf=(maxcycle=1)
 ----------------------------------------------------------------------
 -----
 title
 -----
 Structure from the checkpoint file:  "Grambow2020_wb97xd3_007673_forward_mol1.chk"
 Charge =  0 Multiplicity = 1

                         Standard orientation:
 ---------------------------------------------------------------------
 Center     Atomic      Atomic             Coordinates (Angstroms)
 Number     Number       Type             X           Y           Z
 ---------------------------------------------------------------------
      1          6           0       -1.541754   -1.239347   -0.201451
      2          6           0       -0.407505   -0.628207    0.609356
      3          6           0        0.963985   -0.838947    0.001032
      4          8           0        1.102620    0.235496   -0.921426
      5          6           0        1.928810    0.191657    0.424873
      6          6           0       -0.370806    0.877040    0.556955
      7          8           0       -1.137925    1.575874   -0.191925
      8          1           0       -1.504034   -2.324171   -0.108561
      9          1           0       -1.430744   -1.018217   -1.268410
     10          1           0       -2.531169   -0.918566    0.134807
     11          1           0       -0.458638   -0.930421    1.661206
     12          1           0        1.205649   -1.829707   -0.387003
     13          1           0        2.935756   -0.107658    0.109946
     14          1           0        0.180998    1.440411    1.295165
     15          1           0       -1.551758    1.024198   -0.874935
 ---------------------------------------------------------------------

 SCF Done:  E(RHF) =  -343.643536586     A.U. after    2 cycles

 The electronic state is 1-A.
 Alpha  occ. eigenvalues --  -20.70089 -20.53821 -11.43743 -11.28058 -11.26912
 Alpha  occ. eigenvalues --  -11.26622 -11.19215  -1.48569  -1.31119  -1.10196
 Alpha  occ. eigenvalues --   -0.99258  -0.92319  -0.85830  -0.79325  -0.76768
 Alpha  occ. eigenvalues --   -0.73169  -0.68949  -0.65052  -0.61351  -0.60524
 Alpha  occ. eigenvalues --   -0.56403  -0.54549  -0.54196  -0.48469  -0.44062
 Alpha  occ. eigenvalues --   -0.40108  -0.28235
 Alpha virt. eigenvalues --    0.02144   0.03717   0.03915   0.04978   0.05876
 Alpha virt. eigenvalues --    0.06503   0.07114   0.07414   0.07992   0.09901
 Alpha virt. eigenvalues --    0.12019   0.12397   0.13108   0.13712   0.14357

 Mulliken charges:
               1
     1  C    0.649184
     2  C   -0.645920
     3  C    0.978360
     4  O   -0.859456
     5  C   -0.043735
     6  C    1.138476
     7  O   -0.403112
     8  H   -0.087400
     9  H    0.020742
    10  H   -0.054800
    11  H   -0.059115
    12  H   -0.372161
    13  H   -0.268257
    14  H   -0.220186
    15  H    0.227379
 Sum of Mulliken charges =  -0.00000

 Dipole moment (field-independent basis, Debye):
    X=             -6.1737    Y=             -1.7784    Z=              1.0480  Tot=              6.5097

 Test job not archived.
 1\1\GINC-SE113\SP\RHF\Aug-CC-pVDZ\C5H8O2\OHZDE\09-Apr-2025\0\\#t hf au
 g-cc-pvdz iop(5/13=1,5/36=2,99/5=2) pseudo=read geom=check guess=(read
 ,tcheck) scf=(maxcycle=1)\\title\\0,1\C,0,1.60633357,-0.48850751,0.062
 98918\C,0,0.30988074,0.10037467,0.60136673\C,0,-0.26523299,1.20657786,
 -0.25945427\O,0,-1.03512997,0.51880309,-1.23863735\C,0,-1.72159144,1.3
 5212931,-0.08478769\C,0,-0.87209141,-0.82522356,0.4746006\O,0,-0.82601
 433,-1.94888121,-0.1360801\H,0,2.41017,0.23481854,0.19542866\H,0,1.538
 67191,-0.67909595,-1.01344901\H,0,1.90679058,-1.40584183,0.57595705\H,

 Normal termination of Gaussian 16 at Wed Apr  9 16:00:13 2025.
