 Gaussian 16, Revision C.01,

 ----------------------------------------------------------------------
 #t hf aug-cc-pvdz symm=none int=(grid=ultrafine) guess=(read,tcheck) s
 table=(opt,rrhf)
 ----------------------------------------------------------------------
 -----
 title
 -----
 Symbolic Z-matrix:
 Charge =  0 Multiplicity = 1

 SCF Done:  E(RHF) =  -299.588150011     A.U. after   20 cycles
 Normal termination of Gaussian 16 at Wed Apr  9 03:20:52 2025.
 Gaussian 16:  ES64L-G16RevC.01  3-Jul-2019

 ----------------------------------------------------------------------
 #t hf aug-cc-pvdz iop(5/13=1,5/36=2,99/5=2) pseudo=read geom=check gue
 ss=(read,tcheck) scf=(maxcycle=1)
 ----------------------------------------------------------------------
 -----
 title
 -----
 Structure from the checkpoint file:  "Grambow2020_wb97xd3_006149_forward_mol1.chk"
 Charge =  0 Multiplicity = 1

                         Standard orientation:
 ---------------------------------------------------------------------
 Center     Atomic      Atomic             Coordinates (Angstroms)
 Number     Number       Type             X           Y           Z
 ---------------------------------------------------------------------
      1          7           0        2.012748   -0.417143   -0.028552
      2          6           0        0.744358    0.113128    0.044648
      3          6           0       -0.310134   -0.888717    0.113672
      4          6           0       -1.671236   -0.549076   -0.146079
      5          7           0       -1.920799    0.659386    0.015718
      6          8           0        0.557055    1.316338    0.030213
      7          1           0        2.738709    0.244266   -0.243526
      8          1           0        2.149227   -1.355862   -0.356050
      9          1           0       -0.119896   -1.843828    0.590653
     10          1           0       -2.446049   -1.322997   -0.216387
 ---------------------------------------------------------------------

 SCF Done:  E(RHF) =  -299.677277271     A.U. after    2 cycles

 The electronic state is 1-A.
 Alpha  occ. eigenvalues --  -20.53364 -15.72468 -15.64479 -11.36732 -11.33479
 Alpha  occ. eigenvalues --  -11.27581  -1.34914  -1.23753  -1.17597  -1.00018
 Alpha  occ. eigenvalues --   -0.84457  -0.76847  -0.71188  -0.68577  -0.63983
 Alpha  occ. eigenvalues --   -0.60471  -0.59465  -0.57292  -0.52696  -0.44918
 Alpha  occ. eigenvalues --   -0.42130  -0.32962
 Alpha virt. eigenvalues --    0.00210   0.02760   0.03449   0.04979   0.06208
 Alpha virt. eigenvalues --    0.09381   0.09572   0.11514   0.11689   0.13155
 Alpha virt. eigenvalues --    0.13412   0.14134   0.14509   0.15470   0.16274

 Mulliken charges:
               1
     1  N   -0.205559
     2  C    0.479084
     3  C    0.390072
     4  C    0.634557
     5  N   -0.303157
     6  O   -0.478079
     7  H    0.012263
     8  H   -0.014274
     9  H   -0.375529
    10  H   -0.139378
 Sum of Mulliken charges =  -0.00000

 Dipole moment (field-independent basis, Debye):
    X=             -0.0365    Y=             -5.1518    Z=             -0.8733  Tot=              5.2254

 Test job not archived.
 1\1\GINC-SE367\SP\RHF\Aug-CC-pVDZ\C3H4N2O1\OHZDE\09-Apr-2025\0\\#t hf
 aug-cc-pvdz iop(5/13=1,5/36=2,99/5=2) pseudo=read geom=check guess=(re
 ad,tcheck) scf=(maxcycle=1)\\title\\0,1\N,0,1.80480204,-0.09567511,-0.
 33334535\C,0,0.5784425,-0.48932427,0.15290627\C,0,-0.52943246,0.338806
 09,-0.30231063\C,0,-1.79785876,0.30090214,0.34967398\N,0,-1.99943194,-
 0.75165666,0.9823896\O,0,0.46964085,-1.43718606,0.90969316\H,0,2.59619
 418,-0.5440155,0.09488834\H,0,1.94167801,0.84471784,-0.65583715\H,0,-0
 .48674039,0.81345908,-1.27638518\H,0,-2.59221302,1.01134647,0.08794395

 Normal termination of Gaussian 16 at Wed Apr  9 03:20:55 2025.
