 Gaussian 16, Revision C.01,

 ----------------------------------------------------------------------
 #t hf aug-cc-pvdz symm=none int=(grid=ultrafine) guess=(read,tcheck) s
 table=(opt,rrhf)
 ----------------------------------------------------------------------
 -----
 title
 -----
 Symbolic Z-matrix:
 Charge =  0 Multiplicity = 1

 SCF Done:  E(RHF) =  -266.813888034     A.U. after   13 cycles
 Normal termination of Gaussian 16 at Wed Apr  9 03:03:07 2025.
 Gaussian 16:  ES64L-G16RevC.01  3-Jul-2019

 ----------------------------------------------------------------------
 #t hf aug-cc-pvdz iop(5/13=1,5/36=2,99/5=2) pseudo=read geom=check gue
 ss=(read,tcheck) scf=(maxcycle=1)
 ----------------------------------------------------------------------
 -----
 title
 -----
 Structure from the checkpoint file:  "Grambow2020_b97d3_006482_reverse_mol2.chk"
 Charge =  0 Multiplicity = 1

                         Standard orientation:
 ---------------------------------------------------------------------
 Center     Atomic      Atomic             Coordinates (Angstroms)
 Number     Number       Type             X           Y           Z
 ---------------------------------------------------------------------
      1          8           0       -0.501587    1.404870   -0.125796
      2          6           0       -1.260704   -0.931367   -0.080682
      3          6           0       -0.121921    0.063974   -0.056387
      4          6           0        1.216763   -0.239394   -0.568459
      5          8           0        0.944214   -0.248634    0.853585
      6          1           0       -1.152410    1.561925    0.586003
      7          1           0       -1.889493   -0.810390    0.815347
      8          1           0       -1.888278   -0.775254   -0.967900
      9          1           0       -0.878862   -1.959109   -0.085489
     10          1           0        1.836380    0.589949   -0.920448
     11          1           0        1.426822   -1.216283   -1.016654
 ---------------------------------------------------------------------

 SCF Done:  E(RHF) =  -266.899077202     A.U. after    2 cycles

 The electronic state is 1-A.
 Alpha  occ. eigenvalues --  -20.59742 -20.58456 -11.36141 -11.29733 -11.24955
 Alpha  occ. eigenvalues --   -1.39758  -1.31993  -1.00609  -0.92159  -0.82236
 Alpha  occ. eigenvalues --   -0.72652  -0.67847  -0.66118  -0.61139  -0.57546
 Alpha  occ. eigenvalues --   -0.56730  -0.54759  -0.49836  -0.47150  -0.44359
 Alpha virt. eigenvalues --    0.03282   0.04455   0.04986   0.05685   0.06533
 Alpha virt. eigenvalues --    0.07662   0.10036   0.11549   0.12641   0.14054
 Alpha virt. eigenvalues --    0.14647   0.15613   0.16354   0.16688   0.17641

 Mulliken charges:
               1
     1  O   -0.599098
     2  C    0.256311
     3  C    0.246962
     4  C    0.959795
     5  O   -0.735495
     6  H    0.166729
     7  H    0.009776
     8  H    0.075324
     9  H    0.005236
    10  H   -0.171639
    11  H   -0.213903
 Sum of Mulliken charges =  -0.00000

 Dipole moment (field-independent basis, Debye):
    X=             -1.6756    Y=             -0.9611    Z=             -1.1087  Tot=              2.2272

 Test job not archived.
 1\1\GINC-SE036\SP\RHF\Aug-CC-pVDZ\C3H6O2\OHZDE\09-Apr-2025\0\\#t hf au
 g-cc-pvdz iop(5/13=1,5/36=2,99/5=2) pseudo=read geom=check guess=(read
 ,tcheck) scf=(maxcycle=1)\\title\\0,1\O,0,-1.290713,-0.98987683,-0.420
 93764\C,0,-0.34723066,1.22580571,0.06577337\C,0,-0.13363028,-0.2542434
 5,-0.1621525\C,0,0.96906154,-1.00580367,0.4424562\O,0,1.02264205,-0.59
 19718,-0.94406812\H,0,-1.75131092,-0.55803969,-1.16676604\H,0,-0.73571
 715,1.69849611,-0.84993528\H,0,-1.07194457,1.38917193,0.87415245\H,0,0
 .59712198,1.71994164,0.3228896\H,0,0.83591209,-2.07881726,0.60538228\H

 Normal termination of Gaussian 16 at Wed Apr  9 03:03:11 2025.
