 Gaussian 16, Revision C.01,

 ----------------------------------------------------------------------
 #t hf aug-cc-pvdz symm=none int=(grid=ultrafine) guess=(read,tcheck) s
 table=(opt,rrhf)
 ----------------------------------------------------------------------
 -----
 title
 -----
 Symbolic Z-matrix:
 Charge =  0 Multiplicity = 1

 SCF Done:  E(RHF) =  -342.432066046     A.U. after   17 cycles
 Normal termination of Gaussian 16 at Wed Apr  9 03:58:38 2025.
 Gaussian 16:  ES64L-G16RevC.01  3-Jul-2019

 ----------------------------------------------------------------------
 #t hf aug-cc-pvdz iop(5/13=1,5/36=2,99/5=2) pseudo=read geom=check gue
 ss=(read,tcheck) scf=(maxcycle=1)
 ----------------------------------------------------------------------
 -----
 title
 -----
 Structure from the checkpoint file:  "Grambow2020_wb97xd3_008766_reverse_mol2.chk"
 Charge =  0 Multiplicity = 1

                         Standard orientation:
 ---------------------------------------------------------------------
 Center     Atomic      Atomic             Coordinates (Angstroms)
 Number     Number       Type             X           Y           Z
 ---------------------------------------------------------------------
      1          8           0       -2.705588    0.475300    0.161746
      2          6           0       -1.680314    0.289713   -0.415459
      3          6           0       -0.556557   -0.592374    0.127021
      4          8           0        0.515440   -0.794006   -0.793040
      5          6           0        1.392950   -0.316481    0.256369
      6          6           0        2.296757    0.822178   -0.166951
      7          6           0        0.286100   -0.005765    1.215887
      8          1           0       -1.444637    0.735828   -1.401560
      9          1           0       -1.014935   -1.525126    0.490143
     10          1           0        1.982754   -1.145962    0.677355
     11          1           0        2.909055    1.137607    0.677577
     12          1           0        2.943400    0.489866   -0.979089
     13          1           0        1.711936    1.673817   -0.515277
 ---------------------------------------------------------------------

 SCF Done:  E(RHF) =  -342.536366853     A.U. after    2 cycles

 The electronic state is 1-A.
 Alpha  occ. eigenvalues --  -20.59731 -20.59540 -11.36832 -11.32746 -11.32460
 Alpha  occ. eigenvalues --  -11.30316 -11.25917  -1.39789  -1.38425  -1.05977
 Alpha  occ. eigenvalues --   -1.03433  -0.93645  -0.82737  -0.76147  -0.70960
 Alpha  occ. eigenvalues --   -0.69209  -0.65770  -0.63892  -0.61720  -0.58516
 Alpha  occ. eigenvalues --   -0.56888  -0.56234  -0.50092  -0.47728  -0.44365
 Alpha  occ. eigenvalues --   -0.40043
 Alpha virt. eigenvalues --    0.02387   0.03824   0.04360   0.04780   0.05512
 Alpha virt. eigenvalues --    0.06003   0.06802   0.08733   0.10039   0.10535
 Alpha virt. eigenvalues --    0.11169   0.12737   0.13703   0.13965   0.14536

 Mulliken charges:
               1
     1  O   -0.450063
     2  C    0.663617
     3  C    0.482996
     4  O   -0.804876
     5  C    0.385061
     6  C    0.373762
     7  C   -0.405271
     8  H   -0.040987
     9  H   -0.093086
    10  H   -0.192853
    11  H    0.052012
    12  H    0.027151
    13  H    0.002535
 Sum of Mulliken charges =  -0.00000

 Dipole moment (field-independent basis, Debye):
    X=              3.3034    Y=             -0.6267    Z=             -1.3285  Tot=              3.6153

 Test job not archived.
 1\1\GINC-SE342\SP\RHF\Aug-CC-pVDZ\C5H6O2\OHZDE\09-Apr-2025\0\\#t hf au
 g-cc-pvdz iop(5/13=1,5/36=2,99/5=2) pseudo=read geom=check guess=(read
 ,tcheck) scf=(maxcycle=1)\\title\\0,1\O,0,2.48658652,0.92161323,-1.848
 72263\C,0,1.90056021,0.80740401,-0.81803094\C,0,1.09624282,-0.43578663
 ,-0.44022046\O,0,0.6013478,-0.4194697,0.89812106\C,0,-0.70832873,-0.65
 824179,0.32624013\C,0,-1.76342551,0.33411235,0.76739366\C,0,-0.2407607
 5,-0.59029833,-1.09471043\H,0,1.88510064,1.58952829,-0.03381177\H,0,1.
 71592326,-1.31448174,-0.6766224\H,0,-1.03710121,-1.69044622,0.52523276

 Normal termination of Gaussian 16 at Wed Apr  9 03:58:42 2025.
