 Gaussian 16, Revision C.01,

 ----------------------------------------------------------------------
 #t hf aug-cc-pvdz symm=none int=(grid=ultrafine) guess=(read,tcheck) s
 table=(opt,rrhf)
 ----------------------------------------------------------------------
 -----
 title
 -----
 Symbolic Z-matrix:
 Charge =  0 Multiplicity = 1

 SCF Done:  E(RHF) =  -316.586387614     A.U. after   15 cycles
 Normal termination of Gaussian 16 at Wed Apr  9 15:38:39 2025.
 Gaussian 16:  ES64L-G16RevC.01  3-Jul-2019

 ----------------------------------------------------------------------
 #t hf aug-cc-pvdz iop(5/13=1,5/36=2,99/5=2) pseudo=read geom=check gue
 ss=(read,tcheck) scf=(maxcycle=1)
 ----------------------------------------------------------------------
 -----
 title
 -----
 Structure from the checkpoint file:  "Grambow2020_wb97xd3_007262_forward_mol2.chk"
 Charge =  0 Multiplicity = 1

                         Standard orientation:
 ---------------------------------------------------------------------
 Center     Atomic      Atomic             Coordinates (Angstroms)
 Number     Number       Type             X           Y           Z
 ---------------------------------------------------------------------
      1          7           0       -2.874644    0.007733    0.001709
      2          6           0       -1.728867   -0.061785   -0.000346
      3          6           0       -0.302619   -0.093571   -0.001702
      4          7           0        0.448018   -1.166094   -0.000936
      5          6           0        1.729964   -0.704812    0.000595
      6          6           0        1.748738    0.662573    0.000692
      7          7           0        0.441280    1.044930   -0.001027
      8          1           0        2.571186   -1.379143    0.003354
      9          1           0        2.557073    1.374024    0.004659
     10          1           0        0.085870    1.984706   -0.001673
 ---------------------------------------------------------------------

 SCF Done:  E(RHF) =  -316.678507623     A.U. after    2 cycles

 The electronic state is 1-A.
 Alpha  occ. eigenvalues --  -15.72474 -15.66159 -15.65246 -11.36246 -11.30789
 Alpha  occ. eigenvalues --  -11.30733 -11.28408  -1.35869  -1.21397  -1.17899
 Alpha  occ. eigenvalues --   -1.05692  -0.89204  -0.84778  -0.82511  -0.68094
 Alpha  occ. eigenvalues --   -0.64874  -0.64612  -0.62056  -0.56630  -0.50786
 Alpha  occ. eigenvalues --   -0.49122  -0.47087  -0.43202  -0.34915
 Alpha virt. eigenvalues --    0.01889   0.03462   0.04927   0.07321   0.08095
 Alpha virt. eigenvalues --    0.09764   0.09878   0.11026   0.11645   0.12127
 Alpha virt. eigenvalues --    0.13502   0.13508   0.13752   0.14470   0.15317

 Mulliken charges:
               1
     1  N   -0.093768
     2  C   -0.436923
     3  C    0.727548
     4  N   -0.577279
     5  C    0.595794
     6  C    0.738564
     7  N   -0.372137
     8  H   -0.252883
     9  H   -0.256005
    10  H   -0.072910
 Sum of Mulliken charges =  -0.00000

 Dipole moment (field-independent basis, Debye):
    X=              4.2049    Y=              3.6508    Z=              0.0016  Tot=              5.5686

 Test job not archived.
 1\1\GINC-SE041\SP\RHF\Aug-CC-pVDZ\C4H3N3\OHZDE\09-Apr-2025\0\\#t hf au
 g-cc-pvdz iop(5/13=1,5/36=2,99/5=2) pseudo=read geom=check guess=(read
 ,tcheck) scf=(maxcycle=1)\\title\\0,1\N,0,3.3094303,-0.49341065,0.0114
 6754\C,0,2.16276312,-0.44509644,0.03297662\C,0,0.74075306,-0.33172226,
 0.04805996\N,0,-0.11133642,-1.30329275,0.25724241\C,0,-1.34145325,-0.7
 2358522,0.17405705\C,0,-1.22589867,0.61351224,-0.08845514\N,0,0.112422
 91,0.85505486,-0.16718784\H,0,-2.24462164,-1.2975548,0.30532221\H,0,-1
 .96033882,1.38917086,-0.22460038\H,0,0.55827941,1.73692417,-0.34888243

 Normal termination of Gaussian 16 at Wed Apr  9 15:38:43 2025.
