 Gaussian 16, Revision C.01,

 ----------------------------------------------------------------------
 #t hf aug-cc-pvdz symm=none int=(grid=ultrafine) guess=(read,tcheck) s
 table=(opt,rrhf)
 ----------------------------------------------------------------------
 -----
 title
 -----
 Symbolic Z-matrix:
 Charge =  0 Multiplicity = 1

 SCF Done:  E(RHF) =  -380.742196120     A.U. after   13 cycles
 Normal termination of Gaussian 16 at Wed Apr  9 03:40:28 2025.
 Gaussian 16:  ES64L-G16RevC.01  3-Jul-2019

 ----------------------------------------------------------------------
 #t hf aug-cc-pvdz iop(5/13=1,5/36=2,99/5=2) pseudo=read geom=check gue
 ss=(read,tcheck) scf=(maxcycle=1)
 ----------------------------------------------------------------------
 -----
 title
 -----
 Structure from the checkpoint file:  "Grambow2020_wb97xd3_007512_reverse_mol2.chk"
 Charge =  0 Multiplicity = 1

                         Standard orientation:
 ---------------------------------------------------------------------
 Center     Atomic      Atomic             Coordinates (Angstroms)
 Number     Number       Type             X           Y           Z
 ---------------------------------------------------------------------
      1          8           0        2.041324   -1.046672   -0.572106
      2          6           0        2.029398    0.252176   -0.008861
      3          6           0        0.852701    0.348643    0.947815
      4          6           0       -0.468525    0.315454    0.258246
      5          8           0       -0.670268    1.364522   -0.584643
      6          6           0       -1.389358   -0.624557    0.432188
      7          8           0       -2.609158   -0.493425   -0.210070
      8          1           0        2.673145   -1.066291   -1.291090
      9          1           0        1.931127    1.018064   -0.785996
     10          1           0        2.957152    0.442667    0.545199
     11          1           0        0.937298    1.285936    1.506649
     12          1           0        0.907497   -0.471418    1.666049
     13          1           0       -2.857882   -1.334681   -0.595511
     14          1           0       -1.251421   -1.463449    1.101339
     15          1           0       -1.537400    1.243479   -0.988417
 ---------------------------------------------------------------------

 SCF Done:  E(RHF) =  -380.863883304     A.U. after    2 cycles

 The electronic state is 1-A.
 Alpha  occ. eigenvalues --  -20.59504 -20.58942 -20.57027 -11.29281 -11.28632
 Alpha  occ. eigenvalues --  -11.27279 -11.23945  -1.36834  -1.33660  -1.32325
 Alpha  occ. eigenvalues --   -1.05977  -0.97768  -0.86264  -0.79005  -0.73351
 Alpha  occ. eigenvalues --   -0.72531  -0.71182  -0.65318  -0.62930  -0.59345
 Alpha  occ. eigenvalues --   -0.58538  -0.57415  -0.54282  -0.53715  -0.51913
 Alpha  occ. eigenvalues --   -0.49658  -0.45732  -0.32642
 Alpha virt. eigenvalues --    0.03290   0.04013   0.04826   0.05155   0.06129
 Alpha virt. eigenvalues --    0.06882   0.07191   0.08392   0.11373   0.12544
 Alpha virt. eigenvalues --    0.12926   0.13793   0.14049   0.14897   0.15814

 Mulliken charges:
               1
     1  O   -0.552375
     2  C    0.759856
     3  C    0.002135
     4  C    0.388454
     5  O   -0.643169
     6  C    0.790658
     7  O   -0.624212
     8  H    0.135115
     9  H   -0.108060
    10  H   -0.137467
    11  H    0.033988
    12  H   -0.078407
    13  H    0.164663
    14  H   -0.288981
    15  H    0.157802
 Sum of Mulliken charges =  -0.00000

 Dipole moment (field-independent basis, Debye):
    X=              0.8760    Y=             -1.0191    Z=             -0.5632  Tot=              1.4571

 Test job not archived.
 1\1\GINC-SE051\SP\RHF\Aug-CC-pVDZ\C4H8O3\OHZDE\09-Apr-2025\0\\#t hf au
 g-cc-pvdz iop(5/13=1,5/36=2,99/5=2) pseudo=read geom=check guess=(read
 ,tcheck) scf=(maxcycle=1)\\title\\0,1\O,0,-1.52264071,1.547464,0.18680
 952\C,0,-1.61784724,0.29008182,-0.45686548\C,0,-0.83680127,-0.72624293
 ,0.35934646\C,0,0.6354059,-0.49354096,0.33291631\O,0,1.18345896,-0.608
 14023,-0.9073306\C,0,1.37585009,-0.21021034,1.39747065\O,0,2.74777022,
 -0.09658581,1.24738703\H,0,-1.86948485,2.22142532,-0.39799451\H,0,-1.2
 0819981,0.33473839,-1.47193979\H,0,-2.66440444,-0.03290623,-0.52315384

 Normal termination of Gaussian 16 at Wed Apr  9 03:40:33 2025.
