 Gaussian 16, Revision C.01,

 ----------------------------------------------------------------------
 #t hf aug-cc-pvdz symm=none int=(grid=ultrafine) guess=(read,tcheck) s
 table=(opt,rrhf)
 ----------------------------------------------------------------------
 -----
 title
 -----
 Symbolic Z-matrix:
 Charge =  0 Multiplicity = 1

 SCF Done:  E(RHF) =  -360.790515016     A.U. after   15 cycles
 Normal termination of Gaussian 16 at Wed Apr  9 16:37:11 2025.
 Gaussian 16:  ES64L-G16RevC.01  3-Jul-2019

 ----------------------------------------------------------------------
 #t hf aug-cc-pvdz iop(5/13=1,5/36=2,99/5=2) pseudo=read geom=check gue
 ss=(read,tcheck) scf=(maxcycle=1)
 ----------------------------------------------------------------------
 -----
 title
 -----
 Structure from the checkpoint file:  "Grambow2020_wb97xd3_008682_forward_mol1.chk"
 Charge =  0 Multiplicity = 1

                         Standard orientation:
 ---------------------------------------------------------------------
 Center     Atomic      Atomic             Coordinates (Angstroms)
 Number     Number       Type             X           Y           Z
 ---------------------------------------------------------------------
      1          6           0        2.370885   -0.144588   -0.798793
      2          7           0        1.979497    0.050781    0.437339
      3          6           0        0.816423   -0.583722    0.873223
      4          6           0       -0.316845    0.180749   -0.188263
      5          8           0       -0.517887    1.371351    0.091500
      6          8           0       -1.390234   -0.703626   -0.299982
      7          6           0       -2.664800   -0.134593   -0.069878
      8          1           0        3.023214    0.578024   -1.267096
      9          1           0        0.409024   -0.023836   -1.114120
     10          1           0        2.257105   -1.128069   -1.230896
     11          1           0        2.127559    0.975819    0.817438
     12          1           0        0.563931   -0.364156    1.905541
     13          1           0        0.798788   -1.643523    0.636097
     14          1           0       -2.886505    0.650297   -0.795742
     15          1           0       -2.736189    0.298550    0.930476
     16          1           0       -3.382414   -0.947451   -0.172956
 ---------------------------------------------------------------------

 SCF Done:  E(RHF) =  -360.905671250     A.U. after    2 cycles

 The electronic state is 1-A.
 Alpha  occ. eigenvalues --  -20.54919 -20.46483 -15.73841 -11.36605 -11.33791
 Alpha  occ. eigenvalues --  -11.27509 -11.25210  -1.34330  -1.30380  -1.23676
 Alpha  occ. eigenvalues --   -1.01169  -0.93789  -0.89267  -0.77317  -0.76698
 Alpha  occ. eigenvalues --   -0.70261  -0.68534  -0.63792  -0.62502  -0.60911
 Alpha  occ. eigenvalues --   -0.57825  -0.56884  -0.53256  -0.49025  -0.47059
 Alpha  occ. eigenvalues --   -0.43026  -0.38688  -0.31713
 Alpha virt. eigenvalues --    0.02074   0.03297   0.03833   0.04591   0.05596
 Alpha virt. eigenvalues --    0.06777   0.06848   0.07564   0.07984   0.08457
 Alpha virt. eigenvalues --    0.11071   0.12249   0.13106   0.13588   0.14265

 Mulliken charges:
               1
     1  C    0.769620
     2  N   -0.079888
     3  C    0.583327
     4  C    0.572115
     5  O   -0.706714
     6  O   -0.639080
     7  C    0.705821
     8  H   -0.252174
     9  H   -0.053426
    10  H   -0.223327
    11  H    0.051607
    12  H   -0.158441
    13  H   -0.148081
    14  H   -0.086252
    15  H   -0.075629
    16  H   -0.259479
 Sum of Mulliken charges =   0.00000

 Dipole moment (field-independent basis, Debye):
    X=              5.9257    Y=             -2.1734    Z=             -0.0020  Tot=              6.3117

 Test job not archived.
 1\1\GINC-SE100\SP\RHF\Aug-CC-pVDZ\C4H9N1O2\OHZDE\09-Apr-2025\0\\#t hf
 aug-cc-pvdz iop(5/13=1,5/36=2,99/5=2) pseudo=read geom=check guess=(re
 ad,tcheck) scf=(maxcycle=1)\\title\\0,1\C,0,-2.32887143,0.70934127,0.3
 8593631\N,0,-1.87840944,-0.514634,0.52137719\C,0,-0.59292234,-0.695960
 63,1.03125368\C,0,0.30425122,0.08256264,-0.2274943\O,0,0.32111524,-0.5
 6502901,-1.28416766\O,0,1.50023765,0.49833638,0.3586051\C,0,2.6733882,
 0.12235753,-0.33682589\H,0,-3.13041288,0.90333984,-0.31185104\H,0,-0.4
 4816545,1.00921095,-0.19365988\H,0,-2.08414194,1.44015965,1.14284061\H

 Normal termination of Gaussian 16 at Wed Apr  9 16:37:16 2025.
