 Gaussian 16, Revision C.01,

 ----------------------------------------------------------------------
 #t hf aug-cc-pvdz symm=none int=(grid=ultrafine) guess=(read,tcheck) s
 table=(opt,rrhf)
 ----------------------------------------------------------------------
 -----
 title
 -----
 Symbolic Z-matrix:
 Charge =  0 Multiplicity = 1

 SCF Done:  E(RHF) =  -307.906013128     A.U. after   14 cycles

 1\1\GINC-SE168\Stability\RHF\Aug-CC-pVDZ\C6H10O1\OHZDE\09-Apr-2025\0\\
 #t hf aug-cc-pvdz symm=none int=(grid=ultrafine) guess=(read,tcheck) s
 table=(opt,rrhf)\\title\\0,1\C,0,1.68603925,-0.7891864,0.33873488\C,0,
 0.75033818,0.42025493,0.32243146\C,0,0.12065978,0.6594874,-1.054493\C,
 0,-1.63109507,0.16556699,0.99870402\O,0,-2.10122374,0.0477874,-0.26501
 591\C,0,-1.10217059,-0.22115633,-1.23984175\C,0,-0.35323104,0.30262008
 ,1.33778325\H,0,2.07727877,-0.96767695,1.34232079\H,0,2.53424681,-0.63
 507616,-0.33303117\H,0,1.16296914,-1.69618043,0.02688788\H,0,1.3482404

 Normal termination of Gaussian 16 at Wed Apr  9 16:31:15 2025.
 Gaussian 16:  ES64L-G16RevC.01  3-Jul-2019

 ----------------------------------------------------------------------
 #t hf aug-cc-pvdz iop(5/13=1,5/36=2,99/5=2) pseudo=read geom=check gue
 ss=(read,tcheck) scf=(maxcycle=1)
 ----------------------------------------------------------------------
 -----
 title
 -----
 Structure from the checkpoint file:  "Grambow2020_wb97xd3_008493_reverse_mol2.chk"
 Charge =  0 Multiplicity = 1

                         Standard orientation:
 ---------------------------------------------------------------------
 Center     Atomic      Atomic             Coordinates (Angstroms)
 Number     Number       Type             X           Y           Z
 ---------------------------------------------------------------------
      1          6           0       -2.110586    0.020119   -0.607963
      2          6           0       -1.049970    0.155471    0.485347
      3          6           0       -0.214598   -1.118276    0.656728
      4          6           0        1.171838    1.142757   -0.045940
      5          8           0        1.794083   -0.047771   -0.211279
      6          6           0        0.913859   -1.154245   -0.358403
      7          6           0       -0.116441    1.308337    0.236220
      8          1           0       -2.653298    0.957590   -0.744794
      9          1           0       -2.835726   -0.757062   -0.353726
     10          1           0       -1.656387   -0.236488   -1.567830
     11          1           0       -1.573227    0.346955    1.428383
     12          1           0        0.218942   -1.147555    1.659788
     13          1           0       -0.834519   -2.011145    0.541641
     14          1           0        1.862927    1.968465   -0.164999
     15          1           0        1.532329   -2.044275   -0.246209
     16          1           0        0.513064   -1.140207   -1.379572
     17          1           0       -0.491381    2.320905    0.321611
 ---------------------------------------------------------------------

 SCF Done:  E(RHF) =  -308.003000494     A.U. after    2 cycles

 The electronic state is 1-A.
 Alpha  occ. eigenvalues --  -20.58873 -11.29188 -11.28902 -11.24171 -11.23293
 Alpha  occ. eigenvalues --  -11.22494 -11.22018  -1.36605  -1.09335  -1.03141
 Alpha  occ. eigenvalues --   -0.96000  -0.87637  -0.83915  -0.72068  -0.71127
 Alpha  occ. eigenvalues --   -0.64937  -0.64710  -0.60847  -0.58620  -0.57211
 Alpha  occ. eigenvalues --   -0.55491  -0.52613  -0.51658  -0.47677  -0.45902
 Alpha  occ. eigenvalues --   -0.45450  -0.33559
 Alpha virt. eigenvalues --    0.03413   0.04303   0.04494   0.04801   0.05987
 Alpha virt. eigenvalues --    0.06603   0.06718   0.07006   0.08491   0.09670
 Alpha virt. eigenvalues --    0.11497   0.12347   0.13335   0.14116   0.14489

 Mulliken charges:
               1
     1  C    0.452595
     2  C   -0.834575
     3  C    0.437288
     4  C    0.467052
     5  O   -0.642505
     6  C    0.891385
     7  C    0.866658
     8  H   -0.085951
     9  H   -0.059874
    10  H   -0.070211
    11  H   -0.079257
    12  H   -0.121006
    13  H   -0.034530
    14  H   -0.361796
    15  H   -0.207221
    16  H   -0.202775
    17  H   -0.415276
 Sum of Mulliken charges =  -0.00000

 Dipole moment (field-independent basis, Debye):
    X=             -1.3823    Y=             -0.5487    Z=              0.1407  Tot=              1.4938

 Test job not archived.
 1\1\GINC-SE168\SP\RHF\Aug-CC-pVDZ\C6H10O1\OHZDE\09-Apr-2025\0\\#t hf a
 ug-cc-pvdz iop(5/13=1,5/36=2,99/5=2) pseudo=read geom=check guess=(rea
 d,tcheck) scf=(maxcycle=1)\\title\\0,1\C,0,1.68603925,-0.7891864,0.338
 73488\C,0,0.75033818,0.42025493,0.32243146\C,0,0.12065978,0.6594874,-1
 .054493\C,0,-1.63109507,0.16556699,0.99870402\O,0,-2.10122374,0.047787
 4,-0.26501591\C,0,-1.10217059,-0.22115633,-1.23984175\C,0,-0.35323104,
 0.30262008,1.33778325\H,0,2.07727877,-0.96767695,1.34232079\H,0,2.5342
 4681,-0.63507616,-0.33303117\H,0,1.16296914,-1.69618043,0.02688788\H,0

 Normal termination of Gaussian 16 at Wed Apr  9 16:31:21 2025.
