 Gaussian 16, Revision C.01,

 ----------------------------------------------------------------------
 #t hf aug-cc-pvdz symm=none int=(grid=ultrafine) guess=(read,tcheck) s
 table=(opt,rrhf)
 ----------------------------------------------------------------------
 -----
 title
 -----
 Symbolic Z-matrix:
 Charge =  0 Multiplicity = 1

 SCF Done:  E(RHF) =  -344.818195728     A.U. after   15 cycles

 1\1\GINC-SE366\Stability\RHF\Aug-CC-pVDZ\C5H10O2\OHZDE\09-Apr-2025\0\\
 #t hf aug-cc-pvdz symm=none int=(grid=ultrafine) guess=(read,tcheck) s
 table=(opt,rrhf)\\title\\0,1\O,0,1.78143548,0.12930453,1.35341033\C,0,
 2.02511401,-0.1298083,-0.02003101\C,0,0.81414377,-0.81685293,-0.619262
 35\C,0,-0.43274249,0.0546238,-0.76653979\C,0,-3.45891999,0.72910358,0.
 36657329\O,0,-2.27551901,1.2208978,0.27290774\C,0,-1.07454827,0.449982
 69,0.54790947\H,0,2.55619722,0.54178855,1.7370435\H,0,2.90076065,-0.77
 987292,-0.13486993\H,0,2.22835826,0.80496998,-0.56030276\H,0,0.5864371

 Normal termination of Gaussian 16 at Wed Apr  9 03:40:33 2025.
 Gaussian 16:  ES64L-G16RevC.01  3-Jul-2019

 ----------------------------------------------------------------------
 #t hf aug-cc-pvdz iop(5/13=1,5/36=2,99/5=2) pseudo=read geom=check gue
 ss=(read,tcheck) scf=(maxcycle=1)
 ----------------------------------------------------------------------
 -----
 title
 -----
 Structure from the checkpoint file:  "Grambow2020_wb97xd3_007545_reverse_mol2.chk"
 Charge =  0 Multiplicity = 1

                         Standard orientation:
 ---------------------------------------------------------------------
 Center     Atomic      Atomic             Coordinates (Angstroms)
 Number     Number       Type             X           Y           Z
 ---------------------------------------------------------------------
      1          8           0       -2.000314   -1.213181    0.192162
      2          6           0       -2.289514    0.108789   -0.234006
      3          6           0       -1.249653    1.053640    0.334767
      4          6           0        0.153775    0.922548   -0.256073
      5          6           0        3.251019   -0.110044    0.231219
      6          8           0        2.198704   -0.346366   -0.467249
      7          6           0        0.861075   -0.369150    0.100638
      8          1           0       -2.671331   -1.806205   -0.147885
      9          1           0       -3.282544    0.413114    0.117853
     10          1           0       -2.288917    0.170862   -1.330892
     11          1           0       -1.216237    0.918539    1.420493
     12          1           0       -1.600327    2.073979    0.158682
     13          1           0        0.112276    1.016811   -1.345259
     14          1           0        2.910577    0.035351    1.297168
     15          1           0        0.766000    1.753594    0.106832
     16          1           0        0.365874   -1.241016   -0.319098
     17          1           0        0.957295   -0.493351    1.183530
 ---------------------------------------------------------------------

 SCF Done:  E(RHF) =  -344.927664620     A.U. after    2 cycles

 The electronic state is 1-A.
 Alpha  occ. eigenvalues --  -20.63109 -20.58620 -11.30033 -11.29879 -11.29611
 Alpha  occ. eigenvalues --  -11.24730 -11.24608  -1.40242  -1.33941  -1.08623
 Alpha  occ. eigenvalues --   -1.00475  -0.91050  -0.82876  -0.80849  -0.73688
 Alpha  occ. eigenvalues --   -0.69825  -0.67194  -0.64051  -0.63039  -0.60328
 Alpha  occ. eigenvalues --   -0.57444  -0.56292  -0.53767  -0.51150  -0.49136
 Alpha  occ. eigenvalues --   -0.48079  -0.46768  -0.34579
 Alpha virt. eigenvalues --    0.02689   0.03806   0.04310   0.04715   0.05986
 Alpha virt. eigenvalues --    0.06532   0.06937   0.07175   0.07743   0.09174
 Alpha virt. eigenvalues --    0.10174   0.12568   0.12888   0.13383   0.13821

 Mulliken charges:
               1
     1  O   -0.579132
     2  C    0.826221
     3  C    0.051092
     4  C    0.020806
     5  C    0.128580
     6  O   -0.497372
     7  C    0.943211
     8  H    0.149789
     9  H   -0.139040
    10  H   -0.146003
    11  H   -0.083730
    12  H   -0.055806
    13  H   -0.059905
    14  H   -0.101231
    15  H   -0.116763
    16  H   -0.205365
    17  H   -0.135351
 Sum of Mulliken charges =  -0.00000

 Dipole moment (field-independent basis, Debye):
    X=             -5.5092    Y=              0.5926    Z=              0.4981  Tot=              5.5633

 Test job not archived.
 1\1\GINC-SE366\SP\RHF\Aug-CC-pVDZ\C5H10O2\OHZDE\09-Apr-2025\0\\#t hf a
 ug-cc-pvdz iop(5/13=1,5/36=2,99/5=2) pseudo=read geom=check guess=(rea
 d,tcheck) scf=(maxcycle=1)\\title\\0,1\O,0,1.78143548,0.12930453,1.353
 41033\C,0,2.02511401,-0.1298083,-0.02003101\C,0,0.81414377,-0.81685293
 ,-0.61926235\C,0,-0.43274249,0.0546238,-0.76653979\C,0,-3.45891999,0.7
 2910358,0.36657329\O,0,-2.27551901,1.2208978,0.27290774\C,0,-1.0745482
 7,0.44998269,0.54790947\H,0,2.55619722,0.54178855,1.7370435\H,0,2.9007
 6065,-0.77987292,-0.13486993\H,0,2.22835826,0.80496998,-0.56030276\H,0

 Normal termination of Gaussian 16 at Wed Apr  9 03:40:38 2025.
