 Gaussian 16, Revision C.01,

 ----------------------------------------------------------------------
 #t hf aug-cc-pvdz symm=none int=(grid=ultrafine) guess=(read,tcheck) s
 table=(opt,rrhf)
 ----------------------------------------------------------------------
 -----
 title
 -----
 Symbolic Z-matrix:
 Charge =  0 Multiplicity = 1

 SCF Done:  E(RHF) =  -322.696257786     A.U. after   15 cycles
 Normal termination of Gaussian 16 at Wed Apr  9 14:53:09 2025.
 Gaussian 16:  ES64L-G16RevC.01  3-Jul-2019

 ----------------------------------------------------------------------
 #t hf aug-cc-pvdz iop(5/13=1,5/36=2,99/5=2) pseudo=read geom=check gue
 ss=(read,tcheck) scf=(maxcycle=1)
 ----------------------------------------------------------------------
 -----
 title
 -----
 Structure from the checkpoint file:  "Grambow2020_wb97xd3_006638_reverse_mol2.chk"
 Charge =  0 Multiplicity = 1

                         Standard orientation:
 ---------------------------------------------------------------------
 Center     Atomic      Atomic             Coordinates (Angstroms)
 Number     Number       Type             X           Y           Z
 ---------------------------------------------------------------------
      1          8           0       -2.730470   -0.905773   -0.001962
      2          6           0       -2.420796    0.251281    0.002124
      3          6           0       -1.011625    0.759865   -0.000956
      4          6           0        1.275730    0.480646   -0.001967
      5          6           0        2.303372   -0.328213    0.746272
      6          6           0        2.310763   -0.326182   -0.741805
      7          7           0       -0.035112   -0.038616   -0.004404
      8          1           0       -3.192215    1.049336    0.011531
      9          1           0       -0.890138    1.851388    0.001520
     10          1           0        1.386387    1.564145   -0.001076
     11          1           0        1.935448   -1.212165    1.247988
     12          1           0        3.071214    0.221599    1.273565
     13          1           0        1.951086   -1.209546   -1.250618
     14          1           0        3.083092    0.227355   -1.258393
 ---------------------------------------------------------------------

 SCF Done:  E(RHF) =  -322.795879291     A.U. after    2 cycles

 The electronic state is 1-A.
 Alpha  occ. eigenvalues --  -20.58006 -15.66012 -11.34982 -11.29790 -11.28238
 Alpha  occ. eigenvalues --  -11.24739 -11.24679  -1.37022  -1.23999  -1.13291
 Alpha  occ. eigenvalues --   -0.94889  -0.83518  -0.83339  -0.76544  -0.71070
 Alpha  occ. eigenvalues --   -0.70148  -0.65316  -0.63591  -0.58497  -0.57100
 Alpha  occ. eigenvalues --   -0.53243  -0.50989  -0.47803  -0.43728  -0.42179
 Alpha  occ. eigenvalues --   -0.38532
 Alpha virt. eigenvalues --    0.02924   0.03754   0.04654   0.04779   0.05165
 Alpha virt. eigenvalues --    0.06262   0.07466   0.07516   0.09403   0.11198
 Alpha virt. eigenvalues --    0.11380   0.12485   0.12820   0.14504   0.14616

 Mulliken charges:
               1
     1  O   -0.474019
     2  C    0.728435
     3  C    0.310422
     4  C    0.548538
     5  C    0.680591
     6  C    0.681171
     7  N   -0.417482
     8  H   -0.085478
     9  H   -0.470658
    10  H   -0.319676
    11  H   -0.299929
    12  H   -0.290518
    13  H   -0.301434
    14  H   -0.289964
 Sum of Mulliken charges =  -0.00000

 Dipole moment (field-independent basis, Debye):
    X=              2.1481    Y=              3.9663    Z=              0.0175  Tot=              4.5107

 Test job not archived.
 1\1\GINC-SE113\SP\RHF\Aug-CC-pVDZ\C5H7N1O1\OHZDE\09-Apr-2025\0\\#t hf
 aug-cc-pvdz iop(5/13=1,5/36=2,99/5=2) pseudo=read geom=check guess=(re
 ad,tcheck) scf=(maxcycle=1)\\title\\0,1\O,0,1.98154041,2.28054369,1.56
 679476\C,0,1.91403856,2.17393585,0.37567491\C,0,1.05253156,1.18422641,
 -0.34731302\C,0,-0.46783199,-0.54541297,-0.42978765\C,0,-0.66592546,-1
 .89131019,0.21788689\C,0,-1.78804899,-0.9141929,0.19523467\N,0,0.32435
 648,0.37370092,0.28827475\H,0,2.51321807,2.828065,-0.29153292\H,0,1.09
 883109,1.2113833,-1.44426575\H,0,-0.41658467,-0.51003692,-1.51714164\H

 Normal termination of Gaussian 16 at Wed Apr  9 14:53:13 2025.
