 Gaussian 16, Revision C.01,

 ----------------------------------------------------------------------
 #t hf aug-cc-pvdz symm=none int=(grid=ultrafine) guess=(read,tcheck) s
 table=(opt,rrhf)
 ----------------------------------------------------------------------
 -----
 title
 -----
 Symbolic Z-matrix:
 Charge =  0 Multiplicity = 1

 SCF Done:  E(RHF) =  -342.437528584     A.U. after   16 cycles
 Normal termination of Gaussian 16 at Wed Apr  9 16:32:00 2025.
 Gaussian 16:  ES64L-G16RevC.01  3-Jul-2019

 ----------------------------------------------------------------------
 #t hf aug-cc-pvdz iop(5/13=1,5/36=2,99/5=2) pseudo=read geom=check gue
 ss=(read,tcheck) scf=(maxcycle=1)
 ----------------------------------------------------------------------
 -----
 title
 -----
 Structure from the checkpoint file:  "Grambow2020_wb97xd3_008521_reverse_mol1.chk"
 Charge =  0 Multiplicity = 1

                         Standard orientation:
 ---------------------------------------------------------------------
 Center     Atomic      Atomic             Coordinates (Angstroms)
 Number     Number       Type             X           Y           Z
 ---------------------------------------------------------------------
      1          8           0       -2.049129   -0.791778    0.093175
      2          6           0       -1.015661   -0.231880   -0.133071
      3          6           0       -0.695845    1.220701    0.205659
      4          8           0        0.704390    1.352040    0.067694
      5          6           0        1.219936    0.139039   -0.444127
      6          6           0        1.396719   -0.996087    0.610344
      7          6           0        0.221775   -0.832556   -0.815259
      8          1           0       -1.012205    1.438133    1.228251
      9          1           0       -1.212430    1.906738   -0.473683
     10          1           0        2.098860    0.335486   -1.045871
     11          1           0        1.210498   -0.609459    1.607788
     12          1           0        2.313547   -1.558646    0.478452
     13          1           0        0.598094   -1.789661    0.376831
 ---------------------------------------------------------------------

 SCF Done:  E(RHF) =  -342.541354173     A.U. after    2 cycles

 The electronic state is 1-A.
 Alpha  occ. eigenvalues --  -20.60161 -20.58812 -11.35988 -11.32807 -11.31182
 Alpha  occ. eigenvalues --  -11.29741 -11.28132  -1.39237  -1.37068  -1.14508
 Alpha  occ. eigenvalues --   -1.01344  -0.92784  -0.83358  -0.77660  -0.71977
 Alpha  occ. eigenvalues --   -0.69338  -0.65228  -0.63905  -0.62917  -0.59247
 Alpha  occ. eigenvalues --   -0.58453  -0.54694  -0.53848  -0.46759  -0.43528
 Alpha  occ. eigenvalues --   -0.37106
 Alpha virt. eigenvalues --    0.02930   0.04056   0.04206   0.05525   0.06041
 Alpha virt. eigenvalues --    0.06708   0.07795   0.09123   0.09809   0.11254
 Alpha virt. eigenvalues --    0.11926   0.13400   0.13782   0.14407   0.14641

 Mulliken charges:
               1
     1  O   -0.477753
     2  C    0.159893
     3  C    0.805450
     4  O   -0.731874
     5  C    1.187399
     6  C    0.249648
     7  C   -0.729005
     8  H   -0.088495
     9  H   -0.072666
    10  H   -0.284380
    11  H   -0.078434
    12  H   -0.118077
    13  H    0.178294
 Sum of Mulliken charges =  -0.00000

 Dipole moment (field-independent basis, Debye):
    X=              2.9209    Y=              1.0255    Z=              1.4152  Tot=              3.4039

 Test job not archived.
 1\1\GINC-SE100\SP\RHF\Aug-CC-pVDZ\C5H6O2\OHZDE\09-Apr-2025\0\\#t hf au
 g-cc-pvdz iop(5/13=1,5/36=2,99/5=2) pseudo=read geom=check guess=(read
 ,tcheck) scf=(maxcycle=1)\\title\\0,1\O,0,1.17789158,1.98858095,0.8177
 2487\C,0,0.79367743,1.06713383,0.1573882\C,0,1.56926409,-0.2173274,-0.
 11763606\O,0,0.63003837,-1.13249733,-0.64419371\C,0,-0.60083117,-0.459
 52944,-0.82081301\C,0,-1.44695568,-0.28685,0.47762021\C,0,-0.55536916,
 0.958901,-0.56773181\H,0,2.00349144,-0.5910444,0.81232898\H,0,2.377237
 29,-0.04369658,-0.835998\H,0,-1.14043997,-0.8888187,-1.65611311\H,0,-0

 Normal termination of Gaussian 16 at Wed Apr  9 16:32:04 2025.
