 Gaussian 16, Revision C.01,

 ----------------------------------------------------------------------
 #t hf aug-cc-pvdz symm=none int=(grid=ultrafine) guess=(read,tcheck) s
 table=(opt,rrhf)
 ----------------------------------------------------------------------
 -----
 title
 -----
 Symbolic Z-matrix:
 Charge =  0 Multiplicity = 1

 SCF Done:  E(RHF) =  -283.461439706     A.U. after   17 cycles
 Normal termination of Gaussian 16 at Wed Apr  9 13:45:39 2025.
 Gaussian 16:  ES64L-G16RevC.01  3-Jul-2019

 ----------------------------------------------------------------------
 #t hf aug-cc-pvdz iop(5/13=1,5/36=2,99/5=2) pseudo=read geom=check gue
 ss=(read,tcheck) scf=(maxcycle=1)
 ----------------------------------------------------------------------
 -----
 title
 -----
 Structure from the checkpoint file:  "Grambow2020_b97d3_006666_forward_mol1.chk"
 Charge =  0 Multiplicity = 1

                         Standard orientation:
 ---------------------------------------------------------------------
 Center     Atomic      Atomic             Coordinates (Angstroms)
 Number     Number       Type             X           Y           Z
 ---------------------------------------------------------------------
      1          7           0        1.967519   -0.803037   -0.167418
      2          6           0        1.632469    0.232915    0.404966
      3          6           0        0.489458    1.114126    0.057008
      4          6           0       -0.590759    0.148623   -0.499290
      5          6           0       -1.231270   -0.928469    0.271405
      6          8           0       -1.887659    0.334926   -0.074042
      7          1           0        0.873858    1.805798   -0.704061
      8          1           0        0.041678    1.708185    0.867699
      9          1           0        1.263096   -1.121971   -0.899484
     10          1           0       -1.611345   -1.810879   -0.246661
     11          1           0       -1.038040   -1.042453    1.342230
 ---------------------------------------------------------------------

 SCF Done:  E(RHF) =  -283.545797849     A.U. after    2 cycles

 The electronic state is 1-A.
 Alpha  occ. eigenvalues --  -20.62975 -15.65993 -11.34881 -11.33276 -11.32763
 Alpha  occ. eigenvalues --  -11.31386  -1.41938  -1.22632  -1.04499  -0.94328
 Alpha  occ. eigenvalues --   -0.83113  -0.75704  -0.71108  -0.68082  -0.66834
 Alpha  occ. eigenvalues --   -0.62892  -0.58957  -0.51954  -0.49724  -0.48592
 Alpha  occ. eigenvalues --   -0.46744  -0.28701
 Alpha virt. eigenvalues --   -0.01354   0.03617   0.04063   0.04512   0.06176
 Alpha virt. eigenvalues --    0.06767   0.08226   0.09368   0.10327   0.11443
 Alpha virt. eigenvalues --    0.12728   0.13837   0.14545   0.15106   0.15386

 Mulliken charges:
               1
     1  N   -0.233517
     2  C   -0.095191
     3  C    0.382982
     4  C   -0.280882
     5  C    1.035317
     6  O   -0.641319
     7  H    0.099247
     8  H    0.034055
     9  H    0.145057
    10  H   -0.217221
    11  H   -0.228529
 Sum of Mulliken charges =  -0.00000

 Dipole moment (field-independent basis, Debye):
    X=             -0.4323    Y=              0.0142    Z=              0.5595  Tot=              0.7072

 Test job not archived.
 1\1\GINC-SE054\SP\RHF\Aug-CC-pVDZ\C4H5N1O1\OHZDE\09-Apr-2025\0\\#t hf
 aug-cc-pvdz iop(5/13=1,5/36=2,99/5=2) pseudo=read geom=check guess=(re
 ad,tcheck) scf=(maxcycle=1)\\title\\0,1\N,0,1.85519421,0.73018667,0.76
 856798\C,0,1.71490651,-0.08141259,-0.14505421\C,0,0.61334316,-1.064048
 09,-0.30337927\C,0,-0.6268649,-0.36004005,0.30881929\C,0,-1.2230856,0.
 88433762,-0.20147204\O,0,-1.81223562,-0.4440133,-0.38784341\H,0,0.9252
 0819,-1.94832354,0.26775736\H,0,0.36271776,-1.3849253,-1.32556269\H,0,
 1.01240473,0.77779087,1.4176374\H,0,-1.76205314,1.54439599,0.48068214\

 Normal termination of Gaussian 16 at Wed Apr  9 13:45:43 2025.
