 Gaussian 16, Revision C.01,

 ----------------------------------------------------------------------
 #t hf aug-cc-pvdz symm=none int=(grid=ultrafine) guess=(read,tcheck) s
 table=(opt,rrhf)
 ----------------------------------------------------------------------
 -----
 title
 -----
 Symbolic Z-matrix:
 Charge =  0 Multiplicity = 1

 SCF Done:  E(RHF) =  -305.883948317     A.U. after   14 cycles
 Normal termination of Gaussian 16 at Wed Apr  9 14:18:15 2025.
 Gaussian 16:  ES64L-G16RevC.01  3-Jul-2019

 ----------------------------------------------------------------------
 #t hf aug-cc-pvdz iop(5/13=1,5/36=2,99/5=2) pseudo=read geom=check gue
 ss=(read,tcheck) scf=(maxcycle=1)
 ----------------------------------------------------------------------
 -----
 title
 -----
 Structure from the checkpoint file:  "Grambow2020_b97d3_007098_reverse_mol2.chk"
 Charge =  0 Multiplicity = 1

                         Standard orientation:
 ---------------------------------------------------------------------
 Center     Atomic      Atomic             Coordinates (Angstroms)
 Number     Number       Type             X           Y           Z
 ---------------------------------------------------------------------
      1          6           0       -1.832771   -1.234235   -0.066691
      2          6           0       -1.675193   -0.009952    0.470115
      3          6           0       -1.647587    1.280856   -0.293903
      4          8           0        1.686048    1.101830    0.168818
      5          6           0        2.126790   -0.014304   -0.025059
      6          8           0        1.413161   -1.149082   -0.149501
      7          1           0        0.449145   -0.928456   -0.051182
      8          1           0       -1.843697   -2.133722    0.550280
      9          1           0       -1.980887   -1.369667   -1.140207
     10          1           0       -1.537840    0.072905    1.553126
     11          1           0       -0.671956    1.770744   -0.161016
     12          1           0       -2.418071    1.971510    0.081921
     13          1           0       -1.817501    1.118839   -1.366831
     14          1           0        3.199703   -0.258324   -0.127406
 ---------------------------------------------------------------------

 SCF Done:  E(RHF) =  -305.983969250     A.U. after    2 cycles

 The electronic state is 1-A.
 Alpha  occ. eigenvalues --  -20.62739 -20.57518 -11.40818 -11.26507 -11.24745
 Alpha  occ. eigenvalues --  -11.23504  -1.41822  -1.32792  -1.06753  -0.93665
 Alpha  occ. eigenvalues --   -0.89137  -0.76896  -0.72396  -0.71823  -0.65132
 Alpha  occ. eigenvalues --   -0.63910  -0.60856  -0.59619  -0.56950  -0.52984
 Alpha  occ. eigenvalues --   -0.50451  -0.50385  -0.48232  -0.37873
 Alpha virt. eigenvalues --    0.03565   0.04459   0.04778   0.04873   0.06743
 Alpha virt. eigenvalues --    0.07097   0.07712   0.08614   0.09253   0.11447
 Alpha virt. eigenvalues --    0.11873   0.12648   0.14268   0.15161   0.15664

 Mulliken charges:
               1
     1  C    0.561636
     2  C    0.354051
     3  C    0.195962
     4  O   -0.372212
     5  C    0.740261
     6  O   -0.386275
     7  H    0.208530
     8  H   -0.331681
     9  H   -0.334281
    10  H   -0.373700
    11  H    0.016283
    12  H    0.008241
    13  H   -0.110574
    14  H   -0.176242
 Sum of Mulliken charges =  -0.00000

 Dipole moment (field-independent basis, Debye):
    X=             -0.4350    Y=             -1.2022    Z=             -0.1529  Tot=              1.2876

 Test job not archived.
 1\1\GINC-SE222\SP\RHF\Aug-CC-pVDZ\C4H8O2\OHZDE\09-Apr-2025\0\\#t hf au
 g-cc-pvdz iop(5/13=1,5/36=2,99/5=2) pseudo=read geom=check guess=(read
 ,tcheck) scf=(maxcycle=1)\\title\\0,1\C,0,-0.72836406,1.66305369,-0.12
 943992\C,0,-1.13106536,0.41666392,-0.43960814\C,0,-1.52085273,-0.64503
 328,0.54605726\O,0,1.53199073,-1.912591,-0.11175928\C,0,2.39599385,-1.
 0583611,-0.14900351\O,0,2.20674632,0.27362471,-0.19872273\H,0,1.229433
 51,0.45385908,-0.20535227\H,0,-0.45941042,2.38703925,-0.89973795\H,0,-
 0.68011712,2.00362911,0.90709174\H,0,-1.16960205,0.12645051,-1.4945652

 Normal termination of Gaussian 16 at Wed Apr  9 14:18:19 2025.
