 Gaussian 16, Revision C.01,

 ----------------------------------------------------------------------
 #t hf aug-cc-pvdz symm=none int=(grid=ultrafine) guess=(read,tcheck) s
 table=(opt,rrhf)
 ----------------------------------------------------------------------
 -----
 title
 -----
 Symbolic Z-matrix:
 Charge =  0 Multiplicity = 1

 SCF Done:  E(RHF) =  -307.648346011     A.U. after   15 cycles

 1\1\GINC-SE057\Stability\RHF\Aug-CC-pVDZ\C6H10O1\OHZDE\09-Apr-2025\0\\
 #t hf aug-cc-pvdz symm=none int=(grid=ultrafine) guess=(read,tcheck) s
 table=(opt,rrhf)\\title\\0,1\C,0,1.77766591,0.15279935,-0.78253278\C,0
 ,0.50225994,0.16837161,-0.00377906\C,0,0.05742493,-1.15213991,0.672816
 74\C,0,-1.15494703,-1.14957877,-0.31635821\C,0,-0.88694102,0.36860703,
 -0.57165289\C,0,-1.15068456,1.1777837,0.70578912\O,0,0.29211032,1.5785
 5487,0.60842672\H,0,2.64693168,0.10974496,-0.12174806\H,0,1.79079759,-
 0.7339463,-1.4192342\H,0,1.85154999,1.03056877,-1.42725946\H,0,0.78916

 Normal termination of Gaussian 16 at Wed Apr  9 15:36:17 2025.
 Gaussian 16:  ES64L-G16RevC.01  3-Jul-2019

 ----------------------------------------------------------------------
 #t hf aug-cc-pvdz iop(5/13=1,5/36=2,99/5=2) pseudo=read geom=check gue
 ss=(read,tcheck) scf=(maxcycle=1)
 ----------------------------------------------------------------------
 -----
 title
 -----
 Structure from the checkpoint file:  "Grambow2020_wb97xd3_007029_forward_mol1.chk"
 Charge =  0 Multiplicity = 1

                         Standard orientation:
 ---------------------------------------------------------------------
 Center     Atomic      Atomic             Coordinates (Angstroms)
 Number     Number       Type             X           Y           Z
 ---------------------------------------------------------------------
      1          6           0        1.962795   -0.318987   -0.235955
      2          6           0        0.534089   -0.042392    0.104126
      3          6           0       -0.250854   -1.143699    0.859372
      4          6           0       -1.127457   -1.281616   -0.429374
      5          6           0       -0.602536    0.118553   -0.883109
      6          6           0       -1.104363    1.210237    0.072182
      7          8           0        0.347716    1.480253    0.337350
      8          1           0        2.599456   -0.271063    0.650882
      9          1           0        2.037099   -1.325009   -0.653419
     10          1           0        2.328038    0.384235   -0.986746
     11          1           0        0.368537   -1.996660    1.141216
     12          1           0       -0.796791   -0.826799    1.744159
     13          1           0       -2.202634   -1.389734   -0.280034
     14          1           0       -0.787146   -2.094907   -1.071310
     15          1           0        0.347749    1.395484   -0.858689
     16          1           0       -1.563251    0.928770    1.022372
     17          1           0       -1.582830    2.101089   -0.330694
 ---------------------------------------------------------------------

 SCF Done:  E(RHF) =  -307.740029378     A.U. after    2 cycles

 The electronic state is 1-A.
 Alpha  occ. eigenvalues --  -20.64811 -11.30839 -11.30059 -11.24484 -11.23770
 Alpha  occ. eigenvalues --  -11.23138 -11.19084  -1.40202  -1.12025  -1.01126
 Alpha  occ. eigenvalues --   -0.93686  -0.87344  -0.85503  -0.75051  -0.68329
 Alpha  occ. eigenvalues --   -0.67652  -0.64362  -0.59619  -0.57774  -0.56551
 Alpha  occ. eigenvalues --   -0.54851  -0.53111  -0.51610  -0.47162  -0.44549
 Alpha  occ. eigenvalues --   -0.42052  -0.29286
 Alpha virt. eigenvalues --    0.03492   0.04075   0.04520   0.04881   0.05979
 Alpha virt. eigenvalues --    0.06511   0.06623   0.07475   0.08726   0.09549
 Alpha virt. eigenvalues --    0.10504   0.11714   0.13148   0.13907   0.14232

 Mulliken charges:
               1
     1  C    0.611437
     2  C   -0.463758
     3  C    0.463981
     4  C    0.809954
     5  C   -0.915775
     6  C    1.076109
     7  O   -0.960120
     8  H    0.053425
     9  H    0.111112
    10  H   -0.008755
    11  H   -0.274257
    12  H   -0.170747
    13  H   -0.199653
    14  H   -0.207894
    15  H    0.622553
    16  H   -0.302633
    17  H   -0.244978
 Sum of Mulliken charges =  -0.00000

 Dipole moment (field-independent basis, Debye):
    X=              0.1851    Y=             -0.6471    Z=              1.8431  Tot=              1.9622

 Test job not archived.
 1\1\GINC-SE057\SP\RHF\Aug-CC-pVDZ\C6H10O1\OHZDE\09-Apr-2025\0\\#t hf a
 ug-cc-pvdz iop(5/13=1,5/36=2,99/5=2) pseudo=read geom=check guess=(rea
 d,tcheck) scf=(maxcycle=1)\\title\\0,1\C,0,1.77766591,0.15279935,-0.78
 253278\C,0,0.50225994,0.16837161,-0.00377906\C,0,0.05742493,-1.1521399
 1,0.67281674\C,0,-1.15494703,-1.14957877,-0.31635821\C,0,-0.88694102,0
 .36860703,-0.57165289\C,0,-1.15068456,1.1777837,0.70578912\O,0,0.29211
 032,1.57855487,0.60842672\H,0,2.64693168,0.10974496,-0.12174806\H,0,1.
 79079759,-0.7339463,-1.4192342\H,0,1.85154999,1.03056877,-1.42725946\H

 Normal termination of Gaussian 16 at Wed Apr  9 15:36:25 2025.
