 Gaussian 16, Revision C.01,

 ----------------------------------------------------------------------
 #t hf aug-cc-pvdz symm=none int=(grid=ultrafine) guess=(read,tcheck) s
 table=(opt,rrhf)
 ----------------------------------------------------------------------
 -----
 title
 -----
 Symbolic Z-matrix:
 Charge =  0 Multiplicity = 1

 SCF Done:  E(RHF) =  -344.730287338     A.U. after   14 cycles

 1\1\GINC-SE165\Stability\RHF\Aug-CC-pVDZ\C5H10O2\OHZDE\09-Apr-2025\0\\
 #t hf aug-cc-pvdz symm=none int=(grid=ultrafine) guess=(read,tcheck) s
 table=(opt,rrhf)\\title\\0,1\C,0,-2.08077308,-0.45411773,0.53184665\C,
 0,-0.9286021,0.34277081,-0.02136218\O,0,-0.73498023,1.56057507,0.45674
 082\C,0,0.30277714,-0.49888674,-0.37391297\C,0,1.55742685,0.29198266,-
 0.74379743\C,0,2.02517512,-0.08334107,0.66618916\O,0,0.88165936,-0.943
 21622,0.8574629\H,0,-2.96315005,0.17481615,0.62542317\H,0,-2.3013273,-
 1.34215883,-0.06179037\H,0,-1.76512848,-0.76346844,1.5308336\H,0,-1.36

 Normal termination of Gaussian 16 at Wed Apr  9 03:33:36 2025.
 Gaussian 16:  ES64L-G16RevC.01  3-Jul-2019

 ----------------------------------------------------------------------
 #t hf aug-cc-pvdz iop(5/13=1,5/36=2,99/5=2) pseudo=read geom=check gue
 ss=(read,tcheck) scf=(maxcycle=1)
 ----------------------------------------------------------------------
 -----
 title
 -----
 Structure from the checkpoint file:  "Grambow2020_wb97xd3_007054_forward_mol1.chk"
 Charge =  0 Multiplicity = 1

                         Standard orientation:
 ---------------------------------------------------------------------
 Center     Atomic      Atomic             Coordinates (Angstroms)
 Number     Number       Type             X           Y           Z
 ---------------------------------------------------------------------
      1          6           0        2.128442   -0.769499    0.010224
      2          6           0        1.041328    0.263713    0.148877
      3          8           0        0.995883    1.235336   -0.747227
      4          6           0       -0.284794   -0.290269    0.681305
      5          6           0       -1.466230    0.678860    0.643486
      6          6           0       -1.907254   -0.145042   -0.570764
      7          8           0       -0.851293   -1.104294   -0.350810
      8          1           0        3.074323   -0.290684   -0.232569
      9          1           0        2.229577   -1.395226    0.897863
     10          1           0        1.827147   -1.394807   -0.833291
     11          1           0        1.441294    0.926390    1.380824
     12          1           0        1.335031    1.469142    0.575568
     13          1           0       -0.123518   -0.851244    1.608277
     14          1           0       -2.124078    0.601558    1.506364
     15          1           0       -1.210395    1.716822    0.444189
     16          1           0       -1.785407    0.360335   -1.530252
     17          1           0       -2.889644   -0.617203   -0.511440
 ---------------------------------------------------------------------

 SCF Done:  E(RHF) =  -344.838165740     A.U. after    2 cycles

 The electronic state is 1-A.
 Alpha  occ. eigenvalues --  -20.57489 -20.51864 -11.37448 -11.30883 -11.29114
 Alpha  occ. eigenvalues --  -11.24426 -11.24240  -1.36342  -1.31301  -1.03909
 Alpha  occ. eigenvalues --   -1.01651  -0.94886  -0.83913  -0.76984  -0.72998
 Alpha  occ. eigenvalues --   -0.69490  -0.67399  -0.62248  -0.60544  -0.60138
 Alpha  occ. eigenvalues --   -0.56147  -0.55323  -0.54706  -0.48556  -0.48445
 Alpha  occ. eigenvalues --   -0.45881  -0.41312  -0.40263
 Alpha virt. eigenvalues --    0.02935   0.04086   0.04485   0.04835   0.06127
 Alpha virt. eigenvalues --    0.06299   0.06940   0.07542   0.07798   0.09178
 Alpha virt. eigenvalues --    0.11558   0.12116   0.12617   0.13222   0.13706

 Mulliken charges:
               1
     1  C    0.645206
     2  C   -0.331385
     3  O   -0.928513
     4  C    0.703956
     5  C    0.615900
     6  C    0.863169
     7  O   -0.857308
     8  H   -0.032041
     9  H    0.001539
    10  H    0.113523
    11  H    0.324400
    12  H   -0.016770
    13  H   -0.327269
    14  H   -0.147553
    15  H   -0.160718
    16  H   -0.235211
    17  H   -0.230926
 Sum of Mulliken charges =  -0.00000

 Dipole moment (field-independent basis, Debye):
    X=             -0.3317    Y=             -0.3390    Z=              3.4328  Tot=              3.4654

 Test job not archived.
 1\1\GINC-SE165\SP\RHF\Aug-CC-pVDZ\C5H10O2\OHZDE\09-Apr-2025\0\\#t hf a
 ug-cc-pvdz iop(5/13=1,5/36=2,99/5=2) pseudo=read geom=check guess=(rea
 d,tcheck) scf=(maxcycle=1)\\title\\0,1\C,0,-2.08077308,-0.45411773,0.5
 3184665\C,0,-0.9286021,0.34277081,-0.02136218\O,0,-0.73498023,1.560575
 07,0.45674082\C,0,0.30277714,-0.49888674,-0.37391297\C,0,1.55742685,0.
 29198266,-0.74379743\C,0,2.02517512,-0.08334107,0.66618916\O,0,0.88165
 936,-0.94321622,0.8574629\H,0,-2.96315005,0.17481615,0.62542317\H,0,-2
 .3013273,-1.34215883,-0.06179037\H,0,-1.76512848,-0.76346844,1.5308336

 Normal termination of Gaussian 16 at Wed Apr  9 03:33:43 2025.
