 Gaussian 16, Revision C.01,

 ----------------------------------------------------------------------
 #t hf aug-cc-pvdz symm=none int=(grid=ultrafine) guess=(read,tcheck) s
 table=(opt,rrhf)
 ----------------------------------------------------------------------
 -----
 title
 -----
 Symbolic Z-matrix:
 Charge =  0 Multiplicity = 1

 SCF Done:  E(RHF) =  -344.768867503     A.U. after   15 cycles

 1\1\GINC-SE331\Stability\RHF\Aug-CC-pVDZ\C5H10O2\OHZDE\09-Apr-2025\0\\
 #t hf aug-cc-pvdz symm=none int=(grid=ultrafine) guess=(read,tcheck) s
 table=(opt,rrhf)\\title\\0,1\C,0,-2.48234147,-0.58606699,-0.06888586\C
 ,0,-0.43662145,-0.40333889,-0.8161167\O,0,-0.45337304,0.79059747,-1.41
 625396\C,0,0.22476784,-0.44103667,0.53901831\C,0,1.73679359,-0.2746805
 8,0.39832655\C,0,2.20572512,1.14372978,0.25652354\O,0,1.48737586,2.107
 56107,0.17527548\H,0,-2.65002263,-1.40870706,0.62441069\H,0,-2.3859482
 1,0.36499597,0.44492417\H,0,-3.25224836,-0.53315733,-0.83803779\H,0,-1

 Normal termination of Gaussian 16 at Wed Apr  9 03:33:37 2025.
 Gaussian 16:  ES64L-G16RevC.01  3-Jul-2019

 ----------------------------------------------------------------------
 #t hf aug-cc-pvdz iop(5/13=1,5/36=2,99/5=2) pseudo=read geom=check gue
 ss=(read,tcheck) scf=(maxcycle=1)
 ----------------------------------------------------------------------
 -----
 title
 -----
 Structure from the checkpoint file:  "Grambow2020_wb97xd3_007089_forward_mol1.chk"
 Charge =  0 Multiplicity = 1

                         Standard orientation:
 ---------------------------------------------------------------------
 Center     Atomic      Atomic             Coordinates (Angstroms)
 Number     Number       Type             X           Y           Z
 ---------------------------------------------------------------------
      1          6           0        2.821210    0.086381    0.493311
      2          6           0        0.987886    0.041012   -0.695629
      3          8           0        0.647433   -1.250585   -0.653219
      4          6           0        0.196647    0.952370    0.209144
      5          6           0       -1.230481    1.111898   -0.311958
      6          6           0       -2.166897   -0.000011    0.060436
      7          8           0       -1.854907   -1.000770    0.654357
      8          1           0        3.178973    1.081052    0.754365
      9          1           0        2.303755   -0.389229    1.320263
     10          1           0        3.620201   -0.552800    0.118862
     11          1           0        2.185014    0.249757   -0.706806
     12          1           0        0.047692   -1.436571    0.089489
     13          1           0        0.144903    0.595255    1.248022
     14          1           0        0.684627    1.927087    0.223515
     15          1           0       -1.248918    1.199468   -1.405432
     16          1           0       -1.685304    2.036383    0.060520
     17          1           0       -3.221345    0.150539   -0.243725
 ---------------------------------------------------------------------

 SCF Done:  E(RHF) =  -344.878133263     A.U. after    2 cycles

 The electronic state is 1-A.
 Alpha  occ. eigenvalues --  -20.59214 -20.59210 -11.36329 -11.30167 -11.26708
 Alpha  occ. eigenvalues --  -11.25174 -11.23723  -1.38515  -1.36024  -1.08294
 Alpha  occ. eigenvalues --   -0.98197  -0.92463  -0.84481  -0.78742  -0.71625
 Alpha  occ. eigenvalues --   -0.70323  -0.66778  -0.65657  -0.62116  -0.58992
 Alpha  occ. eigenvalues --   -0.57379  -0.56036  -0.54953  -0.53360  -0.52282
 Alpha  occ. eigenvalues --   -0.48290  -0.45355  -0.29326
 Alpha virt. eigenvalues --    0.02843   0.03969   0.04730   0.04913   0.06182
 Alpha virt. eigenvalues --    0.06353   0.06876   0.07685   0.08824   0.08972
 Alpha virt. eigenvalues --    0.10026   0.11504   0.11979   0.13488   0.13797

 Mulliken charges:
               1
     1  C    0.265876
     2  C    0.160324
     3  O   -0.497483
     4  C    0.421314
     5  C    0.073792
     6  C    0.539106
     7  O   -0.457748
     8  H   -0.167219
     9  H   -0.103754
    10  H   -0.219880
    11  H    0.274435
    12  H    0.222142
    13  H   -0.195332
    14  H   -0.161829
    15  H    0.002887
    16  H    0.003683
    17  H   -0.160315
 Sum of Mulliken charges =  -0.00000

 Dipole moment (field-independent basis, Debye):
    X=             -1.4979    Y=              3.3899    Z=              0.7068  Tot=              3.7729

 Test job not archived.
 1\1\GINC-SE331\SP\RHF\Aug-CC-pVDZ\C5H10O2\OHZDE\09-Apr-2025\0\\#t hf a
 ug-cc-pvdz iop(5/13=1,5/36=2,99/5=2) pseudo=read geom=check guess=(rea
 d,tcheck) scf=(maxcycle=1)\\title\\0,1\C,0,-2.48234147,-0.58606699,-0.
 06888586\C,0,-0.43662145,-0.40333889,-0.8161167\O,0,-0.45337304,0.7905
 9747,-1.41625396\C,0,0.22476784,-0.44103667,0.53901831\C,0,1.73679359,
 -0.27468058,0.39832655\C,0,2.20572512,1.14372978,0.25652354\O,0,1.4873
 7586,2.10756107,0.17527548\H,0,-2.65002263,-1.40870706,0.62441069\H,0,
 -2.38594821,0.36499597,0.44492417\H,0,-3.25224836,-0.53315733,-0.83803

 Normal termination of Gaussian 16 at Wed Apr  9 03:33:42 2025.
