 Gaussian 16, Revision C.01,

 ----------------------------------------------------------------------
 #t hf aug-cc-pvdz symm=none int=(grid=ultrafine) guess=(read,tcheck) s
 table=(opt,rrhf)
 ----------------------------------------------------------------------
 -----
 title
 -----
 Symbolic Z-matrix:
 Charge =  0 Multiplicity = 1

 SCF Done:  E(RHF) =  -262.478847733     A.U. after   19 cycles
 Normal termination of Gaussian 16 at Wed Apr  9 14:16:01 2025.
 Gaussian 16:  ES64L-G16RevC.01  3-Jul-2019

 ----------------------------------------------------------------------
 #t hf aug-cc-pvdz iop(5/13=1,5/36=2,99/5=2) pseudo=read geom=check gue
 ss=(read,tcheck) scf=(maxcycle=1)
 ----------------------------------------------------------------------
 -----
 title
 -----
 Structure from the checkpoint file:  "Grambow2020_b97d3_006905_reverse_mol1.chk"
 Charge =  0 Multiplicity = 1

                         Standard orientation:
 ---------------------------------------------------------------------
 Center     Atomic      Atomic             Coordinates (Angstroms)
 Number     Number       Type             X           Y           Z
 ---------------------------------------------------------------------
      1          6           0        0.995187    0.925707    0.166230
      2          6           0       -0.347586    1.227979   -0.066259
      3          7           0       -1.367822    0.338803   -0.158489
      4          7           0       -1.065805   -0.951259    0.253880
      5          6           0        0.141012   -1.286324   -0.135433
      6          6           0        1.297158   -0.454161   -0.152568
      7          1           0        1.704767    1.629916    0.596147
      8          1           0       -0.684499    2.262000   -0.159174
      9          1           0        1.345752   -1.314595    0.776226
     10          1           0        2.154736   -0.769330   -0.752754
 ---------------------------------------------------------------------

 SCF Done:  E(RHF) =  -262.550945390     A.U. after    2 cycles

 The electronic state is 1-A.
 Alpha  occ. eigenvalues --  -15.70431 -15.69783 -11.31606 -11.31475 -11.31186
 Alpha  occ. eigenvalues --  -11.28768  -1.31344  -1.11732  -1.10258  -0.92847
 Alpha  occ. eigenvalues --   -0.85262  -0.72577  -0.69553  -0.66786  -0.61325
 Alpha  occ. eigenvalues --   -0.59359  -0.53649  -0.48476  -0.42841  -0.39938
 Alpha  occ. eigenvalues --   -0.31907
 Alpha virt. eigenvalues --    0.01204   0.02420   0.03828   0.04555   0.05530
 Alpha virt. eigenvalues --    0.08759   0.09113   0.10634   0.11407   0.11712
 Alpha virt. eigenvalues --    0.12879   0.14101   0.14394   0.14983   0.15052

 Mulliken charges:
               1
     1  C    0.584492
     2  C    0.539079
     3  N   -0.473616
     4  N   -0.317801
     5  C   -0.245251
     6  C    0.246258
     7  H   -0.267052
     8  H   -0.262073
     9  H    0.303218
    10  H   -0.107254
 Sum of Mulliken charges =  -0.00000

 Dipole moment (field-independent basis, Debye):
    X=              4.1750    Y=              2.1576    Z=              0.4488  Tot=              4.7209

 Test job not archived.
 1\1\GINC-SE168\SP\RHF\Aug-CC-pVDZ\C4H4N2\OHZDE\09-Apr-2025\0\\#t hf au
 g-cc-pvdz iop(5/13=1,5/36=2,99/5=2) pseudo=read geom=check guess=(read
 ,tcheck) scf=(maxcycle=1)\\title\\0,1\C,0,0.52643305,0.75085325,-0.270
 93518\C,0,1.28333266,-0.39990061,-0.04437714\N,0,0.80202376,-1.6374696
 5,0.23272402\N,0,-0.56153753,-1.79916602,0.03253033\C,0,-1.21285421,-0
 .73197294,0.42892294\C,0,-0.81323495,0.625469,0.26424899\H,0,0.8873634
 9,1.60639281,-0.83840666\H,0,2.37239437,-0.38091141,-0.11457194\H,0,-1
 .76881104,0.31531046,-0.50778872\H,0,-1.3003336,1.38804612,0.87760438\

 Normal termination of Gaussian 16 at Wed Apr  9 14:16:05 2025.
