 Gaussian 16, Revision C.01,

 ----------------------------------------------------------------------
 #t hf aug-cc-pvdz symm=none int=(grid=ultrafine) guess=(read,tcheck) s
 table=(opt,rrhf)
 ----------------------------------------------------------------------
 -----
 title
 -----
 Symbolic Z-matrix:
 Charge =  0 Multiplicity = 1

 SCF Done:  E(RHF) =  -359.614048204     A.U. after   14 cycles
 Normal termination of Gaussian 16 at Wed Apr  9 16:26:02 2025.
 Gaussian 16:  ES64L-G16RevC.01  3-Jul-2019

 ----------------------------------------------------------------------
 #t hf aug-cc-pvdz iop(5/13=1,5/36=2,99/5=2) pseudo=read geom=check gue
 ss=(read,tcheck) scf=(maxcycle=1)
 ----------------------------------------------------------------------
 -----
 title
 -----
 Structure from the checkpoint file:  "Grambow2020_wb97xd3_008283_forward_mol1.chk"
 Charge =  0 Multiplicity = 1

                         Standard orientation:
 ---------------------------------------------------------------------
 Center     Atomic      Atomic             Coordinates (Angstroms)
 Number     Number       Type             X           Y           Z
 ---------------------------------------------------------------------
      1          6           0        1.968359   -0.739862   -0.551893
      2          6           0        1.057281   -0.129626    0.500896
      3          6           0        0.569498    1.235265    0.034782
      4          7           0       -0.729909    1.090255   -0.482505
      5          6           0       -1.168006   -0.144194   -0.058673
      6          8           0       -2.237510   -0.648091   -0.203738
      7          8           0       -0.150966   -0.839601    0.619601
      8          1           0        1.494803   -0.710115   -1.534608
      9          1           0        2.160190   -1.780877   -0.295958
     10          1           0        2.921254   -0.209011   -0.598187
     11          1           0        1.553272   -0.100503    1.472825
     12          1           0        1.244979    1.905097   -0.494321
     13          1           0        0.557562    1.978923    1.192998
     14          1           0       -0.277678    1.856736    0.757203
 ---------------------------------------------------------------------

 SCF Done:  E(RHF) =  -359.725965523     A.U. after    2 cycles

 The electronic state is 1-A.
 Alpha  occ. eigenvalues --  -20.61136 -20.52882 -15.61526 -11.39540 -11.38851
 Alpha  occ. eigenvalues --  -11.34461 -11.26206  -1.42391  -1.32553  -1.22582
 Alpha  occ. eigenvalues --   -1.07409  -0.97319  -0.87862  -0.80901  -0.76043
 Alpha  occ. eigenvalues --   -0.71595  -0.67922  -0.65745  -0.62101  -0.59768
 Alpha  occ. eigenvalues --   -0.57885  -0.56815  -0.54917  -0.47379  -0.46159
 Alpha  occ. eigenvalues --   -0.44465  -0.37649
 Alpha virt. eigenvalues --    0.01020   0.03192   0.03555   0.04685   0.05963
 Alpha virt. eigenvalues --    0.06677   0.06840   0.09616   0.10598   0.10832
 Alpha virt. eigenvalues --    0.12042   0.12728   0.12967   0.14155   0.14366

 Mulliken charges:
               1
     1  C    0.399545
     2  C    0.419578
     3  C    0.575630
     4  N   -0.860424
     5  C    0.654065
     6  O   -0.442928
     7  O   -0.675203
     8  H   -0.020701
     9  H   -0.005650
    10  H    0.027522
    11  H   -0.233296
    12  H   -0.189668
    13  H    0.150889
    14  H    0.200641
 Sum of Mulliken charges =   0.00000

 Dipole moment (field-independent basis, Debye):
    X=              7.5059    Y=              3.6343    Z=              2.0234  Tot=              8.5814

 Test job not archived.
 1\1\GINC-SE226\SP\RHF\Aug-CC-pVDZ\C4H7N1O2\OHZDE\09-Apr-2025\0\\#t hf
 aug-cc-pvdz iop(5/13=1,5/36=2,99/5=2) pseudo=read geom=check guess=(re
 ad,tcheck) scf=(maxcycle=1)\\title\\0,1\C,0,-1.44640113,-0.94060488,0.
 03727384\C,0,-0.29354429,-0.20066903,-0.62168806\C,0,0.08682133,1.0139
 1665,0.21391176\N,0,1.2156913,0.68680533,0.98574391\C,0,1.72415658,-0.
 46921452,0.43755762\O,0,2.71616327,-1.06097385,0.72831205\O,0,0.894564
 16,-0.95261291,-0.59011912\H,0,-1.22968114,-1.131701,1.08959676\H,0,-1
 .58649006,-1.89800851,-0.46249363\H,0,-2.37221641,-0.36694604,-0.03846

 Normal termination of Gaussian 16 at Wed Apr  9 16:26:07 2025.
