 Gaussian 16, Revision C.01,

 ----------------------------------------------------------------------
 #t hf aug-cc-pvdz symm=none int=(grid=ultrafine) guess=(read,tcheck) s
 table=(opt,rrhf)
 ----------------------------------------------------------------------
 -----
 title
 -----
 Symbolic Z-matrix:
 Charge =  0 Multiplicity = 1

 SCF Done:  E(RHF) =  -323.722996786     A.U. after   15 cycles
 Normal termination of Gaussian 16 at Wed Apr  9 15:58:11 2025.
 Gaussian 16:  ES64L-G16RevC.01  3-Jul-2019

 ----------------------------------------------------------------------
 #t hf aug-cc-pvdz iop(5/13=1,5/36=2,99/5=2) pseudo=read geom=check gue
 ss=(read,tcheck) scf=(maxcycle=1)
 ----------------------------------------------------------------------
 -----
 title
 -----
 Structure from the checkpoint file:  "Grambow2020_wb97xd3_007622_reverse_mol1.chk"
 Charge =  0 Multiplicity = 1

                         Standard orientation:
 ---------------------------------------------------------------------
 Center     Atomic      Atomic             Coordinates (Angstroms)
 Number     Number       Type             X           Y           Z
 ---------------------------------------------------------------------
      1          6           0       -0.358921    1.445608   -0.486920
      2          6           0       -1.209027    0.575658    0.402956
      3          7           0       -1.908613   -0.509317   -0.284891
      4          6           0       -0.692136   -0.814118    0.471005
      5          6           0        0.505300   -1.062204   -0.400151
      6          6           0        1.765181   -0.548377   -0.104710
      7          8           0        1.886328    0.569176    0.494254
      8          1           0       -0.795882    1.633916   -1.467569
      9          1           0       -0.161538    2.426488   -0.040844
     10          1           0        0.920881    1.162509   -0.059719
     11          1           0       -1.670652    1.006239    1.283464
     12          1           0       -2.728441   -0.788043    0.239735
     13          1           0       -0.782511   -1.381630    1.391207
     14          1           0        0.312864    0.267407   -0.949673
     15          1           0        0.460879   -1.919770   -1.061811
     16          1           0        2.651681   -0.974703   -0.587671
 ---------------------------------------------------------------------

 SCF Done:  E(RHF) =  -323.819846186     A.U. after    2 cycles

 The electronic state is 1-A.
 Alpha  occ. eigenvalues --  -20.57008 -15.62656 -11.33541 -11.27657 -11.27306
 Alpha  occ. eigenvalues --  -11.23829 -11.22972  -1.35578  -1.25359  -1.03723
 Alpha  occ. eigenvalues --   -0.99311  -0.87603  -0.82695  -0.74899  -0.73079
 Alpha  occ. eigenvalues --   -0.70460  -0.67316  -0.61436  -0.59127  -0.58503
 Alpha  occ. eigenvalues --   -0.52858  -0.51551  -0.48904  -0.47638  -0.42869
 Alpha  occ. eigenvalues --   -0.38390  -0.34557
 Alpha virt. eigenvalues --    0.03178   0.03775   0.04336   0.04872   0.06023
 Alpha virt. eigenvalues --    0.06602   0.07119   0.07993   0.09801   0.10690
 Alpha virt. eigenvalues --    0.12236   0.12838   0.13088   0.13367   0.14359

 Mulliken charges:
               1
     1  C    0.050448
     2  C    0.438527
     3  N   -0.736791
     4  C    0.660281
     5  C   -0.111668
     6  C    0.780666
     7  O   -0.788328
     8  H   -0.049244
     9  H   -0.091721
    10  H    0.502289
    11  H   -0.327205
    12  H   -0.017542
    13  H   -0.291409
    14  H    0.534399
    15  H   -0.322395
    16  H   -0.230307
 Sum of Mulliken charges =   0.00000

 Dipole moment (field-independent basis, Debye):
    X=             -1.0223    Y=             -0.9319    Z=              0.2934  Tot=              1.4141

 Test job not archived.
 1\1\GINC-SE113\SP\RHF\Aug-CC-pVDZ\C5H9N1O1\OHZDE\09-Apr-2025\0\\#t hf
 aug-cc-pvdz iop(5/13=1,5/36=2,99/5=2) pseudo=read geom=check guess=(re
 ad,tcheck) scf=(maxcycle=1)\\title\\0,1\C,0,-0.89747821,0.01474102,1.1
 1313951\C,0,-1.21312111,0.23352241,-0.34421335\N,0,-0.72668907,1.49813
 043,-0.89546275\C,0,0.01645676,0.26781459,-1.17502439\C,0,1.28831176,0
 .14664473,-0.38634529\C,0,1.68905161,-1.04650182,0.20898219\O,0,0.8265
 0115,-1.87708031,0.64315528\H,0,-0.96380932,0.91810807,1.71943631\H,0,
 -1.56539867,-0.72004813,1.57577771\H,0,-0.00934563,-1.03911393,1.07926

 Normal termination of Gaussian 16 at Wed Apr  9 15:58:17 2025.
