 Gaussian 16, Revision C.01,

 ----------------------------------------------------------------------
 #t hf aug-cc-pvdz symm=none int=(grid=ultrafine) guess=(read,tcheck) s
 table=(opt,rrhf)
 ----------------------------------------------------------------------
 -----
 title
 -----
 Symbolic Z-matrix:
 Charge =  0 Multiplicity = 1

 SCF Done:  E(RHF) =  -338.539224158     A.U. after   17 cycles
 Normal termination of Gaussian 16 at Wed Apr  9 16:33:02 2025.
 Gaussian 16:  ES64L-G16RevC.01  3-Jul-2019

 ----------------------------------------------------------------------
 #t hf aug-cc-pvdz iop(5/13=1,5/36=2,99/5=2) pseudo=read geom=check gue
 ss=(read,tcheck) scf=(maxcycle=1)
 ----------------------------------------------------------------------
 -----
 title
 -----
 Structure from the checkpoint file:  "Grambow2020_wb97xd3_008568_reverse_mol1.chk"
 Charge =  0 Multiplicity = 1

                         Standard orientation:
 ---------------------------------------------------------------------
 Center     Atomic      Atomic             Coordinates (Angstroms)
 Number     Number       Type             X           Y           Z
 ---------------------------------------------------------------------
      1          7           0        2.449692    0.035038   -0.247387
      2          6           0        1.262343    0.021958    0.165038
      3          8           0        0.514953   -1.075378   -0.159486
      4          6           0       -0.769523   -1.154610    0.416850
      5          6           0       -1.769337   -0.288012   -0.341025
      6          6           0       -1.384163    1.137782   -0.132348
      7          7           0       -0.354251    1.612385    0.199642
      8          1           0        2.933985    0.884831    0.017998
      9          1           0        0.562456    1.872800    0.527252
     10          1           0       -0.737480   -0.848528    1.468228
     11          1           0       -1.065401   -2.203364    0.380042
     12          1           0       -1.719319   -0.485212   -1.414731
     13          1           0       -2.797881   -0.452177   -0.019788
 ---------------------------------------------------------------------

 SCF Done:  E(RHF) =  -338.644557283     A.U. after    2 cycles

 The electronic state is 1-A.
 Alpha  occ. eigenvalues --  -20.58475 -15.75569 -15.56594 -11.36337 -11.31502
 Alpha  occ. eigenvalues --  -11.30683 -11.28692  -1.36373  -1.28869  -1.13358
 Alpha  occ. eigenvalues --   -1.07053  -0.93119  -0.89175  -0.77218  -0.71787
 Alpha  occ. eigenvalues --   -0.68726  -0.64430  -0.63105  -0.59355  -0.55871
 Alpha  occ. eigenvalues --   -0.55379  -0.53821  -0.51044  -0.45763  -0.37261
 Alpha  occ. eigenvalues --   -0.26880
 Alpha virt. eigenvalues --    0.02219   0.02958   0.03831   0.04469   0.05885
 Alpha virt. eigenvalues --    0.06319   0.06833   0.08538   0.09260   0.10490
 Alpha virt. eigenvalues --    0.12398   0.13164   0.13280   0.14165   0.14507

 Mulliken charges:
               1
     1  N   -0.295990
     2  C    0.046971
     3  O   -0.657645
     4  C    0.880263
     5  C    0.181097
     6  C   -0.098150
     7  N    0.021321
     8  H   -0.028232
     9  H    0.204583
    10  H   -0.116074
    11  H   -0.190345
    12  H    0.036824
    13  H    0.015379
 Sum of Mulliken charges =  -0.00000

 Dipole moment (field-independent basis, Debye):
    X=             -5.4914    Y=              2.3542    Z=              1.3580  Tot=              6.1271

 Test job not archived.
 1\1\GINC-SE163\SP\RHF\Aug-CC-pVDZ\C4H6N2O1\OHZDE\09-Apr-2025\0\\#t hf
 aug-cc-pvdz iop(5/13=1,5/36=2,99/5=2) pseudo=read geom=check guess=(re
 ad,tcheck) scf=(maxcycle=1)\\title\\0,1\N,0,-2.46113779,0.34715443,-0.
 55324302\C,0,-1.21159331,0.2119392,-0.5737155\O,0,-0.72151078,-0.99917
 362,-0.17236929\C,0,0.66602343,-1.19839234,-0.32527602\C,0,1.44647417,
 -0.54183842,0.80822586\C,0,1.29199341,0.93524451,0.6698205\N,0,0.47721
 572,1.56982614,0.09568688\H,0,-2.74719202,1.27369438,-0.84788253\H,0,-
 0.25354319,1.97748697,-0.46582786\H,0,1.00667269,-0.80058033,-1.287467

 Normal termination of Gaussian 16 at Wed Apr  9 16:33:06 2025.
