 Gaussian 16, Revision C.01,

 ----------------------------------------------------------------------
 #t hf aug-cc-pvdz symm=none int=(grid=ultrafine) guess=(read,tcheck) s
 table=(opt,rrhf)
 ----------------------------------------------------------------------
 -----
 title
 -----
 Symbolic Z-matrix:
 Charge =  0 Multiplicity = 1

 SCF Done:  E(RHF) =  -322.603786240     A.U. after   13 cycles
 Normal termination of Gaussian 16 at Wed Apr  9 14:28:46 2025.
 Gaussian 16:  ES64L-G16RevC.01  3-Jul-2019

 ----------------------------------------------------------------------
 #t hf aug-cc-pvdz iop(5/13=1,5/36=2,99/5=2) pseudo=read geom=check gue
 ss=(read,tcheck) scf=(maxcycle=1)
 ----------------------------------------------------------------------
 -----
 title
 -----
 Structure from the checkpoint file:  "Grambow2020_wb97xd3_006558_forward_mol2.chk"
 Charge =  0 Multiplicity = 1

                         Standard orientation:
 ---------------------------------------------------------------------
 Center     Atomic      Atomic             Coordinates (Angstroms)
 Number     Number       Type             X           Y           Z
 ---------------------------------------------------------------------
      1          8           0       -2.191200    0.409657    0.055054
      2          6           0       -1.119910   -0.491087    0.041581
      3          6           0        0.048159   -0.229286   -0.907019
      4          6           0        0.590815    0.959795   -0.072971
      5          6           0        1.937387    0.261577   -0.023269
      6          7           0        1.009906   -0.929054    0.063002
      7          6           0        0.048185   -0.096744    0.924227
      8          1           0       -2.834921    0.138782   -0.600969
      9          1           0       -1.437389   -1.535995    0.122101
     10          1           0        0.136385   -0.383024   -1.982901
     11          1           0        0.328283    2.014834   -0.148239
     12          1           0        2.554913    0.265060   -0.924691
     13          1           0        2.555967    0.395845    0.867287
     14          1           0        0.129207   -0.094915    2.010670
 ---------------------------------------------------------------------

 SCF Done:  E(RHF) =  -322.697300222     A.U. after    2 cycles

 The electronic state is 1-A.
 Alpha  occ. eigenvalues --  -20.58301 -15.62984 -11.29838 -11.27842 -11.27804
 Alpha  occ. eigenvalues --  -11.26359 -11.25434  -1.34814  -1.29922  -1.02073
 Alpha  occ. eigenvalues --   -0.92241  -0.88751  -0.84192  -0.72642  -0.70389
 Alpha  occ. eigenvalues --   -0.68920  -0.64312  -0.63238  -0.59004  -0.53374
 Alpha  occ. eigenvalues --   -0.51036  -0.46956  -0.45385  -0.44462  -0.42836
 Alpha  occ. eigenvalues --   -0.37441
 Alpha virt. eigenvalues --    0.03111   0.03837   0.04207   0.04969   0.06167
 Alpha virt. eigenvalues --    0.06557   0.07279   0.09878   0.11295   0.12030
 Alpha virt. eigenvalues --    0.12802   0.13105   0.13707   0.14282   0.14840

 Mulliken charges:
               1
     1  O   -0.633702
     2  C    1.007264
     3  C    0.478031
     4  C    0.005092
     5  C    1.106344
     6  N   -1.036938
     7  C    0.574041
     8  H    0.147587
     9  H   -0.130902
    10  H   -0.345822
    11  H   -0.327389
    12  H   -0.246230
    13  H   -0.247631
    14  H   -0.349745
 Sum of Mulliken charges =  -0.00000

 Dipole moment (field-independent basis, Debye):
    X=             -0.5225    Y=              0.6155    Z=             -1.1950  Tot=              1.4421

 Test job not archived.
 1\1\GINC-SE113\SP\RHF\Aug-CC-pVDZ\C5H7N1O1\OHZDE\09-Apr-2025\0\\#t hf
 aug-cc-pvdz iop(5/13=1,5/36=2,99/5=2) pseudo=read geom=check guess=(re
 ad,tcheck) scf=(maxcycle=1)\\title\\0,1\O,0,2.30772842,0.02001702,0.42
 431904\C,0,1.24120502,0.37550522,-0.40955148\C,0,0.12160074,-0.6369423
 7,-0.64236381\C,0,-0.46596153,-0.46690354,0.78237629\C,0,-1.8112104,-0
 .16035659,0.15026049\N,0,-0.88565345,0.50343905,-0.84371492\C,0,0.0289
 5651,0.92671388,0.31545804\H,0,2.98448368,-0.40960323,-0.10060373\H,0,
 1.55738449,0.94080661,-1.29248706\H,0,0.08813081,-1.5245781,-1.2747601

 Normal termination of Gaussian 16 at Wed Apr  9 14:28:51 2025.
