 Gaussian 16, Revision C.01,

 ----------------------------------------------------------------------
 #t hf aug-cc-pvdz symm=none int=(grid=ultrafine) guess=(read,tcheck) s
 table=(opt,rrhf)
 ----------------------------------------------------------------------
 -----
 title
 -----
 Symbolic Z-matrix:
 Charge =  0 Multiplicity = 1

 SCF Done:  E(RHF) =  -283.678730465     A.U. after   14 cycles
 Normal termination of Gaussian 16 at Wed Apr  9 03:20:54 2025.
 Gaussian 16:  ES64L-G16RevC.01  3-Jul-2019

 ----------------------------------------------------------------------
 #t hf aug-cc-pvdz iop(5/13=1,5/36=2,99/5=2) pseudo=read geom=check gue
 ss=(read,tcheck) scf=(maxcycle=1)
 ----------------------------------------------------------------------
 -----
 title
 -----
 Structure from the checkpoint file:  "Grambow2020_wb97xd3_006127_forward_mol2.chk"
 Charge =  0 Multiplicity = 1

                         Standard orientation:
 ---------------------------------------------------------------------
 Center     Atomic      Atomic             Coordinates (Angstroms)
 Number     Number       Type             X           Y           Z
 ---------------------------------------------------------------------
      1          7           0       -2.570353    0.000350   -0.317443
      2          6           0       -1.496934   -0.001841    0.087686
      3          6           0       -0.131363   -0.002279    0.580462
      4          6           0        0.849147   -1.029392   -0.022133
      5          8           0        1.786966    0.002695   -0.339846
      6          6           0        0.844547    1.029933   -0.020383
      7          1           0       -0.138441   -0.002639    1.669124
      8          1           0        0.469845   -1.532302   -0.915777
      9          1           0        1.259616   -1.763688    0.672355
     10          1           0        0.462244    1.530672   -0.913803
     11          1           0        1.251093    1.765425    0.675183
 ---------------------------------------------------------------------

 SCF Done:  E(RHF) =  -283.766032878     A.U. after    2 cycles

 The electronic state is 1-A.
 Alpha  occ. eigenvalues --  -20.59292 -15.64777 -11.32471 -11.32460 -11.30654
 Alpha  occ. eigenvalues --  -11.29531  -1.38133  -1.20653  -1.07046  -0.97094
 Alpha  occ. eigenvalues --   -0.84700  -0.75726  -0.72721  -0.65355  -0.62931
 Alpha  occ. eigenvalues --   -0.59900  -0.56192  -0.54255  -0.53477  -0.46823
 Alpha  occ. eigenvalues --   -0.45814  -0.45580
 Alpha virt. eigenvalues --    0.02694   0.04186   0.04428   0.05669   0.06611
 Alpha virt. eigenvalues --    0.08286   0.10069   0.10516   0.10684   0.12814
 Alpha virt. eigenvalues --    0.13857   0.14571   0.14874   0.15097   0.15537

 Mulliken charges:
               1
     1  N   -0.137197
     2  C   -0.476686
     3  C    0.405260
     4  C    0.940643
     5  O   -0.757424
     6  C    0.940050
     7  H   -0.109501
     8  H   -0.247662
     9  H   -0.155199
    10  H   -0.247928
    11  H   -0.154357
 Sum of Mulliken charges =  -0.00000

 Dipole moment (field-independent basis, Debye):
    X=              1.9973    Y=             -0.0084    Z=              1.9075  Tot=              2.7618

 Test job not archived.
 1\1\GINC-SE059\SP\RHF\Aug-CC-pVDZ\C4H5N1O1\OHZDE\09-Apr-2025\0\\#t hf
 aug-cc-pvdz iop(5/13=1,5/36=2,99/5=2) pseudo=read geom=check guess=(re
 ad,tcheck) scf=(maxcycle=1)\\title\\0,1\N,0,2.602422,-0.81170263,0.785
 96066\C,0,1.59105086,-0.62624997,0.27694249\C,0,0.30671696,-0.37700926
 ,-0.3523254\C,0,-0.95855643,-0.51345861,0.5194232\O,0,-1.39675002,0.79
 604205,0.14680432\C,0,-0.14910328,1.09025103,-0.48742472\H,0,0.2465396
 5,-0.93250545,-1.28669001\H,0,-0.75228603,-0.59090329,1.59033127\H,0,-
 1.66510809,-1.28853827,0.21938082\H,0,0.4524045,1.79444509,0.0934318\H

 Normal termination of Gaussian 16 at Wed Apr  9 03:20:58 2025.
