 Gaussian 16, Revision C.01,

 ----------------------------------------------------------------------
 #t hf aug-cc-pvdz symm=none int=(grid=ultrafine) guess=(read,tcheck) s
 table=(opt,rrhf)
 ----------------------------------------------------------------------
 -----
 title
 -----
 Symbolic Z-matrix:
 Charge =  0 Multiplicity = 1

 SCF Done:  E(RHF) =  -339.352065596     A.U. after   16 cycles
 Normal termination of Gaussian 16 at Wed Apr  9 14:11:02 2025.
 Gaussian 16:  ES64L-G16RevC.01  3-Jul-2019

 ----------------------------------------------------------------------
 #t hf aug-cc-pvdz iop(5/13=1,5/36=2,99/5=2) pseudo=read geom=check gue
 ss=(read,tcheck) scf=(maxcycle=1)
 ----------------------------------------------------------------------
 -----
 title
 -----
 Structure from the checkpoint file:  "Grambow2020_b97d3_006811_forward_mol2.chk"
 Charge =  0 Multiplicity = 1

                         Standard orientation:
 ---------------------------------------------------------------------
 Center     Atomic      Atomic             Coordinates (Angstroms)
 Number     Number       Type             X           Y           Z
 ---------------------------------------------------------------------
      1          8           0        1.504205   -1.215829    0.216707
      2          6           0        1.327689   -0.077746   -0.164978
      3          6           0       -0.000558    0.679963    0.000944
      4          8           0       -0.004145    1.902465   -0.004915
      5          6           0       -1.324191   -0.083488    0.175107
      6          8           0       -1.503283   -1.215061   -0.224339
      7          1           0        2.132126    0.565740   -0.594043
      8          1           0       -2.123992    0.549275    0.627981
 ---------------------------------------------------------------------

 SCF Done:  E(RHF) =  -339.456206840     A.U. after    2 cycles

 The electronic state is 1-A.
 Alpha  occ. eigenvalues --  -20.64735 -20.62972 -20.62944 -11.40479 -11.39331
 Alpha  occ. eigenvalues --  -11.39319  -1.42558  -1.39983  -1.39775  -0.99866
 Alpha  occ. eigenvalues --   -0.92260  -0.79791  -0.74258  -0.72751  -0.70584
 Alpha  occ. eigenvalues --   -0.68633  -0.62812  -0.57782  -0.57461  -0.55159
 Alpha  occ. eigenvalues --   -0.52521  -0.44626
 Alpha virt. eigenvalues --   -0.00190   0.03350   0.04181   0.06309   0.08322
 Alpha virt. eigenvalues --    0.08851   0.09826   0.10477   0.12617   0.13232
 Alpha virt. eigenvalues --    0.14018   0.14113   0.15069   0.15544   0.19309

 Mulliken charges:
               1
     1  O   -0.395278
     2  C    0.682966
     3  C   -0.020998
     4  O   -0.453482
     5  C    0.684366
     6  O   -0.395588
     7  H   -0.051577
     8  H   -0.050408
 Sum of Mulliken charges =   0.00000

 Dipole moment (field-independent basis, Debye):
    X=              0.0159    Y=              2.2953    Z=              0.0562  Tot=              2.2960

 Test job not archived.
 1\1\GINC-SE141\SP\RHF\Aug-CC-pVDZ\C3H2O3\OHZDE\09-Apr-2025\0\\#t hf au
 g-cc-pvdz iop(5/13=1,5/36=2,99/5=2) pseudo=read geom=check guess=(read
 ,tcheck) scf=(maxcycle=1)\\title\\0,1\O,0,-1.42931222,-0.44831827,1.37
 632698\C,0,-0.98155986,0.51007126,0.78212039\C,0,0.04133158,0.40148403
 ,-0.36146851\O,0,0.13399338,1.30673941,-1.17785306\C,0,0.94824108,-0.8
 3393046,-0.48976261\O,0,1.24830644,-1.5456692,0.44590705\H,0,-1.329067
 28,1.55839017,0.94197704\H,0,1.36806687,-0.94876694,-1.51724728\\Versi
 on=ES64L-G16RevC.01\State=1-A\HF=-339.4562068\RMSD=4.003e-03\Dipole=0.

 Normal termination of Gaussian 16 at Wed Apr  9 14:11:05 2025.
