 Gaussian 16, Revision C.01,

 ----------------------------------------------------------------------
 #t hf aug-cc-pvdz symm=none int=(grid=ultrafine) guess=(read,tcheck) s
 table=(opt,rrhf)
 ----------------------------------------------------------------------
 -----
 title
 -----
 Symbolic Z-matrix:
 Charge =  0 Multiplicity = 1

 SCF Done:  E(RHF) =  -266.691043272     A.U. after   14 cycles
 Normal termination of Gaussian 16 at Wed Apr  9 03:02:34 2025.
 Gaussian 16:  ES64L-G16RevC.01  3-Jul-2019

 ----------------------------------------------------------------------
 #t hf aug-cc-pvdz iop(5/13=1,5/36=2,99/5=2) pseudo=read geom=check gue
 ss=(read,tcheck) scf=(maxcycle=1)
 ----------------------------------------------------------------------
 -----
 title
 -----
 Structure from the checkpoint file:  "Grambow2020_b97d3_006477_reverse_mol2.chk"
 Charge =  0 Multiplicity = 1

                         Standard orientation:
 ---------------------------------------------------------------------
 Center     Atomic      Atomic             Coordinates (Angstroms)
 Number     Number       Type             X           Y           Z
 ---------------------------------------------------------------------
      1          8           0        1.876097    0.369446    0.137007
      2          6           0        0.888305   -0.606574    0.157556
      3          6           0       -1.780515   -0.514352    0.352236
      4          6           0       -1.129959    0.817698    0.114717
      5          8           0       -0.295768   -0.180468   -0.589311
      6          1           0        2.213918    0.446997   -0.775326
      7          1           0        1.170126   -1.542841   -0.343661
      8          1           0        0.602863   -0.778936    1.198024
      9          1           0       -2.448177   -0.666312   -0.526408
     10          1           0       -0.588113    1.288400    0.944107
     11          1           0       -1.460231    1.560241   -0.625362
 ---------------------------------------------------------------------

 SCF Done:  E(RHF) =  -266.774211469     A.U. after    2 cycles

 The electronic state is 1-A.
 Alpha  occ. eigenvalues --  -20.63274 -20.60674 -11.36589 -11.30678 -11.26260
 Alpha  occ. eigenvalues --   -1.39790  -1.33621  -1.01398  -0.90269  -0.81945
 Alpha  occ. eigenvalues --   -0.74559  -0.71192  -0.67288  -0.63432  -0.59221
 Alpha  occ. eigenvalues --   -0.53714  -0.52484  -0.51792  -0.47404  -0.35235
 Alpha virt. eigenvalues --    0.03155   0.04496   0.05039   0.05515   0.06745
 Alpha virt. eigenvalues --    0.07405   0.09328   0.10996   0.12063   0.13558
 Alpha virt. eigenvalues --    0.14176   0.14766   0.16284   0.17065   0.17669

 Mulliken charges:
               1
     1  O   -0.474044
     2  C    1.105151
     3  C   -0.014337
     4  C    0.825876
     5  O   -0.794420
     6  H    0.164580
     7  H   -0.193059
     8  H   -0.171019
     9  H   -0.074028
    10  H   -0.142040
    11  H   -0.232658
 Sum of Mulliken charges =  -0.00000

 Dipole moment (field-independent basis, Debye):
    X=              1.1972    Y=              1.1458    Z=             -1.7120  Tot=              2.3827

 Test job not archived.
 1\1\GINC-SE080\SP\RHF\Aug-CC-pVDZ\C3H6O2\OHZDE\09-Apr-2025\0\\#t hf au
 g-cc-pvdz iop(5/13=1,5/36=2,99/5=2) pseudo=read geom=check guess=(read
 ,tcheck) scf=(maxcycle=1)\\title\\0,1\O,0,-1.72877553,-0.79280996,-0.6
 1422204\C,0,-1.05354906,0.38201817,-0.30989132\C,0,1.27098059,0.899729
 39,0.91385102\C,0,1.05647782,-0.54761628,0.57743248\O,0,0.39026371,0.2
 2776416,-0.49159041\H,0,-1.64899027,-0.95463353,-1.5733557\H,0,-1.2950
 7836,1.22457685,-0.97245845\H,0,-1.2507993,0.62564889,0.73676861\H,0,2
 .18860135,1.18988496,0.35290384\H,0,0.33591157,-1.12016217,1.17410758\

 Normal termination of Gaussian 16 at Wed Apr  9 03:02:37 2025.
