 Gaussian 16, Revision C.01,

 ----------------------------------------------------------------------
 #t hf aug-cc-pvdz symm=none int=(grid=ultrafine) guess=(read,tcheck) s
 table=(opt,rrhf)
 ----------------------------------------------------------------------
 -----
 title
 -----
 Symbolic Z-matrix:
 Charge =  0 Multiplicity = 1

 SCF Done:  E(RHF) =  -331.637176038     A.U. after   17 cycles
 Normal termination of Gaussian 16 at Wed Apr  9 03:14:15 2025.
 Gaussian 16:  ES64L-G16RevC.01  3-Jul-2019

 ----------------------------------------------------------------------
 #t hf aug-cc-pvdz iop(5/13=1,5/36=2,99/5=2) pseudo=read geom=check gue
 ss=(read,tcheck) scf=(maxcycle=1)
 ----------------------------------------------------------------------
 -----
 title
 -----
 Structure from the checkpoint file:  "Grambow2020_b97d3_006978_reverse_mol2.chk"
 Charge =  0 Multiplicity = 1

                         Standard orientation:
 ---------------------------------------------------------------------
 Center     Atomic      Atomic             Coordinates (Angstroms)
 Number     Number       Type             X           Y           Z
 ---------------------------------------------------------------------
      1          7           0        2.135929   -0.782594   -0.121491
      2          6           0        1.613970    0.455712   -0.001366
      3          7           0        1.157687    1.539051    0.037606
      4          8           0       -2.327435    0.664196   -0.036895
      5          7           0       -1.642723   -0.304715    0.010722
      6          7           0       -0.992921   -1.246231    0.057143
      7          1           0        1.423731   -1.512925   -0.101850
      8          1           0        2.906125   -0.973492    0.517343
 ---------------------------------------------------------------------

 SCF Done:  E(RHF) =  -331.739450108     A.U. after    2 cycles

 The electronic state is 1-A.
 Alpha  occ. eigenvalues --  -20.68300 -15.92715 -15.77513 -15.70088 -15.64129
 Alpha  occ. eigenvalues --  -11.33289  -1.55893  -1.38779  -1.25024  -1.15859
 Alpha  occ. eigenvalues --   -0.83952  -0.79064  -0.76787  -0.76574  -0.74247
 Alpha  occ. eigenvalues --   -0.69393  -0.57484  -0.54965  -0.50271  -0.50211
 Alpha  occ. eigenvalues --   -0.46210  -0.41371
 Alpha virt. eigenvalues --    0.02155   0.04856   0.08380   0.08605   0.10386
 Alpha virt. eigenvalues --    0.11215   0.11919   0.12227   0.14422   0.14787
 Alpha virt. eigenvalues --    0.15959   0.16778   0.17134   0.18427   0.19174

 Mulliken charges:
               1
     1  N   -0.041979
     2  C   -0.062689
     3  N   -0.121198
     4  O   -0.481485
     5  N    0.296140
     6  N    0.167515
     7  H    0.137339
     8  H    0.106359
 Sum of Mulliken charges =  -0.00000

 Dipole moment (field-independent basis, Debye):
    X=              1.6210    Y=             -4.8334    Z=              0.9486  Tot=              5.1854

 Test job not archived.
 1\1\GINC-SE051\SP\RHF\Aug-CC-pVDZ\C1H2N4O1\OHZDE\09-Apr-2025\0\\#t hf
 aug-cc-pvdz iop(5/13=1,5/36=2,99/5=2) pseudo=read geom=check guess=(re
 ad,tcheck) scf=(maxcycle=1)\\title\\0,1\N,0,1.65633807,0.17856426,-0.2
 9777349\C,0,0.61127654,0.96768493,-0.62243791\N,0,-0.30269609,1.624673
 07,-0.96354825\O,0,-2.96099956,-0.49678837,0.19826929\N,0,-1.89975254,
 -0.92993317,0.50814919\N,0,-0.88221576,-1.35708629,0.81312293\H,0,1.37
 369257,-0.65630275,0.21613568\H,0,2.42542176,0.67103833,0.15359455\\Ve
 rsion=ES64L-G16RevC.01\State=1-A\HF=-331.7394501\RMSD=3.215e-03\Dipole

 Normal termination of Gaussian 16 at Wed Apr  9 03:14:17 2025.
