 Gaussian 16, Revision C.01,

 ----------------------------------------------------------------------
 #t hf aug-cc-pvdz symm=none int=(grid=ultrafine) guess=(read,tcheck) s
 table=(opt,rrhf)
 ----------------------------------------------------------------------
 -----
 title
 -----
 Symbolic Z-matrix:
 Charge =  0 Multiplicity = 1

 SCF Done:  E(RHF) =  -306.553368670     A.U. after   17 cycles
 Normal termination of Gaussian 16 at Wed Apr  9 15:41:05 2025.
 Gaussian 16:  ES64L-G16RevC.01  3-Jul-2019

 ----------------------------------------------------------------------
 #t hf aug-cc-pvdz iop(5/13=1,5/36=2,99/5=2) pseudo=read geom=check gue
 ss=(read,tcheck) scf=(maxcycle=1)
 ----------------------------------------------------------------------
 -----
 title
 -----
 Structure from the checkpoint file:  "Grambow2020_wb97xd3_007301_reverse_mol1.chk"
 Charge =  0 Multiplicity = 1

                         Standard orientation:
 ---------------------------------------------------------------------
 Center     Atomic      Atomic             Coordinates (Angstroms)
 Number     Number       Type             X           Y           Z
 ---------------------------------------------------------------------
      1          6           0       -0.285116    1.566430    0.082611
      2          6           0       -1.649154    0.922624    0.034828
      3          6           0       -1.140672   -0.524278   -0.059464
      4          8           0       -1.716504   -1.552910    0.110579
      5          6           0        0.309618   -0.231896   -0.267310
      6          6           0        1.479495   -0.845845   -0.034215
      7          6           0        2.717848   -0.053757    0.089994
      8          1           0        0.386483    0.627071   -1.017644
      9          1           0        0.133067    1.764052    1.062877
     10          1           0       -0.076197    2.378007   -0.610986
     11          1           0       -2.242096    1.201053   -0.837049
     12          1           0       -2.250142    1.067200    0.931830
     13          1           0        3.005510   -0.098542    1.147014
     14          1           0        3.542773   -0.524674   -0.447370
     15          1           0        2.640517    1.009441   -0.191966
 ---------------------------------------------------------------------

 SCF Done:  E(RHF) =  -306.645999475     A.U. after    2 cycles

 The electronic state is 1-A.
 Alpha  occ. eigenvalues --  -20.56406 -11.35191 -11.31909 -11.27040 -11.26717
 Alpha  occ. eigenvalues --  -11.24717 -11.24437  -1.36436  -1.14546  -1.05206
 Alpha  occ. eigenvalues --   -0.95106  -0.90463  -0.81767  -0.71702  -0.68561
 Alpha  occ. eigenvalues --   -0.66312  -0.63482  -0.58821  -0.58113  -0.57859
 Alpha  occ. eigenvalues --   -0.56976  -0.55229  -0.52834  -0.42680  -0.39933
 Alpha  occ. eigenvalues --   -0.31797
 Alpha virt. eigenvalues --    0.02092   0.03788   0.03867   0.04890   0.05941
 Alpha virt. eigenvalues --    0.06045   0.06732   0.07447   0.07926   0.09826
 Alpha virt. eigenvalues --    0.10641   0.11453   0.12104   0.13334   0.13542

 Mulliken charges:
               1
     1  C    0.514857
     2  C    0.197627
     3  C    0.024100
     4  O   -0.420406
     5  C    0.508999
     6  C   -1.012927
     7  C    0.412544
     8  H    0.362504
     9  H   -0.186542
    10  H   -0.219763
    11  H   -0.007538
    12  H   -0.048578
    13  H    0.077696
    14  H    0.003993
    15  H   -0.206566
 Sum of Mulliken charges =  -0.00000

 Dipole moment (field-independent basis, Debye):
    X=              0.9270    Y=              6.5995    Z=             -0.4203  Tot=              6.6775

 Test job not archived.
 1\1\GINC-SE043\SP\RHF\Aug-CC-pVDZ\C6H8O1\OHZDE\09-Apr-2025\0\\#t hf au
 g-cc-pvdz iop(5/13=1,5/36=2,99/5=2) pseudo=read geom=check guess=(read
 ,tcheck) scf=(maxcycle=1)\\title\\0,1\C,0,-0.97912183,-0.49465606,-0.5
 0768524\C,0,-1.83388354,0.70421185,-0.17682584\C,0,-0.75989467,1.44924
 66,0.63091127\O,0,-0.71310467,2.58723646,0.97929539\C,0,0.25803766,0.3
 5774324,0.69771076\C,0,1.5903343,0.26234141,0.82326078\C,0,2.29253293,
 -0.94568682,0.35004342\H,0,-0.29299022,-0.61721766,0.92695822\H,0,-0.4
 4124454,-0.47252312,-1.44845709\H,0,-1.3812951,-1.48417128,-0.30153823

 Normal termination of Gaussian 16 at Wed Apr  9 15:41:10 2025.
