 Gaussian 16, Revision C.01,

 ----------------------------------------------------------------------
 #t hf aug-cc-pvdz symm=none int=(grid=ultrafine) guess=(read,tcheck) s
 table=(opt,rrhf)
 ----------------------------------------------------------------------
 -----
 title
 -----
 Symbolic Z-matrix:
 Charge =  0 Multiplicity = 1

 SCF Done:  E(RHF) =  -358.437116230     A.U. after   17 cycles
 Normal termination of Gaussian 16 at Wed Apr  9 03:28:06 2025.
 Gaussian 16:  ES64L-G16RevC.01  3-Jul-2019

 ----------------------------------------------------------------------
 #t hf aug-cc-pvdz iop(5/13=1,5/36=2,99/5=2) pseudo=read geom=check gue
 ss=(read,tcheck) scf=(maxcycle=1)
 ----------------------------------------------------------------------
 -----
 title
 -----
 Structure from the checkpoint file:  "Grambow2020_wb97xd3_006751_forward_mol1.chk"
 Charge =  0 Multiplicity = 1

                         Standard orientation:
 ---------------------------------------------------------------------
 Center     Atomic      Atomic             Coordinates (Angstroms)
 Number     Number       Type             X           Y           Z
 ---------------------------------------------------------------------
      1          8           0        2.421878   -0.953401   -0.236577
      2          6           0        1.923149    0.063074    0.141876
      3          6           0        0.432800    0.369936    0.054300
      4          8           0        0.118254    1.508693   -0.343348
      5          7           0       -0.393830   -0.577196    0.457732
      6          6           0       -1.746030    0.025728    0.514284
      7          6           0       -2.445393   -0.583805   -0.520531
      8          1           0        2.513474    0.910927    0.538959
      9          1           0       -1.475772    1.103954    0.158769
     10          1           0       -2.207677    0.037235    1.499072
     11          1           0       -3.414449   -1.063687   -0.409205
     12          1           0       -1.966976   -0.639984   -1.491886
 ---------------------------------------------------------------------

 SCF Done:  E(RHF) =  -358.546216444     A.U. after    2 cycles

 The electronic state is 1-A.
 Alpha  occ. eigenvalues --  -20.57443 -20.54000 -15.61239 -11.40147 -11.34023
 Alpha  occ. eigenvalues --  -11.33939 -11.29482  -1.36929  -1.33870  -1.18896
 Alpha  occ. eigenvalues --   -1.06885  -0.92002  -0.85681  -0.74428  -0.72096
 Alpha  occ. eigenvalues --   -0.69037  -0.67609  -0.65128  -0.64153  -0.56846
 Alpha  occ. eigenvalues --   -0.56524  -0.52535  -0.47626  -0.42357  -0.41014
 Alpha  occ. eigenvalues --   -0.36500
 Alpha virt. eigenvalues --   -0.03030   0.01494   0.03584   0.04631   0.05975
 Alpha virt. eigenvalues --    0.06188   0.09331   0.10098   0.10566   0.10904
 Alpha virt. eigenvalues --    0.11758   0.11890   0.13965   0.14264   0.14927

 Mulliken charges:
               1
     1  O   -0.436369
     2  C    0.856977
     3  C    0.134621
     4  O   -0.638823
     5  N   -0.733881
     6  C    0.506720
     7  C    0.594548
     8  H   -0.073308
     9  H    0.297271
    10  H   -0.203467
    11  H   -0.137512
    12  H   -0.166777
 Sum of Mulliken charges =  -0.00000

 Dipole moment (field-independent basis, Debye):
    X=             -7.2079    Y=             -0.2865    Z=             -0.0839  Tot=              7.2141

 Test job not archived.
 1\1\GINC-SE115\SP\RHF\Aug-CC-pVDZ\C4H5N1O2\OHZDE\09-Apr-2025\0\\#t hf
 aug-cc-pvdz iop(5/13=1,5/36=2,99/5=2) pseudo=read geom=check guess=(re
 ad,tcheck) scf=(maxcycle=1)\\title\\0,1\O,0,2.84105164,1.1762551,0.484
 59846\C,0,2.42488542,0.06310351,0.37111101\C,0,0.9458193,-0.29247265,0
 .27675976\O,0,0.55894612,-1.26277272,0.95696256\N,0,0.21438571,0.42337
 521,-0.55732709\C,0,-1.10131184,-0.24949077,-0.66386281\C,0,-1.9884962
 6,0.61271204,-0.03062267\H,0,3.08064633,-0.82838341,0.3866956\H,0,-0.9
 063393,-1.13938117,0.06557797\H,0,-1.3621737,-0.60266271,-1.65899033\H

 Normal termination of Gaussian 16 at Wed Apr  9 03:28:11 2025.
