 Gaussian 16, Revision C.01,

 ----------------------------------------------------------------------
 #t hf aug-cc-pvdz symm=none int=(grid=ultrafine) guess=(read,tcheck) s
 table=(opt,rrhf)
 ----------------------------------------------------------------------
 -----
 title
 -----
 Symbolic Z-matrix:
 Charge =  0 Multiplicity = 1

 SCF Done:  E(RHF) =  -306.879552287     A.U. after   14 cycles

 1\1\GINC-SE098\Stability\RHF\Aug-CC-pVDZ\C4H10O2\OHZDE\09-Apr-2025\0\\
 #t hf aug-cc-pvdz symm=none int=(grid=ultrafine) guess=(read,tcheck) s
 table=(opt,rrhf)\\title\\0,1\C,0,-1.63887544,-1.00570505,0.15160485\C,
 0,-0.44462581,0.46786067,-0.12157092\C,0,0.15099017,-0.71619877,-0.617
 22729\O,0,2.13140127,0.17912245,-1.21884619\C,0,0.16332577,1.165847,1.
 06663744\O,0,1.0622434,1.89249507,0.33512448\H,0,-2.52363244,-0.440757
 86,-0.15549588\H,0,-1.67741607,-1.98763366,-0.33969856\H,0,-1.57393254
 ,-1.12712135,1.23447718\H,0,-0.96926101,1.1073421,-0.82903616\H,0,0.03

 Normal termination of Gaussian 16 at Wed Apr  9 14:18:25 2025.
 Gaussian 16:  ES64L-G16RevC.01  3-Jul-2019

 ----------------------------------------------------------------------
 #t hf aug-cc-pvdz iop(5/13=1,5/36=2,99/5=2) pseudo=read geom=check gue
 ss=(read,tcheck) scf=(maxcycle=1)
 ----------------------------------------------------------------------
 -----
 title
 -----
 Structure from the checkpoint file:  "Grambow2020_b97d3_007107_forward_mol1.chk"
 Charge =  0 Multiplicity = 1

                         Standard orientation:
 ---------------------------------------------------------------------
 Center     Atomic      Atomic             Coordinates (Angstroms)
 Number     Number       Type             X           Y           Z
 ---------------------------------------------------------------------
      1          6           0       -2.304132   -0.200144    0.046215
      2          6           0       -0.518679    0.309671   -0.427600
      3          6           0       -0.512658   -1.018014    0.061937
      4          8           0        1.714805   -1.357258   -0.032379
      5          6           0        0.179503    1.393376    0.351344
      6          8           0        1.410552    1.167170   -0.200500
      7          1           0       -2.748880    0.256164   -0.842747
      8          1           0       -2.747004   -1.197728    0.171665
      9          1           0       -2.458480    0.397871    0.946285
     10          1           0       -0.560746    0.453531   -1.505663
     11          1           0       -0.620653   -1.874111   -0.597357
     12          1           0       -0.460234   -1.202075    1.130774
     13          1           0        1.987373   -1.513783    0.890855
     14          1           0       -0.245368    2.399108    0.148264
     15          1           0        0.058343    1.198665    1.448052
     16          1           0        1.728590   -0.306267   -0.118476
 ---------------------------------------------------------------------

 SCF Done:  E(RHF) =  -306.975199819     A.U. after    2 cycles

 The electronic state is 1-A.
 Alpha  occ. eigenvalues --  -20.53069 -20.45965 -11.34942 -11.32285 -11.31006
 Alpha  occ. eigenvalues --  -11.27765  -1.26065  -1.21848  -1.11861  -0.94851
 Alpha  occ. eigenvalues --   -0.90437  -0.81441  -0.71402  -0.67339  -0.64747
 Alpha  occ. eigenvalues --   -0.61626  -0.61069  -0.59067  -0.57440  -0.54424
 Alpha  occ. eigenvalues --   -0.52595  -0.50454  -0.44211  -0.37214  -0.36540
 Alpha virt. eigenvalues --    0.01792   0.03389   0.03873   0.04557   0.06022
 Alpha virt. eigenvalues --    0.06649   0.06995   0.07187   0.07943   0.10662
 Alpha virt. eigenvalues --    0.12036   0.12219   0.12853   0.12955   0.13251

 Mulliken charges:
               1
     1  C    0.364538
     2  C    0.091998
     3  C    0.936280
     4  O   -0.573881
     5  C    0.781924
     6  O   -0.951718
     7  H   -0.017845
     8  H   -0.102803
     9  H   -0.063761
    10  H   -0.373396
    11  H   -0.240816
    12  H   -0.194132
    13  H    0.175469
    14  H   -0.149164
    15  H   -0.120482
    16  H    0.437788
 Sum of Mulliken charges =   0.00000

 Dipole moment (field-independent basis, Debye):
    X=             -7.4733    Y=             -2.6200    Z=              1.7223  Tot=              8.1044

 Test job not archived.
 1\1\GINC-SE098\SP\RHF\Aug-CC-pVDZ\C4H10O2\OHZDE\09-Apr-2025\0\\#t hf a
 ug-cc-pvdz iop(5/13=1,5/36=2,99/5=2) pseudo=read geom=check guess=(rea
 d,tcheck) scf=(maxcycle=1)\\title\\0,1\C,0,-1.63887544,-1.00570505,0.1
 5160485\C,0,-0.44462581,0.46786067,-0.12157092\C,0,0.15099017,-0.71619
 877,-0.61722729\O,0,2.13140127,0.17912245,-1.21884619\C,0,0.16332577,1
 .165847,1.06663744\O,0,1.0622434,1.89249507,0.33512448\H,0,-2.52363244
 ,-0.44075786,-0.15549588\H,0,-1.67741607,-1.98763366,-0.33969856\H,0,-
 1.57393254,-1.12712135,1.23447718\H,0,-0.96926101,1.1073421,-0.8290361

 Normal termination of Gaussian 16 at Wed Apr  9 14:18:29 2025.
