 Gaussian 16, Revision C.01,

 ----------------------------------------------------------------------
 #t hf aug-cc-pvdz symm=none int=(grid=ultrafine) guess=(read,tcheck) s
 table=(opt,rrhf)
 ----------------------------------------------------------------------
 -----
 title
 -----
 Symbolic Z-matrix:
 Charge =  0 Multiplicity = 1

 SCF Done:  E(RHF) =  -338.608071925     A.U. after   16 cycles
 Normal termination of Gaussian 16 at Wed Apr  9 16:32:59 2025.
 Gaussian 16:  ES64L-G16RevC.01  3-Jul-2019

 ----------------------------------------------------------------------
 #t hf aug-cc-pvdz iop(5/13=1,5/36=2,99/5=2) pseudo=read geom=check gue
 ss=(read,tcheck) scf=(maxcycle=1)
 ----------------------------------------------------------------------
 -----
 title
 -----
 Structure from the checkpoint file:  "Grambow2020_wb97xd3_008558_reverse_mol1.chk"
 Charge =  0 Multiplicity = 1

                         Standard orientation:
 ---------------------------------------------------------------------
 Center     Atomic      Atomic             Coordinates (Angstroms)
 Number     Number       Type             X           Y           Z
 ---------------------------------------------------------------------
      1          7           0       -1.965485    1.123000   -0.240929
      2          6           0       -2.296155   -0.144841    0.079929
      3          8           0       -1.289005   -1.001828    0.090534
      4          6           0       -0.010528   -0.645353   -0.460729
      5          6           0        0.859540    0.019596    0.603119
      6          6           0        2.225224    0.201493    0.122099
      7          7           0        3.292522    0.331108   -0.276797
      8          1           0       -2.835468    1.640765   -0.362133
      9          1           0       -2.436006    0.789465    0.926813
     10          1           0       -0.135069    0.012486   -1.320024
     11          1           0        0.428120   -1.587796   -0.782620
     12          1           0        0.449492    0.994647    0.868993
     13          1           0        0.883221   -0.599082    1.502272
 ---------------------------------------------------------------------

 SCF Done:  E(RHF) =  -338.710585004     A.U. after    2 cycles

 The electronic state is 1-A.
 Alpha  occ. eigenvalues --  -20.63131 -15.69385 -15.64343 -11.35287 -11.32726
 Alpha  occ. eigenvalues --  -11.30026 -11.29293  -1.41754  -1.23438  -1.20404
 Alpha  occ. eigenvalues --   -1.08682  -0.94666  -0.82034  -0.74600  -0.72343
 Alpha  occ. eigenvalues --   -0.69763  -0.65846  -0.63930  -0.58094  -0.57645
 Alpha  occ. eigenvalues --   -0.55055  -0.53884  -0.50821  -0.46639  -0.46357
 Alpha  occ. eigenvalues --   -0.37094
 Alpha virt. eigenvalues --    0.02553   0.03771   0.04344   0.05161   0.06307
 Alpha virt. eigenvalues --    0.06991   0.08569   0.09227   0.10631   0.11677
 Alpha virt. eigenvalues --    0.12527   0.12887   0.13379   0.14063   0.15081

 Mulliken charges:
               1
     1  N   -0.334255
     2  C    0.008928
     3  O   -0.475261
     4  C    0.848910
     5  C    0.432675
     6  C   -0.331676
     7  N   -0.162914
     8  H    0.050827
     9  H    0.275933
    10  H   -0.084805
    11  H   -0.253988
    12  H   -0.000245
    13  H    0.025873
 Sum of Mulliken charges =  -0.00000

 Dipole moment (field-independent basis, Debye):
    X=             -3.2583    Y=              1.4412    Z=              1.0428  Tot=              3.7123

 Test job not archived.
 1\1\GINC-SE131\SP\RHF\Aug-CC-pVDZ\C4H6N2O1\OHZDE\09-Apr-2025\0\\#t hf
 aug-cc-pvdz iop(5/13=1,5/36=2,99/5=2) pseudo=read geom=check guess=(re
 ad,tcheck) scf=(maxcycle=1)\\title\\0,1\N,0,-1.82319387,0.93515585,-0.
 15965775\C,0,-2.0393659,-0.29264473,0.35559877\O,0,-0.9984703,-1.10757
 673,0.31936491\C,0,0.16833843,-0.78085986,-0.45347677\C,0,1.14609327,0
 .04094578,0.38293161\C,0,2.41805955,0.20628055,-0.31300491\N,0,3.40948
 034,0.32017304,-0.87794403\H,0,-2.72692236,1.4044096,-0.21179789\H,0,-
 2.1046035,0.73543733,1.09620045\H,0,-0.11103413,-0.24062736,-1.3572185

 Normal termination of Gaussian 16 at Wed Apr  9 16:33:03 2025.
