 Gaussian 16, Revision C.01,

 ----------------------------------------------------------------------
 #t hf aug-cc-pvdz symm=none int=(grid=ultrafine) guess=(read,tcheck) s
 table=(opt,rrhf)
 ----------------------------------------------------------------------
 -----
 title
 -----
 Symbolic Z-matrix:
 Charge =  0 Multiplicity = 1

 SCF Done:  E(RHF) =  -323.885373863     A.U. after   15 cycles
 Normal termination of Gaussian 16 at Wed Apr  9 15:22:00 2025.
 Gaussian 16:  ES64L-G16RevC.01  3-Jul-2019

 ----------------------------------------------------------------------
 #t hf aug-cc-pvdz iop(5/13=1,5/36=2,99/5=2) pseudo=read geom=check gue
 ss=(read,tcheck) scf=(maxcycle=1)
 ----------------------------------------------------------------------
 -----
 title
 -----
 Structure from the checkpoint file:  "Grambow2020_wb97xd3_006866_forward_mol2.chk"
 Charge =  0 Multiplicity = 1

                         Standard orientation:
 ---------------------------------------------------------------------
 Center     Atomic      Atomic             Coordinates (Angstroms)
 Number     Number       Type             X           Y           Z
 ---------------------------------------------------------------------
      1          6           0        2.386815   -0.018247   -0.732432
      2          7           0        1.168079    0.433357   -0.089946
      3          6           0        0.935812   -0.021216    1.253686
      4          6           0        0.145545   -0.573071    0.114737
      5          6           0       -1.289659   -0.202974   -0.103100
      6          8           0       -2.114308   -1.074916   -0.232350
      7          6           0       -1.640178    1.259471   -0.155911
      8          1           0        3.196156    0.669794   -0.485042
      9          1           0        2.247339   -0.011787   -1.814058
     10          1           0        2.682237   -1.031389   -0.423534
     11          1           0        1.661032   -0.694125    1.703378
     12          1           0        0.489475    0.695140    1.934121
     13          1           0        0.369716   -1.598401   -0.168770
     14          1           0       -2.718706    1.368796   -0.240367
     15          1           0       -1.278030    1.783199    0.730574
     16          1           0       -1.141325    1.720828   -1.009760
 ---------------------------------------------------------------------

 SCF Done:  E(RHF) =  -323.985671199     A.U. after    2 cycles

 The electronic state is 1-A.
 Alpha  occ. eigenvalues --  -20.55840 -15.64408 -11.34041 -11.28527 -11.28083
 Alpha  occ. eigenvalues --  -11.27178 -11.23752  -1.35516  -1.27564  -1.02607
 Alpha  occ. eigenvalues --   -0.99023  -0.89462  -0.83754  -0.75083  -0.69659
 Alpha  occ. eigenvalues --   -0.67701  -0.62846  -0.61690  -0.60387  -0.58928
 Alpha  occ. eigenvalues --   -0.56462  -0.54497  -0.51912  -0.48437  -0.47291
 Alpha  occ. eigenvalues --   -0.42957  -0.38668
 Alpha virt. eigenvalues --    0.03134   0.04001   0.04038   0.04680   0.06314
 Alpha virt. eigenvalues --    0.06636   0.07493   0.07557   0.08867   0.10727
 Alpha virt. eigenvalues --    0.11280   0.12481   0.12859   0.13379   0.14689

 Mulliken charges:
               1
     1  C    0.796677
     2  N   -0.727505
     3  C    0.945088
     4  C    0.786617
     5  C   -0.080105
     6  O   -0.524973
     7  C    0.392478
     8  H   -0.198274
     9  H   -0.189815
    10  H   -0.129421
    11  H   -0.290053
    12  H   -0.326428
    13  H   -0.424642
    14  H   -0.097288
    15  H   -0.012976
    16  H    0.080621
 Sum of Mulliken charges =   0.00000

 Dipole moment (field-independent basis, Debye):
    X=              3.2658    Y=              1.5148    Z=              0.7365  Tot=              3.6746

 Test job not archived.
 1\1\GINC-SE454\SP\RHF\Aug-CC-pVDZ\C5H9N1O1\OHZDE\09-Apr-2025\0\\#t hf
 aug-cc-pvdz iop(5/13=1,5/36=2,99/5=2) pseudo=read geom=check guess=(re
 ad,tcheck) scf=(maxcycle=1)\\title\\0,1\C,0,1.30368299,0.0002014,-1.83
 014165\N,0,0.72395672,0.2333313,-0.52185287\C,0,1.06557872,-0.70123693
 ,0.51535923\C,0,-0.29389659,-0.70792498,-0.09950202\C,0,-1.49503653,-0
 .19563561,0.63470287\O,0,-2.47554338,-0.89340206,0.72830666\C,0,-1.423
 41859,1.18644608,1.22556668\H,0,2.28021287,0.48361019,-1.87851318\H,0,
 0.66168975,0.44294225,-2.59252958\H,0,1.43065973,-1.06830013,-2.056701

 Normal termination of Gaussian 16 at Wed Apr  9 15:22:06 2025.
