 Gaussian 16, Revision C.01,

 ----------------------------------------------------------------------
 #t hf aug-cc-pvdz symm=none int=(grid=ultrafine) guess=(read,tcheck) s
 table=(opt,rrhf)
 ----------------------------------------------------------------------
 -----
 title
 -----
 Symbolic Z-matrix:
 Charge =  0 Multiplicity = 1

 SCF Done:  E(RHF) =  -322.599948413     A.U. after   16 cycles
 Normal termination of Gaussian 16 at Wed Apr  9 15:46:00 2025.
 Gaussian 16:  ES64L-G16RevC.01  3-Jul-2019

 ----------------------------------------------------------------------
 #t hf aug-cc-pvdz iop(5/13=1,5/36=2,99/5=2) pseudo=read geom=check gue
 ss=(read,tcheck) scf=(maxcycle=1)
 ----------------------------------------------------------------------
 -----
 title
 -----
 Structure from the checkpoint file:  "Grambow2020_wb97xd3_007345_forward_mol1.chk"
 Charge =  0 Multiplicity = 1

                         Standard orientation:
 ---------------------------------------------------------------------
 Center     Atomic      Atomic             Coordinates (Angstroms)
 Number     Number       Type             X           Y           Z
 ---------------------------------------------------------------------
      1          8           0        1.878136   -0.945974   -0.489605
      2          6           0        1.481683   -0.163461    0.264318
      3          6           0        0.323056    1.783672   -0.030076
      4          7           0       -0.574691    0.810275    0.162794
      5          6           0       -1.273269   -0.012268   -0.834253
      6          6           0       -1.205022   -1.194963    0.164612
      7          6           0       -0.315857   -0.276955    0.978393
      8          1           0        0.721764    2.273508    0.845560
      9          1           0        0.250275    2.357091   -0.946427
     10          1           0       -0.683384   -0.146920   -1.744348
     11          1           0       -2.266728    0.362532   -1.076329
     12          1           0       -0.702219   -2.083290   -0.219858
     13          1           0       -2.161513   -1.476623    0.605370
     14          1           0       -0.223993   -0.206583    2.055346
 ---------------------------------------------------------------------

 SCF Done:  E(RHF) =  -322.697811091     A.U. after    2 cycles

 The electronic state is 1-A.
 Alpha  occ. eigenvalues --  -20.58818 -15.68934 -11.32185 -11.29373 -11.29131
 Alpha  occ. eigenvalues --  -11.28005 -11.25168  -1.39508  -1.29596  -1.06377
 Alpha  occ. eigenvalues --   -0.94405  -0.88450  -0.77000  -0.73851  -0.70486
 Alpha  occ. eigenvalues --   -0.69679  -0.66523  -0.59838  -0.58321  -0.56315
 Alpha  occ. eigenvalues --   -0.54514  -0.53874  -0.53133  -0.49545  -0.40128
 Alpha  occ. eigenvalues --   -0.27632
 Alpha virt. eigenvalues --    0.03115   0.03845   0.04089   0.05273   0.06535
 Alpha virt. eigenvalues --    0.06679   0.07500   0.08757   0.09584   0.10675
 Alpha virt. eigenvalues --    0.11827   0.12440   0.13423   0.14091   0.14431

 Mulliken charges:
               1
     1  O   -0.407872
     2  C    0.212241
     3  C    0.689184
     4  N   -0.438410
     5  C    0.813392
     6  C    0.575166
     7  C    0.445191
     8  H   -0.331716
     9  H   -0.379415
    10  H   -0.255154
    11  H   -0.243296
    12  H   -0.110491
    13  H   -0.160292
    14  H   -0.408529
 Sum of Mulliken charges =  -0.00000

 Dipole moment (field-independent basis, Debye):
    X=             -3.3769    Y=              1.3618    Z=              0.4104  Tot=              3.6642

 Test job not archived.
 1\1\GINC-SE229\SP\RHF\Aug-CC-pVDZ\C5H7N1O1\OHZDE\09-Apr-2025\0\\#t hf
 aug-cc-pvdz iop(5/13=1,5/36=2,99/5=2) pseudo=read geom=check guess=(re
 ad,tcheck) scf=(maxcycle=1)\\title\\0,1\O,0,1.13169179,2.16938256,-0.4
 2614019\C,0,1.28451524,1.08184767,-0.78920164\C,0,1.57084562,-0.877666
 92,0.35041663\N,0,0.26113345,-0.74255799,0.11156375\C,0,-0.77581643,-0
 .14423686,0.96329136\C,0,-1.46714361,0.37175495,-0.32394446\C,0,-0.217
 6411,-0.11858754,-1.02672547\H,0,2.16926158,-1.35314219,-0.41212361\H,
 0,1.88304549,-0.9822502,1.38259747\H,0,-0.37531991,0.63798964,1.612977

 Normal termination of Gaussian 16 at Wed Apr  9 15:46:05 2025.
