 Gaussian 16, Revision C.01,

 ----------------------------------------------------------------------
 #t hf aug-cc-pvdz symm=none int=(grid=ultrafine) guess=(read,tcheck) s
 table=(opt,rrhf)
 ----------------------------------------------------------------------
 -----
 title
 -----
 Symbolic Z-matrix:
 Charge =  0 Multiplicity = 1

 SCF Done:  E(RHF) =  -267.657762233     A.U. after   14 cycles
 Normal termination of Gaussian 16 at Wed Apr  9 14:22:07 2025.
 Gaussian 16:  ES64L-G16RevC.01  3-Jul-2019

 ----------------------------------------------------------------------
 #t hf aug-cc-pvdz iop(5/13=1,5/36=2,99/5=2) pseudo=read geom=check gue
 ss=(read,tcheck) scf=(maxcycle=1)
 ----------------------------------------------------------------------
 -----
 title
 -----
 Structure from the checkpoint file:  "Grambow2020_wb97xd3_006075_forward_mol2.chk"
 Charge =  0 Multiplicity = 1

                         Standard orientation:
 ---------------------------------------------------------------------
 Center     Atomic      Atomic             Coordinates (Angstroms)
 Number     Number       Type             X           Y           Z
 ---------------------------------------------------------------------
      1          8           0       -2.388166   -0.656658    0.000812
      2          6           0       -1.910941    0.444609   -0.001713
      3          6           0       -0.437097    0.734910    0.001722
      4          6           0        0.426997   -0.521894   -0.000680
      5          6           0        1.852360   -0.207488    0.000547
      6          6           0        3.016390    0.073059   -0.000125
      7          1           0       -2.565058    1.341230   -0.006590
      8          1           0       -0.223241    1.360941    0.875007
      9          1           0       -0.218460    1.368136   -0.864905
     10          1           0        0.185276   -1.137168    0.868470
     11          1           0        0.187085   -1.131294   -0.874654
     12          1           0        4.053474    0.312247   -0.002336
 ---------------------------------------------------------------------

 SCF Done:  E(RHF) =  -267.743242052     A.U. after    2 cycles

 The electronic state is 1-A.
 Alpha  occ. eigenvalues --  -20.58275 -11.35349 -11.27127 -11.26616 -11.25121
 Alpha  occ. eigenvalues --  -11.23847  -1.37461  -1.09685  -1.01945  -0.93364
 Alpha  occ. eigenvalues --   -0.79433  -0.73230  -0.70062  -0.66176  -0.66054
 Alpha  occ. eigenvalues --   -0.60882  -0.56595  -0.55641  -0.51809  -0.45088
 Alpha  occ. eigenvalues --   -0.39578  -0.39516
 Alpha virt. eigenvalues --    0.03139   0.03805   0.04976   0.05078   0.05962
 Alpha virt. eigenvalues --    0.07142   0.09874   0.09951   0.10829   0.11437
 Alpha virt. eigenvalues --    0.11677   0.12481   0.14464   0.14541   0.15307

 Mulliken charges:
               1
     1  O   -0.435970
     2  C    0.626731
     3  C   -0.038246
     4  C    0.096081
     5  C   -0.356411
     6  C    0.863891
     7  H   -0.132930
     8  H   -0.045650
     9  H   -0.048525
    10  H   -0.000191
    11  H    0.001092
    12  H   -0.529872
 Sum of Mulliken charges =  -0.00000

 Dipole moment (field-independent basis, Debye):
    X=              1.0180    Y=              2.6371    Z=             -0.0079  Tot=              2.8268

 Test job not archived.
 1\1\GINC-SE131\SP\RHF\Aug-CC-pVDZ\C5H6O1\OHZDE\09-Apr-2025\0\\#t hf au
 g-cc-pvdz iop(5/13=1,5/36=2,99/5=2) pseudo=read geom=check guess=(read
 ,tcheck) scf=(maxcycle=1)\\title\\0,1\O,0,-2.54781181,-0.17419473,-0.6
 5776708\C,0,-2.06585703,-0.20353555,0.44105038\C,0,-0.59581857,-0.0945
 9899,0.73022523\C,0,0.25674366,0.07031617,-0.52363394\C,0,1.67844901,0
 .17547147,-0.21025233\C,0,2.83949102,0.26139898,0.06951694\H,0,-2.7121
 8428,-0.31801258,1.33602395\H,0,-0.300884,-0.98560956,1.29537119\H,0,-
 0.4515447,0.7432376,1.42090213\H,0,0.08981505,-0.77331106,-1.1965689\H

 Normal termination of Gaussian 16 at Wed Apr  9 14:22:11 2025.
