 Gaussian 16, Revision C.01,

 ----------------------------------------------------------------------
 #t hf aug-cc-pvdz symm=none int=(grid=ultrafine) guess=(read,tcheck) s
 table=(opt,rrhf)
 ----------------------------------------------------------------------
 -----
 title
 -----
 Symbolic Z-matrix:
 Charge =  0 Multiplicity = 1

 SCF Done:  E(RHF) =  -343.467830743     A.U. after   16 cycles
 Normal termination of Gaussian 16 at Wed Apr  9 03:27:27 2025.
 Gaussian 16:  ES64L-G16RevC.01  3-Jul-2019

 ----------------------------------------------------------------------
 #t hf aug-cc-pvdz iop(5/13=1,5/36=2,99/5=2) pseudo=read geom=check gue
 ss=(read,tcheck) scf=(maxcycle=1)
 ----------------------------------------------------------------------
 -----
 title
 -----
 Structure from the checkpoint file:  "Grambow2020_wb97xd3_006719_forward_mol1.chk"
 Charge =  0 Multiplicity = 1

                         Standard orientation:
 ---------------------------------------------------------------------
 Center     Atomic      Atomic             Coordinates (Angstroms)
 Number     Number       Type             X           Y           Z
 ---------------------------------------------------------------------
      1          8           0       -2.219677   -0.565451    0.137116
      2          6           0       -1.517672    0.402514   -0.470186
      3          6           0        0.535866    1.252918   -0.375859
      4          8           0       -0.113750    0.488482    0.814961
      5          6           0        0.939244   -0.453497    0.797000
      6          6           0        1.155545   -1.137272   -0.519714
      7          6           0        1.676779    0.252612   -0.321978
      8          1           0       -1.974023   -1.424470   -0.215943
      9          1           0       -1.230880    0.203128   -1.489751
     10          1           0       -1.886844    1.393190   -0.258315
     11          1           0        0.850059    2.207426    0.057000
     12          1           0        1.216891   -0.900346    1.745504
     13          1           0        0.338478   -1.315553   -1.210543
     14          1           0        1.886282   -1.936128   -0.475593
     15          1           0        2.728880    0.484851   -0.424556
 ---------------------------------------------------------------------

 SCF Done:  E(RHF) =  -343.574644266     A.U. after    2 cycles

 The electronic state is 1-A.
 Alpha  occ. eigenvalues --  -20.64108 -20.57941 -11.41521 -11.28967 -11.23480
 Alpha  occ. eigenvalues --  -11.22931 -11.20798  -1.41506  -1.34285  -1.10302
 Alpha  occ. eigenvalues --   -0.96628  -0.89837  -0.81844  -0.78576  -0.71680
 Alpha  occ. eigenvalues --   -0.71212  -0.69085  -0.66261  -0.63270  -0.57508
 Alpha  occ. eigenvalues --   -0.55617  -0.53845  -0.52643  -0.48198  -0.43067
 Alpha  occ. eigenvalues --   -0.37529  -0.26451
 Alpha virt. eigenvalues --    0.02730   0.04152   0.04583   0.04842   0.05960
 Alpha virt. eigenvalues --    0.06282   0.06888   0.08484   0.10156   0.10843
 Alpha virt. eigenvalues --    0.11942   0.12841   0.13219   0.13872   0.14470

 Mulliken charges:
               1
     1  O   -0.432043
     2  C    1.147242
     3  C    0.158083
     4  O   -0.784906
     5  C    0.793591
     6  C    0.779296
     7  C    0.317590
     8  H    0.206695
     9  H    0.000855
    10  H   -0.198837
    11  H   -0.358990
    12  H   -0.422481
    13  H   -0.427921
    14  H   -0.342547
    15  H   -0.435628
 Sum of Mulliken charges =   0.00000

 Dipole moment (field-independent basis, Debye):
    X=             -1.0289    Y=             -2.6096    Z=             -1.2369  Tot=              3.0657

 Test job not archived.
 1\1\GINC-SE338\SP\RHF\Aug-CC-pVDZ\C5H8O2\OHZDE\09-Apr-2025\0\\#t hf au
 g-cc-pvdz iop(5/13=1,5/36=2,99/5=2) pseudo=read geom=check guess=(read
 ,tcheck) scf=(maxcycle=1)\\title\\0,1\O,0,1.6845326,1.66886775,0.60207
 172\C,0,1.71372078,0.43420619,0.07925121\C,0,0.37558678,-1.33974569,-0
 .02843055\O,0,0.25421273,-0.26079871,1.08761523\C,0,-1.07930588,0.0021
 1372,0.70154729\C,0,-1.26034349,0.37357761,-0.73973952\C,0,-1.07786471
 ,-1.06657777,-0.37202387\H,0,1.15286118,2.24953987,0.05156667\H,0,1.63
 240812,0.37849323,-0.99396883\H,0,2.44793009,-0.20647116,0.5408644\H,0

 Normal termination of Gaussian 16 at Wed Apr  9 03:27:32 2025.
