 Gaussian 16, Revision C.01,

 ----------------------------------------------------------------------
 #t hf aug-cc-pvdz symm=none int=(grid=ultrafine) guess=(read,tcheck) s
 table=(opt,rrhf)
 ----------------------------------------------------------------------
 -----
 title
 -----
 Symbolic Z-matrix:
 Charge =  0 Multiplicity = 1

 SCF Done:  E(RHF) =  -324.896429190     A.U. after   15 cycles
 Normal termination of Gaussian 16 at Wed Apr  9 16:21:21 2025.
 Gaussian 16:  ES64L-G16RevC.01  3-Jul-2019

 ----------------------------------------------------------------------
 #t hf aug-cc-pvdz iop(5/13=1,5/36=2,99/5=2) pseudo=read geom=check gue
 ss=(read,tcheck) scf=(maxcycle=1)
 ----------------------------------------------------------------------
 -----
 title
 -----
 Structure from the checkpoint file:  "Grambow2020_wb97xd3_008112_reverse_mol1.chk"
 Charge =  0 Multiplicity = 1

                         Standard orientation:
 ---------------------------------------------------------------------
 Center     Atomic      Atomic             Coordinates (Angstroms)
 Number     Number       Type             X           Y           Z
 ---------------------------------------------------------------------
      1          6           0        2.444224   -0.059895   -0.113138
      2          7           0        1.279765    0.155218   -0.658228
      3          6           0        0.103460   -0.466480   -0.138483
      4          8           0        0.217146   -1.435214    0.581538
      5          6           0       -1.120815    0.341345   -0.438195
      6          6           0       -2.431807   -0.363020   -0.158336
      7          6           0       -0.622291    1.355890    0.555546
      8          1           0        1.878490    1.062018    1.459421
      9          1           0        3.310199    0.465859   -0.485287
     10          1           0        2.525145   -0.905873    0.552272
     11          1           0        1.148133    0.950654   -1.264633
     12          1           0       -1.096249    0.735753   -1.457367
     13          1           0       -2.415556   -0.805977    0.837708
     14          1           0       -2.614450   -1.164467   -0.877309
     15          1           0       -3.259358    0.346401   -0.209894
     16          1           0        1.096949    1.259169    1.350830
     17          1           0       -0.524660    2.388036    0.236569
     18          1           0       -0.980794    1.216568    1.568632
 ---------------------------------------------------------------------

 SCF Done:  E(RHF) =  -325.000788681     A.U. after    2 cycles

 The electronic state is 1-A.
 Alpha  occ. eigenvalues --  -20.53137 -15.72481 -11.36693 -11.34729 -11.25035
 Alpha  occ. eigenvalues --  -11.21885 -11.21189  -1.36030  -1.26278  -1.08590
 Alpha  occ. eigenvalues --   -0.96622  -0.90541  -0.83640  -0.80343  -0.72755
 Alpha  occ. eigenvalues --   -0.70406  -0.65045  -0.62599  -0.60646  -0.59740
 Alpha  occ. eigenvalues --   -0.56454  -0.53343  -0.52835  -0.49397  -0.48008
 Alpha  occ. eigenvalues --   -0.46550  -0.42970  -0.25251
 Alpha virt. eigenvalues --    0.02051   0.03572   0.04257   0.04823   0.05896
 Alpha virt. eigenvalues --    0.06350   0.06756   0.07310   0.07718   0.09036
 Alpha virt. eigenvalues --    0.09240   0.10783   0.11865   0.12216   0.13429

 Mulliken charges:
               1
     1  C    0.786925
     2  N   -0.152117
     3  C    0.117453
     4  O   -0.545973
     5  C   -0.208321
     6  C    0.584697
     7  C    0.506394
     8  H   -0.254065
     9  H   -0.251888
    10  H   -0.171846
    11  H   -0.000111
    12  H   -0.226375
    13  H    0.004665
    14  H   -0.025198
    15  H    0.039374
    16  H    0.459421
    17  H   -0.380410
    18  H   -0.282627
 Sum of Mulliken charges =  -0.00000

 Dipole moment (field-independent basis, Debye):
    X=              2.6005    Y=              2.2402    Z=             -3.7594  Tot=              5.0906

 Test job not archived.
 1\1\GINC-SE042\SP\RHF\Aug-CC-pVDZ\C5H11N1O1\OHZDE\09-Apr-2025\0\\#t hf
  aug-cc-pvdz iop(5/13=1,5/36=2,99/5=2) pseudo=read geom=check guess=(r
 ead,tcheck) scf=(maxcycle=1)\\title\\0,1\C,0,2.36507414,0.86902054,-0.
 23499146\N,0,1.27197915,0.31970293,-0.68527446\C,0,0.42242945,-0.43415
 838,0.18092049\O,0,0.86577187,-0.84348872,1.23244133\C,0,-0.99503941,-
 0.42769468,-0.30074184\C,0,-1.91002764,-1.40854948,0.40201666\C,0,-1.0
 5906342,1.02410545,0.0910853\H,0,1.2421534,2.22070551,0.7466814\H,0,2.
 96105134,1.48289347,-0.89286388\H,0,2.73234174,0.52005955,0.71807665\H

 Normal termination of Gaussian 16 at Wed Apr  9 16:21:28 2025.
