 Gaussian 16, Revision C.01,

 ----------------------------------------------------------------------
 #t hf aug-cc-pvdz symm=none int=(grid=ultrafine) guess=(read,tcheck) s
 table=(opt,rrhf)
 ----------------------------------------------------------------------
 -----
 title
 -----
 Symbolic Z-matrix:
 Charge =  0 Multiplicity = 1

 SCF Done:  E(RHF) =  -355.693889324     A.U. after   17 cycles
 Normal termination of Gaussian 16 at Wed Apr  9 16:51:16 2025.
 Gaussian 16:  ES64L-G16RevC.01  3-Jul-2019

 ----------------------------------------------------------------------
 #t hf aug-cc-pvdz iop(5/13=1,5/36=2,99/5=2) pseudo=read geom=check gue
 ss=(read,tcheck) scf=(maxcycle=1)
 ----------------------------------------------------------------------
 -----
 title
 -----
 Structure from the checkpoint file:  "Grambow2020_wb97xd3_009002_forward_mol1.chk"
 Charge =  0 Multiplicity = 1

                         Standard orientation:
 ---------------------------------------------------------------------
 Center     Atomic      Atomic             Coordinates (Angstroms)
 Number     Number       Type             X           Y           Z
 ---------------------------------------------------------------------
      1          6           0       -2.104918   -0.036810    0.149070
      2          7           0       -0.824877   -0.160744   -0.542569
      3          6           0        0.148330   -1.054104   -0.050404
      4          8           0        0.525236   -0.417484    1.173134
      5          7           0        1.405072   -0.604307   -0.656682
      6          6           0        1.176248    0.528264    0.269400
      7          7           0        0.213015    1.392065   -0.302059
      8          1           0       -1.907999   -0.022075    1.217814
      9          1           0       -2.737795   -0.888628   -0.095409
     10          1           0       -2.587685    0.887295   -0.164470
     11          1           0       -0.921612   -0.186880   -1.551188
     12          1           0        1.346916   -0.350017   -1.640090
     13          1           0        2.037104    1.038762    0.699474
     14          1           0       -0.301252    1.848210    0.449574
 ---------------------------------------------------------------------

 SCF Done:  E(RHF) =  -355.801855108     A.U. after    2 cycles

 The electronic state is 1-A.
 Alpha  occ. eigenvalues --  -20.57141 -15.76021 -15.67314 -15.61794 -11.35430
 Alpha  occ. eigenvalues --  -11.30487 -11.29777  -1.41368  -1.24642  -1.15449
 Alpha  occ. eigenvalues --   -1.11259  -0.97427  -0.86347  -0.81200  -0.73245
 Alpha  occ. eigenvalues --   -0.70153  -0.69645  -0.65587  -0.62353  -0.59788
 Alpha  occ. eigenvalues --   -0.56465  -0.54296  -0.49553  -0.47687  -0.44453
 Alpha  occ. eigenvalues --   -0.41829  -0.29107
 Alpha virt. eigenvalues --    0.02279   0.03309   0.04065   0.04990   0.06671
 Alpha virt. eigenvalues --    0.07032   0.07332   0.09133   0.09605   0.11819
 Alpha virt. eigenvalues --    0.12527   0.13647   0.14028   0.14545   0.15287

 Mulliken charges:
               1
     1  C    0.787156
     2  N   -0.135886
     3  C    0.089786
     4  O   -0.724615
     5  N   -0.472479
     6  C    1.225414
     7  N   -0.487810
     8  H   -0.056722
     9  H   -0.138896
    10  H   -0.136960
    11  H    0.036839
    12  H    0.002368
    13  H   -0.066004
    14  H    0.077811
 Sum of Mulliken charges =  -0.00000

 Dipole moment (field-independent basis, Debye):
    X=             -3.7583    Y=              3.4416    Z=             -1.9102  Tot=              5.4423

 Test job not archived.
 1\1\GINC-SE220\SP\RHF\Aug-CC-pVDZ\C3H7N3O1\OHZDE\09-Apr-2025\0\\#t hf
 aug-cc-pvdz iop(5/13=1,5/36=2,99/5=2) pseudo=read geom=check guess=(re
 ad,tcheck) scf=(maxcycle=1)\\title\\0,1\C,0,1.59572362,0.75904895,0.22
 897234\N,0,0.47287363,-0.15918257,0.39716462\C,0,0.18811561,-1.1022325
 8,-0.6113105\O,0,-0.26780153,-0.25657397,-1.67026631\N,0,-1.19710506,-
 1.509741,-0.35755652\C,0,-1.4434954,-0.12248206,-0.81308746\N,0,-1.164
 22039,0.76071792,0.25579024\H,0,1.58763614,1.11322543,-0.79850109\H,0,
 2.52991529,0.23650632,0.42930399\H,0,1.47873442,1.59058746,0.92193578\

 Normal termination of Gaussian 16 at Wed Apr  9 16:51:21 2025.
