 Gaussian 16, Revision C.01,

 ----------------------------------------------------------------------
 #t hf aug-cc-pvdz symm=none int=(grid=ultrafine) guess=(read,tcheck) s
 table=(opt,rrhf)
 ----------------------------------------------------------------------
 -----
 title
 -----
 Symbolic Z-matrix:
 Charge =  0 Multiplicity = 1

 SCF Done:  E(RHF) =  -302.173177342     A.U. after   18 cycles
 Normal termination of Gaussian 16 at Wed Apr  9 13:48:37 2025.
 Gaussian 16:  ES64L-G16RevC.01  3-Jul-2019

 ----------------------------------------------------------------------
 #t hf aug-cc-pvdz iop(5/13=1,5/36=2,99/5=2) pseudo=read geom=check gue
 ss=(read,tcheck) scf=(maxcycle=1)
 ----------------------------------------------------------------------
 -----
 title
 -----
 Structure from the checkpoint file:  "Grambow2020_b97d3_006706_reverse_mol1.chk"
 Charge =  0 Multiplicity = 1

                         Standard orientation:
 ---------------------------------------------------------------------
 Center     Atomic      Atomic             Coordinates (Angstroms)
 Number     Number       Type             X           Y           Z
 ---------------------------------------------------------------------
      1          8           0       -2.422941   -0.292350   -0.110611
      2          6           0       -1.279170   -0.290992    0.084649
      3          6           0       -0.220787    1.460439    0.148219
      4          6           0        0.977077    1.097742   -0.091300
      5          6           0        1.742216   -0.083528   -0.085636
      6          8           0        1.160423   -1.211250    0.076605
      7          1           0       -0.048221   -0.956840    0.138427
      8          1           0        2.832354   -0.116316   -0.201973
 ---------------------------------------------------------------------

 SCF Done:  E(RHF) =  -302.263969728     A.U. after    2 cycles

 The electronic state is 1-A.
 Alpha  occ. eigenvalues --  -20.68986 -20.64913 -11.42761 -11.42736 -11.27782
 Alpha  occ. eigenvalues --  -11.23602  -1.47766  -1.41827  -1.06428  -0.94444
 Alpha  occ. eigenvalues --   -0.83859  -0.80251  -0.72776  -0.70010  -0.67528
 Alpha  occ. eigenvalues --   -0.65204  -0.62977  -0.54296  -0.44563  -0.40658
 Alpha  occ. eigenvalues --   -0.38390
 Alpha virt. eigenvalues --    0.01197   0.02958   0.03341   0.05412   0.07439
 Alpha virt. eigenvalues --    0.08095   0.09388   0.09788   0.11336   0.12915
 Alpha virt. eigenvalues --    0.13401   0.14114   0.14896   0.15199   0.15861

 Mulliken charges:
               1
     1  O   -0.262428
     2  C    0.225439
     3  C   -0.346963
     4  C   -0.075960
     5  C    0.670977
     6  O   -0.628604
     7  H    0.544441
     8  H   -0.126903
 Sum of Mulliken charges =  -0.00000

 Dipole moment (field-independent basis, Debye):
    X=              2.4904    Y=             -2.1217    Z=             -0.0758  Tot=              3.2726

 Test job not archived.
 1\1\GINC-SE054\SP\RHF\Aug-CC-pVDZ\C4H2O2\OHZDE\09-Apr-2025\0\\#t hf au
 g-cc-pvdz iop(5/13=1,5/36=2,99/5=2) pseudo=read geom=check guess=(read
 ,tcheck) scf=(maxcycle=1)\\title\\0,1\O,0,-2.55683015,-0.71336238,0.57
 54568\C,0,-1.43719298,-0.41985125,0.49419619\C,0,-0.84726507,1.1979459
 1,-0.61325343\C,0,0.37844676,0.95897368,-0.8668644\C,0,1.41148886,0.12
 999621,-0.39095464\O,0,1.14502876,-0.78035854,0.46742499\H,0,-0.079152
 87,-0.73153542,0.63583259\H,0,2.46148969,0.21028278,-0.6976501\\Versio
 n=ES64L-G16RevC.01\State=1-A\HF=-302.2639697\RMSD=5.227e-03\Dipole=1.1

 Normal termination of Gaussian 16 at Wed Apr  9 13:48:40 2025.
