 Gaussian 16, Revision C.01,

 ----------------------------------------------------------------------
 #t hf aug-cc-pvdz symm=none int=(grid=ultrafine) guess=(read,tcheck) s
 table=(opt,rrhf)
 ----------------------------------------------------------------------
 -----
 title
 -----
 Symbolic Z-matrix:
 Charge =  0 Multiplicity = 1

 SCF Done:  E(RHF) =  -359.777644333     A.U. after   14 cycles
 Normal termination of Gaussian 16 at Wed Apr  9 03:51:33 2025.
 Gaussian 16:  ES64L-G16RevC.01  3-Jul-2019

 ----------------------------------------------------------------------
 #t hf aug-cc-pvdz iop(5/13=1,5/36=2,99/5=2) pseudo=read geom=check gue
 ss=(read,tcheck) scf=(maxcycle=1)
 ----------------------------------------------------------------------
 -----
 title
 -----
 Structure from the checkpoint file:  "Grambow2020_wb97xd3_008278_reverse_mol2.chk"
 Charge =  0 Multiplicity = 1

                         Standard orientation:
 ---------------------------------------------------------------------
 Center     Atomic      Atomic             Coordinates (Angstroms)
 Number     Number       Type             X           Y           Z
 ---------------------------------------------------------------------
      1          6           0       -1.213700    1.254797    0.609854
      2          6           0        2.003645    0.151431   -0.013333
      3          6           0        1.013449   -0.615447    0.842810
      4          7           0       -0.223536   -0.956129    0.208747
      5          6           0       -1.261496   -0.099400   -0.056362
      6          8           0       -2.177714   -0.444508   -0.768316
      7          8           0        1.783214    0.540394   -1.122892
      8          1           0       -2.120694    1.791558    0.347597
      9          1           0       -0.349258    1.824988    0.265029
     10          1           0       -1.153401    1.159418    1.695979
     11          1           0        2.980513    0.342136    0.480221
     12          1           0        0.845781   -0.024257    1.749730
     13          1           0        1.513623   -1.526059    1.187141
     14          1           0       -0.247204   -1.790256   -0.355073
 ---------------------------------------------------------------------

 SCF Done:  E(RHF) =  -359.891283871     A.U. after    2 cycles

 The electronic state is 1-A.
 Alpha  occ. eigenvalues --  -20.59585 -20.53524 -15.65427 -11.36607 -11.36383
 Alpha  occ. eigenvalues --  -11.31439 -11.24893  -1.38906  -1.35275  -1.21422
 Alpha  occ. eigenvalues --   -1.02158  -0.99815  -0.83757  -0.78572  -0.72069
 Alpha  occ. eigenvalues --   -0.70108  -0.68941  -0.65446  -0.62093  -0.61048
 Alpha  occ. eigenvalues --   -0.58922  -0.56599  -0.54291  -0.53187  -0.47289
 Alpha  occ. eigenvalues --   -0.44045  -0.40069
 Alpha virt. eigenvalues --    0.02198   0.03638   0.04195   0.04997   0.06607
 Alpha virt. eigenvalues --    0.06879   0.07915   0.09176   0.09664   0.11073
 Alpha virt. eigenvalues --    0.11703   0.13058   0.13919   0.14132   0.14717

 Mulliken charges:
               1
     1  C    0.214578
     2  C    0.594403
     3  C    0.352516
     4  N   -0.326862
     5  C    0.490480
     6  O   -0.526890
     7  O   -0.430930
     8  H   -0.119378
     9  H    0.086644
    10  H    0.055641
    11  H   -0.132527
    12  H   -0.045400
    13  H   -0.127165
    14  H   -0.085109
 Sum of Mulliken charges =  -0.00000

 Dipole moment (field-independent basis, Debye):
    X=              3.8977    Y=             -0.3197    Z=              4.8931  Tot=              6.2639

 Test job not archived.
 1\1\GINC-SE250\SP\RHF\Aug-CC-pVDZ\C4H7N1O2\OHZDE\09-Apr-2025\0\\#t hf
 aug-cc-pvdz iop(5/13=1,5/36=2,99/5=2) pseudo=read geom=check guess=(re
 ad,tcheck) scf=(maxcycle=1)\\title\\0,1\C,0,-0.72002892,-1.20347193,1.
 04615247\C,0,0.04274947,0.47522675,-1.87912079\C,0,-0.00826561,1.15157
 846,-0.52209587\N,0,0.84958627,0.59831149,0.48100791\C,0,0.64748602,-0
 .5741458,1.16374368\O,0,1.52725796,-1.04770501,1.84724679\O,0,0.679177
 45,-0.50753441,-2.12436255\H,0,-0.74019781,-2.0862848,1.67842238\H,0,-
 0.92251059,-1.49837084,0.01497979\H,0,-1.50232136,-0.51276473,1.367624

 Normal termination of Gaussian 16 at Wed Apr  9 03:51:39 2025.
