 Gaussian 16, Revision C.01,

 ----------------------------------------------------------------------
 #t hf aug-cc-pvdz symm=none int=(grid=ultrafine) guess=(read,tcheck) s
 table=(opt,rrhf)
 ----------------------------------------------------------------------
 -----
 title
 -----
 Symbolic Z-matrix:
 Charge =  0 Multiplicity = 1

 SCF Done:  E(RHF) =  -320.684359772     A.U. after   15 cycles
 Normal termination of Gaussian 16 at Wed Apr  9 14:19:07 2025.
 Gaussian 16:  ES64L-G16RevC.01  3-Jul-2019

 ----------------------------------------------------------------------
 #t hf aug-cc-pvdz iop(5/13=1,5/36=2,99/5=2) pseudo=read geom=check gue
 ss=(read,tcheck) scf=(maxcycle=1)
 ----------------------------------------------------------------------
 -----
 title
 -----
 Structure from the checkpoint file:  "Grambow2020_b97d3_007146_reverse_mol2.chk"
 Charge =  0 Multiplicity = 1

                         Standard orientation:
 ---------------------------------------------------------------------
 Center     Atomic      Atomic             Coordinates (Angstroms)
 Number     Number       Type             X           Y           Z
 ---------------------------------------------------------------------
      1          8           0        2.832891   -0.898421   -0.017909
      2          6           0        1.711165   -1.075049    0.130046
      3          7           0       -1.638524   -0.473548    0.323458
      4          6           0       -2.541395   -1.194470   -0.216100
      5          6           0       -0.405990    1.879248    0.221938
      6          8           0        0.582801    1.586228   -0.426113
      7          1           0       -0.717117   -0.933084    0.304737
      8          1           0       -2.386600   -2.201588   -0.638442
      9          1           0       -3.564992   -0.802437   -0.274619
     10          1           0       -0.450431    1.782783    1.329016
     11          1           0       -1.319404    2.308337   -0.248023
 ---------------------------------------------------------------------

 SCF Done:  E(RHF) =  -320.786487396     A.U. after    2 cycles

 The electronic state is 1-A.
 Alpha  occ. eigenvalues --  -20.67210 -20.57104 -15.63885 -11.37327 -11.34591
 Alpha  occ. eigenvalues --  -11.30922  -1.46673  -1.34659  -1.18369  -0.85743
 Alpha  occ. eigenvalues --   -0.84215  -0.80484  -0.69256  -0.67981  -0.65158
 Alpha  occ. eigenvalues --   -0.63859  -0.63547  -0.61544  -0.55577  -0.53340
 Alpha  occ. eigenvalues --   -0.45526  -0.43765  -0.43215
 Alpha virt. eigenvalues --    0.03186   0.03989   0.04898   0.05762   0.07146
 Alpha virt. eigenvalues --    0.08195   0.09091   0.09557   0.10650   0.11019
 Alpha virt. eigenvalues --    0.12210   0.13866   0.15448   0.15531   0.16199

 Mulliken charges:
               1
     1  O   -0.278627
     2  C    0.252545
     3  N   -0.171532
     4  C    0.537318
     5  C    0.655944
     6  O   -0.435565
     7  H    0.047299
     8  H   -0.155232
     9  H   -0.247290
    10  H   -0.083362
    11  H   -0.121497
 Sum of Mulliken charges =  -0.00000

 Dipole moment (field-independent basis, Debye):
    X=             -3.5009    Y=             -1.4138    Z=              0.7820  Tot=              3.8557

 Test job not archived.
 1\1\GINC-SE229\SP\RHF\Aug-CC-pVDZ\C3H5N1O2\OHZDE\09-Apr-2025\0\\#t hf
 aug-cc-pvdz iop(5/13=1,5/36=2,99/5=2) pseudo=read geom=check guess=(re
 ad,tcheck) scf=(maxcycle=1)\\title\\0,1\O,0,3.56358198,0.37610659,-0.7
 4928724\C,0,2.63718288,-0.11416259,-0.28800825\N,0,-0.61054246,-0.6489
 3371,0.59851779\C,0,-1.22489939,-1.76025568,0.48208562\C,0,-0.43424914
 ,1.83056434,-0.34281512\O,0,0.48313456,1.70492791,-1.13411841\H,0,0.40
 375678,-0.75313975,0.45410884\H,0,-0.74966404,-2.73393233,0.27538571\H
 ,0,-2.31666081,-1.77422795,0.59489271\H,0,-0.2739445,2.06817637,0.7317

 Normal termination of Gaussian 16 at Wed Apr  9 14:19:11 2025.
