 Gaussian 16, Revision C.01,

 ----------------------------------------------------------------------
 #t hf aug-cc-pvdz symm=none int=(grid=ultrafine) guess=(read,tcheck) s
 table=(opt,rrhf)
 ----------------------------------------------------------------------
 -----
 title
 -----
 Symbolic Z-matrix:
 Charge =  0 Multiplicity = 1

 SCF Done:  E(RHF) =  -283.538902609     A.U. after   15 cycles
 Normal termination of Gaussian 16 at Wed Apr  9 03:09:44 2025.
 Gaussian 16:  ES64L-G16RevC.01  3-Jul-2019

 ----------------------------------------------------------------------
 #t hf aug-cc-pvdz iop(5/13=1,5/36=2,99/5=2) pseudo=read geom=check gue
 ss=(read,tcheck) scf=(maxcycle=1)
 ----------------------------------------------------------------------
 -----
 title
 -----
 Structure from the checkpoint file:  "Grambow2020_b97d3_006729_forward_mol1.chk"
 Charge =  0 Multiplicity = 1

                         Standard orientation:
 ---------------------------------------------------------------------
 Center     Atomic      Atomic             Coordinates (Angstroms)
 Number     Number       Type             X           Y           Z
 ---------------------------------------------------------------------
      1          6           0       -1.399806   -0.059450    0.613573
      2          6           0       -0.642682    0.714417   -0.416306
      3          8           0        0.662672    1.159424    0.014041
      4          6           0        1.470147    0.068606    0.183186
      5          7           0        0.824913   -1.088635   -0.100159
      6          6           0       -0.570263   -0.798581   -0.419379
      7          1           0       -1.053981   -0.020027    1.646936
      8          1           0       -2.479341   -0.135305    0.487928
      9          1           0       -1.086530    1.344650   -1.181212
     10          1           0        1.445541   -0.939990    1.013876
     11          1           0       -1.045820   -1.454224   -1.145187
 ---------------------------------------------------------------------

 SCF Done:  E(RHF) =  -283.623253772     A.U. after    2 cycles

 The electronic state is 1-A.
 Alpha  occ. eigenvalues --  -20.62284 -15.67920 -11.33248 -11.32361 -11.30110
 Alpha  occ. eigenvalues --  -11.27134  -1.40655  -1.21921  -1.13771  -0.88867
 Alpha  occ. eigenvalues --   -0.86201  -0.78177  -0.73702  -0.68299  -0.63161
 Alpha  occ. eigenvalues --   -0.60559  -0.58123  -0.54221  -0.50718  -0.44295
 Alpha  occ. eigenvalues --   -0.41904  -0.38313
 Alpha virt. eigenvalues --    0.02837   0.04032   0.04566   0.05079   0.07015
 Alpha virt. eigenvalues --    0.09232   0.09898   0.10285   0.10917   0.11811
 Alpha virt. eigenvalues --    0.13539   0.13817   0.14956   0.15295   0.15510

 Mulliken charges:
               1
     1  C    0.619184
     2  C    0.857296
     3  O   -0.622200
     4  C   -0.006684
     5  N   -0.704126
     6  C    0.703286
     7  H   -0.299248
     8  H   -0.273322
     9  H   -0.333246
    10  H    0.349297
    11  H   -0.290238
 Sum of Mulliken charges =  -0.00000

 Dipole moment (field-independent basis, Debye):
    X=             -3.7579    Y=             -0.9298    Z=             -0.0020  Tot=              3.8712

 Test job not archived.
 1\1\GINC-SE165\SP\RHF\Aug-CC-pVDZ\C4H5N1O1\OHZDE\09-Apr-2025\0\\#t hf
 aug-cc-pvdz iop(5/13=1,5/36=2,99/5=2) pseudo=read geom=check guess=(re
 ad,tcheck) scf=(maxcycle=1)\\title\\0,1\C,0,-1.10293829,0.43326569,-0.
 0244724\C,0,-0.29020995,-0.59824005,-0.73737077\O,0,0.93020975,-0.0939
 5339,-1.32341733\C,0,1.78264154,0.27962779,-0.32126639\N,0,1.24671676,
 0.06866387,0.90515049\C,0,-0.12161999,-0.41954329,0.75730685\H,0,-0.87
 357914,1.48450998,-0.20129931\H,0,-2.1556348,0.21007979,0.14568698\H,0
 ,-0.6883913,-1.47119045,-1.24598289\H,0,1.7330765,1.21446994,0.5906169

 Normal termination of Gaussian 16 at Wed Apr  9 03:09:49 2025.
