 Gaussian 16, Revision C.01,

 ----------------------------------------------------------------------
 #t hf aug-cc-pvdz symm=none int=(grid=ultrafine) guess=(read,tcheck) s
 table=(opt,rrhf)
 ----------------------------------------------------------------------
 -----
 title
 -----
 Symbolic Z-matrix:
 Charge =  0 Multiplicity = 1

 SCF Done:  E(RHF) =  -268.766531129     A.U. after   15 cycles
 Normal termination of Gaussian 16 at Wed Apr  9 03:16:35 2025.
 Gaussian 16:  ES64L-G16RevC.01  3-Jul-2019

 ----------------------------------------------------------------------
 #t hf aug-cc-pvdz iop(5/13=1,5/36=2,99/5=2) pseudo=read geom=check gue
 ss=(read,tcheck) scf=(maxcycle=1)
 ----------------------------------------------------------------------
 -----
 title
 -----
 Structure from the checkpoint file:  "Grambow2020_b97d3_007078_reverse_mol2.chk"
 Charge =  0 Multiplicity = 1

                         Standard orientation:
 ---------------------------------------------------------------------
 Center     Atomic      Atomic             Coordinates (Angstroms)
 Number     Number       Type             X           Y           Z
 ---------------------------------------------------------------------
      1          6           0        2.182231   -0.079342    0.141219
      2          6           0        0.718926   -0.087912   -0.301407
      3          6           0       -0.099358   -1.308349   -0.074943
      4          6           0       -1.431319   -0.730586    0.139740
      5          8           0       -1.490437    0.692030   -0.094999
      6          6           0       -0.146892    1.141671    0.080881
      7          1           0        2.715701    0.791202   -0.265140
      8          1           0        2.689451   -0.994344   -0.187149
      9          1           0        2.239521   -0.031479    1.237487
     10          1           0        0.674341   -0.177437   -1.420381
     11          1           0       -1.510752   -0.958695    1.240407
     12          1           0       -2.289950   -1.218930   -0.339269
     13          1           0        0.051601    1.419066    1.135498
     14          1           0        0.012060    2.021482   -0.554404
 ---------------------------------------------------------------------

 SCF Done:  E(RHF) =  -268.846863804     A.U. after    2 cycles

 The electronic state is 1-A.
 Alpha  occ. eigenvalues --  -20.57995 -11.29989 -11.29653 -11.27511 -11.26071
 Alpha  occ. eigenvalues --  -11.24306  -1.34491  -1.08804  -1.00941  -0.93345
 Alpha  occ. eigenvalues --   -0.83072  -0.73758  -0.68956  -0.66043  -0.62070
 Alpha  occ. eigenvalues --   -0.58565  -0.57356  -0.55884  -0.52619  -0.49258
 Alpha  occ. eigenvalues --   -0.47737  -0.44087  -0.37412
 Alpha virt. eigenvalues --    0.03322   0.04443   0.04550   0.05109   0.06417
 Alpha virt. eigenvalues --    0.06923   0.07040   0.07278   0.08689   0.09699
 Alpha virt. eigenvalues --    0.12294   0.13325   0.13953   0.14592   0.15408

 Mulliken charges:
               1
     1  C    0.587272
     2  C   -0.749135
     3  C   -0.814888
     4  C    0.810625
     5  O   -0.713402
     6  C    1.029945
     7  H    0.009687
     8  H   -0.038518
     9  H    0.018872
    10  H    0.169785
    11  H    0.111859
    12  H   -0.160134
    13  H   -0.111893
    14  H   -0.150076
 Sum of Mulliken charges =  -0.00000

 Dipole moment (field-independent basis, Debye):
    X=              1.1942    Y=              1.0419    Z=              0.2316  Tot=              1.6017

 Test job not archived.
 1\1\GINC-SE165\SP\RHF\Aug-CC-pVDZ\C5H8O1\OHZDE\09-Apr-2025\0\\#t hf au
 g-cc-pvdz iop(5/13=1,5/36=2,99/5=2) pseudo=read geom=check guess=(read
 ,tcheck) scf=(maxcycle=1)\\title\\0,1\C,0,-1.75832453,0.52295017,-0.42
 149962\C,0,-0.29724998,0.07435712,-0.4572799\C,0,0.77726631,1.09709238
 ,-0.358452\C,0,1.82981669,0.34776159,0.33772339\O,0,1.52618417,-1.0522
 9073,0.51119909\C,0,0.10168234,-1.12201165,0.4467185\H,0,-2.43309478,-
 0.29620544,-0.70651339\H,0,-1.91810497,1.3696907,-1.09960481\H,0,-2.02
 4557,0.84423011,0.59500209\H,0,-0.02710002,-0.21309617,-1.50918119\H,0

 Normal termination of Gaussian 16 at Wed Apr  9 03:16:39 2025.
