 Gaussian 16, Revision C.01,

 ----------------------------------------------------------------------
 #t hf aug-cc-pvdz symm=none int=(grid=ultrafine) guess=(read,tcheck) s
 table=(opt,rrhf)
 ----------------------------------------------------------------------
 -----
 title
 -----
 Symbolic Z-matrix:
 Charge =  0 Multiplicity = 1

 SCF Done:  E(RHF) =  -343.474557645     A.U. after   15 cycles
 Normal termination of Gaussian 16 at Wed Apr  9 16:36:11 2025.
 Gaussian 16:  ES64L-G16RevC.01  3-Jul-2019

 ----------------------------------------------------------------------
 #t hf aug-cc-pvdz iop(5/13=1,5/36=2,99/5=2) pseudo=read geom=check gue
 ss=(read,tcheck) scf=(maxcycle=1)
 ----------------------------------------------------------------------
 -----
 title
 -----
 Structure from the checkpoint file:  "Grambow2020_wb97xd3_008656_reverse_mol1.chk"
 Charge =  0 Multiplicity = 1

                         Standard orientation:
 ---------------------------------------------------------------------
 Center     Atomic      Atomic             Coordinates (Angstroms)
 Number     Number       Type             X           Y           Z
 ---------------------------------------------------------------------
      1          6           0       -2.401960    0.135541   -0.693655
      2          6           0       -1.189161    0.596145    0.043355
      3          8           0       -0.818947   -0.446780    1.263397
      4          6           0       -0.076419   -0.314716    0.250404
      5          6           0        1.470472    1.022935    0.270936
      6          8           0        1.892456    0.038035   -0.683841
      7          6           0        1.100425   -1.054477   -0.307768
      8          1           0       -2.358254    0.583293   -1.690538
      9          1           0       -2.468012   -0.951314   -0.804310
     10          1           0       -3.310951    0.501693   -0.216197
     11          1           0        0.042076    1.284306    0.243648
     12          1           0        1.711400    2.016561   -0.116725
     13          1           0        1.959593    0.877683    1.240784
     14          1           0        1.562328   -1.659230    0.485531
     15          1           0        0.853610   -1.695606   -1.158278
 ---------------------------------------------------------------------

 SCF Done:  E(RHF) =  -343.582042259     A.U. after    2 cycles

 The electronic state is 1-A.
 Alpha  occ. eigenvalues --  -20.62469 -20.59179 -11.38855 -11.33057 -11.28986
 Alpha  occ. eigenvalues --  -11.27514 -11.24546  -1.43600  -1.36571  -1.02881
 Alpha  occ. eigenvalues --   -1.00601  -0.95104  -0.87278  -0.76185  -0.71883
 Alpha  occ. eigenvalues --   -0.70435  -0.67909  -0.63497  -0.60941  -0.58891
 Alpha  occ. eigenvalues --   -0.57055  -0.56007  -0.54039  -0.50173  -0.47364
 Alpha  occ. eigenvalues --   -0.41010  -0.33239
 Alpha virt. eigenvalues --    0.03226   0.04314   0.04674   0.05063   0.06394
 Alpha virt. eigenvalues --    0.06630   0.07112   0.07211   0.10312   0.10367
 Alpha virt. eigenvalues --    0.11556   0.12157   0.13166   0.13605   0.14251

 Mulliken charges:
               1
     1  C    0.412974
     2  C   -0.563739
     3  O   -0.613391
     4  C   -0.043176
     5  C    0.483254
     6  O   -0.669952
     7  C    0.910603
     8  H    0.084692
     9  H   -0.035988
    10  H   -0.015264
    11  H    0.577288
    12  H   -0.312513
    13  H   -0.153667
    14  H   -0.018569
    15  H   -0.042551
 Sum of Mulliken charges =   0.00000

 Dipole moment (field-independent basis, Debye):
    X=             -0.3701    Y=             -1.1715    Z=             -1.3075  Tot=              1.7942

 Test job not archived.
 1\1\GINC-SE141\SP\RHF\Aug-CC-pVDZ\C5H8O2\OHZDE\09-Apr-2025\0\\#t hf au
 g-cc-pvdz iop(5/13=1,5/36=2,99/5=2) pseudo=read geom=check guess=(read
 ,tcheck) scf=(maxcycle=1)\\title\\0,1\C,0,2.21533425,-0.28531796,0.670
 31884\C,0,1.00998094,0.52788302,0.33558178\O,0,0.78337932,0.58802074,-
 1.29484448\C,0,-0.01775002,-0.02134941,-0.53208426\C,0,-1.65945327,0.9
 3833963,0.22051944\O,0,-2.05291032,-0.4418169,0.21292917\C,0,-1.161419
 71,-0.96807983,-0.73079587\H,0,2.0867143,-0.63777373,1.69764493\H,0,2.
 35867948,-1.15456257,0.02091278\H,0,3.11677684,0.32731999,0.65096581\H

 Normal termination of Gaussian 16 at Wed Apr  9 16:36:16 2025.
