 Gaussian 16, Revision C.01,

 ----------------------------------------------------------------------
 #t hf aug-cc-pvdz symm=none int=(grid=ultrafine) guess=(read,tcheck) s
 table=(opt,rrhf)
 ----------------------------------------------------------------------
 -----
 title
 -----
 Symbolic Z-matrix:
 Charge =  0 Multiplicity = 1

 SCF Done:  E(RHF) =  -306.985379889     A.U. after   13 cycles

 1\1\GINC-SE162\Stability\RHF\Aug-CC-pVDZ\C4H10O2\OHZDE\09-Apr-2025\0\\
 #t hf aug-cc-pvdz symm=none int=(grid=ultrafine) guess=(read,tcheck) s
 table=(opt,rrhf)\\title\\0,1\C,0,-1.27479078,-1.14627702,0.69395483\C,
 0,-0.11322663,-0.49890553,0.51166953\C,0,0.98931885,-1.08501275,-0.335
 97758\O,0,1.39113185,-0.1108127,-1.32705421\C,0,0.18361952,0.8514666,1
 .13312363\O,0,0.22055635,1.90074702,0.16505755\H,0,-2.27078531,1.59568
 813,-1.89790131\H,0,-1.48388175,-2.10296163,0.2111588\H,0,-2.05709124,
 -0.73944061,1.33602789\H,0,-1.71525232,1.62958024,-1.39896887\H,0,0.65

 Normal termination of Gaussian 16 at Wed Apr  9 14:18:22 2025.
 Gaussian 16:  ES64L-G16RevC.01  3-Jul-2019

 ----------------------------------------------------------------------
 #t hf aug-cc-pvdz iop(5/13=1,5/36=2,99/5=2) pseudo=read geom=check gue
 ss=(read,tcheck) scf=(maxcycle=1)
 ----------------------------------------------------------------------
 -----
 title
 -----
 Structure from the checkpoint file:  "Grambow2020_b97d3_007111_reverse_mol2.chk"
 Charge =  0 Multiplicity = 1

                         Standard orientation:
 ---------------------------------------------------------------------
 Center     Atomic      Atomic             Coordinates (Angstroms)
 Number     Number       Type             X           Y           Z
 ---------------------------------------------------------------------
      1          6           0       -0.691305    1.873282    0.308641
      2          6           0       -0.169200    0.753507   -0.215819
      3          6           0        1.321437    0.519480   -0.245251
      4          8           0        1.608963   -0.766946    0.350727
      5          6           0       -1.019052   -0.350082   -0.813877
      6          8           0       -1.023328   -1.530836   -0.010568
      7          1           0       -1.387337   -0.741973    3.120061
      8          1           0       -0.065462    2.642581    0.765320
      9          1           0       -1.766169    2.058474    0.296806
     10          1           0       -1.309253   -0.877907    2.389223
     11          1           0        1.853327    1.323293    0.290324
     12          1           0        1.659972    0.525345   -1.298029
     13          1           0        2.474502   -1.063750    0.016997
     14          1           0       -2.062690   -0.021305   -0.900201
     15          1           0       -0.651095   -0.571006   -1.837215
     16          1           0       -0.082154   -1.668617    0.233270
 ---------------------------------------------------------------------

 SCF Done:  E(RHF) =  -307.085360207     A.U. after    2 cycles

 The electronic state is 1-A.
 Alpha  occ. eigenvalues --  -20.60020 -20.55519 -11.31234 -11.28954 -11.25724
 Alpha  occ. eigenvalues --  -11.24750  -1.34222  -1.30106  -1.07974  -0.93230
 Alpha  occ. eigenvalues --   -0.91453  -0.76739  -0.72299  -0.68826  -0.65457
 Alpha  occ. eigenvalues --   -0.63652  -0.60341  -0.58958  -0.56933  -0.55760
 Alpha  occ. eigenvalues --   -0.55352  -0.50574  -0.46717  -0.44708  -0.37510
 Alpha virt. eigenvalues --    0.02740   0.04095   0.04642   0.05390   0.06256
 Alpha virt. eigenvalues --    0.06471   0.07218   0.08460   0.08961   0.10856
 Alpha virt. eigenvalues --    0.11197   0.12774   0.12927   0.14010   0.14594

 Mulliken charges:
               1
     1  C    1.123763
     2  C   -0.519601
     3  C    0.734951
     4  O   -0.639475
     5  C    0.705564
     6  O   -0.568039
     7  H    0.020511
     8  H   -0.374567
     9  H   -0.369387
    10  H   -0.015348
    11  H   -0.215970
    12  H   -0.025971
    13  H    0.189334
    14  H   -0.221875
    15  H   -0.055206
    16  H    0.231317
 Sum of Mulliken charges =  -0.00000

 Dipole moment (field-independent basis, Debye):
    X=              2.9679    Y=              2.1156    Z=             -1.7628  Tot=              4.0487

 Test job not archived.
 1\1\GINC-SE162\SP\RHF\Aug-CC-pVDZ\C4H10O2\OHZDE\09-Apr-2025\0\\#t hf a
 ug-cc-pvdz iop(5/13=1,5/36=2,99/5=2) pseudo=read geom=check guess=(rea
 d,tcheck) scf=(maxcycle=1)\\title\\0,1\C,0,-1.27479078,-1.14627702,0.6
 9395483\C,0,-0.11322663,-0.49890553,0.51166953\C,0,0.98931885,-1.08501
 275,-0.33597758\O,0,1.39113185,-0.1108127,-1.32705421\C,0,0.18361952,0
 .8514666,1.13312363\O,0,0.22055635,1.90074702,0.16505755\H,0,-2.270785
 31,1.59568813,-1.89790131\H,0,-1.48388175,-2.10296163,0.2111588\H,0,-2
 .05709124,-0.73944061,1.33602789\H,0,-1.71525232,1.62958024,-1.3989688

 Normal termination of Gaussian 16 at Wed Apr  9 14:18:27 2025.
