 Gaussian 16, Revision C.01,

 ----------------------------------------------------------------------
 #t hf aug-cc-pvdz symm=none int=(grid=ultrafine) guess=(read,tcheck) s
 table=(opt,rrhf)
 ----------------------------------------------------------------------
 -----
 title
 -----
 Symbolic Z-matrix:
 Charge =  0 Multiplicity = 1

 SCF Done:  E(RHF) =  -305.675511260     A.U. after   14 cycles
 Normal termination of Gaussian 16 at Wed Apr  9 03:04:36 2025.
 Gaussian 16:  ES64L-G16RevC.01  3-Jul-2019

 ----------------------------------------------------------------------
 #t hf aug-cc-pvdz iop(5/13=1,5/36=2,99/5=2) pseudo=read geom=check gue
 ss=(read,tcheck) scf=(maxcycle=1)
 ----------------------------------------------------------------------
 -----
 title
 -----
 Structure from the checkpoint file:  "Grambow2020_b97d3_006522_forward_mol1.chk"
 Charge =  0 Multiplicity = 1

                         Standard orientation:
 ---------------------------------------------------------------------
 Center     Atomic      Atomic             Coordinates (Angstroms)
 Number     Number       Type             X           Y           Z
 ---------------------------------------------------------------------
      1          8           0        1.954536    0.402355   -0.624868
      2          6           0        1.484335   -0.388316    0.444676
      3          6           0       -0.014281   -0.287130    0.634010
      4          6           0       -0.724184    0.999116    0.286544
      5          6           0       -1.922585    0.159305   -0.075871
      6          8           0       -0.865632   -0.853597   -0.611776
      7          1           0        1.279334    1.119121   -0.713454
      8          1           0        1.781146   -1.433390    0.268748
      9          1           0        1.921553   -0.080896    1.419132
     10          1           0       -0.384969   -0.924700    1.457337
     11          1           0       -0.760259    1.858044    0.965449
     12          1           0       -0.429965    0.122666   -1.081561
     13          1           0       -2.613417    0.464181   -0.870883
     14          1           0       -2.444358   -0.412944    0.712227
 ---------------------------------------------------------------------

 SCF Done:  E(RHF) =  -305.767685352     A.U. after    2 cycles

 The electronic state is 1-A.
 Alpha  occ. eigenvalues --  -20.64831 -20.57022 -11.33194 -11.32298 -11.30157
 Alpha  occ. eigenvalues --  -11.21013  -1.38499  -1.32030  -1.03519  -0.98667
 Alpha  occ. eigenvalues --   -0.87913  -0.80150  -0.72558  -0.70030  -0.66016
 Alpha  occ. eigenvalues --   -0.63781  -0.61341  -0.58755  -0.56116  -0.53617
 Alpha  occ. eigenvalues --   -0.50394  -0.48339  -0.46220  -0.31863
 Alpha virt. eigenvalues --    0.03183   0.04073   0.04735   0.05058   0.06495
 Alpha virt. eigenvalues --    0.06994   0.07249   0.08576   0.10193   0.12310
 Alpha virt. eigenvalues --    0.12811   0.13403   0.13872   0.14709   0.15210

 Mulliken charges:
               1
     1  O   -0.568899
     2  C    0.756606
     3  C    0.354503
     4  C   -0.125904
     5  C    0.845095
     6  O   -0.886821
     7  H    0.243382
     8  H   -0.020045
     9  H    0.021015
    10  H   -0.424081
    11  H   -0.356662
    12  H    0.561604
    13  H   -0.197577
    14  H   -0.202216
 Sum of Mulliken charges =  -0.00000

 Dipole moment (field-independent basis, Debye):
    X=             -2.1416    Y=             -0.3721    Z=              2.1737  Tot=              3.0741

 Test job not archived.
 1\1\GINC-SE015\SP\RHF\Aug-CC-pVDZ\C4H8O2\OHZDE\09-Apr-2025\0\\#t hf au
 g-cc-pvdz iop(5/13=1,5/36=2,99/5=2) pseudo=read geom=check guess=(read
 ,tcheck) scf=(maxcycle=1)\\title\\0,1\O,0,-2.11684955,0.17989396,-0.72
 48138\C,0,-1.52940724,-0.7013331,0.20713331\C,0,-0.0410162,-0.47669844
 ,0.36889902\C,0,0.76943884,0.02038598,-0.80378739\C,0,1.65935105,0.716
 27915,0.19450217\O,0,0.33507099,0.96742463,0.97777758\H,0,-1.37244598,
 0.43221437,-1.32456241\H,0,-2.04380409,-0.58807519,1.17346396\H,0,-1.6
 3105452,-1.76522829,-0.09786847\H,0,0.41430399,-1.15198145,1.11619367\

 Normal termination of Gaussian 16 at Wed Apr  9 03:05:08 2025.
