 Gaussian 16, Revision C.01,

 ----------------------------------------------------------------------
 #t hf aug-cc-pvdz symm=none int=(grid=ultrafine) guess=(read,tcheck) s
 table=(opt,rrhf)
 ----------------------------------------------------------------------
 -----
 title
 -----
 Symbolic Z-matrix:
 Charge =  0 Multiplicity = 1

 SCF Done:  E(RHF) =  -324.976370864     A.U. after   14 cycles
 Normal termination of Gaussian 16 at Wed Apr  9 16:21:13 2025.
 Gaussian 16:  ES64L-G16RevC.01  3-Jul-2019

 ----------------------------------------------------------------------
 #t hf aug-cc-pvdz iop(5/13=1,5/36=2,99/5=2) pseudo=read geom=check gue
 ss=(read,tcheck) scf=(maxcycle=1)
 ----------------------------------------------------------------------
 -----
 title
 -----
 Structure from the checkpoint file:  "Grambow2020_wb97xd3_008115_reverse_mol1.chk"
 Charge =  0 Multiplicity = 1

                         Standard orientation:
 ---------------------------------------------------------------------
 Center     Atomic      Atomic             Coordinates (Angstroms)
 Number     Number       Type             X           Y           Z
 ---------------------------------------------------------------------
      1          6           0        2.927449    0.085818    0.111969
      2          7           0        1.635114    0.649605   -0.250125
      3          6           0        0.478215    0.017526   -0.154347
      4          8           0        0.539878   -1.173413    0.296033
      5          6           0       -1.692001    0.140768   -0.464478
      6          6           0       -2.035760   -1.135628   -0.065121
      7          6           0       -2.013757    1.349991    0.368266
      8          1           0        2.955052   -0.161733    1.173866
      9          1           0        3.708147    0.812732   -0.105558
     10          1           0        3.118108   -0.824657   -0.456884
     11          1           0        1.608479    1.589712   -0.598702
     12          1           0       -1.581785    0.335718   -1.525556
     13          1           0       -2.217342   -1.903045   -0.809156
     14          1           0       -2.494924   -1.282954    0.907791
     15          1           0       -0.509271   -1.453218    0.267353
     16          1           0       -3.055834    1.639222    0.200442
     17          1           0       -1.899103    1.135087    1.432034
     18          1           0       -1.381226    2.202353    0.119241
 ---------------------------------------------------------------------

 SCF Done:  E(RHF) =  -325.081769950     A.U. after    2 cycles

 The electronic state is 1-A.
 Alpha  occ. eigenvalues --  -20.58136 -15.65414 -11.30325 -11.27342 -11.27297
 Alpha  occ. eigenvalues --  -11.22792 -11.17641  -1.37485  -1.20309  -1.04989
 Alpha  occ. eigenvalues --   -0.95703  -0.91974  -0.82576  -0.75577  -0.69364
 Alpha  occ. eigenvalues --   -0.67552  -0.63387  -0.63304  -0.62186  -0.57078
 Alpha  occ. eigenvalues --   -0.56366  -0.55708  -0.55659  -0.51452  -0.48311
 Alpha  occ. eigenvalues --   -0.41397  -0.38298  -0.30584
 Alpha virt. eigenvalues --    0.02854   0.04009   0.04580   0.04739   0.06101
 Alpha virt. eigenvalues --    0.06327   0.06911   0.07171   0.07961   0.08829
 Alpha virt. eigenvalues --    0.09399   0.11865   0.12463   0.13674   0.14282

 Mulliken charges:
               1
     1  C    0.773497
     2  N   -0.267462
     3  C    0.171500
     4  O   -0.640519
     5  C    0.137836
     6  C    0.445886
     7  C    0.486484
     8  H   -0.094241
     9  H   -0.215587
    10  H   -0.096516
    11  H   -0.110329
    12  H   -0.327546
    13  H   -0.262844
    14  H   -0.281867
    15  H    0.481128
    16  H   -0.000655
    17  H   -0.073786
    18  H   -0.124979
 Sum of Mulliken charges =  -0.00000

 Dipole moment (field-independent basis, Debye):
    X=              1.9248    Y=              2.6855    Z=             -0.6530  Tot=              3.3680

 Test job not archived.
 1\1\GINC-SE454\SP\RHF\Aug-CC-pVDZ\C5H11N1O1\OHZDE\09-Apr-2025\0\\#t hf
  aug-cc-pvdz iop(5/13=1,5/36=2,99/5=2) pseudo=read geom=check guess=(r
 ead,tcheck) scf=(maxcycle=1)\\title\\0,1\C,0,3.01444009,0.51982406,0.1
 974374\N,0,1.69695435,0.67292894,-0.40246784\C,0,0.6309562,-0.04070275
 ,-0.08389201\O,0,0.80967077,-0.91782885,0.82368213\C,0,-1.49876022,-0.
 40242509,-0.47717723\C,0,-1.70404668,-1.44183,0.40845217\C,0,-2.053877
 88,0.9730336,-0.2339366\H,0,2.97766429,0.73480553,1.26612777\H,0,3.707
 66205,1.20907327,-0.28172066\H,0,3.37617188,-0.5003244,0.06569201\H,0,

 Normal termination of Gaussian 16 at Wed Apr  9 16:21:20 2025.
