 Gaussian 16, Revision C.01,

 ----------------------------------------------------------------------
 #t hf aug-cc-pvdz symm=none int=(grid=ultrafine) guess=(read,tcheck) s
 table=(opt,rrhf)
 ----------------------------------------------------------------------
 -----
 title
 -----
 Symbolic Z-matrix:
 Charge =  0 Multiplicity = 1

 SCF Done:  E(RHF) =  -306.575583639     A.U. after   15 cycles
 Normal termination of Gaussian 16 at Wed Apr  9 16:23:08 2025.
 Gaussian 16:  ES64L-G16RevC.01  3-Jul-2019

 ----------------------------------------------------------------------
 #t hf aug-cc-pvdz iop(5/13=1,5/36=2,99/5=2) pseudo=read geom=check gue
 ss=(read,tcheck) scf=(maxcycle=1)
 ----------------------------------------------------------------------
 -----
 title
 -----
 Structure from the checkpoint file:  "Grambow2020_wb97xd3_008166_reverse_mol2.chk"
 Charge =  0 Multiplicity = 1

                         Standard orientation:
 ---------------------------------------------------------------------
 Center     Atomic      Atomic             Coordinates (Angstroms)
 Number     Number       Type             X           Y           Z
 ---------------------------------------------------------------------
      1          8           0        2.216928   -0.281145    0.000994
      2          6           0        0.884169   -0.102735   -0.355269
      3          6           0        0.350844    1.316460   -0.176410
      4          6           0       -0.894535    0.764003    0.518947
      5          6           0       -1.808340   -0.052767   -0.418777
      6          6           0       -1.047543   -1.350968   -0.208990
      7          6           0       -0.194208   -0.608110    0.734436
      8          1           0        2.506175   -1.150172   -0.284343
      9          1           0        0.233430    1.931953   -1.069609
     10          1           0        0.989265    1.832540    0.541678
     11          1           0       -1.359008    1.365203    1.298214
     12          1           0       -2.753419   -0.284559    0.094658
     13          1           0       -2.061672    0.283118   -1.427425
     14          1           0        0.686137   -0.515575   -1.350742
     15          1           0        0.281360   -1.008644    1.625982
 ---------------------------------------------------------------------

 SCF Done:  E(RHF) =  -306.664478235     A.U. after    2 cycles

 The electronic state is 1-A.
 Alpha  occ. eigenvalues --  -20.59134 -11.31815 -11.26393 -11.24815 -11.24468
 Alpha  occ. eigenvalues --  -11.24299 -11.24048  -1.35085  -1.18701  -1.01554
 Alpha  occ. eigenvalues --   -0.93022  -0.86647  -0.78676  -0.74850  -0.70210
 Alpha  occ. eigenvalues --   -0.67942  -0.61355  -0.60358  -0.58640  -0.56252
 Alpha  occ. eigenvalues --   -0.51852  -0.49405  -0.47018  -0.45045  -0.41357
 Alpha  occ. eigenvalues --   -0.34356
 Alpha virt. eigenvalues --    0.03271   0.03969   0.04330   0.04981   0.06136
 Alpha virt. eigenvalues --    0.06804   0.07037   0.07362   0.08973   0.10221
 Alpha virt. eigenvalues --    0.11984   0.12340   0.13421   0.13959   0.14459

 Mulliken charges:
               1
     1  O   -0.547005
     2  C    0.552339
     3  C    0.530142
     4  C    0.354750
     5  C    0.408726
     6  C   -0.425250
     7  C    0.366505
     8  H    0.129179
     9  H   -0.169813
    10  H   -0.085267
    11  H   -0.367546
    12  H    0.004735
    13  H   -0.247587
    14  H   -0.220009
    15  H   -0.283898
 Sum of Mulliken charges =  -0.00000

 Dipole moment (field-independent basis, Debye):
    X=             -0.2544    Y=              1.4314    Z=              0.0578  Tot=              1.4550

 Test job not archived.
 1\1\GINC-SE100\SP\RHF\Aug-CC-pVDZ\C6H8O1\OHZDE\09-Apr-2025\0\\#t hf au
 g-cc-pvdz iop(5/13=1,5/36=2,99/5=2) pseudo=read geom=check guess=(read
 ,tcheck) scf=(maxcycle=1)\\title\\0,1\O,0,2.25109824,0.59209841,-0.594
 96635\C,0,1.02275673,0.42045591,0.03488778\C,0,0.6988472,-1.01495343,0
 .44136316\C,0,-0.69961298,-0.8733688,-0.16193077\C,0,-1.59553853,0.128
 43367,0.59648051\C,0,-1.08233976,1.335672,-0.16990735\C,0,-0.25791162,
 0.3944874,-0.94744159\H,0,2.43653882,1.52995192,-0.67454763\H,0,0.8002
 434,-1.28040066,1.49477667\H,0,1.30778534,-1.68659366,-0.16498982\H,0,

 Normal termination of Gaussian 16 at Wed Apr  9 16:23:14 2025.
