 Gaussian 16, Revision C.01,

 ----------------------------------------------------------------------
 #t hf aug-cc-pvdz symm=none int=(grid=ultrafine) guess=(read,tcheck) s
 table=(opt,rrhf)
 ----------------------------------------------------------------------
 -----
 title
 -----
 Symbolic Z-matrix:
 Charge =  0 Multiplicity = 1

 SCF Done:  E(RHF) =  -286.769564050     A.U. after   16 cycles
 Normal termination of Gaussian 16 at Wed Apr  9 15:36:10 2025.
 Gaussian 16:  ES64L-G16RevC.01  3-Jul-2019

 ----------------------------------------------------------------------
 #t hf aug-cc-pvdz iop(5/13=1,5/36=2,99/5=2) pseudo=read geom=check gue
 ss=(read,tcheck) scf=(maxcycle=1)
 ----------------------------------------------------------------------
 -----
 title
 -----
 Structure from the checkpoint file:  "Grambow2020_wb97xd3_007188_reverse_mol1.chk"
 Charge =  0 Multiplicity = 1

                         Standard orientation:
 ---------------------------------------------------------------------
 Center     Atomic      Atomic             Coordinates (Angstroms)
 Number     Number       Type             X           Y           Z
 ---------------------------------------------------------------------
      1          6           0       -2.446194   -0.706882    0.238630
      2          6           0       -1.816651    0.294118   -0.470807
      3          6           0       -0.905998    1.246135   -0.044569
      4          6           0        0.440360    1.111465    0.142000
      5          6           0        1.115531   -0.154528    0.025861
      6          6           0        2.622111   -0.115179    0.010962
      7          7           0        0.449774   -1.255809   -0.083998
      8          1           0       -1.306447   -1.110667   -0.011786
      9          1           0       -2.515534   -0.697482    1.329748
     10          1           0       -3.150030   -1.359824   -0.270730
     11          1           0       -1.345243    2.242067    0.012814
     12          1           0        1.035864    1.998744    0.307484
     13          1           0        3.049803   -1.116998    0.051127
     14          1           0        2.974502    0.380598   -0.896169
     15          1           0        2.994384    0.460326    0.860753
     16          1           0        1.059331   -2.056876   -0.207719
 ---------------------------------------------------------------------

 SCF Done:  E(RHF) =  -286.856183946     A.U. after    2 cycles

 The electronic state is 1-A.
 Alpha  occ. eigenvalues --  -15.59687 -11.29933 -11.27260 -11.26566 -11.25230
 Alpha  occ. eigenvalues --  -11.24119 -11.21628  -1.18623  -1.09945  -1.02203
 Alpha  occ. eigenvalues --   -0.97928  -0.88437  -0.77386  -0.69543  -0.67204
 Alpha  occ. eigenvalues --   -0.63039  -0.60354  -0.60217  -0.58800  -0.56011
 Alpha  occ. eigenvalues --   -0.53941  -0.52320  -0.46561  -0.39730  -0.38848
 Alpha  occ. eigenvalues --   -0.28291
 Alpha virt. eigenvalues --    0.03348   0.03842   0.04229   0.05169   0.05927
 Alpha virt. eigenvalues --    0.06391   0.06736   0.08122   0.09222   0.10085
 Alpha virt. eigenvalues --    0.10668   0.11539   0.12118   0.13539   0.13883

 Mulliken charges:
               1
     1  C    0.744996
     2  C   -0.714030
     3  C    0.573270
     4  C    0.654651
     5  C   -0.272142
     6  C    0.552366
     7  N   -0.419393
     8  H    0.142266
     9  H   -0.145862
    10  H   -0.078589
    11  H   -0.301697
    12  H   -0.561786
    13  H   -0.169963
    14  H    0.089398
    15  H    0.039507
    16  H   -0.132990
 Sum of Mulliken charges =  -0.00000

 Dipole moment (field-independent basis, Debye):
    X=              1.1238    Y=              0.0307    Z=              1.2954  Tot=              1.7152

 Test job not archived.
 1\1\GINC-SE220\SP\RHF\Aug-CC-pVDZ\C6H9N1\OHZDE\09-Apr-2025\0\\#t hf au
 g-cc-pvdz iop(5/13=1,5/36=2,99/5=2) pseudo=read geom=check guess=(read
 ,tcheck) scf=(maxcycle=1)\\title\\0,1\C,0,-2.66660955,-0.04408383,-0.0
 9686395\C,0,-1.76029871,0.87870523,-0.57507934\C,0,-0.70837087,1.50639
 274,0.07048889\C,0,0.54760954,1.0276207,0.31321701\C,0,0.93112124,-0.3
 2727088,0.01443744\C,0,2.40185942,-0.64520793,0.10046553\N,0,0.0509418
 4,-1.20669499,-0.33199901\H,0,-1.62642291,-0.66181909,-0.34422738\H,0,
 -2.84311258,-0.19285011,0.97185044\H,0,-3.44275588,-0.42108875,-0.7576

 Normal termination of Gaussian 16 at Wed Apr  9 15:36:16 2025.
