 Gaussian 16, Revision C.01,

 ----------------------------------------------------------------------
 #t hf aug-cc-pvdz symm=none int=(grid=ultrafine) guess=(read,tcheck) s
 table=(opt,rrhf)
 ----------------------------------------------------------------------
 -----
 title
 -----
 Symbolic Z-matrix:
 Charge =  0 Multiplicity = 1

 SCF Done:  E(RHF) =  -343.553297827     A.U. after   15 cycles
 Normal termination of Gaussian 16 at Wed Apr  9 16:36:11 2025.
 Gaussian 16:  ES64L-G16RevC.01  3-Jul-2019

 ----------------------------------------------------------------------
 #t hf aug-cc-pvdz iop(5/13=1,5/36=2,99/5=2) pseudo=read geom=check gue
 ss=(read,tcheck) scf=(maxcycle=1)
 ----------------------------------------------------------------------
 -----
 title
 -----
 Structure from the checkpoint file:  "Grambow2020_wb97xd3_008647_reverse_mol1.chk"
 Charge =  0 Multiplicity = 1

                         Standard orientation:
 ---------------------------------------------------------------------
 Center     Atomic      Atomic             Coordinates (Angstroms)
 Number     Number       Type             X           Y           Z
 ---------------------------------------------------------------------
      1          6           0        2.334374    0.633230   -0.172693
      2          6           0        1.578542   -0.648957   -0.407682
      3          8           0        0.741423   -0.913198    0.723891
      4          6           0       -0.178903   -0.264661   -0.066187
      5          6           0       -1.594602   -0.793767   -0.261332
      6          8           0       -2.104925    0.538931   -0.113433
      7          6           0       -0.828918    1.070517    0.276065
      8          1           0        2.612802    1.100840   -1.117388
      9          1           0        1.866265    1.357869    0.501129
     10          1           0        3.262678    0.293991    0.300057
     11          1           0        0.390631   -0.297950   -1.131686
     12          1           0       -1.851332   -1.237040   -1.224530
     13          1           0       -1.901196   -1.454340    0.555341
     14          1           0       -0.789210    1.309814    1.342578
     15          1           0       -0.545581    1.942772   -0.318185
 ---------------------------------------------------------------------

 SCF Done:  E(RHF) =  -343.659816754     A.U. after    2 cycles

 The electronic state is 1-A.
 Alpha  occ. eigenvalues --  -20.60774 -20.58815 -11.34703 -11.32626 -11.31341
 Alpha  occ. eigenvalues --  -11.31251 -11.24448  -1.41167  -1.36715  -1.01952
 Alpha  occ. eigenvalues --   -1.01184  -0.96740  -0.85499  -0.78100  -0.72000
 Alpha  occ. eigenvalues --   -0.70545  -0.68610  -0.61719  -0.61151  -0.59312
 Alpha  occ. eigenvalues --   -0.58271  -0.56536  -0.54026  -0.50177  -0.47543
 Alpha  occ. eigenvalues --   -0.45286  -0.35412
 Alpha virt. eigenvalues --    0.03322   0.04267   0.04635   0.05030   0.06246
 Alpha virt. eigenvalues --    0.06764   0.07267   0.07988   0.09468   0.11018
 Alpha virt. eigenvalues --    0.11871   0.13022   0.13296   0.13671   0.14616

 Mulliken charges:
               1
     1  C    0.445019
     2  C   -0.533892
     3  O   -0.692440
     4  C   -0.394004
     5  C    1.001976
     6  O   -0.715912
     7  C    0.935097
     8  H    0.000897
     9  H   -0.098729
    10  H   -0.004565
    11  H    0.402360
    12  H   -0.106424
    13  H   -0.025566
    14  H   -0.048627
    15  H   -0.165191
 Sum of Mulliken charges =   0.00000

 Dipole moment (field-independent basis, Debye):
    X=              0.3928    Y=              1.6942    Z=             -0.3122  Tot=              1.7669

 Test job not archived.
 1\1\GINC-SE087\SP\RHF\Aug-CC-pVDZ\C5H8O2\OHZDE\09-Apr-2025\0\\#t hf au
 g-cc-pvdz iop(5/13=1,5/36=2,99/5=2) pseudo=read geom=check guess=(read
 ,tcheck) scf=(maxcycle=1)\\title\\0,1\C,0,2.10276627,-0.40299632,0.408
 91384\C,0,1.29531764,0.86743038,0.47634417\O,0,0.61853753,1.05892256,-
 0.77119296\C,0,-0.38920928,0.42119554,-0.08593732\C,0,-1.82889365,0.91
 998756,-0.11337869\O,0,-2.28608695,-0.43121243,-0.26706704\C,0,-0.9576
 0832,-0.94480546,-0.45106584\H,0,2.25660908,-0.82088604,1.40406692\H,0
 ,1.74801613,-1.16895908,-0.28802009\H,0,3.08063048,-0.05997104,0.05332

 Normal termination of Gaussian 16 at Wed Apr  9 16:36:16 2025.
