 Gaussian 16, Revision C.01,

 ----------------------------------------------------------------------
 #t hf aug-cc-pvdz symm=none int=(grid=ultrafine) guess=(read,tcheck) s
 table=(opt,rrhf)
 ----------------------------------------------------------------------
 -----
 title
 -----
 Symbolic Z-matrix:
 Charge =  0 Multiplicity = 1

 SCF Done:  E(RHF) =  -338.653755641     A.U. after   15 cycles
 Normal termination of Gaussian 16 at Wed Apr  9 03:59:38 2025.
 Gaussian 16:  ES64L-G16RevC.01  3-Jul-2019

 ----------------------------------------------------------------------
 #t hf aug-cc-pvdz iop(5/13=1,5/36=2,99/5=2) pseudo=read geom=check gue
 ss=(read,tcheck) scf=(maxcycle=1)
 ----------------------------------------------------------------------
 -----
 title
 -----
 Structure from the checkpoint file:  "Grambow2020_wb97xd3_008810_forward_mol1.chk"
 Charge =  0 Multiplicity = 1

                         Standard orientation:
 ---------------------------------------------------------------------
 Center     Atomic      Atomic             Coordinates (Angstroms)
 Number     Number       Type             X           Y           Z
 ---------------------------------------------------------------------
      1          7           0       -1.864674   -0.926988    0.002469
      2          6           0       -0.488552   -0.580772   -0.021203
      3          6           0       -0.073235    0.713160   -0.013960
      4          8           0       -0.800190    1.831761    0.012681
      5          7           0        1.287243    0.762772   -0.006929
      6          6           0        1.886295   -0.478393   -0.093095
      7          6           0        0.734148   -1.349500   -0.030164
      8          1           0       -2.134492   -1.418786    0.842567
      9          1           0       -2.145944   -1.477136   -0.796285
     10          1           0       -1.725114    1.549817   -0.003766
     11          1           0        1.806332    1.621318    0.044051
     12          1           0        1.472780   -1.191092    0.990228
     13          1           0        0.818046   -2.415671   -0.196493
 ---------------------------------------------------------------------

 SCF Done:  E(RHF) =  -338.755383463     A.U. after    2 cycles

 The electronic state is 1-A.
 Alpha  occ. eigenvalues --  -20.62535 -15.66629 -15.63512 -11.34931 -11.26694
 Alpha  occ. eigenvalues --  -11.25336 -11.25285  -1.40352  -1.26858  -1.16955
 Alpha  occ. eigenvalues --   -1.04635  -0.97621  -0.83570  -0.79284  -0.74623
 Alpha  occ. eigenvalues --   -0.69066  -0.68221  -0.64396  -0.63151  -0.60796
 Alpha  occ. eigenvalues --   -0.57110  -0.54331  -0.43750  -0.41837  -0.35411
 Alpha  occ. eigenvalues --   -0.32512
 Alpha virt. eigenvalues --    0.02619   0.04016   0.04526   0.04782   0.06282
 Alpha virt. eigenvalues --    0.07377   0.09858   0.10734   0.11788   0.12520
 Alpha virt. eigenvalues --    0.13685   0.14363   0.14674   0.15177   0.15745

 Mulliken charges:
               1
     1  N   -0.395848
     2  C    0.379735
     3  C    0.399421
     4  O   -0.487541
     5  N   -0.253728
     6  C   -0.425638
     7  C    0.756315
     8  H    0.025195
     9  H    0.037098
    10  H    0.160968
    11  H   -0.108397
    12  H    0.233709
    13  H   -0.321288
 Sum of Mulliken charges =   0.00000

 Dipole moment (field-independent basis, Debye):
    X=             -3.1634    Y=             -0.8330    Z=              0.6768  Tot=              3.3405

 Test job not archived.
 1\1\GINC-SE250\SP\RHF\Aug-CC-pVDZ\C4H6N2O1\OHZDE\09-Apr-2025\0\\#t hf
 aug-cc-pvdz iop(5/13=1,5/36=2,99/5=2) pseudo=read geom=check guess=(re
 ad,tcheck) scf=(maxcycle=1)\\title\\0,1\N,0,-1.80720279,0.63559294,-0.
 03156493\C,0,-0.42679447,0.3186409,0.0587265\C,0,0.01963529,-0.9643058
 1,0.01937635\O,0,-0.67704915,-2.09608255,-0.09959232\N,0,1.37900029,-0
 .98397825,0.09114812\C,0,1.94157223,0.26473348,0.26725215\C,0,0.774197
 02,1.11255778,0.17419669\H,0,-2.03933041,1.15895744,-0.86381317\H,0,-2
 .14802233,1.14275863,0.77243107\H,0,-1.60794555,-1.83533458,-0.1258478

 Normal termination of Gaussian 16 at Wed Apr  9 03:59:42 2025.
