 Gaussian 16, Revision C.01,

 ----------------------------------------------------------------------
 #t hf aug-cc-pvdz symm=none int=(grid=ultrafine) guess=(read,tcheck) s
 table=(opt,rrhf)
 ----------------------------------------------------------------------
 -----
 title
 -----
 Symbolic Z-matrix:
 Charge =  0 Multiplicity = 1

 SCF Done:  E(RHF) =  -343.621066698     A.U. after   13 cycles
 Normal termination of Gaussian 16 at Wed Apr  9 16:01:01 2025.
 Gaussian 16:  ES64L-G16RevC.01  3-Jul-2019

 ----------------------------------------------------------------------
 #t hf aug-cc-pvdz iop(5/13=1,5/36=2,99/5=2) pseudo=read geom=check gue
 ss=(read,tcheck) scf=(maxcycle=1)
 ----------------------------------------------------------------------
 -----
 title
 -----
 Structure from the checkpoint file:  "Grambow2020_wb97xd3_007688_reverse_mol2.chk"
 Charge =  0 Multiplicity = 1

                         Standard orientation:
 ---------------------------------------------------------------------
 Center     Atomic      Atomic             Coordinates (Angstroms)
 Number     Number       Type             X           Y           Z
 ---------------------------------------------------------------------
      1          6           0       -0.386582    1.446989   -0.008549
      2          6           0       -1.303667    0.523607   -0.745049
      3          6           0       -0.799668   -0.943012   -0.717096
      4          8           0        0.439964   -1.015663   -0.017307
      5          6           0       -0.770307   -0.938149    0.732507
      6          6           0       -1.273084    0.528802    0.771404
      7          8           0        3.026372    0.298411   -0.096313
      8          1           0        0.686661    1.319105   -0.031713
      9          1           0        3.386679    0.164954    0.780670
     10          1           0       -0.717051    2.478409   -0.006446
     11          1           0       -2.095531    0.865362   -1.394535
     12          1           0       -1.015498   -1.726492   -1.429714
     13          1           0       -0.956091   -1.716604    1.459298
     14          1           0       -2.037683    0.873158    1.451675
     15          1           0        2.217665   -0.229295   -0.119585
 ---------------------------------------------------------------------

 SCF Done:  E(RHF) =  -343.729042820     A.U. after    2 cycles

 The electronic state is 1-A.
 Alpha  occ. eigenvalues --  -20.60075 -20.54815 -11.31079 -11.30958 -11.25466
 Alpha  occ. eigenvalues --  -11.25409 -11.24566  -1.40822  -1.28371  -1.16436
 Alpha  occ. eigenvalues --   -0.95803  -0.90035  -0.80141  -0.76205  -0.75174
 Alpha  occ. eigenvalues --   -0.71389  -0.67093  -0.63910  -0.58225  -0.57315
 Alpha  occ. eigenvalues --   -0.55526  -0.53726  -0.50426  -0.49945  -0.44956
 Alpha  occ. eigenvalues --   -0.44322  -0.36722
 Alpha virt. eigenvalues --    0.02893   0.03922   0.04053   0.05071   0.05821
 Alpha virt. eigenvalues --    0.06204   0.08316   0.08836   0.10124   0.11553
 Alpha virt. eigenvalues --    0.12207   0.12577   0.13372   0.13859   0.14442

 Mulliken charges:
               1
     1  C    0.811921
     2  C    0.539426
     3  C    0.454829
     4  O   -0.654120
     5  C    0.425664
     6  C    0.535499
     7  O   -0.322079
     8  H   -0.382756
     9  H    0.154397
    10  H   -0.312332
    11  H   -0.404815
    12  H   -0.324894
    13  H   -0.313362
    14  H   -0.407766
    15  H    0.200390
 Sum of Mulliken charges =  -0.00000

 Dipole moment (field-independent basis, Debye):
    X=             -3.7699    Y=             -0.7491    Z=              1.4793  Tot=              4.1184

 Test job not archived.
 1\1\GINC-SE226\SP\RHF\Aug-CC-pVDZ\C5H8O2\OHZDE\09-Apr-2025\0\\#t hf au
 g-cc-pvdz iop(5/13=1,5/36=2,99/5=2) pseudo=read geom=check guess=(read
 ,tcheck) scf=(maxcycle=1)\\title\\0,1\C,0,0.77090246,-0.5210424,0.9697
 9049\C,0,0.76928465,0.96582427,0.81061627\C,0,-0.06324435,1.41961029,-
 0.41687779\O,0,-0.58318767,0.28010536,-1.09721465\C,0,-1.23703507,0.73
 301187,0.08614727\C,0,-0.45858358,0.247595,1.33699741\O,0,0.42974767,-
 2.20845012,-2.19429828\H,0,0.79472231,-1.18351284,0.1157954\H,0,-0.333
 97214,-2.78546676,-2.21699673\H,0,1.3404561,-0.86675997,1.82368161\H,0

 Normal termination of Gaussian 16 at Wed Apr  9 16:01:06 2025.
