 Gaussian 16, Revision C.01,

 ----------------------------------------------------------------------
 #t hf aug-cc-pvdz symm=none int=(grid=ultrafine) guess=(read,tcheck) s
 table=(opt,rrhf)
 ----------------------------------------------------------------------
 -----
 title
 -----
 Symbolic Z-matrix:
 Charge =  0 Multiplicity = 1

 SCF Done:  E(RHF) =  -191.810501264     A.U. after   15 cycles
 Normal termination of Gaussian 16 at Wed Apr  9 03:20:17 2025.
 Gaussian 16:  ES64L-G16RevC.01  3-Jul-2019

 ----------------------------------------------------------------------
 #t hf aug-cc-pvdz iop(5/13=1,5/36=2,99/5=2) pseudo=read geom=check gue
 ss=(read,tcheck) scf=(maxcycle=1)
 ----------------------------------------------------------------------
 -----
 title
 -----
 Structure from the checkpoint file:  "Grambow2020_wb97xd3_006096_reverse_mol1.chk"
 Charge =  0 Multiplicity = 1

                         Standard orientation:
 ---------------------------------------------------------------------
 Center     Atomic      Atomic             Coordinates (Angstroms)
 Number     Number       Type             X           Y           Z
 ---------------------------------------------------------------------
      1          6           0       -1.492051   -0.042623   -0.151004
      2          6           0       -0.112607   -0.135956    0.429685
      3          6           0        0.976270   -0.834859   -0.279783
      4          8           0        0.814841    0.880561   -0.010477
      5          1           0       -2.010121    0.846068    0.214115
      6          1           0       -2.071785   -0.922149    0.137041
      7          1           0       -1.440638   -0.008599   -1.239658
      8          1           0       -0.082242   -0.152439    1.517869
      9          1           0        1.769565   -1.125119    0.416892
     10          1           0        1.086830    0.398381   -0.955836
 ---------------------------------------------------------------------

 SCF Done:  E(RHF) =  -191.870436561     A.U. after    2 cycles

 The electronic state is 1-A.
 Alpha  occ. eigenvalues --  -20.62778 -11.31054 -11.27583 -11.23742  -1.38276
 Alpha  occ. eigenvalues --   -1.02634  -0.92240  -0.82617  -0.70701  -0.65012
 Alpha  occ. eigenvalues --   -0.59820  -0.58700  -0.54075  -0.50653  -0.47653
 Alpha  occ. eigenvalues --   -0.37576
 Alpha virt. eigenvalues --    0.03493   0.04649   0.05185   0.05320   0.07154
 Alpha virt. eigenvalues --    0.07559   0.09185   0.11977   0.12122   0.13644
 Alpha virt. eigenvalues --    0.14864   0.15102   0.16729   0.16994   0.17779

 Mulliken charges:
               1
     1  C    0.327159
     2  C    0.423968
     3  C   -0.128470
     4  O   -0.752020
     5  H    0.030286
     6  H    0.045913
     7  H   -0.018111
     8  H   -0.290090
     9  H   -0.101386
    10  H    0.462750
 Sum of Mulliken charges =  -0.00000

 Dipole moment (field-independent basis, Debye):
    X=             -1.1198    Y=             -0.6819    Z=              1.0401  Tot=              1.6736

 Test job not archived.
 1\1\GINC-SE036\SP\RHF\Aug-CC-pVDZ\C3H6O1\OHZDE\09-Apr-2025\0\\#t hf au
 g-cc-pvdz iop(5/13=1,5/36=2,99/5=2) pseudo=read geom=check guess=(read
 ,tcheck) scf=(maxcycle=1)\\title\\0,1\C,0,-1.22736139,0.23259162,0.071
 76383\C,0,0.10446643,-0.39069088,-0.22239617\C,0,1.32331885,0.42842683
 ,-0.36699595\O,0,0.92818795,-0.66578421,0.93216649\H,0,-1.87904166,-0.
 46821295,0.59680226\H,0,-1.71266622,0.51994518,-0.86340217\H,0,-1.0975
 7109,1.12889995,0.67901565\H,0,0.05340817,-1.30637782,-0.80912245\H,0,
 2.09114435,-0.11434729,-0.92803264\H,0,1.3298746,0.34757457,1.04139713

 Normal termination of Gaussian 16 at Wed Apr  9 03:20:21 2025.
