 Gaussian 16, Revision C.01,

 ----------------------------------------------------------------------
 #t hf aug-cc-pvdz symm=none int=(grid=ultrafine) guess=(read,tcheck) s
 table=(opt,rrhf)
 ----------------------------------------------------------------------
 -----
 title
 -----
 Symbolic Z-matrix:
 Charge =  0 Multiplicity = 1

 SCF Done:  E(RHF) =  -269.465663194     A.U. after   17 cycles
 Normal termination of Gaussian 16 at Wed Apr  9 14:39:49 2025.
 Gaussian 16:  ES64L-G16RevC.01  3-Jul-2019

 ----------------------------------------------------------------------
 #t hf aug-cc-pvdz iop(5/13=1,5/36=2,99/5=2) pseudo=read geom=check gue
 ss=(read,tcheck) scf=(maxcycle=1)
 ----------------------------------------------------------------------
 -----
 title
 -----
 Structure from the checkpoint file:  "Grambow2020_wb97xd3_006588_forward_mol1.chk"
 Charge =  0 Multiplicity = 1

                         Standard orientation:
 ---------------------------------------------------------------------
 Center     Atomic      Atomic             Coordinates (Angstroms)
 Number     Number       Type             X           Y           Z
 ---------------------------------------------------------------------
      1          6           0       -2.218123    0.315855   -0.199225
      2          6           0       -0.875554   -0.087873    0.412790
      3          6           0       -0.284957   -1.429450   -0.096380
      4          6           0        1.164398   -1.192955   -0.052406
      5          6           0        2.200412   -0.529435   -0.041429
      6          6           0        0.172968    0.904171    0.132822
      7          6           0        0.995853    1.825178   -0.079699
      8          1           0       -2.137313    0.412989   -1.282484
      9          1           0       -2.954570   -0.457327    0.023355
     10          1           0       -2.583635    1.257734    0.210726
     11          1           0       -0.964692   -0.144689    1.501585
     12          1           0       -0.634411   -2.252963    0.529318
     13          1           0       -0.619643   -1.625139   -1.119325
     14          1           0        1.984631    1.082492   -0.117032
     15          1           0        0.979651    2.893958   -0.204975
 ---------------------------------------------------------------------

 SCF Done:  E(RHF) =  -269.547153381     A.U. after    2 cycles

 The electronic state is 1-A.
 Alpha  occ. eigenvalues --  -11.37425 -11.30547 -11.28031 -11.27307 -11.26991
 Alpha  occ. eigenvalues --  -11.17791 -11.17245  -1.16194  -1.07827  -1.01131
 Alpha  occ. eigenvalues --   -0.92634  -0.88822  -0.74960  -0.70483  -0.67100
 Alpha  occ. eigenvalues --   -0.63898  -0.60767  -0.59341  -0.57052  -0.54553
 Alpha  occ. eigenvalues --   -0.53440  -0.45242  -0.37183  -0.33009  -0.32669
 Alpha virt. eigenvalues --    0.02086   0.03085   0.03975   0.04130   0.05302
 Alpha virt. eigenvalues --    0.05932   0.06579   0.07134   0.07737   0.09123
 Alpha virt. eigenvalues --    0.11181   0.11320   0.11720   0.12358   0.13500

 Mulliken charges:
               1
     1  C    0.761483
     2  C   -0.985389
     3  C    0.598427
     4  C   -0.007593
     5  C   -0.819574
     6  C   -0.659159
     7  C    0.879411
     8  H   -0.004700
     9  H   -0.023684
    10  H   -0.041084
    11  H    0.042979
    12  H   -0.027361
    13  H   -0.013698
    14  H    0.624867
    15  H   -0.324923
 Sum of Mulliken charges =  -0.00000

 Dipole moment (field-independent basis, Debye):
    X=             -6.4226    Y=              3.3351    Z=              0.2563  Tot=              7.2414

 Test job not archived.
 1\1\GINC-SE113\SP\RHF\Aug-CC-pVDZ\C7H8\OHZDE\09-Apr-2025\0\\#t hf aug-
 cc-pvdz iop(5/13=1,5/36=2,99/5=2) pseudo=read geom=check guess=(read,t
 check) scf=(maxcycle=1)\\title\\0,1\C,0,-0.62556398,-1.62845905,-0.704
 94123\C,0,0.32393157,-0.58773405,-0.10878715\C,0,0.84310188,0.48855941
 ,-1.09870803\C,0,0.98146498,1.68081638,-0.25143402\C,0,0.76459676,2.41
 059136,0.71505442\C,0,-0.31596767,0.18246121,0.96790276\C,0,-0.8989633
 3,0.74640473,1.92322525\H,0,-1.51184161,-1.15042329,-1.12376049\H,0,-0
 .10964059,-2.15959573,-1.50582975\H,0,-0.94091204,-2.36192935,0.037603

 Normal termination of Gaussian 16 at Wed Apr  9 14:39:54 2025.
