 Gaussian 16, Revision C.01,

 ----------------------------------------------------------------------
 #t hf aug-cc-pvdz symm=none int=(grid=ultrafine) guess=(read,tcheck) s
 table=(opt,rrhf)
 ----------------------------------------------------------------------
 -----
 title
 -----
 Symbolic Z-matrix:
 Charge =  0 Multiplicity = 1

 SCF Done:  E(RHF) =  -302.814100445     A.U. after   15 cycles
 Normal termination of Gaussian 16 at Wed Apr  9 04:05:47 2025.
 Gaussian 16:  ES64L-G16RevC.01  3-Jul-2019

 ----------------------------------------------------------------------
 #t hf aug-cc-pvdz iop(5/13=1,5/36=2,99/5=2) pseudo=read geom=check gue
 ss=(read,tcheck) scf=(maxcycle=1)
 ----------------------------------------------------------------------
 -----
 title
 -----
 Structure from the checkpoint file:  "Grambow2020_wb97xd3_009342_reverse_mol2.chk"
 Charge =  0 Multiplicity = 1

                         Standard orientation:
 ---------------------------------------------------------------------
 Center     Atomic      Atomic             Coordinates (Angstroms)
 Number     Number       Type             X           Y           Z
 ---------------------------------------------------------------------
      1          6           0       -2.854074   -0.891321    0.098938
      2          7           0       -1.497027   -0.421960   -0.114783
      3          6           0        2.066396    0.026054    0.539141
      4          6           0        1.006247    0.661855    0.143619
      5          6           0        2.884309   -0.884234   -0.330135
      6          6           0       -0.072337    1.307418   -0.212005
      7          7           0       -1.400820    0.803899   -0.064320
      8          1           0       -3.133880   -1.521818   -0.747157
      9          1           0       -3.560170   -0.066721    0.219322
     10          1           0       -2.851791   -1.524604    0.988936
     11          1           0        2.384486    0.157066    1.571063
     12          1           0        2.462041   -0.954263   -1.331189
     13          1           0        2.923098   -1.887018    0.100717
     14          1           0        3.911571   -0.520719   -0.407165
     15          1           0       -0.033674    2.325878   -0.578152
 ---------------------------------------------------------------------

 SCF Done:  E(RHF) =  -302.906434689     A.U. after    2 cycles

 The electronic state is 1-A.
 Alpha  occ. eigenvalues --  -15.68755 -15.68397 -11.27149 -11.26231 -11.25937
 Alpha  occ. eigenvalues --  -11.25930 -11.24199  -1.32558  -1.09728  -1.04774
 Alpha  occ. eigenvalues --   -0.96850  -0.90230  -0.81263  -0.70297  -0.66973
 Alpha  occ. eigenvalues --   -0.66864  -0.61542  -0.59251  -0.58111  -0.57367
 Alpha  occ. eigenvalues --   -0.53671  -0.53288  -0.49118  -0.38807  -0.37079
 Alpha  occ. eigenvalues --   -0.35423
 Alpha virt. eigenvalues --    0.03405   0.03999   0.04272   0.04698   0.06154
 Alpha virt. eigenvalues --    0.06570   0.06900   0.07643   0.09643   0.11015
 Alpha virt. eigenvalues --    0.11155   0.11241   0.12407   0.13079   0.14054

 Mulliken charges:
               1
     1  C    0.800308
     2  N   -0.492955
     3  C    0.456376
     4  C   -0.554706
     5  C    0.176680
     6  C    1.120009
     7  N   -0.482405
     8  H   -0.132494
     9  H   -0.117507
    10  H   -0.097537
    11  H   -0.318365
    12  H   -0.143384
    13  H    0.032610
    14  H    0.015025
    15  H   -0.261656
 Sum of Mulliken charges =   0.00000

 Dipole moment (field-independent basis, Debye):
    X=              0.6301    Y=             -0.8197    Z=              0.2257  Tot=              1.0583

 Test job not archived.
 1\1\GINC-SE049\SP\RHF\Aug-CC-pVDZ\C5H8N2\OHZDE\09-Apr-2025\0\\#t hf au
 g-cc-pvdz iop(5/13=1,5/36=2,99/5=2) pseudo=read geom=check guess=(read
 ,tcheck) scf=(maxcycle=1)\\title\\0,1\C,0,-3.00625834,0.16642852,-0.60
 588685\N,0,-1.59856336,0.34101009,-0.2969081\C,0,1.7737341,-0.5911894,
 0.74469245\C,0,0.88048216,0.34205517,0.87019923\C,0,2.67218357,-0.7518
 5639,-0.44703743\C,0,-0.03822902,1.25725124,1.028157\N,0,-1.40727197,1
 .10096892,0.65198783\H,0,-3.15689342,0.41078857,-1.65911639\H,0,-3.646
 3009,0.78103828,0.03100445\H,0,-3.2466151,-0.89171494,-0.48054213\H,0,

 Normal termination of Gaussian 16 at Wed Apr  9 04:05:52 2025.
