 Gaussian 16, Revision C.01,

 ----------------------------------------------------------------------
 #t hf aug-cc-pvdz symm=none int=(grid=ultrafine) guess=(read,tcheck) s
 table=(opt,rrhf)
 ----------------------------------------------------------------------
 -----
 title
 -----
 Symbolic Z-matrix:
 Charge =  0 Multiplicity = 1

 SCF Done:  E(RHF) =  -307.862267523     A.U. after   15 cycles

 1\1\GINC-SE419\Stability\RHF\Aug-CC-pVDZ\C6H10O1\OHZDE\09-Apr-2025\0\\
 #t hf aug-cc-pvdz symm=none int=(grid=ultrafine) guess=(read,tcheck) s
 table=(opt,rrhf)\\title\\0,1\O,0,2.39463748,-0.85853782,1.0444228\C,0,
 1.21910316,-0.27926183,0.69054111\C,0,0.09422087,-1.18234209,0.2670207
 3\C,0,-1.27122584,-0.52997838,0.47925444\C,0,-1.26996473,0.91517121,0.
 06179782\C,0,-0.15443988,1.63632096,0.16560122\C,0,1.10034806,1.048418
 24,0.6289144\H,0,2.28670107,-1.81054993,1.07732334\H,0,-0.41243851,0.0
 5127022,-3.3941957\H,0,0.14050047,-2.12834499,0.81620951\H,0,0.2413170

 Normal termination of Gaussian 16 at Wed Apr  9 03:53:51 2025.
 Gaussian 16:  ES64L-G16RevC.01  3-Jul-2019

 ----------------------------------------------------------------------
 #t hf aug-cc-pvdz iop(5/13=1,5/36=2,99/5=2) pseudo=read geom=check gue
 ss=(read,tcheck) scf=(maxcycle=1)
 ----------------------------------------------------------------------
 -----
 title
 -----
 Structure from the checkpoint file:  "Grambow2020_wb97xd3_008419_reverse_mol2.chk"
 Charge =  0 Multiplicity = 1

                         Standard orientation:
 ---------------------------------------------------------------------
 Center     Atomic      Atomic             Coordinates (Angstroms)
 Number     Number       Type             X           Y           Z
 ---------------------------------------------------------------------
      1          8           0       -2.392143    0.091759    0.054639
      2          6           0       -1.036585    0.115807   -0.012870
      3          6           0       -0.305520   -1.188570    0.143427
      4          6           0        1.068075   -1.155820   -0.525326
      5          6           0        1.783349    0.142076   -0.267295
      6          6           0        1.085199    1.265234   -0.105030
      7          6           0       -0.375830    1.270429   -0.117217
      8          1           0       -2.696423   -0.816904    0.083016
      9          1           0        1.763001   -0.416139    3.353969
     10          1           0       -0.899518   -2.008209   -0.273741
     11          1           0       -0.203148   -1.388187    1.217929
     12          1           0        0.945215   -1.277853   -1.610036
     13          1           0        1.662542   -2.005827   -0.185552
     14          1           0        1.710784   -0.085110    2.686934
     15          1           0        2.866641    0.153752   -0.273420
     16          1           0        1.596656    2.211156    0.033361
     17          1           0       -0.920739    2.204312   -0.163702
 ---------------------------------------------------------------------

 SCF Done:  E(RHF) =  -307.961079224     A.U. after    2 cycles

 The electronic state is 1-A.
 Alpha  occ. eigenvalues --  -20.60442 -11.30716 -11.25151 -11.24170 -11.23523
 Alpha  occ. eigenvalues --  -11.22746 -11.21598  -1.37046  -1.12187  -1.01074
 Alpha  occ. eigenvalues --   -0.99919  -0.86798  -0.81626  -0.73392  -0.68791
 Alpha  occ. eigenvalues --   -0.66862  -0.63622  -0.60731  -0.59047  -0.58297
 Alpha  occ. eigenvalues --   -0.57059  -0.55016  -0.52237  -0.48177  -0.47833
 Alpha  occ. eigenvalues --   -0.41879  -0.29072
 Alpha virt. eigenvalues --    0.03116   0.04121   0.04503   0.05149   0.05843
 Alpha virt. eigenvalues --    0.06217   0.06824   0.07892   0.08352   0.10236
 Alpha virt. eigenvalues --    0.11480   0.12419   0.13078   0.13371   0.14291

 Mulliken charges:
               1
     1  O   -0.577578
     2  C    0.191398
     3  C    0.253735
     4  C    0.321178
     5  C    0.357725
     6  C    0.338585
     7  C    0.390674
     8  H    0.117141
     9  H   -0.000642
    10  H   -0.020214
    11  H   -0.016183
    12  H    0.006478
    13  H    0.007117
    14  H    0.012310
    15  H   -0.456445
    16  H   -0.471563
    17  H   -0.453716
 Sum of Mulliken charges =   0.00000

 Dipole moment (field-independent basis, Debye):
    X=              0.2061    Y=             -2.2236    Z=             -0.0050  Tot=              2.2331

 Test job not archived.
 1\1\GINC-SE419\SP\RHF\Aug-CC-pVDZ\C6H10O1\OHZDE\09-Apr-2025\0\\#t hf a
 ug-cc-pvdz iop(5/13=1,5/36=2,99/5=2) pseudo=read geom=check guess=(rea
 d,tcheck) scf=(maxcycle=1)\\title\\0,1\O,0,2.39463748,-0.85853782,1.04
 44228\C,0,1.21910316,-0.27926183,0.69054111\C,0,0.09422087,-1.18234209
 ,0.26702073\C,0,-1.27122584,-0.52997838,0.47925444\C,0,-1.26996473,0.9
 1517121,0.06179782\C,0,-0.15443988,1.63632096,0.16560122\C,0,1.1003480
 6,1.04841824,0.6289144\H,0,2.28670107,-1.81054993,1.07732334\H,0,-0.41
 243851,0.05127022,-3.3941957\H,0,0.14050047,-2.12834499,0.81620951\H,0

 Normal termination of Gaussian 16 at Wed Apr  9 03:53:57 2025.
