 Gaussian 16, Revision C.01,

 ----------------------------------------------------------------------
 #t hf aug-cc-pvdz symm=none int=(grid=ultrafine) guess=(read,tcheck) s
 table=(opt,rrhf)
 ----------------------------------------------------------------------
 -----
 title
 -----
 Symbolic Z-matrix:
 Charge =  0 Multiplicity = 1

 SCF Done:  E(RHF) =  -283.730438322     A.U. after   14 cycles
 Normal termination of Gaussian 16 at Wed Apr  9 14:24:08 2025.
 Gaussian 16:  ES64L-G16RevC.01  3-Jul-2019

 ----------------------------------------------------------------------
 #t hf aug-cc-pvdz iop(5/13=1,5/36=2,99/5=2) pseudo=read geom=check gue
 ss=(read,tcheck) scf=(maxcycle=1)
 ----------------------------------------------------------------------
 -----
 title
 -----
 Structure from the checkpoint file:  "Grambow2020_wb97xd3_006226_forward_mol2.chk"
 Charge =  0 Multiplicity = 1

                         Standard orientation:
 ---------------------------------------------------------------------
 Center     Atomic      Atomic             Coordinates (Angstroms)
 Number     Number       Type             X           Y           Z
 ---------------------------------------------------------------------
      1          8           0        2.039339    0.010475   -0.000019
      2          6           0        0.833938    0.013684   -0.000178
      3          6           0       -0.114660    1.209978    0.000165
      4          6           0       -1.477328    0.580925   -0.000109
      5          6           0       -1.330056   -0.740791   -0.000052
      6          7           0        0.022421   -1.098507   -0.000706
      7          1           0        0.087751    1.829131   -0.877001
      8          1           0        0.087238    1.826341    0.879471
      9          1           0       -2.415960    1.111093   -0.000516
     10          1           0       -2.088117   -1.509823    0.001040
     11          1           0        0.386066   -2.033761    0.003138
 ---------------------------------------------------------------------

 SCF Done:  E(RHF) =  -283.817711758     A.U. after    2 cycles

 The electronic state is 1-A.
 Alpha  occ. eigenvalues --  -20.54245 -15.66399 -11.36840 -11.29885 -11.25735
 Alpha  occ. eigenvalues --  -11.24396  -1.35839  -1.24801  -1.06010  -0.97336
 Alpha  occ. eigenvalues --   -0.81769  -0.79998  -0.71393  -0.64604  -0.64074
 Alpha  occ. eigenvalues --   -0.61270  -0.60083  -0.54944  -0.54490  -0.48870
 Alpha  occ. eigenvalues --   -0.43601  -0.33190
 Alpha virt. eigenvalues --    0.02757   0.03739   0.04738   0.05483   0.06451
 Alpha virt. eigenvalues --    0.09572   0.09887   0.11467   0.12287   0.12836
 Alpha virt. eigenvalues --    0.13690   0.13731   0.14649   0.15190   0.15919

 Mulliken charges:
               1
     1  O   -0.509887
     2  C    0.510863
     3  C   -0.132883
     4  C    0.528885
     5  C    0.630126
     6  N   -0.426430
     7  H    0.041642
     8  H    0.043199
     9  H   -0.291763
    10  H   -0.279240
    11  H   -0.114512
 Sum of Mulliken charges =  -0.00000

 Dipole moment (field-independent basis, Debye):
    X=             -3.9825    Y=             -0.9061    Z=              0.0075  Tot=              4.0843

 Test job not archived.
 1\1\GINC-SE163\SP\RHF\Aug-CC-pVDZ\C4H5N1O1\OHZDE\09-Apr-2025\0\\#t hf
 aug-cc-pvdz iop(5/13=1,5/36=2,99/5=2) pseudo=read geom=check guess=(re
 ad,tcheck) scf=(maxcycle=1)\\title\\0,1\O,0,-1.34416071,1.98829829,0.1
 0256051\C,0,-0.63247928,1.01631164,0.06069999\C,0,-1.0161282,-0.432377
 15,-0.23097028\C,0,0.28853567,-1.16880945,-0.14102059\C,0,1.24604725,-
 0.29330155,0.15100835\N,0,0.72757733,1.00022267,0.27404821\H,0,-1.4892
 8953,-0.48764507,-1.21423269\H,0,-1.75949043,-0.75964714,0.49988776\H,
 0,0.42565228,-2.22785129,-0.28845842\H,0,2.3029224,-0.46315449,0.29325

 Normal termination of Gaussian 16 at Wed Apr  9 14:24:11 2025.
