 Gaussian 16, Revision C.01,

 ----------------------------------------------------------------------
 #t hf aug-cc-pvdz symm=none int=(grid=ultrafine) guess=(read,tcheck) s
 table=(opt,rrhf)
 ----------------------------------------------------------------------
 -----
 title
 -----
 Symbolic Z-matrix:
 Charge =  0 Multiplicity = 1

 SCF Done:  E(RHF) =  -343.721979957     A.U. after   14 cycles
 Normal termination of Gaussian 16 at Wed Apr  9 15:05:58 2025.
 Gaussian 16:  ES64L-G16RevC.01  3-Jul-2019

 ----------------------------------------------------------------------
 #t hf aug-cc-pvdz iop(5/13=1,5/36=2,99/5=2) pseudo=read geom=check gue
 ss=(read,tcheck) scf=(maxcycle=1)
 ----------------------------------------------------------------------
 -----
 title
 -----
 Structure from the checkpoint file:  "Grambow2020_wb97xd3_006672_reverse_mol2.chk"
 Charge =  0 Multiplicity = 1

                         Standard orientation:
 ---------------------------------------------------------------------
 Center     Atomic      Atomic             Coordinates (Angstroms)
 Number     Number       Type             X           Y           Z
 ---------------------------------------------------------------------
      1          6           0        1.292229    1.709078    0.224845
      2          6           0        0.904296    0.467040   -0.010091
      3          8           0       -2.240203    0.631742   -0.964689
      4          6           0        1.156986   -0.606833   -1.056077
      5          6           0        0.262193   -1.589590   -0.248381
      6          6           0       -0.005778   -0.459620    0.745430
      7          8           0       -0.692466   -0.341627    1.718992
      8          1           0       -1.680120    1.391223   -0.790507
      9          1           0        0.933163    2.230169    1.105596
     10          1           0        1.973921    2.236795   -0.432164
     11          1           0       -2.532006    0.344667   -0.095976
     12          1           0        0.760282   -0.360980   -2.040610
     13          1           0        2.200027   -0.906586   -1.154530
     14          1           0       -0.636143   -1.938007   -0.756667
     15          1           0        0.782676   -2.438645    0.196084
 ---------------------------------------------------------------------

 SCF Done:  E(RHF) =  -343.829370039     A.U. after    2 cycles

 The electronic state is 1-A.
 Alpha  occ. eigenvalues --  -20.57532 -20.57349 -11.34849 -11.26780 -11.26337
 Alpha  occ. eigenvalues --  -11.25455 -11.25049  -1.36677  -1.31073  -1.14558
 Alpha  occ. eigenvalues --   -1.02087  -0.88243  -0.84983  -0.72899  -0.70568
 Alpha  occ. eigenvalues --   -0.68224  -0.66330  -0.65798  -0.60351  -0.60037
 Alpha  occ. eigenvalues --   -0.55820  -0.52839  -0.52169  -0.51414  -0.50567
 Alpha  occ. eigenvalues --   -0.42081  -0.39377
 Alpha virt. eigenvalues --    0.03125   0.03856   0.04373   0.04856   0.06278
 Alpha virt. eigenvalues --    0.06627   0.06906   0.07314   0.08255   0.09854
 Alpha virt. eigenvalues --    0.11253   0.12305   0.13035   0.13751   0.14550

 Mulliken charges:
               1
     1  C    1.134994
     2  C   -0.088912
     3  O   -0.334782
     4  C    0.117898
     5  C    0.501414
     6  C   -0.305588
     7  O   -0.495184
     8  H    0.180137
     9  H   -0.349233
    10  H   -0.307281
    11  H    0.177031
    12  H   -0.049090
    13  H   -0.064709
    14  H   -0.062636
    15  H   -0.054059
 Sum of Mulliken charges =  -0.00000

 Dipole moment (field-independent basis, Debye):
    X=              2.7773    Y=              0.6099    Z=             -1.3571  Tot=              3.1508

 Test job not archived.
 1\1\GINC-SE113\SP\RHF\Aug-CC-pVDZ\C5H8O2\OHZDE\09-Apr-2025\0\\#t hf au
 g-cc-pvdz iop(5/13=1,5/36=2,99/5=2) pseudo=read geom=check guess=(read
 ,tcheck) scf=(maxcycle=1)\\title\\0,1\C,0,-1.58100195,-1.34225245,-0.0
 2924644\C,0,-0.38484662,-0.79176425,0.09125522\O,0,-0.77766307,2.43080
 112,-0.44449494\C,0,0.59667047,-0.47791173,1.20895799\C,0,1.60991468,0
 .05414605,0.15582519\C,0,0.56704326,-0.22789667,-0.92545763\O,0,0.5102
 1071,-0.0435648,-2.10701509\H,0,-1.49188565,1.79121386,-0.40377975\H,0
 ,-2.03288675,-1.44425904,-1.00984875\H,0,-2.1370286,-1.71164698,0.8247

 Normal termination of Gaussian 16 at Wed Apr  9 15:06:03 2025.
