 Gaussian 16, Revision C.01,

 ----------------------------------------------------------------------
 #t hf aug-cc-pvdz symm=none int=(grid=ultrafine) guess=(read,tcheck) s
 table=(opt,rrhf)
 ----------------------------------------------------------------------
 -----
 title
 -----
 Symbolic Z-matrix:
 Charge =  0 Multiplicity = 1

 SCF Done:  E(RHF) =  -320.683347269     A.U. after   15 cycles
 Normal termination of Gaussian 16 at Wed Apr  9 14:19:04 2025.
 Gaussian 16:  ES64L-G16RevC.01  3-Jul-2019

 ----------------------------------------------------------------------
 #t hf aug-cc-pvdz iop(5/13=1,5/36=2,99/5=2) pseudo=read geom=check gue
 ss=(read,tcheck) scf=(maxcycle=1)
 ----------------------------------------------------------------------
 -----
 title
 -----
 Structure from the checkpoint file:  "Grambow2020_b97d3_007141_reverse_mol2.chk"
 Charge =  0 Multiplicity = 1

                         Standard orientation:
 ---------------------------------------------------------------------
 Center     Atomic      Atomic             Coordinates (Angstroms)
 Number     Number       Type             X           Y           Z
 ---------------------------------------------------------------------
      1          8           0       -2.259950    0.511805   -0.031534
      2          6           0       -1.286886   -0.156751   -0.109131
      3          7           0       -0.439512   -1.039145   -0.191965
      4          6           0        0.985058   -0.983774   -0.281650
      5          6           0        1.572899    0.413955   -0.149420
      6          8           0        0.904069    1.416127   -0.000844
      7          1           0        0.137048   -0.645593    2.654260
      8          1           0        1.442570   -1.617052    0.498666
      9          1           0        1.331168   -1.404881   -1.243170
     10          1           0        2.686662    0.447170   -0.203311
     11          1           0        0.699758   -0.569661    3.137538
 ---------------------------------------------------------------------

 SCF Done:  E(RHF) =  -320.787065214     A.U. after    2 cycles

 The electronic state is 1-A.
 Alpha  occ. eigenvalues --  -20.62686 -20.60714 -15.66293 -11.42998 -11.37917
 Alpha  occ. eigenvalues --  -11.33268  -1.41824  -1.38801  -1.24637  -1.04031
 Alpha  occ. eigenvalues --   -0.85858  -0.75171  -0.72667  -0.71218  -0.68600
 Alpha  occ. eigenvalues --   -0.66135  -0.63036  -0.61390  -0.60036  -0.55306
 Alpha  occ. eigenvalues --   -0.50006  -0.44479  -0.42954
 Alpha virt. eigenvalues --    0.02435   0.04245   0.04650   0.06597   0.06894
 Alpha virt. eigenvalues --    0.08302   0.09417   0.10316   0.10729   0.12299
 Alpha virt. eigenvalues --    0.13257   0.13485   0.14329   0.14665   0.15173

 Mulliken charges:
               1
     1  O   -0.211285
     2  C   -0.078273
     3  N   -0.128517
     4  C    0.522631
     5  C    0.547059
     6  O   -0.452855
     7  H    0.029841
     8  H   -0.043862
     9  H   -0.045380
    10  H   -0.123839
    11  H   -0.015518
 Sum of Mulliken charges =  -0.00000

 Dipole moment (field-independent basis, Debye):
    X=              4.5940    Y=             -3.0207    Z=             -0.5637  Tot=              5.5269

 Test job not archived.
 1\1\GINC-SE212\SP\RHF\Aug-CC-pVDZ\C3H5N1O2\OHZDE\09-Apr-2025\0\\#t hf
 aug-cc-pvdz iop(5/13=1,5/36=2,99/5=2) pseudo=read geom=check guess=(re
 ad,tcheck) scf=(maxcycle=1)\\title\\0,1\O,0,2.9121999,-0.16597179,0.26
 770422\C,0,1.76741441,-0.40489393,0.44721548\N,0,0.66230493,-0.8831839
 1,0.67850254\C,0,-0.63966649,-0.29640035,0.71112664\C,0,-0.68581709,1.
 16376915,0.28396723\O,0,0.29360571,1.80311775,-0.04118054\H,0,0.141424
 07,-0.87672328,-2.20540835\H,0,-1.33001746,-0.86022665,0.0593855\H,0,-
 1.07169086,-0.36392934,1.72623116\H,0,-1.70810704,1.61015803,0.2955971

 Normal termination of Gaussian 16 at Wed Apr  9 14:19:08 2025.
