 Gaussian 16, Revision C.01,

 ----------------------------------------------------------------------
 #t hf aug-cc-pvdz symm=none int=(grid=ultrafine) guess=(read,tcheck) s
 table=(opt,rrhf)
 ----------------------------------------------------------------------
 -----
 title
 -----
 Symbolic Z-matrix:
 Charge =  0 Multiplicity = 1

 SCF Done:  E(RHF) =  -283.687296773     A.U. after   15 cycles
 Normal termination of Gaussian 16 at Wed Apr  9 03:14:49 2025.
 Gaussian 16:  ES64L-G16RevC.01  3-Jul-2019

 ----------------------------------------------------------------------
 #t hf aug-cc-pvdz iop(5/13=1,5/36=2,99/5=2) pseudo=read geom=check gue
 ss=(read,tcheck) scf=(maxcycle=1)
 ----------------------------------------------------------------------
 -----
 title
 -----
 Structure from the checkpoint file:  "Grambow2020_b97d3_006994_reverse_mol2.chk"
 Charge =  0 Multiplicity = 1

                         Standard orientation:
 ---------------------------------------------------------------------
 Center     Atomic      Atomic             Coordinates (Angstroms)
 Number     Number       Type             X           Y           Z
 ---------------------------------------------------------------------
      1          6           0        0.897098    1.407828   -0.000827
      2          6           0        1.026605   -0.110262    0.001756
      3          8           0        2.114551   -0.677305   -0.001295
      4          6           0       -0.232662   -0.899880    0.013529
      5          6           0       -1.445523   -0.352369    0.015318
      6          7           0       -2.538149    0.188823   -0.131057
      7          1           0        1.891111    1.856597   -0.093905
      8          1           0        0.432071    1.752187    0.935226
      9          1           0        0.258245    1.746698   -0.828957
     10          1           0       -3.065994    0.453814    0.707644
     11          1           0       -0.137904   -1.984525    0.029103
 ---------------------------------------------------------------------

 SCF Done:  E(RHF) =  -283.773841024     A.U. after    2 cycles

 The electronic state is 1-A.
 Alpha  occ. eigenvalues --  -20.56165 -15.68603 -11.37249 -11.36045 -11.26945
 Alpha  occ. eigenvalues --  -11.25331  -1.34511  -1.24408  -1.07076  -0.98987
 Alpha  occ. eigenvalues --   -0.82484  -0.76545  -0.69958  -0.66836  -0.61518
 Alpha  occ. eigenvalues --   -0.60921  -0.57227  -0.55845  -0.51801  -0.50752
 Alpha  occ. eigenvalues --   -0.43616  -0.37533
 Alpha virt. eigenvalues --    0.02490   0.04203   0.04429   0.05777   0.06788
 Alpha virt. eigenvalues --    0.08915   0.09308   0.10390   0.11000   0.11363
 Alpha virt. eigenvalues --    0.13404   0.13615   0.14068   0.15359   0.15670

 Mulliken charges:
               1
     1  C    0.241809
     2  C   -0.103941
     3  O   -0.542194
     4  C    1.289848
     5  C   -0.594057
     6  N   -0.203757
     7  H   -0.094963
     8  H    0.103314
     9  H    0.092403
    10  H    0.108726
    11  H   -0.297188
 Sum of Mulliken charges =   0.00000

 Dipole moment (field-independent basis, Debye):
    X=             -3.6845    Y=              1.7527    Z=              1.4635  Tot=              4.3347

 Test job not archived.
 1\1\GINC-SE132\SP\RHF\Aug-CC-pVDZ\C4H5N1O1\OHZDE\09-Apr-2025\0\\#t hf
 aug-cc-pvdz iop(5/13=1,5/36=2,99/5=2) pseudo=read geom=check guess=(re
 ad,tcheck) scf=(maxcycle=1)\\title\\0,1\C,0,-1.42926637,0.12515566,-0.
 27010797\C,0,-0.59166613,-0.67920368,0.71620199\O,0,-1.0875919,-1.4910
 4247,1.49089651\C,0,0.87674195,-0.44880349,0.70712264\C,0,1.48171601,0
 .41623887,-0.10313216\N,0,1.97980186,1.32543096,-0.76148275\H,0,-2.490
 31731,-0.08126477,-0.0978299\H,0,-1.17113617,-0.15141698,-1.30350301\H
 ,0,-1.23862297,1.20243669,-0.16108701\H,0,2.3244466,1.11143962,-1.7036

 Normal termination of Gaussian 16 at Wed Apr  9 03:14:53 2025.
