 Gaussian 16, Revision C.01,

 ----------------------------------------------------------------------
 #t hf aug-cc-pvdz symm=none int=(grid=ultrafine) guess=(read,tcheck) s
 table=(opt,rrhf)
 ----------------------------------------------------------------------
 -----
 title
 -----
 Symbolic Z-matrix:
 Charge =  0 Multiplicity = 1

 SCF Done:  E(RHF) =  -307.807561555     A.U. after   15 cycles

 1\1\GINC-SE120\Stability\RHF\Aug-CC-pVDZ\C6H10O1\OHZDE\09-Apr-2025\0\\
 #t hf aug-cc-pvdz symm=none int=(grid=ultrafine) guess=(read,tcheck) s
 table=(opt,rrhf)\\title\\0,1\C,0,1.90507093,-0.75442906,-0.29955709\C,
 0,0.00389228,1.76816658,-0.7208154\C,0,0.58861702,-1.17653664,0.341720
 68\C,0,-0.64940877,-0.7994331,-0.4735976\C,0,-1.03730775,0.67331598,-0
 .45471978\C,0,-1.26805844,1.41241134,0.86768981\O,0,-0.28853796,2.3841
 1908,0.41407199\H,0,2.75362115,-1.03888849,0.32516991\H,0,2.02990582,-
 1.23291345,-1.27402012\H,0,1.95277265,0.32466375,-0.46319203\H,0,0.587

 Normal termination of Gaussian 16 at Wed Apr  9 03:33:07 2025.
 Gaussian 16:  ES64L-G16RevC.01  3-Jul-2019

 ----------------------------------------------------------------------
 #t hf aug-cc-pvdz iop(5/13=1,5/36=2,99/5=2) pseudo=read geom=check gue
 ss=(read,tcheck) scf=(maxcycle=1)
 ----------------------------------------------------------------------
 -----
 title
 -----
 Structure from the checkpoint file:  "Grambow2020_wb97xd3_007040_reverse_mol2.chk"
 Charge =  0 Multiplicity = 1

                         Standard orientation:
 ---------------------------------------------------------------------
 Center     Atomic      Atomic             Coordinates (Angstroms)
 Number     Number       Type             X           Y           Z
 ---------------------------------------------------------------------
      1          6           0       -2.093311   -0.992788   -0.010492
      2          6           0        0.984709   -0.844339   -0.822393
      3          6           0       -1.629239    0.344168    0.554884
      4          6           0       -0.732373    1.142494   -0.392726
      5          6           0        0.696244    0.636422   -0.543578
      6          6           0        1.596070    0.434686    0.680306
      7          8           0        1.794320   -0.929083    0.221748
      8          1           0       -2.721221   -1.524243    0.706810
      9          1           0       -2.676884   -0.843895   -0.922294
     10          1           0       -1.253009   -1.641166   -0.269319
     11          1           0       -2.503782    0.956688    0.791035
     12          1           0       -1.117094    0.184209    1.509679
     13          1           0       -0.683396    2.183523   -0.057546
     14          1           0       -1.191285    1.163038   -1.385950
     15          1           0        1.203706    1.214465   -1.323039
     16          1           0        1.114903    0.438518    1.657987
     17          1           0        2.540894    0.977667    0.722648
 ---------------------------------------------------------------------

 SCF Done:  E(RHF) =  -307.903313613     A.U. after    2 cycles

 The electronic state is 1-A.
 Alpha  occ. eigenvalues --  -20.62951 -11.31081 -11.30355 -11.24986 -11.24595
 Alpha  occ. eigenvalues --  -11.23654 -11.22027  -1.42145  -1.08754  -1.01493
 Alpha  occ. eigenvalues --   -0.94684  -0.91149  -0.81707  -0.72478  -0.69617
 Alpha  occ. eigenvalues --   -0.68646  -0.63796  -0.61752  -0.58333  -0.55694
 Alpha  occ. eigenvalues --   -0.54524  -0.52028  -0.50275  -0.48620  -0.47543
 Alpha  occ. eigenvalues --   -0.46611  -0.35410
 Alpha virt. eigenvalues --    0.02943   0.03965   0.04290   0.04922   0.06135
 Alpha virt. eigenvalues --    0.06359   0.06733   0.08044   0.08185   0.09358
 Alpha virt. eigenvalues --    0.10383   0.10724   0.13080   0.13480   0.14235

 Mulliken charges:
               1
     1  C    0.394811
     2  C    0.025293
     3  C    0.412494
     4  C    0.204453
     5  C   -0.050961
     6  C    0.922077
     7  O   -0.610307
     8  H   -0.064386
     9  H   -0.061386
    10  H   -0.173993
    11  H   -0.102921
    12  H   -0.140365
    13  H   -0.081929
    14  H   -0.086676
    15  H   -0.164646
    16  H   -0.245403
    17  H   -0.176157
 Sum of Mulliken charges =  -0.00000

 Dipole moment (field-independent basis, Debye):
    X=             -0.5939    Y=              3.5236    Z=              1.3800  Tot=              3.8305

 Test job not archived.
 1\1\GINC-SE120\SP\RHF\Aug-CC-pVDZ\C6H10O1\OHZDE\09-Apr-2025\0\\#t hf a
 ug-cc-pvdz iop(5/13=1,5/36=2,99/5=2) pseudo=read geom=check guess=(rea
 d,tcheck) scf=(maxcycle=1)\\title\\0,1\C,0,1.90507093,-0.75442906,-0.2
 9955709\C,0,0.00389228,1.76816658,-0.7208154\C,0,0.58861702,-1.1765366
 4,0.34172068\C,0,-0.64940877,-0.7994331,-0.4735976\C,0,-1.03730775,0.6
 7331598,-0.45471978\C,0,-1.26805844,1.41241134,0.86768981\O,0,-0.28853
 796,2.38411908,0.41407199\H,0,2.75362115,-1.03888849,0.32516991\H,0,2.
 02990582,-1.23291345,-1.27402012\H,0,1.95277265,0.32466375,-0.46319203

 Normal termination of Gaussian 16 at Wed Apr  9 03:33:13 2025.
