 Gaussian 16, Revision C.01,

 ----------------------------------------------------------------------
 #t hf aug-cc-pvdz symm=none int=(grid=ultrafine) guess=(read,tcheck) s
 table=(opt,rrhf)
 ----------------------------------------------------------------------
 -----
 title
 -----
 Symbolic Z-matrix:
 Charge =  0 Multiplicity = 1

 SCF Done:  E(RHF) =  -306.712283221     A.U. after   14 cycles
 Normal termination of Gaussian 16 at Wed Apr  9 16:22:09 2025.
 Gaussian 16:  ES64L-G16RevC.01  3-Jul-2019

 ----------------------------------------------------------------------
 #t hf aug-cc-pvdz iop(5/13=1,5/36=2,99/5=2) pseudo=read geom=check gue
 ss=(read,tcheck) scf=(maxcycle=1)
 ----------------------------------------------------------------------
 -----
 title
 -----
 Structure from the checkpoint file:  "Grambow2020_wb97xd3_008160_reverse_mol2.chk"
 Charge =  0 Multiplicity = 1

                         Standard orientation:
 ---------------------------------------------------------------------
 Center     Atomic      Atomic             Coordinates (Angstroms)
 Number     Number       Type             X           Y           Z
 ---------------------------------------------------------------------
      1          8           0        2.195798   -0.461411   -0.017733
      2          6           0        0.933783    0.022201   -0.069820
      3          6           0       -1.161914   -1.163834    0.642458
      4          6           0       -1.404768   -0.096345   -0.377236
      5          6           0       -1.007382    1.335444   -0.037496
      6          6           0        0.480214    1.247136    0.198767
      7          6           0       -0.145410   -0.924272   -0.441797
      8          1           0        2.799774    0.253743    0.195964
      9          1           0       -0.896704   -0.876525    1.652908
     10          1           0       -1.764388   -2.059904    0.564261
     11          1           0       -2.199064   -0.259561   -1.093096
     12          1           0       -1.243325    2.007262   -0.868982
     13          1           0       -1.550475    1.710187    0.835891
     14          1           0        1.080722    2.072657    0.560566
     15          1           0        0.039942   -1.678547   -1.194902
 ---------------------------------------------------------------------

 SCF Done:  E(RHF) =  -306.806462492     A.U. after    2 cycles

 The electronic state is 1-A.
 Alpha  occ. eigenvalues --  -20.60255 -11.30077 -11.23929 -11.23843 -11.23496
 Alpha  occ. eigenvalues --  -11.23420 -11.21444  -1.36736  -1.17470  -1.02720
 Alpha  occ. eigenvalues --   -0.94917  -0.84656  -0.78993  -0.76501  -0.71228
 Alpha  occ. eigenvalues --   -0.65819  -0.63342  -0.59826  -0.58166  -0.56639
 Alpha  occ. eigenvalues --   -0.53688  -0.51042  -0.48593  -0.43837  -0.40949
 Alpha  occ. eigenvalues --   -0.32011
 Alpha virt. eigenvalues --    0.03348   0.03938   0.04711   0.04893   0.06301
 Alpha virt. eigenvalues --    0.06508   0.06985   0.07500   0.10805   0.11852
 Alpha virt. eigenvalues --    0.12810   0.13657   0.14020   0.14641   0.14927

 Mulliken charges:
               1
     1  O   -0.574575
     2  C   -0.103615
     3  C    0.755811
     4  C    0.512418
     5  C    0.208010
     6  C    0.705878
     7  C    0.255557
     8  H    0.109265
     9  H   -0.343501
    10  H   -0.354742
    11  H   -0.363905
    12  H   -0.040384
    13  H   -0.010586
    14  H   -0.403156
    15  H   -0.352474
 Sum of Mulliken charges =  -0.00000

 Dipole moment (field-independent basis, Debye):
    X=             -0.2245    Y=              0.9873    Z=              0.1237  Tot=              1.0200

 Test job not archived.
 1\1\GINC-SE168\SP\RHF\Aug-CC-pVDZ\C6H8O1\OHZDE\09-Apr-2025\0\\#t hf au
 g-cc-pvdz iop(5/13=1,5/36=2,99/5=2) pseudo=read geom=check guess=(read
 ,tcheck) scf=(maxcycle=1)\\title\\0,1\O,0,1.92208777,1.47387818,-0.661
 00951\C,0,0.77331547,0.86616238,-0.28647079\C,0,0.40790246,-1.59877461
 ,0.02421099\C,0,-0.85040333,-0.84873488,-0.27975387\C,0,-1.27972066,0.
 26325803,0.67025502\C,0,-0.13131272,1.24054527,0.61896505\C,0,0.447420
 89,-0.43154451,-0.92567817\H,0,1.99713073,2.31597448,-0.2058828\H,0,0.
 87430379,-1.47392356,0.99414697\H,0,0.50276186,-2.58781,-0.40572006\H,

 Normal termination of Gaussian 16 at Wed Apr  9 16:22:14 2025.
