 Gaussian 16, Revision C.01,

 ----------------------------------------------------------------------
 #t hf aug-cc-pvdz symm=none int=(grid=ultrafine) guess=(read,tcheck) s
 table=(opt,rrhf)
 ----------------------------------------------------------------------
 -----
 title
 -----
 Symbolic Z-matrix:
 Charge =  0 Multiplicity = 1

 SCF Done:  E(RHF) =  -307.877917896     A.U. after   13 cycles

 1\1\GINC-SE163\Stability\RHF\Aug-CC-pVDZ\C6H10O1\OHZDE\09-Apr-2025\0\\
 #t hf aug-cc-pvdz symm=none int=(grid=ultrafine) guess=(read,tcheck) s
 table=(opt,rrhf)\\title\\0,1\O,0,2.43487003,-0.53483705,-0.34394385\C,
 0,1.04147379,-0.62140483,-0.43205993\C,0,0.2833084,-1.78556903,0.22778
 536\C,0,-0.86538814,-0.79496437,0.51178875\C,0,-1.45205101,2.06043166,
 -0.53850569\C,0,-0.22188533,1.66400296,-0.24896262\C,0,0.14787136,0.35
 929386,0.36601934\H,0,2.69016399,-0.62686713,0.57667278\H,0,0.8025515,
 -0.55802191,-1.49591965\H,0,0.77826955,-2.09209071,1.15332055\H,0,0.07

 Normal termination of Gaussian 16 at Wed Apr  9 16:27:17 2025.
 Gaussian 16:  ES64L-G16RevC.01  3-Jul-2019

 ----------------------------------------------------------------------
 #t hf aug-cc-pvdz iop(5/13=1,5/36=2,99/5=2) pseudo=read geom=check gue
 ss=(read,tcheck) scf=(maxcycle=1)
 ----------------------------------------------------------------------
 -----
 title
 -----
 Structure from the checkpoint file:  "Grambow2020_wb97xd3_008424_reverse_mol2.chk"
 Charge =  0 Multiplicity = 1

                         Standard orientation:
 ---------------------------------------------------------------------
 Center     Atomic      Atomic             Coordinates (Angstroms)
 Number     Number       Type             X           Y           Z
 ---------------------------------------------------------------------
      1          8           0       -1.837018   -1.387667   -0.048512
      2          6           0       -0.985013   -0.329750   -0.382744
      3          6           0       -1.420393    1.128995   -0.163663
      4          6           0        0.052306    1.454401    0.163029
      5          6           0        2.671186   -0.153403   -0.233223
      6          6           0        1.545649   -0.738553    0.147651
      7          6           0        0.271537   -0.040666    0.474425
      8          1           0       -2.148420   -1.258376    0.850093
      9          1           0       -0.694139   -0.494404   -1.422542
     10          1           0       -2.050197    1.213411    0.726156
     11          1           0       -1.902617    1.650096   -0.989562
     12          1           0        0.252725    2.169491    0.958896
     13          1           0        0.598088    1.757331   -0.731693
     14          1           0        3.557039   -0.732219   -0.463915
     15          1           0        2.752066    0.924435   -0.324012
     16          1           0        1.513851   -1.823027    0.229523
     17          1           0        0.006109   -0.231550    1.522303
 ---------------------------------------------------------------------

 SCF Done:  E(RHF) =  -307.973101809     A.U. after    2 cycles

 The electronic state is 1-A.
 Alpha  occ. eigenvalues --  -20.57466 -11.28958 -11.24199 -11.24104 -11.23546
 Alpha  occ. eigenvalues --  -11.23356 -11.23055  -1.33158  -1.13403  -1.03754
 Alpha  occ. eigenvalues --   -0.90878  -0.89196  -0.80555  -0.75805  -0.69325
 Alpha  occ. eigenvalues --   -0.66896  -0.62873  -0.61214  -0.58644  -0.56621
 Alpha  occ. eigenvalues --   -0.55964  -0.52493  -0.48505  -0.46450  -0.44699
 Alpha  occ. eigenvalues --   -0.43885  -0.36112
 Alpha virt. eigenvalues --    0.03380   0.04067   0.04396   0.04851   0.06125
 Alpha virt. eigenvalues --    0.06230   0.06974   0.07175   0.07711   0.08559
 Alpha virt. eigenvalues --    0.11788   0.12828   0.12976   0.13630   0.14295

 Mulliken charges:
               1
     1  O   -0.531532
     2  C    0.399779
     3  C    0.644770
     4  C    0.426345
     5  C    0.530295
     6  C    0.612324
     7  C    0.080841
     8  H    0.106292
     9  H   -0.280431
    10  H   -0.215632
    11  H   -0.145823
    12  H   -0.142785
    13  H   -0.238085
    14  H   -0.323019
    15  H   -0.295459
    16  H   -0.410540
    17  H   -0.217339
 Sum of Mulliken charges =   0.00000

 Dipole moment (field-independent basis, Debye):
    X=              0.1492    Y=              1.4165    Z=              1.1259  Tot=              1.8156

 Test job not archived.
 1\1\GINC-SE163\SP\RHF\Aug-CC-pVDZ\C6H10O1\OHZDE\09-Apr-2025\0\\#t hf a
 ug-cc-pvdz iop(5/13=1,5/36=2,99/5=2) pseudo=read geom=check guess=(rea
 d,tcheck) scf=(maxcycle=1)\\title\\0,1\O,0,2.43487003,-0.53483705,-0.3
 4394385\C,0,1.04147379,-0.62140483,-0.43205993\C,0,0.2833084,-1.785569
 03,0.22778536\C,0,-0.86538814,-0.79496437,0.51178875\C,0,-1.45205101,2
 .06043166,-0.53850569\C,0,-0.22188533,1.66400296,-0.24896262\C,0,0.147
 87136,0.35929386,0.36601934\H,0,2.69016399,-0.62686713,0.57667278\H,0,
 0.8025515,-0.55802191,-1.49591965\H,0,0.77826955,-2.09209071,1.1533205

 Normal termination of Gaussian 16 at Wed Apr  9 16:27:23 2025.
