 Gaussian 16, Revision C.01,

 ----------------------------------------------------------------------
 #t hf aug-cc-pvdz symm=none int=(grid=ultrafine) guess=(read,tcheck) s
 table=(opt,rrhf)
 ----------------------------------------------------------------------
 -----
 title
 -----
 Symbolic Z-matrix:
 Charge =  0 Multiplicity = 1

 SCF Done:  E(RHF) =  -346.067500743     A.U. after   12 cycles

 1\1\GINC-SE103\Stability\RHF\Aug-CC-pVDZ\C5H12O2\OHZDE\09-Apr-2025\0\\
 #t hf aug-cc-pvdz symm=none int=(grid=ultrafine) guess=(read,tcheck) s
 table=(opt,rrhf)\\title\\0,1\C,0,3.30871907,0.62801184,-0.77593118\C,0
 ,2.28735122,-0.22493702,-0.06079563\O,0,0.9997868,0.24991063,-0.375463
 04\C,0,-0.02323261,-0.46821991,0.26188946\C,0,-1.34582176,0.1274373,-0
 .1662278\O,0,-2.3683593,-0.57771757,0.48776122\C,0,-3.64824899,-0.1147
 9172,0.15174566\H,0,3.22191845,1.6697338,-0.4641237\H,0,3.15919579,0.5
 7946361,-1.85536746\H,0,4.31870743,0.28191459,-0.54981663\H,0,2.443415

 Normal termination of Gaussian 16 at Wed Apr  9 17:09:45 2025.
 Gaussian 16:  ES64L-G16RevC.01  3-Jul-2019

 ----------------------------------------------------------------------
 #t hf aug-cc-pvdz iop(5/13=1,5/36=2,99/5=2) pseudo=read geom=check gue
 ss=(read,tcheck) scf=(maxcycle=1)
 ----------------------------------------------------------------------
 -----
 title
 -----
 Structure from the checkpoint file:  "Grambow2020_wb97xd3_009167_forward_mol2.chk"
 Charge =  0 Multiplicity = 1

                         Standard orientation:
 ---------------------------------------------------------------------
 Center     Atomic      Atomic             Coordinates (Angstroms)
 Number     Number       Type             X           Y           Z
 ---------------------------------------------------------------------
      1          6           0        3.526541   -0.477062   -0.010494
      2          6           0        2.360512    0.483197    0.009824
      3          8           0        1.163067   -0.257352    0.004400
      4          6           0        0.015835    0.550324    0.000348
      5          6           0       -1.192855   -0.358708    0.008328
      6          8           0       -2.340461    0.449312   -0.016821
      7          6           0       -3.528823   -0.294182    0.001537
      8          1           0        3.491931   -1.100939   -0.904654
      9          1           0        3.500517   -1.128890    0.863771
     10          1           0        4.470478    0.070621   -0.006754
     11          1           0        2.391260    1.148065   -0.865936
     12          1           0        2.399649    1.122331    0.904269
     13          1           0       -0.008145    1.205264    0.882717
     14          1           0       -0.010909    1.192018   -0.891546
     15          1           0       -1.161375   -1.023677   -0.866414
     16          1           0       -1.176424   -0.990159    0.907924
     17          1           0       -3.608225   -0.901297    0.913079
     18          1           0       -3.599022   -0.962184   -0.867186
     19          1           0       -4.357843    0.411744   -0.027153
 ---------------------------------------------------------------------

 SCF Done:  E(RHF) =  -346.182675905     A.U. after    2 cycles

 The electronic state is 1-A.
 Alpha  occ. eigenvalues --  -20.57108 -20.56861 -11.28412 -11.28177 -11.28093
 Alpha  occ. eigenvalues --  -11.28005 -11.22364  -1.34648  -1.33585  -1.04328
 Alpha  occ. eigenvalues --   -0.98754  -0.90561  -0.83585  -0.83210  -0.70091
 Alpha  occ. eigenvalues --   -0.68855  -0.66390  -0.65757  -0.63465  -0.59701
 Alpha  occ. eigenvalues --   -0.58638  -0.54110  -0.53889  -0.50603  -0.49622
 Alpha  occ. eigenvalues --   -0.49156  -0.47948  -0.43608  -0.43249
 Alpha virt. eigenvalues --    0.03618   0.04181   0.04921   0.04969   0.05773
 Alpha virt. eigenvalues --    0.06114   0.06196   0.07543   0.08242   0.08429
 Alpha virt. eigenvalues --    0.08820   0.10169   0.11540   0.12689   0.14377

 Mulliken charges:
               1
     1  C    0.303888
     2  C    0.403218
     3  O   -0.601166
     4  C    0.469669
     5  C    0.756374
     6  O   -0.618984
     7  C    0.678162
     8  H   -0.045422
     9  H   -0.044529
    10  H   -0.047254
    11  H   -0.121949
    12  H   -0.131584
    13  H   -0.132774
    14  H   -0.140546
    15  H   -0.169713
    16  H   -0.165404
    17  H   -0.063475
    18  H   -0.059229
    19  H   -0.269282
 Sum of Mulliken charges =  -0.00000

 Dipole moment (field-independent basis, Debye):
    X=              0.0952    Y=             -0.0812    Z=              0.0394  Tot=              0.1312

 Test job not archived.
 1\1\GINC-SE103\SP\RHF\Aug-CC-pVDZ\C5H12O2\OHZDE\09-Apr-2025\0\\#t hf a
 ug-cc-pvdz iop(5/13=1,5/36=2,99/5=2) pseudo=read geom=check guess=(rea
 d,tcheck) scf=(maxcycle=1)\\title\\0,1\C,0,3.30871907,0.62801184,-0.77
 593118\C,0,2.28735122,-0.22493702,-0.06079563\O,0,0.9997868,0.24991063
 ,-0.37546304\C,0,-0.02323261,-0.46821991,0.26188946\C,0,-1.34582176,0.
 1274373,-0.1662278\O,0,-2.3683593,-0.57771757,0.48776122\C,0,-3.648248
 99,-0.11479172,0.15174566\H,0,3.22191845,1.6697338,-0.4641237\H,0,3.15
 919579,0.57946361,-1.85536746\H,0,4.31870743,0.28191459,-0.54981663\H,

 Normal termination of Gaussian 16 at Wed Apr  9 17:09:52 2025.
