 Gaussian 16, Revision C.01,

 ----------------------------------------------------------------------
 #t hf aug-cc-pvdz symm=none int=(grid=ultrafine) guess=(read,tcheck) s
 table=(opt,rrhf)
 ----------------------------------------------------------------------
 -----
 title
 -----
 Symbolic Z-matrix:
 Charge =  0 Multiplicity = 1

 SCF Done:  E(RHF) =  -354.621458103     A.U. after   16 cycles
 Normal termination of Gaussian 16 at Wed Apr  9 15:42:44 2025.
 Gaussian 16:  ES64L-G16RevC.01  3-Jul-2019

 ----------------------------------------------------------------------
 #t hf aug-cc-pvdz iop(5/13=1,5/36=2,99/5=2) pseudo=read geom=check gue
 ss=(read,tcheck) scf=(maxcycle=1)
 ----------------------------------------------------------------------
 -----
 title
 -----
 Structure from the checkpoint file:  "Grambow2020_wb97xd3_007314_forward_mol1.chk"
 Charge =  0 Multiplicity = 1

                         Standard orientation:
 ---------------------------------------------------------------------
 Center     Atomic      Atomic             Coordinates (Angstroms)
 Number     Number       Type             X           Y           Z
 ---------------------------------------------------------------------
      1          8           0       -2.371207   -0.336839    0.654950
      2          6           0       -1.748623    0.036008   -0.495545
      3          6           0       -0.074301    0.028216   -0.258399
      4          7           0       -0.140899    1.245035   -0.158549
      5          7           0        2.192053    0.634232    0.266689
      6          6           0        1.930227   -0.596303    0.080359
      7          7           0        0.651318   -1.040398   -0.224394
      8          1           0       -2.564652    0.438815    1.187674
      9          1           0       -2.129710    0.936042   -0.970050
     10          1           0       -1.729387   -0.791745   -1.206870
     11          1           0        3.164298    0.828561    0.468709
     12          1           0        2.667982   -1.396567    0.136226
 ---------------------------------------------------------------------

 SCF Done:  E(RHF) =  -354.726856387     A.U. after    2 cycles

 The electronic state is 1-A.
 Alpha  occ. eigenvalues --  -20.62858 -15.72637 -15.61151 -15.60201 -11.37822
 Alpha  occ. eigenvalues --  -11.35868 -11.32087  -1.39959  -1.29534  -1.20273
 Alpha  occ. eigenvalues --   -1.11514  -0.97172  -0.84723  -0.77411  -0.72434
 Alpha  occ. eigenvalues --   -0.69769  -0.68649  -0.62651  -0.61623  -0.58454
 Alpha  occ. eigenvalues --   -0.56607  -0.51779  -0.46622  -0.43951  -0.41927
 Alpha  occ. eigenvalues --   -0.35309
 Alpha virt. eigenvalues --    0.02732   0.03876   0.04332   0.05109   0.06637
 Alpha virt. eigenvalues --    0.07702   0.08989   0.10233   0.11811   0.12808
 Alpha virt. eigenvalues --    0.13250   0.13436   0.14037   0.14180   0.15909

 Mulliken charges:
               1
     1  O   -0.466458
     2  C    0.840595
     3  C   -0.100585
     4  N   -0.251253
     5  N   -0.388614
     6  C    0.995117
     7  N   -0.498954
     8  H    0.180547
     9  H   -0.043308
    10  H   -0.021335
    11  H   -0.019359
    12  H   -0.226391
 Sum of Mulliken charges =  -0.00000

 Dipole moment (field-independent basis, Debye):
    X=             -1.5490    Y=              0.9613    Z=             -0.4468  Tot=              1.8770

 Test job not archived.
 1\1\GINC-SE100\SP\RHF\Aug-CC-pVDZ\C3H5N3O1\OHZDE\09-Apr-2025\0\\#t hf
 aug-cc-pvdz iop(5/13=1,5/36=2,99/5=2) pseudo=read geom=check guess=(re
 ad,tcheck) scf=(maxcycle=1)\\title\\0,1\O,0,-2.23036983,0.95287402,0.3
 7263136\C,0,-1.78327718,-0.14974528,-0.28661275\C,0,-0.09321755,-0.186
 51187,-0.24188277\N,0,-0.11137447,0.22481288,-1.39320257\N,0,2.2422708
 2,0.11350324,-0.72646618\C,0,1.92234262,-0.33261414,0.42075379\N,0,0.6
 0041489,-0.53562201,0.79088587\H,0,-2.31863363,1.68674377,-0.24096522\
 H,0,-2.20911763,-0.31755171,-1.2719783\H,0,-1.89602973,-1.04011916,0.3

 Normal termination of Gaussian 16 at Wed Apr  9 15:42:48 2025.
