 Gaussian 16, Revision C.01,

 ----------------------------------------------------------------------
 #t hf aug-cc-pvdz symm=none int=(grid=ultrafine) guess=(read,tcheck) s
 table=(opt,rrhf)
 ----------------------------------------------------------------------
 -----
 title
 -----
 Symbolic Z-matrix:
 Charge =  0 Multiplicity = 1

 SCF Done:  E(RHF) =  -343.560492376     A.U. after   16 cycles
 Normal termination of Gaussian 16 at Wed Apr  9 03:34:44 2025.
 Gaussian 16:  ES64L-G16RevC.01  3-Jul-2019

 ----------------------------------------------------------------------
 #t hf aug-cc-pvdz iop(5/13=1,5/36=2,99/5=2) pseudo=read geom=check gue
 ss=(read,tcheck) scf=(maxcycle=1)
 ----------------------------------------------------------------------
 -----
 title
 -----
 Structure from the checkpoint file:  "Grambow2020_wb97xd3_007153_reverse_mol1.chk"
 Charge =  0 Multiplicity = 1

                         Standard orientation:
 ---------------------------------------------------------------------
 Center     Atomic      Atomic             Coordinates (Angstroms)
 Number     Number       Type             X           Y           Z
 ---------------------------------------------------------------------
      1          8           0        0.271639    1.489669    0.373333
      2          6           0        0.528964    0.523187   -0.525300
      3          6           0       -0.353543   -1.089559   -0.049798
      4          6           0       -1.781742   -0.593251   -0.090740
      5          8           0       -2.185300    0.537754   -0.033608
      6          6           0        1.470621   -0.844000    0.527470
      7          6           0        1.987424    0.144334   -0.422814
      8          1           0       -0.690098    1.614688    0.340498
      9          1           0       -0.240007   -1.711904   -0.939659
     10          1           0       -0.457307   -1.811889    0.791533
     11          1           0       -2.512221   -1.429082   -0.140734
     12          1           0        1.711126   -1.888896    0.380070
     13          1           0        1.395535   -0.524605    1.558806
     14          1           0        2.585653    0.945293   -0.001314
     15          1           0        2.406258   -0.257253   -1.339913
 ---------------------------------------------------------------------

 SCF Done:  E(RHF) =  -343.666721521     A.U. after    2 cycles

 The electronic state is 1-A.
 Alpha  occ. eigenvalues --  -20.58438 -20.58376 -11.35779 -11.29959 -11.28922
 Alpha  occ. eigenvalues --  -11.28803 -11.23796  -1.38139  -1.35494  -1.10733
 Alpha  occ. eigenvalues --   -1.00861  -0.87674  -0.81100  -0.78698  -0.71074
 Alpha  occ. eigenvalues --   -0.68359  -0.66189  -0.64750  -0.61468  -0.59981
 Alpha  occ. eigenvalues --   -0.56688  -0.55138  -0.52713  -0.51454  -0.47289
 Alpha  occ. eigenvalues --   -0.41640  -0.30289
 Alpha virt. eigenvalues --    0.02903   0.04217   0.04404   0.05107   0.06420
 Alpha virt. eigenvalues --    0.06726   0.07274   0.07362   0.09813   0.10827
 Alpha virt. eigenvalues --    0.11648   0.12013   0.13357   0.14367   0.14747

 Mulliken charges:
               1
     1  O   -0.490265
     2  C   -0.097855
     3  C    0.094933
     4  C    0.565724
     5  O   -0.472969
     6  C    0.342515
     7  C    0.792920
     8  H    0.243346
     9  H   -0.087481
    10  H   -0.106090
    11  H   -0.181998
    12  H   -0.172106
    13  H   -0.200004
    14  H   -0.080384
    15  H   -0.150285
 Sum of Mulliken charges =  -0.00000

 Dipole moment (field-independent basis, Debye):
    X=              1.3458    Y=             -3.9276    Z=              0.5639  Tot=              4.1899

 Test job not archived.
 1\1\GINC-SE363\SP\RHF\Aug-CC-pVDZ\C5H8O2\OHZDE\09-Apr-2025\0\\#t hf au
 g-cc-pvdz iop(5/13=1,5/36=2,99/5=2) pseudo=read geom=check guess=(read
 ,tcheck) scf=(maxcycle=1)\\title\\0,1\O,0,0.06581796,0.19042638,-1.761
 32875\C,0,-0.13871142,0.80032969,-0.58063781\C,0,0.58714549,-0.2271646
 5,0.84177482\C,0,2.03635474,-0.23159374,0.4087356\O,0,2.49474762,-0.01
 451583,-0.68124034\C,0,-1.27527403,-0.46819119,0.40085134\C,0,-1.61843
 244,0.78387421,-0.27848754\H,0,1.03028729,0.13257335,-1.85132105\H,0,0
 .54392555,0.45424141,1.69375736\H,0,0.54902925,-1.24606921,1.2898239\H

 Normal termination of Gaussian 16 at Wed Apr  9 03:34:51 2025.
