 Gaussian 16, Revision C.01,

 ----------------------------------------------------------------------
 #t hf aug-cc-pvdz symm=none int=(grid=ultrafine) guess=(read,tcheck) s
 table=(opt,rrhf)
 ----------------------------------------------------------------------
 -----
 title
 -----
 Symbolic Z-matrix:
 Charge =  0 Multiplicity = 1

 SCF Done:  E(RHF) =  -322.520454056     A.U. after   15 cycles
 Normal termination of Gaussian 16 at Wed Apr  9 14:56:04 2025.
 Gaussian 16:  ES64L-G16RevC.01  3-Jul-2019

 ----------------------------------------------------------------------
 #t hf aug-cc-pvdz iop(5/13=1,5/36=2,99/5=2) pseudo=read geom=check gue
 ss=(read,tcheck) scf=(maxcycle=1)
 ----------------------------------------------------------------------
 -----
 title
 -----
 Structure from the checkpoint file:  "Grambow2020_wb97xd3_006646_reverse_mol2.chk"
 Charge =  0 Multiplicity = 1

                         Standard orientation:
 ---------------------------------------------------------------------
 Center     Atomic      Atomic             Coordinates (Angstroms)
 Number     Number       Type             X           Y           Z
 ---------------------------------------------------------------------
      1          6           0       -2.492735    0.363139   -0.062997
      2          7           0       -1.498932   -0.506527    0.037518
      3          6           0       -0.240072   -0.461536   -0.398880
      4          6           0        0.677698    0.752160   -0.499675
      5          6           0        0.946788    0.635341    1.022326
      6          6           0        1.040484   -0.768401    0.384039
      7          8           0        1.800864   -0.171021   -0.720230
      8          1           0       -3.492334    0.026024    0.154033
      9          1           0       -2.301961    1.316393   -0.529320
     10          1           0       -1.745522   -1.391797    0.462758
     11          1           0        0.619225    1.639911   -1.125036
     12          1           0        0.117154    0.839923    1.701643
     13          1           0        1.893711    1.061484    1.356443
     14          1           0        1.402366   -1.702303    0.809813
 ---------------------------------------------------------------------

 SCF Done:  E(RHF) =  -322.617922974     A.U. after    2 cycles

 The electronic state is 1-A.
 Alpha  occ. eigenvalues --  -20.56128 -15.74829 -11.31335 -11.30994 -11.26911
 Alpha  occ. eigenvalues --  -11.25663 -11.24636  -1.37070  -1.27803  -1.06064
 Alpha  occ. eigenvalues --   -0.95663  -0.89496  -0.86512  -0.79163  -0.71357
 Alpha  occ. eigenvalues --   -0.70246  -0.66374  -0.60673  -0.58152  -0.56439
 Alpha  occ. eigenvalues --   -0.53291  -0.50239  -0.47150  -0.46397  -0.43623
 Alpha  occ. eigenvalues --   -0.24967
 Alpha virt. eigenvalues --    0.02651   0.03690   0.04150   0.04839   0.06181
 Alpha virt. eigenvalues --    0.06413   0.07578   0.08221   0.10511   0.11423
 Alpha virt. eigenvalues --    0.11861   0.12161   0.13855   0.14088   0.14768

 Mulliken charges:
               1
     1  C    0.656815
     2  N    0.043152
     3  C   -0.513142
     4  C    0.853560
     5  C    0.467784
     6  C    0.956989
     7  O   -0.816102
     8  H   -0.311182
     9  H   -0.319162
    10  H    0.041625
    11  H   -0.341640
    12  H   -0.222902
    13  H   -0.197830
    14  H   -0.297969
 Sum of Mulliken charges =  -0.00000

 Dipole moment (field-independent basis, Debye):
    X=             -2.8603    Y=             -0.1561    Z=              2.5977  Tot=              3.8670

 Test job not archived.
 1\1\GINC-SE100\SP\RHF\Aug-CC-pVDZ\C5H7N1O1\OHZDE\09-Apr-2025\0\\#t hf
 aug-cc-pvdz iop(5/13=1,5/36=2,99/5=2) pseudo=read geom=check guess=(re
 ad,tcheck) scf=(maxcycle=1)\\title\\0,1\C,0,-1.9584704,-1.07162857,0.5
 0943073\N,0,-1.42196268,0.02539963,-0.00316568\C,0,-0.31279979,0.69471
 323,0.31143426\C,0,1.01757625,0.13313769,0.80158812\C,0,1.36171541,-0.
 24326441,-0.66211692\C,0,0.78810826,1.19085817,-0.63132512\O,0,1.61597
 762,1.45300572,0.55204286\H,0,-2.97972052,-1.30669167,0.26095653\H,0,-
 1.42933587,-1.58986353,1.29300828\H,0,-1.97664649,0.48003366,-0.717989

 Normal termination of Gaussian 16 at Wed Apr  9 14:56:09 2025.
