 Gaussian 16, Revision C.01,

 ----------------------------------------------------------------------
 #t hf aug-cc-pvdz symm=none int=(grid=ultrafine) guess=(read,tcheck) s
 table=(opt,rrhf)
 ----------------------------------------------------------------------
 -----
 title
 -----
 Symbolic Z-matrix:
 Charge =  0 Multiplicity = 1

 SCF Done:  E(RHF) =  -302.761458810     A.U. after   15 cycles
 Normal termination of Gaussian 16 at Wed Apr  9 16:15:06 2025.
 Gaussian 16:  ES64L-G16RevC.01  3-Jul-2019

 ----------------------------------------------------------------------
 #t hf aug-cc-pvdz iop(5/13=1,5/36=2,99/5=2) pseudo=read geom=check gue
 ss=(read,tcheck) scf=(maxcycle=1)
 ----------------------------------------------------------------------
 -----
 title
 -----
 Structure from the checkpoint file:  "Grambow2020_wb97xd3_008028_reverse_mol2.chk"
 Charge =  0 Multiplicity = 1

                         Standard orientation:
 ---------------------------------------------------------------------
 Center     Atomic      Atomic             Coordinates (Angstroms)
 Number     Number       Type             X           Y           Z
 ---------------------------------------------------------------------
      1          6           0       -2.556966   -0.144763   -0.610799
      2          6           0       -1.401144    0.107974    0.334994
      3          6           0       -0.293793   -0.937223    0.363954
      4          7           0        0.755747    0.142822    0.557192
      5          6           0       -0.349987    1.134014   -0.124893
      6          6           0        1.953715    0.003103   -0.097887
      7          7           0        2.956194   -0.129652   -0.636769
      8          1           0       -2.180416   -0.320715   -1.620065
      9          1           0       -3.163710   -0.998971   -0.297252
     10          1           0       -3.208953    0.729692   -0.650069
     11          1           0       -1.790127    0.250032    1.357374
     12          1           0       -0.117551   -1.387631   -0.609884
     13          1           0       -0.255210   -1.685962    1.155022
     14          1           0        0.929364    0.294557    1.552220
     15          1           0       -0.307935    2.048174    0.477487
 ---------------------------------------------------------------------

 SCF Done:  E(RHF) =  -302.851250562     A.U. after    2 cycles

 The electronic state is 1-A.
 Alpha  occ. eigenvalues --  -15.76613 -15.66386 -11.34181 -11.32096 -11.25070
 Alpha  occ. eigenvalues --  -11.22628 -11.22462  -1.32091  -1.21207  -1.08062
 Alpha  occ. eigenvalues --   -0.95895  -0.91259  -0.82716  -0.77501  -0.69986
 Alpha  occ. eigenvalues --   -0.65278  -0.62649  -0.58450  -0.57142  -0.56203
 Alpha  occ. eigenvalues --   -0.52482  -0.50841  -0.48138  -0.46588  -0.45483
 Alpha  occ. eigenvalues --   -0.30638
 Alpha virt. eigenvalues --    0.01717   0.03393   0.03963   0.05008   0.06394
 Alpha virt. eigenvalues --    0.06676   0.06915   0.08020   0.09297   0.11257
 Alpha virt. eigenvalues --    0.11753   0.12189   0.12271   0.13011   0.13411

 Mulliken charges:
               1
     1  C    0.545213
     2  C   -0.624098
     3  C    1.262368
     4  N   -0.444830
     5  C    0.500665
     6  C   -0.372337
     7  N   -0.069034
     8  H    0.016251
     9  H    0.004567
    10  H   -0.017633
    11  H   -0.198397
    12  H   -0.328761
    13  H   -0.129275
    14  H    0.121681
    15  H   -0.266379
 Sum of Mulliken charges =   0.00000

 Dipole moment (field-independent basis, Debye):
    X=             -2.0566    Y=             -2.2050    Z=              4.4638  Tot=              5.3867

 Test job not archived.
 1\1\GINC-SE174\SP\RHF\Aug-CC-pVDZ\C5H8N2\OHZDE\09-Apr-2025\0\\#t hf au
 g-cc-pvdz iop(5/13=1,5/36=2,99/5=2) pseudo=read geom=check guess=(read
 ,tcheck) scf=(maxcycle=1)\\title\\0,1\C,0,2.05853776,-0.18770963,-0.30
 242616\C,0,0.76037162,0.22827981,0.3579092\C,0,-0.36608024,0.6806249,-
 0.56186905\N,0,-1.3993024,0.03248913,0.34242498\C,0,-0.15910992,-0.908
 06246,0.84005455\C,0,-2.46428113,-0.6025768,-0.24603637\N,0,-3.3576293
 1,-1.11737055,-0.74593558\H,0,1.86361567,-0.94921014,-1.05971777\H,0,2
 .57254861,0.65937221,-0.76542271\H,0,2.73377363,-0.62293701,0.43644636

 Normal termination of Gaussian 16 at Wed Apr  9 16:15:31 2025.
