 Gaussian 16, Revision C.01,

 ----------------------------------------------------------------------
 #t hf aug-cc-pvdz symm=none int=(grid=ultrafine) guess=(read,tcheck) s
 table=(opt,rrhf)
 ----------------------------------------------------------------------
 -----
 title
 -----
 Symbolic Z-matrix:
 Charge =  0 Multiplicity = 1

 SCF Done:  E(RHF) =  -353.434982253     A.U. after   18 cycles
 Normal termination of Gaussian 16 at Wed Apr  9 03:46:12 2025.
 Gaussian 16:  ES64L-G16RevC.01  3-Jul-2019

 ----------------------------------------------------------------------
 #t hf aug-cc-pvdz iop(5/13=1,5/36=2,99/5=2) pseudo=read geom=check gue
 ss=(read,tcheck) scf=(maxcycle=1)
 ----------------------------------------------------------------------
 -----
 title
 -----
 Structure from the checkpoint file:  "Grambow2020_wb97xd3_007948_reverse_mol2.chk"
 Charge =  0 Multiplicity = 1

                         Standard orientation:
 ---------------------------------------------------------------------
 Center     Atomic      Atomic             Coordinates (Angstroms)
 Number     Number       Type             X           Y           Z
 ---------------------------------------------------------------------
      1          8           0       -1.650209   -1.364796   -0.015093
      2          6           0       -0.675466   -0.420509    0.015891
      3          6           0        0.653587   -0.988760    0.021400
      4          7           0        1.688252   -0.206012   -0.005901
      5          7           0        2.571478    0.486470   -0.019097
      6          6           0       -1.165038    2.019183   -0.190330
      7          7           0       -0.932362    0.811644    0.075589
      8          1           0       -2.500718   -0.927554   -0.114001
      9          1           0        0.831930   -2.050222    0.051938
     10          1           0       -1.299619    2.591941    0.746903
 ---------------------------------------------------------------------

 SCF Done:  E(RHF) =  -353.545293258     A.U. after    2 cycles

 The electronic state is 1-A.
 Alpha  occ. eigenvalues --  -20.63520 -15.83390 -15.76483 -15.67333 -11.39675
 Alpha  occ. eigenvalues --  -11.30836 -11.27728  -1.45405  -1.41209  -1.24553
 Alpha  occ. eigenvalues --   -1.15336  -1.00514  -0.88994  -0.75676  -0.74078
 Alpha  occ. eigenvalues --   -0.70010  -0.67871  -0.67185  -0.65755  -0.62749
 Alpha  occ. eigenvalues --   -0.58609  -0.52580  -0.48173  -0.38806  -0.28632
 Alpha virt. eigenvalues --    0.02962   0.03862   0.05107   0.07044   0.08004
 Alpha virt. eigenvalues --    0.08332   0.10306   0.10478   0.10968   0.11752
 Alpha virt. eigenvalues --    0.12207   0.13465   0.14011   0.15022   0.15886

 Mulliken charges:
               1
     1  O   -0.476280
     2  C    0.616831
     3  C    0.600279
     4  N    0.138697
     5  N   -0.311024
     6  C   -0.011928
     7  N   -0.272529
     8  H    0.162373
     9  H   -0.261963
    10  H   -0.184456
 Sum of Mulliken charges =  -0.00000

 Dipole moment (field-independent basis, Debye):
    X=              0.0821    Y=             -2.3334    Z=              1.4246  Tot=              2.7351

 Test job not archived.
 1\1\GINC-SE366\SP\RHF\Aug-CC-pVDZ\C3H3N3O1\OHZDE\09-Apr-2025\0\\#t hf
 aug-cc-pvdz iop(5/13=1,5/36=2,99/5=2) pseudo=read geom=check guess=(re
 ad,tcheck) scf=(maxcycle=1)\\title\\0,1\O,0,1.90689313,-0.3364135,-0.0
 1450071\C,0,0.57175877,-0.09166873,0.00222585\C,0,0.26264183,1.3154982
 ,0.11905844\N,0,-0.97427377,1.7070288,0.0923154\N,0,-2.05019085,2.0263
 8204,0.07784452\C,0,-1.12424945,-1.87915818,-0.40118751\N,0,-0.2835023
 5,-1.01611613,-0.03882742\H,0,2.04731113,-1.27129411,-0.18945412\H,0,1
 .02221202,2.07004097,0.23376264\H,0,-1.53686246,-2.39809737,0.48482791

 Normal termination of Gaussian 16 at Wed Apr  9 03:46:15 2025.
