 Gaussian 16, Revision C.01,

 ----------------------------------------------------------------------
 #t hf aug-cc-pvdz symm=none int=(grid=ultrafine) guess=(read,tcheck) s
 table=(opt,rrhf)
 ----------------------------------------------------------------------
 -----
 title
 -----
 Symbolic Z-matrix:
 Charge =  0 Multiplicity = 1

 SCF Done:  E(RHF) =  -269.629150655     A.U. after   14 cycles
 Normal termination of Gaussian 16 at Wed Apr  9 16:45:07 2025.
 Gaussian 16:  ES64L-G16RevC.01  3-Jul-2019

 ----------------------------------------------------------------------
 #t hf aug-cc-pvdz iop(5/13=1,5/36=2,99/5=2) pseudo=read geom=check gue
 ss=(read,tcheck) scf=(maxcycle=1)
 ----------------------------------------------------------------------
 -----
 title
 -----
 Structure from the checkpoint file:  "Grambow2020_wb97xd3_008704_forward_mol2.chk"
 Charge =  0 Multiplicity = 1

                         Standard orientation:
 ---------------------------------------------------------------------
 Center     Atomic      Atomic             Coordinates (Angstroms)
 Number     Number       Type             X           Y           Z
 ---------------------------------------------------------------------
      1          6           0        0.001043    1.191000    1.263739
      2          6           0        0.000251    0.309975    0.000103
      3          6           0       -0.002972    1.191759   -1.263013
      4          6           0        1.202576   -0.541993   -0.001716
      5          6           0        2.198139   -1.205834   -0.001367
      6          6           0       -1.201418   -0.543147    0.000777
      7          6           0       -2.196730   -1.207337    0.000983
      8          1           0        0.006537    0.574643    2.161790
      9          1           0       -0.890216    1.819588    1.274706
     10          1           0        0.886847    1.827338    1.268840
     11          1           0        0.881869    1.829413   -1.270311
     12          1           0        0.000824    0.576163   -2.161574
     13          1           0       -0.895195    1.818978   -1.271976
     14          1           0        3.078542   -1.803654    0.000302
     15          1           0       -3.074535   -1.809005    0.001193
 ---------------------------------------------------------------------

 SCF Done:  E(RHF) =  -269.715960822     A.U. after    2 cycles

 The electronic state is 1-A.
 Alpha  occ. eigenvalues --  -11.30358 -11.24865 -11.24858 -11.24158 -11.24151
 Alpha  occ. eigenvalues --  -11.23763 -11.23760  -1.13131  -1.01950  -1.00157
 Alpha  occ. eigenvalues --   -0.94718  -0.86670  -0.75320  -0.71006  -0.67911
 Alpha  occ. eigenvalues --   -0.63669  -0.59850  -0.55934  -0.54025  -0.53945
 Alpha  occ. eigenvalues --   -0.51325  -0.41235  -0.40464  -0.38778  -0.38743
 Alpha virt. eigenvalues --    0.03397   0.03847   0.04284   0.05165   0.06137
 Alpha virt. eigenvalues --    0.06548   0.07585   0.07719   0.09868   0.10629
 Alpha virt. eigenvalues --    0.11686   0.11829   0.12056   0.12559   0.14345

 Mulliken charges:
               1
     1  C    0.967185
     2  C   -2.154918
     3  C    0.967732
     4  C   -0.221347
     5  C    0.912698
     6  C   -0.217431
     7  C    0.911761
     8  H   -0.016733
     9  H   -0.019205
    10  H   -0.019200
    11  H   -0.019601
    12  H   -0.017287
    13  H   -0.020189
    14  H   -0.526826
    15  H   -0.526639
 Sum of Mulliken charges =  -0.00000

 Dipole moment (field-independent basis, Debye):
    X=              0.0014    Y=              0.7336    Z=              0.0030  Tot=              0.7336

 Test job not archived.
 1\1\GINC-SE339\SP\RHF\Aug-CC-pVDZ\C7H8\OHZDE\09-Apr-2025\0\\#t hf aug-
 cc-pvdz iop(5/13=1,5/36=2,99/5=2) pseudo=read geom=check guess=(read,t
 check) scf=(maxcycle=1)\\title\\0,1\C,0,-0.90268401,-0.71214125,-1.060
 9405\C,0,-0.03976288,-0.01060477,0.00498355\C,0,-0.87486891,0.26155745
 ,1.27050299\C,0,1.1048524,-0.87188723,0.3506544\C,0,2.01253608,-1.5959
 5139,0.63991351\C,0,0.45760461,1.26774829,-0.53377806\C,0,0.82871028,2
 .31632999,-0.97485767\H,0,-0.31825779,-0.91108216,-1.95831992\H,0,-1.7
 4842737,-0.07666086,-1.32639793\H,0,-1.27656768,-1.65845018,-0.6681128

 Normal termination of Gaussian 16 at Wed Apr  9 16:45:11 2025.
