 Gaussian 16, Revision C.01,

 ----------------------------------------------------------------------
 #t hf aug-cc-pvdz symm=none int=(grid=ultrafine) guess=(read,tcheck) s
 table=(opt,rrhf)
 ----------------------------------------------------------------------
 -----
 title
 -----
 Symbolic Z-matrix:
 Charge =  0 Multiplicity = 1

 SCF Done:  E(RHF) =  -304.530893713     A.U. after   15 cycles
 Normal termination of Gaussian 16 at Wed Apr  9 14:16:03 2025.
 Gaussian 16:  ES64L-G16RevC.01  3-Jul-2019

 ----------------------------------------------------------------------
 #t hf aug-cc-pvdz iop(5/13=1,5/36=2,99/5=2) pseudo=read geom=check gue
 ss=(read,tcheck) scf=(maxcycle=1)
 ----------------------------------------------------------------------
 -----
 title
 -----
 Structure from the checkpoint file:  "Grambow2020_b97d3_006919_reverse_mol1.chk"
 Charge =  0 Multiplicity = 1

                         Standard orientation:
 ---------------------------------------------------------------------
 Center     Atomic      Atomic             Coordinates (Angstroms)
 Number     Number       Type             X           Y           Z
 ---------------------------------------------------------------------
      1          8           0       -1.656911   -0.721750   -0.360046
      2          6           0       -0.471702   -0.109142    0.050799
      3          6           0       -0.491963    1.314327    0.513452
      4          6           0        0.566036    0.478547   -0.946178
      5          8           0        1.617305   -0.070277   -0.219507
      6          6           0        0.723467   -0.910598    0.587434
      7          1           0       -2.275899   -0.684253    0.394435
      8          1           0       -1.414386    1.855277    0.289157
      9          1           0        0.060822    1.604542    1.408030
     10          1           0        0.280406    1.727541   -0.560158
     11          1           0        0.971641   -0.863583    1.655468
     12          1           0        0.739229   -1.942109    0.216449
 ---------------------------------------------------------------------

 SCF Done:  E(RHF) =  -304.622882855     A.U. after    2 cycles

 The electronic state is 1-A.
 Alpha  occ. eigenvalues --  -20.60375 -20.60032 -11.32297 -11.31717 -11.31234
 Alpha  occ. eigenvalues --  -11.29102  -1.38880  -1.34700  -1.08295  -0.96310
 Alpha  occ. eigenvalues --   -0.87377  -0.77149  -0.71342  -0.68524  -0.66783
 Alpha  occ. eigenvalues --   -0.66378  -0.59464  -0.58588  -0.55833  -0.51508
 Alpha  occ. eigenvalues --   -0.47874  -0.43161  -0.34916
 Alpha virt. eigenvalues --    0.02505   0.04270   0.04401   0.05420   0.06604
 Alpha virt. eigenvalues --    0.07288   0.09116   0.10154   0.11325   0.12592
 Alpha virt. eigenvalues --    0.13541   0.14072   0.14694   0.15100   0.15424

 Mulliken charges:
               1
     1  O   -0.633716
     2  C    0.062498
     3  C    0.384814
     4  C   -0.068279
     5  O   -0.661279
     6  C    1.051567
     7  H    0.160973
     8  H   -0.149776
     9  H   -0.146279
    10  H    0.326273
    11  H   -0.171989
    12  H   -0.154807
 Sum of Mulliken charges =   0.00000

 Dipole moment (field-independent basis, Debye):
    X=             -2.2370    Y=              0.2648    Z=              4.1157  Tot=              4.6918

 Test job not archived.
 1\1\GINC-SE098\SP\RHF\Aug-CC-pVDZ\C4H6O2\OHZDE\09-Apr-2025\0\\#t hf au
 g-cc-pvdz iop(5/13=1,5/36=2,99/5=2) pseudo=read geom=check guess=(read
 ,tcheck) scf=(maxcycle=1)\\title\\0,1\O,0,0.12800038,-1.32473277,-1.31
 235582\C,0,0.06486976,-0.29983141,-0.36663145\C,0,-1.20184617,-0.06964
 553,0.39702336\C,0,-0.17380217,1.18827843,-0.74716304\O,0,0.80821127,1
 .6036653,0.14588205\C,0,1.31499133,0.23976395,0.34383948\H,0,-0.069429
 27,-2.15918239,-0.8449053\H,0,-2.07642882,-0.59071638,0.0002987\H,0,-1
 .16476438,0.11196998,1.47206101\H,0,-1.39062258,1.17086123,-0.19072232

 Normal termination of Gaussian 16 at Wed Apr  9 14:16:07 2025.
