 Gaussian 16, Revision C.01,

 ----------------------------------------------------------------------
 #t hf aug-cc-pvdz symm=none int=(grid=ultrafine) guess=(read,tcheck) s
 table=(opt,rrhf)
 ----------------------------------------------------------------------
 -----
 title
 -----
 Symbolic Z-matrix:
 Charge =  0 Multiplicity = 1

 SCF Done:  E(RHF) =  -286.720620070     A.U. after   16 cycles
 Normal termination of Gaussian 16 at Wed Apr  9 03:41:09 2025.
 Gaussian 16:  ES64L-G16RevC.01  3-Jul-2019

 ----------------------------------------------------------------------
 #t hf aug-cc-pvdz iop(5/13=1,5/36=2,99/5=2) pseudo=read geom=check gue
 ss=(read,tcheck) scf=(maxcycle=1)
 ----------------------------------------------------------------------
 -----
 title
 -----
 Structure from the checkpoint file:  "Grambow2020_wb97xd3_007560_forward_mol1.chk"
 Charge =  0 Multiplicity = 1

                         Standard orientation:
 ---------------------------------------------------------------------
 Center     Atomic      Atomic             Coordinates (Angstroms)
 Number     Number       Type             X           Y           Z
 ---------------------------------------------------------------------
      1          6           0        0.711506    1.591973   -0.221487
      2          6           0        0.744231    0.126399    0.198266
      3          6           0       -0.522472   -0.312670    0.969165
      4          6           0       -1.761349   -0.178123    0.210501
      5          6           0       -2.760651   -0.075522   -0.442479
      6          6           0        1.125223   -0.869419   -0.954540
      7          7           0        1.925270   -0.455676    0.537208
      8          1           0       -0.178127    1.828573   -0.807430
      9          1           0        1.607154    1.835460   -0.791810
     10          1           0        0.700021    2.216945    0.674087
     11          1           0       -0.585331    0.292022    1.878160
     12          1           0       -0.385258   -1.348288    1.285458
     13          1           0       -3.654653    0.015874   -1.012593
     14          1           0        0.382321   -1.659044   -1.010199
     15          1           0        1.321425   -0.313158   -1.864537
     16          1           0        2.096626   -1.374476   -0.668150
 ---------------------------------------------------------------------

 SCF Done:  E(RHF) =  -286.806448212     A.U. after    2 cycles

 The electronic state is 1-A.
 Alpha  occ. eigenvalues --  -15.63525 -11.29966 -11.27986 -11.26524 -11.25174
 Alpha  occ. eigenvalues --  -11.23891 -11.23112  -1.22350  -1.06332  -0.98919
 Alpha  occ. eigenvalues --   -0.95484  -0.91106  -0.76019  -0.72342  -0.66632
 Alpha  occ. eigenvalues --   -0.64230  -0.63121  -0.58501  -0.55961  -0.55160
 Alpha  occ. eigenvalues --   -0.53551  -0.51918  -0.44693  -0.40790  -0.39615
 Alpha  occ. eigenvalues --   -0.35015
 Alpha virt. eigenvalues --    0.03193   0.04176   0.04254   0.04483   0.06325
 Alpha virt. eigenvalues --    0.06740   0.07055   0.07533   0.09191   0.09852
 Alpha virt. eigenvalues --    0.11426   0.12128   0.12506   0.13063   0.13671

 Mulliken charges:
               1
     1  C    0.620398
     2  C   -0.844768
     3  C    0.353855
     4  C   -0.465561
     5  C    1.027939
     6  C    0.504070
     7  N   -0.888338
     8  H    0.063239
     9  H   -0.045790
    10  H    0.001708
    11  H    0.072991
    12  H    0.054088
    13  H   -0.556237
    14  H   -0.076143
    15  H   -0.063167
    16  H    0.241716
 Sum of Mulliken charges =  -0.00000

 Dipole moment (field-independent basis, Debye):
    X=             -1.1749    Y=              0.1717    Z=             -1.4718  Tot=              1.8910

 Test job not archived.
 1\1\GINC-SE029\SP\RHF\Aug-CC-pVDZ\C6H9N1\OHZDE\09-Apr-2025\0\\#t hf au
 g-cc-pvdz iop(5/13=1,5/36=2,99/5=2) pseudo=read geom=check guess=(read
 ,tcheck) scf=(maxcycle=1)\\title\\0,1\C,0,0.08273055,1.59938116,-0.165
 85956\C,0,-0.60830551,0.24010515,-0.16286938\C,0,0.30894759,-0.9082388
 ,-0.64407194\C,0,1.50174401,-1.10366714,0.1729556\C,0,2.46249961,-1.25
 423418,0.87280811\C,0,-1.35562906,-0.10389492,1.17464303\N,0,-1.934683
 77,0.15309273,-0.44869481\H,0,1.00250857,1.59053524,0.42124015\H,0,-0.
 59471719,2.36171264,0.21709462\H,0,0.34254414,1.86259937,-1.19347303\H

 Normal termination of Gaussian 16 at Wed Apr  9 03:41:15 2025.
