 Gaussian 16, Revision C.01,

 ----------------------------------------------------------------------
 #t hf aug-cc-pvdz symm=none int=(grid=ultrafine) guess=(read,tcheck) s
 table=(opt,rrhf)
 ----------------------------------------------------------------------
 -----
 title
 -----
 Symbolic Z-matrix:
 Charge =  0 Multiplicity = 1

 SCF Done:  E(RHF) =  -358.332410521     A.U. after   19 cycles
 Normal termination of Gaussian 16 at Wed Apr  9 03:28:07 2025.
 Gaussian 16:  ES64L-G16RevC.01  3-Jul-2019

 ----------------------------------------------------------------------
 #t hf aug-cc-pvdz iop(5/13=1,5/36=2,99/5=2) pseudo=read geom=check gue
 ss=(read,tcheck) scf=(maxcycle=1)
 ----------------------------------------------------------------------
 -----
 title
 -----
 Structure from the checkpoint file:  "Grambow2020_wb97xd3_006754_forward_mol1.chk"
 Charge =  0 Multiplicity = 1

                         Standard orientation:
 ---------------------------------------------------------------------
 Center     Atomic      Atomic             Coordinates (Angstroms)
 Number     Number       Type             X           Y           Z
 ---------------------------------------------------------------------
      1          8           0       -0.366831    1.467375   -0.565518
      2          6           0       -1.193756    1.005252    0.255619
      3          6           0       -1.575978   -0.330673    0.089771
      4          8           0       -2.108589   -1.334270   -0.043040
      5          7           0        0.786942   -0.195721   -0.236985
      6          6           0        2.151667   -0.639930   -0.452577
      7          6           0        1.769539    0.007796    0.814028
      8          1           0       -1.363593    1.395140    1.265149
      9          1           0        2.718110   -0.067374   -1.180346
     10          1           0        2.302283   -1.714643   -0.502114
     11          1           0        1.651771   -0.595673    1.708992
     12          1           0        2.077364    1.033086    0.994632
 ---------------------------------------------------------------------

 SCF Done:  E(RHF) =  -358.442911366     A.U. after    2 cycles

 The electronic state is 1-A.
 Alpha  occ. eigenvalues --  -20.68060 -20.61884 -15.66664 -11.43462 -11.33127
 Alpha  occ. eigenvalues --  -11.27244 -11.26830  -1.48363  -1.36206  -1.23562
 Alpha  occ. eigenvalues --   -0.99922  -0.84986  -0.84295  -0.79646  -0.73775
 Alpha  occ. eigenvalues --   -0.69599  -0.69003  -0.67112  -0.63761  -0.62424
 Alpha  occ. eigenvalues --   -0.54321  -0.53322  -0.49773  -0.47617  -0.39504
 Alpha  occ. eigenvalues --   -0.28747
 Alpha virt. eigenvalues --    0.00917   0.03284   0.04130   0.04877   0.05319
 Alpha virt. eigenvalues --    0.07197   0.08196   0.09067   0.10387   0.11135
 Alpha virt. eigenvalues --    0.11310   0.13410   0.13634   0.13789   0.14236

 Mulliken charges:
               1
     1  O   -0.463040
     2  C    0.886075
     3  C   -0.090021
     4  O   -0.135333
     5  N   -0.453526
     6  C    0.643865
     7  C    0.848366
     8  H   -0.156649
     9  H   -0.260296
    10  H   -0.262111
    11  H   -0.274329
    12  H   -0.283002
 Sum of Mulliken charges =   0.00000

 Dipole moment (field-independent basis, Debye):
    X=              1.1939    Y=             -0.5621    Z=              2.1921  Tot=              2.5587

 Test job not archived.
 1\1\GINC-SE322\SP\RHF\Aug-CC-pVDZ\C4H5N1O2\OHZDE\09-Apr-2025\0\\#t hf
 aug-cc-pvdz iop(5/13=1,5/36=2,99/5=2) pseudo=read geom=check guess=(re
 ad,tcheck) scf=(maxcycle=1)\\title\\0,1\O,0,1.18105334,0.00321613,1.46
 468042\C,0,1.98814041,0.20635194,0.52714442\C,0,2.05967051,-0.7696868,
 -0.47311929\O,0,2.35054144,-1.56417011,-1.24299581\N,0,-0.24489132,-0.
 42482097,0.05454646\C,0,-1.68820835,-0.54376351,-0.04013478\C,0,-1.026
 05663,0.74226661,-0.31859376\H,0,2.35881069,1.18956455,0.21746039\H,0,
 -2.20801905,-0.66826509,0.90465231\H,0,-2.06475367,-1.16038213,-0.8513

 Normal termination of Gaussian 16 at Wed Apr  9 03:28:12 2025.
