 Gaussian 16, Revision C.01,

 ----------------------------------------------------------------------
 #t hf aug-cc-pvdz symm=none int=(grid=ultrafine) guess=(read,tcheck) s
 table=(opt,rrhf)
 ----------------------------------------------------------------------
 -----
 title
 -----
 Symbolic Z-matrix:
 Charge =  0 Multiplicity = 1

 SCF Done:  E(RHF) =  -360.799472703     A.U. after   14 cycles
 Normal termination of Gaussian 16 at Wed Apr  9 14:46:03 2025.
 Gaussian 16:  ES64L-G16RevC.01  3-Jul-2019

 ----------------------------------------------------------------------
 #t hf aug-cc-pvdz iop(5/13=1,5/36=2,99/5=2) pseudo=read geom=check gue
 ss=(read,tcheck) scf=(maxcycle=1)
 ----------------------------------------------------------------------
 -----
 title
 -----
 Structure from the checkpoint file:  "Grambow2020_wb97xd3_006609_forward_mol1.chk"
 Charge =  0 Multiplicity = 1

                         Standard orientation:
 ---------------------------------------------------------------------
 Center     Atomic      Atomic             Coordinates (Angstroms)
 Number     Number       Type             X           Y           Z
 ---------------------------------------------------------------------
      1          6           0        2.525353   -0.068234    0.029623
      2          6           0        1.040065    0.077595    0.059419
      3          8           0        0.609977    1.293188    0.168366
      4          6           0        0.123942   -0.918545   -0.606926
      5          7           0       -1.035621   -1.152213    0.231018
      6          6           0       -1.932042   -0.171733    0.243416
      7          8           0       -1.846192    0.936590   -0.331560
      8          1           0        2.830830   -1.089090    0.247462
      9          1           0        2.985893    0.624751    0.730986
     10          1           0        2.863279    0.192556   -0.977942
     11          1           0        0.716164   -0.623665    1.532018
     12          1           0       -0.390278    1.314393   -0.085291
     13          1           0       -0.150045   -0.502933   -1.581882
     14          1           0        0.650969   -1.860865   -0.758958
     15          1           0       -0.095396   -0.958167    1.370796
     16          1           0       -2.816250   -0.384211    0.858044
 ---------------------------------------------------------------------

 SCF Done:  E(RHF) =  -360.913521363     A.U. after    2 cycles

 The electronic state is 1-A.
 Alpha  occ. eigenvalues --  -20.63029 -20.53746 -15.60166 -11.41248 -11.34637
 Alpha  occ. eigenvalues --  -11.28880 -11.27691  -1.42455  -1.33410  -1.17899
 Alpha  occ. eigenvalues --   -1.07035  -0.97710  -0.86162  -0.78092  -0.76680
 Alpha  occ. eigenvalues --   -0.73178  -0.67882  -0.65677  -0.63435  -0.60510
 Alpha  occ. eigenvalues --   -0.58472  -0.57879  -0.56091  -0.54542  -0.52131
 Alpha  occ. eigenvalues --   -0.45536  -0.40761  -0.36032
 Alpha virt. eigenvalues --    0.02702   0.03828   0.04444   0.04847   0.06165
 Alpha virt. eigenvalues --    0.06957   0.07356   0.07925   0.09030   0.09853
 Alpha virt. eigenvalues --    0.10767   0.11822   0.12801   0.13672   0.14141

 Mulliken charges:
               1
     1  C    0.669961
     2  C   -0.693003
     3  O   -0.516400
     4  C    0.905512
     5  N   -0.775527
     6  C    0.582371
     7  O   -0.667924
     8  H   -0.017682
     9  H   -0.032935
    10  H    0.105249
    11  H    0.260130
    12  H    0.356783
    13  H   -0.005540
    14  H   -0.179096
    15  H    0.220360
    16  H   -0.212261
 Sum of Mulliken charges =   0.00000

 Dipole moment (field-independent basis, Debye):
    X=              4.1633    Y=             -1.6046    Z=             -0.2720  Tot=              4.4701

 Test job not archived.
 1\1\GINC-SE226\SP\RHF\Aug-CC-pVDZ\C4H9N1O2\OHZDE\09-Apr-2025\0\\#t hf
 aug-cc-pvdz iop(5/13=1,5/36=2,99/5=2) pseudo=read geom=check guess=(re
 ad,tcheck) scf=(maxcycle=1)\\title\\0,1\C,0,-1.95366995,-0.8426707,-0.
 35886939\C,0,-0.66792225,-0.08874065,-0.27715042\O,0,-0.56979181,0.918
 10472,-1.08408436\C,0,0.15173629,-0.03793166,0.98822346\N,0,1.56081861
 ,-0.13322968,0.66150961\C,0,2.09683908,0.96522806,0.14080212\O,0,1.504
 89961,2.02880113,-0.1503479\H,0,-1.86809566,-1.82825012,0.09304347\H,0
 ,-2.27631208,-0.92567967,-1.39484585\H,0,-2.70865894,-0.26948122,0.187

 Normal termination of Gaussian 16 at Wed Apr  9 14:46:09 2025.
