 Gaussian 16, Revision C.01,

 ----------------------------------------------------------------------
 #t hf aug-cc-pvdz symm=none int=(grid=ultrafine) guess=(read,tcheck) s
 table=(opt,rrhf)
 ----------------------------------------------------------------------
 -----
 title
 -----
 Symbolic Z-matrix:
 Charge =  0 Multiplicity = 1

 SCF Done:  E(RHF) =  -342.334240121     A.U. after   16 cycles
 Normal termination of Gaussian 16 at Wed Apr  9 03:58:35 2025.
 Gaussian 16:  ES64L-G16RevC.01  3-Jul-2019

 ----------------------------------------------------------------------
 #t hf aug-cc-pvdz iop(5/13=1,5/36=2,99/5=2) pseudo=read geom=check gue
 ss=(read,tcheck) scf=(maxcycle=1)
 ----------------------------------------------------------------------
 -----
 title
 -----
 Structure from the checkpoint file:  "Grambow2020_wb97xd3_008763_reverse_mol1.chk"
 Charge =  0 Multiplicity = 1

                         Standard orientation:
 ---------------------------------------------------------------------
 Center     Atomic      Atomic             Coordinates (Angstroms)
 Number     Number       Type             X           Y           Z
 ---------------------------------------------------------------------
      1          8           0       -2.076892    0.505905   -0.119418
      2          6           0       -1.345778   -0.549134   -0.173651
      3          6           0       -0.036604   -0.788240    0.517663
      4          8           0        0.947450   -1.138777   -0.461384
      5          6           0        1.535725    0.182542   -0.282052
      6          6           0        0.547194    1.233563   -0.453370
      7          6           0        0.645488    0.503319    0.887153
      8          1           0       -1.901847   -1.423224   -0.517867
      9          1           0       -0.154830   -1.604679    1.243121
     10          1           0        2.606467    0.245787   -0.415959
     11          1           0        0.944570    2.245112   -0.503602
     12          1           0       -1.404879    1.231474   -0.008780
     13          1           0        0.869906    0.876211    1.875039
 ---------------------------------------------------------------------

 SCF Done:  E(RHF) =  -342.439645758     A.U. after    2 cycles

 The electronic state is 1-A.
 Alpha  occ. eigenvalues --  -20.68737 -20.57220 -11.44202 -11.32978 -11.27987
 Alpha  occ. eigenvalues --  -11.22904 -11.17236  -1.47116  -1.36286  -1.09169
 Alpha  occ. eigenvalues --   -1.03770  -0.92374  -0.81592  -0.76702  -0.75595
 Alpha  occ. eigenvalues --   -0.71308  -0.71241  -0.66879  -0.61721  -0.59544
 Alpha  occ. eigenvalues --   -0.56276  -0.52934  -0.49006  -0.41353  -0.39144
 Alpha  occ. eigenvalues --   -0.26723
 Alpha virt. eigenvalues --    0.02350   0.02819   0.03895   0.04629   0.05196
 Alpha virt. eigenvalues --    0.06171   0.07097   0.09730   0.10775   0.11110
 Alpha virt. eigenvalues --    0.12687   0.13167   0.13435   0.14113   0.14699

 Mulliken charges:
               1
     1  O   -0.362442
     2  C    0.593266
     3  C    0.742893
     4  O   -0.878929
     5  C    0.933251
     6  C   -0.168811
     7  C    0.302453
     8  H   -0.173790
     9  H   -0.202344
    10  H   -0.346348
    11  H   -0.463995
    12  H    0.410621
    13  H   -0.385827
 Sum of Mulliken charges =   0.00000

 Dipole moment (field-independent basis, Debye):
    X=             -2.6010    Y=             -1.3959    Z=              2.4419  Tot=              3.8310

 Test job not archived.
 1\1\GINC-SE340\SP\RHF\Aug-CC-pVDZ\C5H6O2\OHZDE\09-Apr-2025\0\\#t hf au
 g-cc-pvdz iop(5/13=1,5/36=2,99/5=2) pseudo=read geom=check guess=(read
 ,tcheck) scf=(maxcycle=1)\\title\\0,1\O,0,0.9181212,2.0200586,-0.08695
 199\C,0,1.39093278,0.8389913,0.09223268\C,0,0.82217993,-0.45642578,-0.
 405198\O,0,0.62423216,-1.33393589,0.70860896\C,0,-0.80916766,-1.102500
 87,0.58246152\C,0,-1.12255153,0.3162684,0.59098102\C,0,-0.64974199,-0.
 34282671,-0.70592457\H,0,2.44502823,0.85160425,0.37587876\H,0,1.522732
 74,-0.9074276,-1.12120263\H,0,-1.44809937,-1.92832992,0.86208874\H,0,-

 Normal termination of Gaussian 16 at Wed Apr  9 03:58:39 2025.
