 Gaussian 16, Revision C.01,

 ----------------------------------------------------------------------
 #t hf aug-cc-pvdz symm=none int=(grid=ultrafine) guess=(read,tcheck) s
 table=(opt,rrhf)
 ----------------------------------------------------------------------
 -----
 title
 -----
 Symbolic Z-matrix:
 Charge =  0 Multiplicity = 1

 SCF Done:  E(RHF) =  -264.889448117     A.U. after   17 cycles
 Normal termination of Gaussian 16 at Wed Apr  9 14:14:16 2025.
 Gaussian 16:  ES64L-G16RevC.01  3-Jul-2019

 ----------------------------------------------------------------------
 #t hf aug-cc-pvdz iop(5/13=1,5/36=2,99/5=2) pseudo=read geom=check gue
 ss=(read,tcheck) scf=(maxcycle=1)
 ----------------------------------------------------------------------
 -----
 title
 -----
 Structure from the checkpoint file:  "Grambow2020_b97d3_006847_forward_mol1.chk"
 Charge =  0 Multiplicity = 1

                         Standard orientation:
 ---------------------------------------------------------------------
 Center     Atomic      Atomic             Coordinates (Angstroms)
 Number     Number       Type             X           Y           Z
 ---------------------------------------------------------------------
      1          6           0       -2.317308   -0.409783   -0.071290
      2          7           0       -0.941495   -0.744871    0.261165
      3          6           0        0.068551   -0.191239   -0.450581
      4          6           0        0.309770    2.081444    0.120725
      5          6           0        1.400136   -0.554190   -0.114167
      6          7           0        2.510571   -0.891707    0.085948
      7          1           0       -2.583996    0.602282    0.282043
      8          1           0       -2.997330   -1.137044    0.388656
      9          1           0       -2.435624   -0.442890   -1.160120
     10          1           0       -0.777281   -1.019523    1.230892
     11          1           0       -0.035005    0.916386   -0.834876
     12          1           0        1.335671    2.334823   -0.155310
     13          1           0       -0.443373    2.771599   -0.274293
     14          1           0        0.186518    1.873017    1.185091
 ---------------------------------------------------------------------

 SCF Done:  E(RHF) =  -264.971228300     A.U. after    2 cycles

 The electronic state is 1-A.
 Alpha  occ. eigenvalues --  -15.67642 -15.64455 -11.33121 -11.29420 -11.29351
 Alpha  occ. eigenvalues --  -11.26367  -1.24406  -1.17553  -1.01268  -0.94022
 Alpha  occ. eigenvalues --   -0.88438  -0.76790  -0.67172  -0.64757  -0.60407
 Alpha  occ. eigenvalues --   -0.58243  -0.57770  -0.57071  -0.54504  -0.50337
 Alpha  occ. eigenvalues --   -0.45828  -0.43122  -0.29584
 Alpha virt. eigenvalues --    0.02477   0.03619   0.03780   0.05132   0.05692
 Alpha virt. eigenvalues --    0.06754   0.07077   0.08119   0.08905   0.09919
 Alpha virt. eigenvalues --    0.10670   0.13256   0.13952   0.14534   0.14766

 Mulliken charges:
               1
     1  C    0.768245
     2  N   -0.549030
     3  C    1.049830
     4  C    0.144549
     5  C   -0.630119
     6  N   -0.169408
     7  H   -0.048158
     8  H   -0.190679
     9  H   -0.086222
    10  H   -0.070080
    11  H    0.239426
    12  H   -0.173431
    13  H   -0.199946
    14  H   -0.084978
 Sum of Mulliken charges =   0.00000

 Dipole moment (field-independent basis, Debye):
    X=             -4.9679    Y=              1.2871    Z=              0.8742  Tot=              5.2059

 Test job not archived.
 1\1\GINC-SE162\SP\RHF\Aug-CC-pVDZ\C4H8N2\OHZDE\09-Apr-2025\0\\#t hf au
 g-cc-pvdz iop(5/13=1,5/36=2,99/5=2) pseudo=read geom=check guess=(read
 ,tcheck) scf=(maxcycle=1)\\title\\0,1\C,0,1.90751642,-0.47450967,0.352
 67393\N,0,0.83163146,0.39653302,0.79924493\C,0,-0.02955282,0.91005571,
 -0.1106667\C,0,-1.4881809,-0.77106925,-0.8826053\C,0,-1.05725611,1.773
 19952,0.3549902\N,0,-1.87187995,2.55273815,0.69519177\H,0,1.53276488,-
 1.48138182,0.09574549\H,0,2.66152058,-0.56750443,1.14369707\H,0,2.3706
 1744,-0.03553534,-0.53810392\H,0,0.51509124,0.24875957,1.7587953\H,0,-

 Normal termination of Gaussian 16 at Wed Apr  9 14:14:20 2025.
