 Gaussian 16, Revision C.01,

 ----------------------------------------------------------------------
 #t hf aug-cc-pvdz symm=none int=(grid=ultrafine) guess=(read,tcheck) s
 table=(opt,rrhf)
 ----------------------------------------------------------------------
 -----
 title
 -----
 Symbolic Z-matrix:
 Charge =  0 Multiplicity = 1

 SCF Done:  E(RHF) =  -245.802647154     A.U. after   13 cycles
 Normal termination of Gaussian 16 at Wed Apr  9 03:20:22 2025.
 Gaussian 16:  ES64L-G16RevC.01  3-Jul-2019

 ----------------------------------------------------------------------
 #t hf aug-cc-pvdz iop(5/13=1,5/36=2,99/5=2) pseudo=read geom=check gue
 ss=(read,tcheck) scf=(maxcycle=1)
 ----------------------------------------------------------------------
 -----
 title
 -----
 Structure from the checkpoint file:  "Grambow2020_wb97xd3_006107_reverse_mol2.chk"
 Charge =  0 Multiplicity = 1

                         Standard orientation:
 ---------------------------------------------------------------------
 Center     Atomic      Atomic             Coordinates (Angstroms)
 Number     Number       Type             X           Y           Z
 ---------------------------------------------------------------------
      1          6           0       -1.015528    0.599063    0.000335
      2          6           0        0.418758    1.121057   -0.000480
      3          7           0        1.139668   -0.150200   -0.000005
      4          6           0        0.390384   -1.246080    0.000263
      5          8           0       -0.879080   -0.846379   -0.000459
      6          1           0       -1.576377    0.883473    0.889633
      7          1           0       -1.579867    0.883678   -0.886688
      8          1           0        0.654485    1.711573   -0.887260
      9          1           0        0.654453    1.711154    0.886657
     10          1           0        2.140589   -0.211684    0.000660
 ---------------------------------------------------------------------

 SCF Done:  E(RHF) =  -245.880079531     A.U. after    2 cycles

 The electronic state is 1-A.
 Alpha  occ. eigenvalues --  -20.60403 -15.65526 -11.30660 -11.30009 -11.29363
 Alpha  occ. eigenvalues --   -1.39897  -1.20099  -1.03801  -0.87615  -0.82818
 Alpha  occ. eigenvalues --   -0.71908  -0.70283  -0.63489  -0.59144  -0.58780
 Alpha  occ. eigenvalues --   -0.53598  -0.53286  -0.41173  -0.36745
 Alpha virt. eigenvalues --    0.02745   0.04137   0.04340   0.05517   0.06938
 Alpha virt. eigenvalues --    0.09404   0.10810   0.11603   0.11845   0.13723
 Alpha virt. eigenvalues --    0.14554   0.14977   0.16130   0.16837   0.18476

 Mulliken charges:
               1
     1  C    0.767682
     2  C    0.601744
     3  N   -0.306415
     4  C    0.172418
     5  O   -0.559321
     6  H   -0.154098
     7  H   -0.154789
     8  H   -0.132674
     9  H   -0.132179
    10  H   -0.102369
 Sum of Mulliken charges =   0.00000

 Dipole moment (field-independent basis, Debye):
    X=              1.0097    Y=              4.7122    Z=              0.0013  Tot=              4.8192

 Test job not archived.
 1\1\GINC-SE095\SP\RHF\Aug-CC-pVDZ\C3H5N1O1\OHZDE\09-Apr-2025\0\\#t hf
 aug-cc-pvdz iop(5/13=1,5/36=2,99/5=2) pseudo=read geom=check guess=(re
 ad,tcheck) scf=(maxcycle=1)\\title\\0,1\C,0,-0.73354075,-0.7610249,-0.
 01267917\C,0,-0.31501914,0.69333652,0.18562957\N,0,1.11523753,0.574008
 92,-0.08992998\C,0,1.55127908,-0.64206724,-0.39555176\O,0,0.49525696,-
 1.45134738,-0.36115172\H,0,-1.13311027,-1.22069033,0.89028462\H,0,-1.4
 4027267,-0.90014748,-0.82966725\H,0,-0.7998847,1.37351403,-0.51645153\
 H,0,-0.49501287,1.05043,1.2009448\H,0,1.74613684,1.35269586,-0.0547535

 Normal termination of Gaussian 16 at Wed Apr  9 03:20:25 2025.
