 Gaussian 16, Revision C.01,

 ----------------------------------------------------------------------
 #t hf aug-cc-pvdz symm=none int=(grid=ultrafine) guess=(read,tcheck) s
 table=(opt,rrhf)
 ----------------------------------------------------------------------
 -----
 title
 -----
 Symbolic Z-matrix:
 Charge =  0 Multiplicity = 1

 SCF Done:  E(RHF) =  -318.715968694     A.U. after   19 cycles
 Normal termination of Gaussian 16 at Wed Apr  9 03:46:37 2025.
 Gaussian 16:  ES64L-G16RevC.01  3-Jul-2019

 ----------------------------------------------------------------------
 #t hf aug-cc-pvdz iop(5/13=1,5/36=2,99/5=2) pseudo=read geom=check gue
 ss=(read,tcheck) scf=(maxcycle=1)
 ----------------------------------------------------------------------
 -----
 title
 -----
 Structure from the checkpoint file:  "Grambow2020_wb97xd3_007961_forward_mol1.chk"
 Charge =  0 Multiplicity = 1

                         Standard orientation:
 ---------------------------------------------------------------------
 Center     Atomic      Atomic             Coordinates (Angstroms)
 Number     Number       Type             X           Y           Z
 ---------------------------------------------------------------------
      1          6           0       -2.440689   -0.438160    0.594998
      2          6           0       -1.743567    0.275017   -0.562177
      3          6           0       -0.364566    0.677299   -0.226469
      4          6           0        0.543771    1.444493    0.084627
      5          7           0        2.242676    0.173734    0.350528
      6          7           0        1.672926   -0.864791   -0.054054
      7          7           0        0.605308   -1.205739   -0.312357
      8          1           0       -3.461923   -0.702907    0.316570
      9          1           0       -1.909346   -1.351991    0.861961
     10          1           0       -2.479866    0.201766    1.477670
     11          1           0       -1.721666   -0.378763   -1.436420
     12          1           0       -2.306804    1.168459   -0.842970
     13          1           0        1.055879    2.341450    0.345460
     14          1           0        3.207670    0.247666    0.043029
 ---------------------------------------------------------------------

 SCF Done:  E(RHF) =  -318.812893647     A.U. after    2 cycles

 The electronic state is 1-A.
 Alpha  occ. eigenvalues --  -15.79145 -15.72824 -15.67495 -11.25444 -11.25372
 Alpha  occ. eigenvalues --  -11.24283 -11.22756  -1.42880  -1.20087  -1.07121
 Alpha  occ. eigenvalues --   -0.99305  -0.86496  -0.80140  -0.72958  -0.70979
 Alpha  occ. eigenvalues --   -0.65914  -0.64749  -0.62972  -0.60413  -0.54573
 Alpha  occ. eigenvalues --   -0.51949  -0.50614  -0.44627  -0.38980  -0.38058
 Alpha  occ. eigenvalues --   -0.34767
 Alpha virt. eigenvalues --    0.03283   0.03811   0.04569   0.05256   0.06435
 Alpha virt. eigenvalues --    0.06904   0.07798   0.09662   0.10597   0.11653
 Alpha virt. eigenvalues --    0.12478   0.13894   0.14135   0.14691   0.14980

 Mulliken charges:
               1
     1  C    0.366266
     2  C   -0.140283
     3  C   -0.132584
     4  C    0.801979
     5  N   -0.240467
     6  N    0.215061
     7  N   -0.240206
     8  H   -0.081204
     9  H   -0.057431
    10  H   -0.054286
    11  H    0.040679
    12  H    0.006484
    13  H   -0.501959
    14  H    0.017952
 Sum of Mulliken charges =  -0.00000

 Dipole moment (field-independent basis, Debye):
    X=              0.6372    Y=              0.8285    Z=             -0.5392  Tot=              1.1761

 Test job not archived.
 1\1\GINC-SE070\SP\RHF\Aug-CC-pVDZ\C4H7N3\OHZDE\09-Apr-2025\0\\#t hf au
 g-cc-pvdz iop(5/13=1,5/36=2,99/5=2) pseudo=read geom=check guess=(read
 ,tcheck) scf=(maxcycle=1)\\title\\0,1\C,0,-1.93612498,0.75109274,0.194
 03251\C,0,-1.25264222,-0.55561584,-0.20473723\C,0,0.18671108,-0.378265
 13,-0.47489407\C,0,1.20183827,-0.26646499,-1.1586058\N,0,2.75266582,0.
 13522071,0.25751303\N,0,2.03286984,-0.03686458,1.26702565\N,0,0.915134
 4,-0.16711912,1.50467192\H,0,-3.00045457,0.58434409,0.36703268\H,0,-1.
 49816376,1.15294276,1.10802808\H,0,-1.82871703,1.50033502,-0.5916205\H

 Normal termination of Gaussian 16 at Wed Apr  9 03:46:42 2025.
