 Gaussian 16, Revision C.01,

 ----------------------------------------------------------------------
 #t hf aug-cc-pvdz symm=none int=(grid=ultrafine) guess=(read,tcheck) s
 table=(opt,rrhf)
 ----------------------------------------------------------------------
 -----
 title
 -----
 Symbolic Z-matrix:
 Charge =  0 Multiplicity = 1

 SCF Done:  E(RHF) =  -354.695892185     A.U. after   16 cycles
 Normal termination of Gaussian 16 at Wed Apr  9 03:39:11 2025.
 Gaussian 16:  ES64L-G16RevC.01  3-Jul-2019

 ----------------------------------------------------------------------
 #t hf aug-cc-pvdz iop(5/13=1,5/36=2,99/5=2) pseudo=read geom=check gue
 ss=(read,tcheck) scf=(maxcycle=1)
 ----------------------------------------------------------------------
 -----
 title
 -----
 Structure from the checkpoint file:  "Grambow2020_wb97xd3_007473_reverse_mol2.chk"
 Charge =  0 Multiplicity = 1

                         Standard orientation:
 ---------------------------------------------------------------------
 Center     Atomic      Atomic             Coordinates (Angstroms)
 Number     Number       Type             X           Y           Z
 ---------------------------------------------------------------------
      1          7           0       -1.860702    0.172648    0.754557
      2          6           0       -0.889782   -0.310969   -0.077411
      3          6           0        1.819280   -1.059762    0.678087
      4          7           0        1.598713    0.009547   -0.055653
      5          6           0        0.316007    0.602218   -0.164338
      6          8           0        0.211583    1.780628   -0.358865
      7          7           0       -0.884248   -1.338966   -0.814850
      8          1           0       -2.782645   -0.219831    0.677689
      9          1           0       -1.821329    1.151158    0.983983
     10          1           0        2.911708   -1.217950    0.662144
     11          1           0        2.316248    0.595235   -0.480824
     12          1           0       -1.766010   -1.845163   -0.778473
 ---------------------------------------------------------------------

 SCF Done:  E(RHF) =  -354.802671732     A.U. after    2 cycles

 The electronic state is 1-A.
 Alpha  occ. eigenvalues --  -20.59768 -15.70364 -15.65860 -15.61281 -11.40400
 Alpha  occ. eigenvalues --  -11.35427 -11.28314  -1.41185  -1.25857  -1.24422
 Alpha  occ. eigenvalues --   -1.13503  -0.94720  -0.89605  -0.78026  -0.73642
 Alpha  occ. eigenvalues --   -0.72098  -0.71280  -0.65080  -0.62488  -0.60325
 Alpha  occ. eigenvalues --   -0.54620  -0.50154  -0.49065  -0.43785  -0.39019
 Alpha  occ. eigenvalues --   -0.36457
 Alpha virt. eigenvalues --    0.02854   0.03356   0.04617   0.05781   0.06920
 Alpha virt. eigenvalues --    0.07418   0.10337   0.10436   0.11442   0.11949
 Alpha virt. eigenvalues --    0.12698   0.13958   0.14238   0.15730   0.16422

 Mulliken charges:
               1
     1  N   -0.201723
     2  C    0.817366
     3  C    0.156013
     4  N   -0.188244
     5  C    0.499517
     6  O   -0.442627
     7  N   -0.327301
     8  H   -0.039261
     9  H    0.006034
    10  H   -0.203715
    11  H   -0.041954
    12  H   -0.034105
 Sum of Mulliken charges =  -0.00000

 Dipole moment (field-independent basis, Debye):
    X=             -0.8297    Y=              0.7312    Z=              0.4317  Tot=              1.1872

 Test job not archived.
 1\1\GINC-SE292\SP\RHF\Aug-CC-pVDZ\C3H5N3O1\OHZDE\09-Apr-2025\0\\#t hf
 aug-cc-pvdz iop(5/13=1,5/36=2,99/5=2) pseudo=read geom=check guess=(re
 ad,tcheck) scf=(maxcycle=1)\\title\\0,1\N,0,1.71358517,-0.84851423,0.3
 1161195\C,0,0.44936857,-0.70444079,-0.1881305\C,0,-0.92073717,1.805776
 3,-0.72859631\N,0,-1.30532047,1.03149343,0.26288097\C,0,-0.48611062,-0
 .00460527,0.77649583\O,0,-0.57499867,-0.32805693,1.92752723\N,0,-0.052
 35593,-1.12103331,-1.27226429\H,0,2.32108876,-1.51382494,-0.13361514\H
 ,0,1.82622264,-0.75316512,1.30654361\H,0,-1.70250777,2.57856043,-0.830

 Normal termination of Gaussian 16 at Wed Apr  9 03:39:15 2025.
