 Gaussian 16, Revision C.01,

 ----------------------------------------------------------------------
 #t hf aug-cc-pvdz symm=none int=(grid=ultrafine) guess=(read,tcheck) s
 table=(opt,rrhf)
 ----------------------------------------------------------------------
 -----
 title
 -----
 Symbolic Z-matrix:
 Charge =  0 Multiplicity = 1

 SCF Done:  E(RHF) =  -286.862042989     A.U. after   14 cycles
 Normal termination of Gaussian 16 at Wed Apr  9 15:36:04 2025.
 Gaussian 16:  ES64L-G16RevC.01  3-Jul-2019

 ----------------------------------------------------------------------
 #t hf aug-cc-pvdz iop(5/13=1,5/36=2,99/5=2) pseudo=read geom=check gue
 ss=(read,tcheck) scf=(maxcycle=1)
 ----------------------------------------------------------------------
 -----
 title
 -----
 Structure from the checkpoint file:  "Grambow2020_wb97xd3_007180_reverse_mol2.chk"
 Charge =  0 Multiplicity = 1

                         Standard orientation:
 ---------------------------------------------------------------------
 Center     Atomic      Atomic             Coordinates (Angstroms)
 Number     Number       Type             X           Y           Z
 ---------------------------------------------------------------------
      1          6           0       -3.106148    0.242687    0.511332
      2          6           0       -2.105401   -0.176052   -0.527067
      3          6           0       -0.875289   -0.499985   -0.275463
      4          6           0        0.367580   -0.815213   -0.022768
      5          6           0        1.477366    0.170596    0.000942
      6          6           0        2.843229   -0.426294    0.221369
      7          7           0        1.235910    1.405886   -0.156089
      8          1           0       -3.471292    1.250011    0.300598
      9          1           0       -3.969187   -0.426833    0.509114
     10          1           0       -2.663649    0.237884    1.506248
     11          1           0       -2.428411   -0.195619   -1.565132
     12          1           0        0.615726   -1.854068    0.175252
     13          1           0        2.874595   -0.958730    1.175362
     14          1           0        3.068225   -1.155123   -0.561082
     15          1           0        3.617349    0.340528    0.221606
     16          1           0        2.097249    1.946308   -0.119411
 ---------------------------------------------------------------------

 SCF Done:  E(RHF) =  -286.951337770     A.U. after    2 cycles

 The electronic state is 1-A.
 Alpha  occ. eigenvalues --  -15.59949 -11.29786 -11.26482 -11.25213 -11.24436
 Alpha  occ. eigenvalues --  -11.24405 -11.23903  -1.18598  -1.08283  -1.01142
 Alpha  occ. eigenvalues --   -0.97963  -0.90098  -0.78298  -0.69875  -0.66411
 Alpha  occ. eigenvalues --   -0.61952  -0.59728  -0.59119  -0.57950  -0.57218
 Alpha  occ. eigenvalues --   -0.54808  -0.53121  -0.45268  -0.40772  -0.36820
 Alpha  occ. eigenvalues --   -0.35071
 Alpha virt. eigenvalues --    0.03285   0.03752   0.04585   0.04843   0.06122
 Alpha virt. eigenvalues --    0.06431   0.06485   0.07476   0.08315   0.10236
 Alpha virt. eigenvalues --    0.10972   0.11976   0.12581   0.12658   0.14005

 Mulliken charges:
               1
     1  C    0.199416
     2  C    0.560906
     3  C   -0.545901
     4  C    0.748568
     5  C   -0.197893
     6  C    0.532190
     7  N   -0.410367
     8  H    0.027117
     9  H    0.012972
    10  H   -0.143369
    11  H   -0.318245
    12  H   -0.465224
    13  H    0.076871
    14  H    0.084923
    15  H   -0.159743
    16  H   -0.002222
 Sum of Mulliken charges =  -0.00000

 Dipole moment (field-independent basis, Debye):
    X=              0.7418    Y=             -1.4303    Z=              0.3775  Tot=              1.6549

 Test job not archived.
 1\1\GINC-SE113\SP\RHF\Aug-CC-pVDZ\C6H9N1\OHZDE\09-Apr-2025\0\\#t hf au
 g-cc-pvdz iop(5/13=1,5/36=2,99/5=2) pseudo=read geom=check guess=(read
 ,tcheck) scf=(maxcycle=1)\\title\\0,1\C,0,-3.09034545,0.42101166,-0.19
 23128\C,0,-1.88994735,0.90498856,0.56921311\C,0,-0.66216317,0.7577858,
 0.17897164\C,0,0.57561383,0.59895097,-0.20913603\C,0,1.3984805,-0.5885
 621,0.13249217\C,0,2.82735376,-0.51998369,-0.34086427\N,0,0.88599439,-
 1.55614896,0.77283258\H,0,-3.65902588,-0.29056151,0.40993912\H,0,-3.75
 606851,1.25247928,-0.43433141\H,0,-2.79502477,-0.07012453,-1.1181948\H

 Normal termination of Gaussian 16 at Wed Apr  9 15:36:10 2025.
