 Gaussian 16, Revision C.01,

 ----------------------------------------------------------------------
 #t hf aug-cc-pvdz symm=none int=(grid=ultrafine) guess=(read,tcheck) s
 table=(opt,rrhf)
 ----------------------------------------------------------------------
 -----
 title
 -----
 Symbolic Z-matrix:
 Charge =  0 Multiplicity = 1

 SCF Done:  E(RHF) =  -380.626191571     A.U. after   15 cycles
 Normal termination of Gaussian 16 at Wed Apr  9 03:40:33 2025.
 Gaussian 16:  ES64L-G16RevC.01  3-Jul-2019

 ----------------------------------------------------------------------
 #t hf aug-cc-pvdz iop(5/13=1,5/36=2,99/5=2) pseudo=read geom=check gue
 ss=(read,tcheck) scf=(maxcycle=1)
 ----------------------------------------------------------------------
 -----
 title
 -----
 Structure from the checkpoint file:  "Grambow2020_wb97xd3_007512_forward_mol1.chk"
 Charge =  0 Multiplicity = 1

                         Standard orientation:
 ---------------------------------------------------------------------
 Center     Atomic      Atomic             Coordinates (Angstroms)
 Number     Number       Type             X           Y           Z
 ---------------------------------------------------------------------
      1          8           0        2.135330   -0.410773   -1.029916
      2          6           0        2.060399    0.234661    0.227720
      3          6           0        0.862590   -0.326730    0.967064
      4          6           0       -0.438748    0.100152    0.338277
      5          8           0       -0.651900    1.284114    0.030568
      6          6           0       -1.438295   -0.867029    0.074417
      7          8           0       -2.687804   -0.054637   -0.404363
      8          1           0        2.696078    0.103166   -1.611173
      9          1           0        1.930865    1.315268    0.111340
     10          1           0        2.969948    0.052424    0.813043
     11          1           0        0.865352    0.050961    1.993993
     12          1           0        0.926575   -1.416294    1.007633
     13          1           0       -2.069059   -0.685039   -1.091600
     14          1           0       -1.729249   -1.660929    0.745071
     15          1           0       -2.231192    0.844480   -0.383479
 ---------------------------------------------------------------------

 SCF Done:  E(RHF) =  -380.745702462     A.U. after    2 cycles

 The electronic state is 1-A.
 Alpha  occ. eigenvalues --  -20.64510 -20.57622 -20.55153 -11.34160 -11.29482
 Alpha  occ. eigenvalues --  -11.27585 -11.25105  -1.40164  -1.33444  -1.32618
 Alpha  occ. eigenvalues --   -1.05698  -0.97412  -0.86615  -0.80499  -0.73512
 Alpha  occ. eigenvalues --   -0.72772  -0.71196  -0.66146  -0.63904  -0.60212
 Alpha  occ. eigenvalues --   -0.59498  -0.57583  -0.57316  -0.52274  -0.50353
 Alpha  occ. eigenvalues --   -0.46971  -0.44642  -0.35391
 Alpha virt. eigenvalues --    0.03354   0.04226   0.04380   0.05253   0.06062
 Alpha virt. eigenvalues --    0.06890   0.07302   0.07531   0.10940   0.11890
 Alpha virt. eigenvalues --    0.12561   0.13031   0.13648   0.14388   0.15547

 Mulliken charges:
               1
     1  O   -0.545717
     2  C    0.815478
     3  C    0.125508
     4  C    0.202521
     5  O   -0.789435
     6  C    0.359857
     7  O   -0.605326
     8  H    0.139886
     9  H   -0.101606
    10  H   -0.120167
    11  H    0.084280
    12  H   -0.074765
    13  H    0.455617
    14  H   -0.259325
    15  H    0.313194
 Sum of Mulliken charges =  -0.00000

 Dipole moment (field-independent basis, Debye):
    X=              1.5112    Y=             -0.7220    Z=              0.8966  Tot=              1.8997

 Test job not archived.
 1\1\GINC-SE036\SP\RHF\Aug-CC-pVDZ\C4H8O3\OHZDE\09-Apr-2025\0\\#t hf au
 g-cc-pvdz iop(5/13=1,5/36=2,99/5=2) pseudo=read geom=check guess=(read
 ,tcheck) scf=(maxcycle=1)\\title\\0,1\O,0,-1.5497951,1.61917887,0.0370
 0766\C,0,-1.67958912,0.30689476,-0.4776857\C,0,-0.88593877,-0.62347639
 ,0.41733601\C,0,0.59878776,-0.4007515,0.2867024\O,0,1.14620736,-0.3185
 4238,-0.82480941\C,0,1.39068811,-0.26472987,1.45227009\O,0,2.87182743,
 -0.22518209,0.94715111\H,0,-1.80110143,2.2463291,-0.64119502\H,0,-1.28
 574397,0.24028003,-1.4967467\H,0,-2.73129767,-0.0043821,-0.48809751\H,

 Normal termination of Gaussian 16 at Wed Apr  9 03:40:39 2025.
