 Gaussian 16, Revision C.01,

 ----------------------------------------------------------------------
 #t hf aug-cc-pvdz symm=none int=(grid=ultrafine) guess=(read,tcheck) s
 table=(opt,rrhf)
 ----------------------------------------------------------------------
 -----
 title
 -----
 Symbolic Z-matrix:
 Charge =  0 Multiplicity = 1

 SCF Done:  E(RHF) =  -299.579151842     A.U. after   20 cycles
 Normal termination of Gaussian 16 at Wed Apr  9 14:20:03 2025.
 Gaussian 16:  ES64L-G16RevC.01  3-Jul-2019

 ----------------------------------------------------------------------
 #t hf aug-cc-pvdz iop(5/13=1,5/36=2,99/5=2) pseudo=read geom=check gue
 ss=(read,tcheck) scf=(maxcycle=1)
 ----------------------------------------------------------------------
 -----
 title
 -----
 Structure from the checkpoint file:  "Grambow2020_b97d3_007181_forward_mol1.chk"
 Charge =  0 Multiplicity = 1

                         Standard orientation:
 ---------------------------------------------------------------------
 Center     Atomic      Atomic             Coordinates (Angstroms)
 Number     Number       Type             X           Y           Z
 ---------------------------------------------------------------------
      1          6           0        2.243068   -0.274454    0.249108
      2          6           0        0.862526    0.191221   -0.076304
      3          7           0        0.311745    1.294933   -0.242512
      4          8           0       -2.105642    0.392418    0.300237
      5          6           0       -1.437460   -0.599539    0.001293
      6          7           0       -0.167703   -0.753012   -0.393729
      7          1           0        2.917100    0.572276    0.415132
      8          1           0        2.196851   -0.900353    1.150474
      9          1           0        2.611758   -0.890839   -0.581019
     10          1           0       -1.897665   -1.617247    0.022623
 ---------------------------------------------------------------------

 SCF Done:  E(RHF) =  -299.667495230     A.U. after    2 cycles

 The electronic state is 1-A.
 Alpha  occ. eigenvalues --  -20.54144 -15.77024 -15.66508 -11.39982 -11.36123
 Alpha  occ. eigenvalues --  -11.30812  -1.34384  -1.29234  -1.12853  -1.04874
 Alpha  occ. eigenvalues --   -0.85822  -0.73720  -0.67143  -0.65953  -0.65198
 Alpha  occ. eigenvalues --   -0.63359  -0.60160  -0.58282  -0.51862  -0.45739
 Alpha  occ. eigenvalues --   -0.43161  -0.39386
 Alpha virt. eigenvalues --   -0.00570   0.02417   0.04237   0.04563   0.05683
 Alpha virt. eigenvalues --    0.08176   0.09968   0.10607   0.10780   0.11807
 Alpha virt. eigenvalues --    0.12840   0.13785   0.14704   0.15225   0.15446

 Mulliken charges:
               1
     1  C    0.338824
     2  C    0.439502
     3  N   -0.243394
     4  O   -0.486689
     5  C    0.588218
     6  N   -0.697035
     7  H    0.038739
     8  H    0.079894
     9  H    0.079774
    10  H   -0.137833
 Sum of Mulliken charges =  -0.00000

 Dipole moment (field-independent basis, Debye):
    X=              5.9915    Y=             -1.7351    Z=              0.4575  Tot=              6.2544

 Test job not archived.
 1\1\GINC-SE041\SP\RHF\Aug-CC-pVDZ\C3H4N2O1\OHZDE\09-Apr-2025\0\\#t hf
 aug-cc-pvdz iop(5/13=1,5/36=2,99/5=2) pseudo=read geom=check guess=(re
 ad,tcheck) scf=(maxcycle=1)\\title\\0,1\C,0,-1.70172598,0.10172246,0.0
 9496578\C,0,-0.33017977,-0.17587336,-0.42507524\N,0,0.15891695,-0.9269
 3427,-1.28870559\O,0,2.56582814,-0.92417445,-0.21183797\C,0,1.99873468
 ,0.07562191,0.23383696\N,0,0.78754927,0.60349072,0.0187481\H,0,-2.4442
 6926,-0.54576507,-0.38276339\H,0,-1.70304962,-0.0625332,1.1809514\H,0,
 -1.94411236,1.15527487,-0.09542617\H,0,2.52192396,0.7446874,0.95950813

 Normal termination of Gaussian 16 at Wed Apr  9 14:20:06 2025.
