 Gaussian 16, Revision C.01,

 ----------------------------------------------------------------------
 #t hf aug-cc-pvdz symm=none int=(grid=ultrafine) guess=(read,tcheck) s
 table=(opt,rrhf)
 ----------------------------------------------------------------------
 -----
 title
 -----
 Symbolic Z-matrix:
 Charge =  0 Multiplicity = 1

 SCF Done:  E(RHF) =  -308.985578219     A.U. after   15 cycles

 1\1\GINC-SE083\Stability\RHF\Aug-CC-pVDZ\C6H12O1\OHZDE\09-Apr-2025\0\\
 #t hf aug-cc-pvdz symm=none int=(grid=ultrafine) guess=(read,tcheck) s
 table=(opt,rrhf)\\title\\0,1\C,0,-1.0997598,-1.90316366,-0.35344594\C,
 0,-0.19280849,-0.67483423,-0.33018683\C,0,-0.64659511,0.29470151,0.771
 57033\C,0,-0.34812266,1.75803252,0.53024906\O,0,1.08057132,2.01196696,
 0.50921006\C,0,1.69401523,2.53335883,-0.49255435\C,0,1.26543903,-1.104
 28298,-0.16977975\H,0,-2.1396191,-1.63218017,-0.54991411\H,0,-0.786080
 88,-2.6103351,-1.12372427\H,0,-1.06614122,-2.42509582,0.60746632\H,0,-

 Normal termination of Gaussian 16 at Wed Apr  9 03:28:12 2025.
 Gaussian 16:  ES64L-G16RevC.01  3-Jul-2019

 ----------------------------------------------------------------------
 #t hf aug-cc-pvdz iop(5/13=1,5/36=2,99/5=2) pseudo=read geom=check gue
 ss=(read,tcheck) scf=(maxcycle=1)
 ----------------------------------------------------------------------
 -----
 title
 -----
 Structure from the checkpoint file:  "Grambow2020_wb97xd3_006732_reverse_mol2.chk"
 Charge =  0 Multiplicity = 1

                         Standard orientation:
 ---------------------------------------------------------------------
 Center     Atomic      Atomic             Coordinates (Angstroms)
 Number     Number       Type             X           Y           Z
 ---------------------------------------------------------------------
      1          6           0       -2.570129   -0.316832    0.343572
      2          6           0       -1.102911    0.102473    0.285692
      3          6           0       -0.272433   -0.980972   -0.418754
      4          6           0        1.178109   -1.080002   -0.000687
      5          8           0        1.917721    0.114946   -0.362853
      6          6           0        2.541409    0.848727    0.488191
      7          6           0       -0.975625    1.469268   -0.386850
      8          1           0       -2.700231   -1.252013    0.892980
      9          1           0       -3.179356    0.446448    0.831487
     10          1           0       -2.969032   -0.463120   -0.664581
     11          1           0       -0.737150    0.191015    1.316870
     12          1           0       -0.331303   -0.850292   -1.503861
     13          1           0       -0.705707   -1.964128   -0.206579
     14          1           0        1.674400   -1.902601   -0.517573
     15          1           0        1.283169   -1.213543    1.081400
     16          1           0        2.399210    0.372785    1.499582
     17          1           0       -1.357209    1.421919   -1.410978
     18          1           0       -1.563143    2.216671    0.150206
     19          1           0        0.054058    1.821321   -0.433110
 ---------------------------------------------------------------------

 SCF Done:  E(RHF) =  -309.084127446     A.U. after    2 cycles

 The electronic state is 1-A.
 Alpha  occ. eigenvalues --  -20.63922 -11.31193 -11.30352 -11.24564 -11.24480
 Alpha  occ. eigenvalues --  -11.22881 -11.22067  -1.41121  -1.10087  -1.02673
 Alpha  occ. eigenvalues --   -0.93076  -0.90622  -0.83236  -0.78599  -0.69886
 Alpha  occ. eigenvalues --   -0.67363  -0.63689  -0.62041  -0.59737  -0.57745
 Alpha  occ. eigenvalues --   -0.55284  -0.54301  -0.52586  -0.51767  -0.47713
 Alpha  occ. eigenvalues --   -0.47277  -0.46318  -0.35339
 Alpha virt. eigenvalues --    0.03039   0.03921   0.04287   0.04893   0.06065
 Alpha virt. eigenvalues --    0.06269   0.06457   0.07134   0.07555   0.08585
 Alpha virt. eigenvalues --    0.09192   0.09378   0.10274   0.12818   0.13166

 Mulliken charges:
               1
     1  C    0.770618
     2  C   -1.182809
     3  C    0.477371
     4  C    0.738641
     5  O   -0.478100
     6  C    0.119227
     7  C    0.660767
     8  H   -0.087139
     9  H   -0.073950
    10  H    0.008550
    11  H   -0.172191
    12  H   -0.086933
    13  H   -0.092728
    14  H   -0.154706
    15  H   -0.124683
    16  H   -0.088456
    17  H   -0.011397
    18  H   -0.067636
    19  H   -0.154447
 Sum of Mulliken charges =   0.00000

 Dipole moment (field-independent basis, Debye):
    X=             -2.2413    Y=             -3.0101    Z=              0.9285  Tot=              3.8661

 Test job not archived.
 1\1\GINC-SE083\SP\RHF\Aug-CC-pVDZ\C6H12O1\OHZDE\09-Apr-2025\0\\#t hf a
 ug-cc-pvdz iop(5/13=1,5/36=2,99/5=2) pseudo=read geom=check guess=(rea
 d,tcheck) scf=(maxcycle=1)\\title\\0,1\C,0,-1.0997598,-1.90316366,-0.3
 5344594\C,0,-0.19280849,-0.67483423,-0.33018683\C,0,-0.64659511,0.2947
 0151,0.77157033\C,0,-0.34812266,1.75803252,0.53024906\O,0,1.08057132,2
 .01196696,0.50921006\C,0,1.69401523,2.53335883,-0.49255435\C,0,1.26543
 903,-1.10428298,-0.16977975\H,0,-2.1396191,-1.63218017,-0.54991411\H,0
 ,-0.78608088,-2.6103351,-1.12372427\H,0,-1.06614122,-2.42509582,0.6074

 Normal termination of Gaussian 16 at Wed Apr  9 03:28:22 2025.
