 Gaussian 16, Revision C.01,

 ----------------------------------------------------------------------
 #t hf aug-cc-pvdz symm=none int=(grid=ultrafine) guess=(read,tcheck) s
 table=(opt,rrhf)
 ----------------------------------------------------------------------
 -----
 title
 -----
 Symbolic Z-matrix:
 Charge =  0 Multiplicity = 1

 SCF Done:  E(RHF) =  -359.549602904     A.U. after   16 cycles
 Normal termination of Gaussian 16 at Wed Apr  9 03:45:31 2025.
 Gaussian 16:  ES64L-G16RevC.01  3-Jul-2019

 ----------------------------------------------------------------------
 #t hf aug-cc-pvdz iop(5/13=1,5/36=2,99/5=2) pseudo=read geom=check gue
 ss=(read,tcheck) scf=(maxcycle=1)
 ----------------------------------------------------------------------
 -----
 title
 -----
 Structure from the checkpoint file:  "Grambow2020_wb97xd3_007893_forward_mol1.chk"
 Charge =  0 Multiplicity = 1

                         Standard orientation:
 ---------------------------------------------------------------------
 Center     Atomic      Atomic             Coordinates (Angstroms)
 Number     Number       Type             X           Y           Z
 ---------------------------------------------------------------------
      1          6           0       -0.883748    1.808786   -0.005274
      2          6           0       -0.255934    0.476916    0.083144
      3          7           0       -0.795759   -0.673051    0.001132
      4          8           0       -2.169824   -0.766707   -0.085367
      5          6           0        1.208662    0.096799    0.366515
      6          6           0        1.049704   -1.348393    0.061525
      7          8           0        2.233999    0.413721   -0.398973
      8          1           0       -1.010750    2.221740    0.998632
      9          1           0       -0.208516    2.470709   -0.549914
     10          1           0       -1.856594    1.772259   -0.492820
     11          1           0       -2.334612   -1.674342   -0.353555
     12          1           0        1.342624    0.264886    1.461893
     13          1           0        1.310057   -2.143902    0.759195
     14          1           0        1.102600   -1.580758   -0.992091
 ---------------------------------------------------------------------

 SCF Done:  E(RHF) =  -359.658888831     A.U. after    2 cycles

 The electronic state is 1-A.
 Alpha  occ. eigenvalues --  -20.64959 -20.45284 -15.72950 -11.36086 -11.31857
 Alpha  occ. eigenvalues --  -11.29329 -11.25886  -1.42367  -1.25457  -1.18646
 Alpha  occ. eigenvalues --   -1.02267  -0.98120  -0.87363  -0.77042  -0.73998
 Alpha  occ. eigenvalues --   -0.68979  -0.68147  -0.65449  -0.60925  -0.59730
 Alpha  occ. eigenvalues --   -0.58224  -0.55491  -0.53342  -0.48980  -0.42880
 Alpha  occ. eigenvalues --   -0.36110  -0.35454
 Alpha virt. eigenvalues --    0.02132   0.03625   0.03935   0.05081   0.06299
 Alpha virt. eigenvalues --    0.06660   0.07369   0.07763   0.10715   0.11757
 Alpha virt. eigenvalues --    0.12289   0.12634   0.13403   0.14238   0.14710

 Mulliken charges:
               1
     1  C    0.416808
     2  C   -0.517938
     3  N   -0.113484
     4  O   -0.522254
     5  C    0.678793
     6  C    0.892667
     7  O   -0.918631
     8  H    0.102401
     9  H    0.065790
    10  H   -0.030969
    11  H    0.173726
    12  H    0.031128
    13  H   -0.169925
    14  H   -0.088112
 Sum of Mulliken charges =  -0.00000

 Dipole moment (field-independent basis, Debye):
    X=             -5.0953    Y=             -3.4683    Z=              1.3712  Tot=              6.3144

 Test job not archived.
 1\1\GINC-SE453\SP\RHF\Aug-CC-pVDZ\C4H7N1O2\OHZDE\09-Apr-2025\0\\#t hf
 aug-cc-pvdz iop(5/13=1,5/36=2,99/5=2) pseudo=read geom=check guess=(re
 ad,tcheck) scf=(maxcycle=1)\\title\\0,1\C,0,-1.41346141,-1.24077999,-0
 .17777759\C,0,-0.31160813,-0.26549349,-0.07491675\N,0,-0.30125407,0.87
 965736,0.48103604\O,0,-1.47623624,1.38837469,0.99575213\C,0,1.10935889
 ,-0.32110606,-0.66448298\C,0,1.61998737,0.86880729,0.06368714\O,0,2.01
 994134,-1.22418483,-0.35949546\H,0,-1.86457576,-1.18100106,-1.17146273
 \H,0,-0.99605431,-2.24278329,-0.06609019\H,0,-2.18751801,-1.06544367,0

 Normal termination of Gaussian 16 at Wed Apr  9 03:45:36 2025.
