 Gaussian 16, Revision C.01,

 ----------------------------------------------------------------------
 #t hf aug-cc-pvdz symm=none int=(grid=ultrafine) guess=(read,tcheck) s
 table=(opt,rrhf)
 ----------------------------------------------------------------------
 -----
 title
 -----
 Symbolic Z-matrix:
 Charge =  0 Multiplicity = 1

 SCF Done:  E(RHF) =  -322.576633554     A.U. after   15 cycles
 Normal termination of Gaussian 16 at Wed Apr  9 15:47:02 2025.
 Gaussian 16:  ES64L-G16RevC.01  3-Jul-2019

 ----------------------------------------------------------------------
 #t hf aug-cc-pvdz iop(5/13=1,5/36=2,99/5=2) pseudo=read geom=check gue
 ss=(read,tcheck) scf=(maxcycle=1)
 ----------------------------------------------------------------------
 -----
 title
 -----
 Structure from the checkpoint file:  "Grambow2020_wb97xd3_007372_reverse_mol1.chk"
 Charge =  0 Multiplicity = 1

                         Standard orientation:
 ---------------------------------------------------------------------
 Center     Atomic      Atomic             Coordinates (Angstroms)
 Number     Number       Type             X           Y           Z
 ---------------------------------------------------------------------
      1          6           0       -1.474485    0.009007    0.800412
      2          6           0       -0.910637    0.791203   -0.339722
      3          6           0        0.480456    1.363098   -0.257412
      4          8           0        1.427630    0.485486    0.367503
      5          6           0        1.384680   -0.824250    0.104103
      6          7           0        0.279831   -1.406030   -0.353276
      7          6           0       -0.973152   -0.697046   -0.433773
      8          1           0       -0.882851   -0.084692    1.702566
      9          1           0       -2.544176    0.035490    0.957979
     10          1           0       -1.598840    1.372658   -0.942332
     11          1           0        0.508401    2.283853    0.325815
     12          1           0        0.843570    1.581771   -1.265537
     13          1           0        0.949370   -1.910409    0.594589
     14          1           0       -1.696495   -1.172424   -1.081819
 ---------------------------------------------------------------------

 SCF Done:  E(RHF) =  -322.674895352     A.U. after    2 cycles

 The electronic state is 1-A.
 Alpha  occ. eigenvalues --  -20.60922 -15.65527 -11.32174 -11.30999 -11.28603
 Alpha  occ. eigenvalues --  -11.26398 -11.25554  -1.39218  -1.22949  -1.14852
 Alpha  occ. eigenvalues --   -0.98253  -0.89590  -0.84189  -0.73923  -0.72489
 Alpha  occ. eigenvalues --   -0.69697  -0.66923  -0.63436  -0.59234  -0.56141
 Alpha  occ. eigenvalues --   -0.53877  -0.52857  -0.46994  -0.42774  -0.41594
 Alpha  occ. eigenvalues --   -0.34408
 Alpha virt. eigenvalues --    0.02766   0.04046   0.04150   0.05015   0.06380
 Alpha virt. eigenvalues --    0.06530   0.07392   0.09408   0.10271   0.12062
 Alpha virt. eigenvalues --    0.12359   0.13250   0.13580   0.13961   0.14376

 Mulliken charges:
               1
     1  C    0.701682
     2  C    0.193454
     3  C    0.802423
     4  O   -0.513358
     5  C   -0.075872
     6  N   -0.622100
     7  C    0.831948
     8  H   -0.359714
     9  H   -0.325316
    10  H   -0.336844
    11  H   -0.145013
    12  H   -0.095015
    13  H    0.324888
    14  H   -0.381163
 Sum of Mulliken charges =   0.00000

 Dipole moment (field-independent basis, Debye):
    X=             -3.5299    Y=              1.7670    Z=             -0.2068  Tot=              3.9529

 Test job not archived.
 1\1\GINC-SE141\SP\RHF\Aug-CC-pVDZ\C5H7N1O1\OHZDE\09-Apr-2025\0\\#t hf
 aug-cc-pvdz iop(5/13=1,5/36=2,99/5=2) pseudo=read geom=check guess=(re
 ad,tcheck) scf=(maxcycle=1)\\title\\0,1\C,0,-1.17345443,-0.67251641,0.
 43782763\C,0,-0.72723483,0.41117611,-0.48746006\C,0,0.24796546,1.45938
 229,-0.01924444\O,0,1.29498026,0.94079095,0.81303108\C,0,1.85276258,-0
 .23613062,0.51242018\N,0,1.22219215,-1.13281598,-0.24036807\C,0,-0.153
 68001,-0.95881643,-0.63508826\H,0,-0.82479155,-0.64985541,1.46282154\H
 ,0,-2.16521276,-1.08242624,0.30307773\H,0,-1.43021822,0.75648245,-1.23

 Normal termination of Gaussian 16 at Wed Apr  9 15:47:06 2025.
