 Gaussian 16, Revision C.01,

 ----------------------------------------------------------------------
 #t hf aug-cc-pvdz symm=none int=(grid=ultrafine) guess=(read,tcheck) s
 table=(opt,rrhf)
 ----------------------------------------------------------------------
 -----
 title
 -----
 Symbolic Z-matrix:
 Charge =  0 Multiplicity = 1

 SCF Done:  E(RHF) =  -286.776827968     A.U. after   15 cycles
 Normal termination of Gaussian 16 at Wed Apr  9 04:05:55 2025.
 Gaussian 16:  ES64L-G16RevC.01  3-Jul-2019

 ----------------------------------------------------------------------
 #t hf aug-cc-pvdz iop(5/13=1,5/36=2,99/5=2) pseudo=read geom=check gue
 ss=(read,tcheck) scf=(maxcycle=1)
 ----------------------------------------------------------------------
 -----
 title
 -----
 Structure from the checkpoint file:  "Grambow2020_wb97xd3_009350_reverse_mol2.chk"
 Charge =  0 Multiplicity = 1

                         Standard orientation:
 ---------------------------------------------------------------------
 Center     Atomic      Atomic             Coordinates (Angstroms)
 Number     Number       Type             X           Y           Z
 ---------------------------------------------------------------------
      1          6           0        2.422349   -0.275489    0.077152
      2          7           0        1.056757   -0.041855   -0.337252
      3          6           0        0.398877    1.200041   -0.197065
      4          6           0       -2.066987    0.343643    0.118041
      5          6           0       -1.391991   -0.954493   -0.429656
      6          6           0       -0.071881   -0.664130    0.367085
      7          6           0       -0.651878    0.717679    0.516857
      8          1           0        3.077890    0.416565   -0.453131
      9          1           0        2.716425   -1.294210   -0.181802
     10          1           0        2.565347   -0.129124    1.156049
     11          1           0        0.630189    2.106472   -0.744148
     12          1           0       -2.575610    0.979970   -0.604681
     13          1           0       -1.216390   -0.906536   -1.502914
     14          1           0       -1.879932   -1.893968   -0.169990
     15          1           0        0.181844   -1.338661    1.183505
     16          1           0       -2.728000    0.148964    0.963384
 ---------------------------------------------------------------------

 SCF Done:  E(RHF) =  -286.863024604     A.U. after    2 cycles

 The electronic state is 1-A.
 Alpha  occ. eigenvalues --  -15.62887 -11.26741 -11.26007 -11.25849 -11.24213
 Alpha  occ. eigenvalues --  -11.24117 -11.22557  -1.25984  -1.09491  -0.98458
 Alpha  occ. eigenvalues --   -0.91113  -0.83905  -0.81789  -0.70458  -0.66347
 Alpha  occ. eigenvalues --   -0.64487  -0.62706  -0.59332  -0.57723  -0.52489
 Alpha  occ. eigenvalues --   -0.51042  -0.49409  -0.46899  -0.44764  -0.36879
 Alpha  occ. eigenvalues --   -0.30449
 Alpha virt. eigenvalues --    0.03575   0.03950   0.04178   0.04803   0.06342
 Alpha virt. eigenvalues --    0.06524   0.07070   0.07485   0.08350   0.10253
 Alpha virt. eigenvalues --    0.11038   0.12334   0.12902   0.13565   0.14036

 Mulliken charges:
               1
     1  C    0.816565
     2  N   -0.786809
     3  C    0.708731
     4  C    0.654879
     5  C    0.385827
     6  C    0.752309
     7  C   -0.702549
     8  H   -0.218861
     9  H   -0.188113
    10  H   -0.089383
    11  H   -0.301251
    12  H   -0.178917
    13  H   -0.180769
    14  H   -0.184583
    15  H   -0.343692
    16  H   -0.143383
 Sum of Mulliken charges =  -0.00000

 Dipole moment (field-independent basis, Debye):
    X=              0.2222    Y=             -0.6307    Z=             -0.3743  Tot=              0.7664

 Test job not archived.
 1\1\GINC-SE322\SP\RHF\Aug-CC-pVDZ\C6H9N1\OHZDE\09-Apr-2025\0\\#t hf au
 g-cc-pvdz iop(5/13=1,5/36=2,99/5=2) pseudo=read geom=check guess=(read
 ,tcheck) scf=(maxcycle=1)\\title\\0,1\C,0,2.3639083,0.27465824,-0.2713
 7505\N,0,1.00944922,0.28063496,0.23514613\C,0,0.46678894,-0.75453591,1
 .02805584\C,0,-2.05074344,-0.58305933,0.28925709\C,0,-1.51069245,0.778
 87372,-0.2531732\C,0,-0.1423884,0.12994212,-0.66357555\C,0,-0.59507942
 ,-1.00428225,0.21780495\H,0,3.05707342,0.21285681,0.56860935\H,0,2.559
 32356,1.20327722,-0.81064422\H,0,2.55808462,-0.57228371,-0.94284706\H,

 Normal termination of Gaussian 16 at Wed Apr  9 04:06:02 2025.
