 Gaussian 16, Revision C.01,

 ----------------------------------------------------------------------
 #t hf aug-cc-pvdz symm=none int=(grid=ultrafine) guess=(read,tcheck) s
 table=(opt,rrhf)
 ----------------------------------------------------------------------
 -----
 title
 -----
 Symbolic Z-matrix:
 Charge =  0 Multiplicity = 1

 SCF Done:  E(RHF) =  -308.992789462     A.U. after   15 cycles

 1\1\GINC-SE141\Stability\RHF\Aug-CC-pVDZ\C6H12O1\OHZDE\09-Apr-2025\0\\
 #t hf aug-cc-pvdz symm=none int=(grid=ultrafine) guess=(read,tcheck) s
 table=(opt,rrhf)\\title\\0,1\C,0,-1.89075871,-1.67679323,-1.07848025\C
 ,0,-1.25621346,-0.29439421,-1.01598942\C,0,-0.67505801,0.018125,0.3587
 6793\C,0,-0.01085966,1.37676569,0.44436495\O,0,1.10980362,1.48139833,-
 0.48090969\C,0,2.31905906,1.05570483,-0.27962596\C,0,2.59481177,0.3803
 1345,1.03306867\H,0,-2.69915352,-1.77722316,-0.3496699\H,0,-2.30737569
 ,-1.87773865,-2.06658013\H,0,-1.15532735,-2.456184,-0.86451392\H,0,-2.

 Normal termination of Gaussian 16 at Wed Apr  9 03:28:15 2025.
 Gaussian 16:  ES64L-G16RevC.01  3-Jul-2019

 ----------------------------------------------------------------------
 #t hf aug-cc-pvdz iop(5/13=1,5/36=2,99/5=2) pseudo=read geom=check gue
 ss=(read,tcheck) scf=(maxcycle=1)
 ----------------------------------------------------------------------
 -----
 title
 -----
 Structure from the checkpoint file:  "Grambow2020_wb97xd3_006736_reverse_mol2.chk"
 Charge =  0 Multiplicity = 1

                         Standard orientation:
 ---------------------------------------------------------------------
 Center     Atomic      Atomic             Coordinates (Angstroms)
 Number     Number       Type             X           Y           Z
 ---------------------------------------------------------------------
      1          6           0        2.945910    0.707951   -0.194451
      2          6           0        1.778989   -0.256611   -0.354127
      3          6           0        0.735014   -0.094949    0.745577
      4          6           0       -0.453389   -1.022456    0.597864
      5          8           0       -1.166543   -0.780452   -0.649458
      6          6           0       -2.059574    0.136715   -0.862360
      7          6           0       -2.389370    1.047189    0.285522
      8          1           0        3.452880    0.564608    0.763247
      9          1           0        3.684856    0.570985   -0.985329
     10          1           0        2.605734    1.745594   -0.235285
     11          1           0        2.147258   -1.287695   -0.348568
     12          1           0        0.386647    0.942051    0.775450
     13          1           0        1.191352   -0.293929    1.721620
     14          1           0       -1.140805   -0.950485    1.439796
     15          1           0       -0.129423   -2.059847    0.510042
     16          1           0        1.304642   -0.107044   -1.327305
     17          1           0       -2.005970    0.838744    1.288173
     18          1           0       -2.033649    2.034209   -0.031499
     19          1           0       -3.476660    1.139393    0.317175
 ---------------------------------------------------------------------

 SCF Done:  E(RHF) =  -309.091735273     A.U. after    2 cycles

 The electronic state is 1-A.
 Alpha  occ. eigenvalues --  -20.62307 -11.30401 -11.29488 -11.24447 -11.23442
 Alpha  occ. eigenvalues --  -11.23235 -11.22816  -1.39153  -1.08447  -1.01369
 Alpha  occ. eigenvalues --   -0.98935  -0.89924  -0.82347  -0.76053  -0.69130
 Alpha  occ. eigenvalues --   -0.66259  -0.64386  -0.62624  -0.58596  -0.57496
 Alpha  occ. eigenvalues --   -0.55409  -0.54121  -0.53197  -0.51735  -0.48391
 Alpha  occ. eigenvalues --   -0.48024  -0.47521  -0.33129
 Alpha virt. eigenvalues --    0.03102   0.03958   0.04261   0.04699   0.05801
 Alpha virt. eigenvalues --    0.06167   0.06478   0.07234   0.08364   0.08724
 Alpha virt. eigenvalues --    0.08807   0.09430   0.11418   0.11910   0.12497

 Mulliken charges:
               1
     1  C    0.422438
     2  C    0.138800
     3  C    0.135374
     4  C    0.955270
     5  O   -0.497869
     6  C   -0.150335
     7  C    0.515808
     8  H   -0.063186
     9  H   -0.063330
    10  H   -0.085753
    11  H   -0.133782
    12  H   -0.207190
    13  H   -0.098036
    14  H   -0.112275
    15  H   -0.279664
    16  H   -0.129857
    17  H   -0.246361
    18  H    0.003538
    19  H   -0.103590
 Sum of Mulliken charges =  -0.00000

 Dipole moment (field-independent basis, Debye):
    X=              1.6522    Y=              0.2506    Z=              3.4616  Tot=              3.8439

 Test job not archived.
 1\1\GINC-SE141\SP\RHF\Aug-CC-pVDZ\C6H12O1\OHZDE\09-Apr-2025\0\\#t hf a
 ug-cc-pvdz iop(5/13=1,5/36=2,99/5=2) pseudo=read geom=check guess=(rea
 d,tcheck) scf=(maxcycle=1)\\title\\0,1\C,0,-1.89075871,-1.67679323,-1.
 07848025\C,0,-1.25621346,-0.29439421,-1.01598942\C,0,-0.67505801,0.018
 125,0.35876793\C,0,-0.01085966,1.37676569,0.44436495\O,0,1.10980362,1.
 48139833,-0.48090969\C,0,2.31905906,1.05570483,-0.27962596\C,0,2.59481
 177,0.38031345,1.03306867\H,0,-2.69915352,-1.77722316,-0.3496699\H,0,-
 2.30737569,-1.87773865,-2.06658013\H,0,-1.15532735,-2.456184,-0.864513

 Normal termination of Gaussian 16 at Wed Apr  9 03:28:23 2025.
