 Gaussian 16, Revision C.01,

 ----------------------------------------------------------------------
 #t hf aug-cc-pvdz symm=none int=(grid=ultrafine) guess=(read,tcheck) s
 table=(opt,rrhf)
 ----------------------------------------------------------------------
 -----
 title
 -----
 Symbolic Z-matrix:
 Charge =  0 Multiplicity = 1

 SCF Done:  E(RHF) =  -195.149807168     A.U. after   11 cycles
 Normal termination of Gaussian 16 at Wed Apr  9 03:06:18 2025.
 Gaussian 16:  ES64L-G16RevC.01  3-Jul-2019

 ----------------------------------------------------------------------
 #t hf aug-cc-pvdz iop(5/13=1,5/36=2,99/5=2) pseudo=read geom=check gue
 ss=(read,tcheck) scf=(maxcycle=1)
 ----------------------------------------------------------------------
 -----
 title
 -----
 Structure from the checkpoint file:  "Grambow2020_b97d3_006579_forward_mol2.chk"
 Charge =  0 Multiplicity = 1

                         Standard orientation:
 ---------------------------------------------------------------------
 Center     Atomic      Atomic             Coordinates (Angstroms)
 Number     Number       Type             X           Y           Z
 ---------------------------------------------------------------------
      1          6           0       -1.576740   -0.819234    0.120389
      2          6           0       -0.758116    0.330809   -0.433861
      3          6           0       -0.001942    1.262586    0.488882
      4          6           0        0.757532    0.332664   -0.432109
      5          6           0        1.578858   -0.816942    0.120523
      6          1           0       -1.124044   -1.241711    1.027260
      7          1           0       -1.673476   -1.632377   -0.615014
      8          1           0       -2.589137   -0.481141    0.386686
      9          1           0       -1.210715    0.807416   -1.306900
     10          1           0       -0.002215    2.333008    0.281402
     11          1           0       -0.004633    1.013270    1.551775
     12          1           0        1.209900    0.810238   -1.304823
     13          1           0        2.587742   -0.474849    0.395517
     14          1           0        1.122599   -1.248917    1.021080
     15          1           0        1.686426   -1.624237   -0.619923
 ---------------------------------------------------------------------

 SCF Done:  E(RHF) =  -195.212387157     A.U. after    2 cycles

 The electronic state is 1-A.
 Alpha  occ. eigenvalues --  -11.23540 -11.23486 -11.22632 -11.22618 -11.22611
 Alpha  occ. eigenvalues --   -1.13152  -0.96915  -0.93681  -0.79476  -0.74415
 Alpha  occ. eigenvalues --   -0.67002  -0.59716  -0.57403  -0.56215  -0.53594
 Alpha  occ. eigenvalues --   -0.53448  -0.50038  -0.47858  -0.39978  -0.39126
 Alpha virt. eigenvalues --    0.03584   0.04589   0.04652   0.04766   0.06731
 Alpha virt. eigenvalues --    0.06888   0.07118   0.07317   0.07604   0.09739
 Alpha virt. eigenvalues --    0.12305   0.13394   0.14397   0.15332   0.15471

 Mulliken charges:
               1
     1  C    0.277606
     2  C    0.133645
     3  C    0.798531
     4  C    0.131346
     5  C    0.275002
     6  H   -0.101881
     7  H    0.002068
     8  H    0.006042
     9  H   -0.385533
    10  H   -0.324484
    11  H   -0.336827
    12  H   -0.385149
    13  H    0.008065
    14  H   -0.100440
    15  H    0.002010
 Sum of Mulliken charges =   0.00000

 Dipole moment (field-independent basis, Debye):
    X=             -0.0002    Y=             -0.0521    Z=             -0.1034  Tot=              0.1158

 Test job not archived.
 1\1\GINC-SE143\SP\RHF\Aug-CC-pVDZ\C5H10\OHZDE\09-Apr-2025\0\\#t hf aug
 -cc-pvdz iop(5/13=1,5/36=2,99/5=2) pseudo=read geom=check guess=(read,
 tcheck) scf=(maxcycle=1)\\title\\0,1\C,0,1.43445325,-0.97689713,0.0483
 3649\C,0,0.76783738,0.28434812,0.56294251\C,0,0.2716095,1.34734574,-0.
 39374789\C,0,-0.71878255,0.54205096,0.4189036\C,0,-1.6613135,-0.441970
 68,-0.24811164\H,0,1.00933591,-1.30000592,-0.91120058\H,0,1.32182337,-
 1.80819583,0.76082036\H,0,2.51018992,-0.80966891,-0.10976051\H,0,1.205
 18676,0.66144441,1.49069272\H,0,0.42936744,2.39832692,-0.15002326\H,0,

 Normal termination of Gaussian 16 at Wed Apr  9 03:06:22 2025.
