 Gaussian 16, Revision C.01,

 ----------------------------------------------------------------------
 #t hf aug-cc-pvdz symm=none int=(grid=ultrafine) guess=(read,tcheck) s
 table=(opt,rrhf)
 ----------------------------------------------------------------------
 -----
 title
 -----
 Symbolic Z-matrix:
 Charge =  0 Multiplicity = 1

 SCF Done:  E(RHF) =  -306.544850622     A.U. after   17 cycles
 Normal termination of Gaussian 16 at Wed Apr  9 04:04:54 2025.
 Gaussian 16:  ES64L-G16RevC.01  3-Jul-2019

 ----------------------------------------------------------------------
 #t hf aug-cc-pvdz iop(5/13=1,5/36=2,99/5=2) pseudo=read geom=check gue
 ss=(read,tcheck) scf=(maxcycle=1)
 ----------------------------------------------------------------------
 -----
 title
 -----
 Structure from the checkpoint file:  "Grambow2020_wb97xd3_009277_reverse_mol1.chk"
 Charge =  0 Multiplicity = 1

                         Standard orientation:
 ---------------------------------------------------------------------
 Center     Atomic      Atomic             Coordinates (Angstroms)
 Number     Number       Type             X           Y           Z
 ---------------------------------------------------------------------
      1          6           0        1.366641   -0.427180    1.271765
      2          6           0        0.616726   -0.259515    0.002292
      3          6           0        1.351209   -0.458513   -1.271938
      4          6           0       -0.588277    0.707105   -0.005513
      5          8           0        0.009734    1.760600   -0.011092
      6          6           0       -1.949928    0.232780   -0.003144
      7          6           0       -1.824371   -1.081854    0.014157
      8          1           0        2.241489    0.229613    1.295379
      9          1           0        1.741753   -1.453173    1.309442
     10          1           0        0.744196   -0.239415    2.143836
     11          1           0       -0.737056   -1.497586    0.014063
     12          1           0        2.134227    0.299523   -1.372510
     13          1           0        1.851433   -1.428982   -1.243420
     14          1           0        0.692168   -0.409497   -2.136520
     15          1           0       -2.578084   -1.862219    0.032749
 ---------------------------------------------------------------------

 SCF Done:  E(RHF) =  -306.637787113     A.U. after    2 cycles

 The electronic state is 1-A.
 Alpha  occ. eigenvalues --  -20.59206 -11.39725 -11.36515 -11.29453 -11.29424
 Alpha  occ. eigenvalues --  -11.24862 -11.17711  -1.39210  -1.14528  -1.05528
 Alpha  occ. eigenvalues --   -1.01331  -0.88176  -0.81369  -0.72591  -0.69209
 Alpha  occ. eigenvalues --   -0.67386  -0.66570  -0.60957  -0.60605  -0.60458
 Alpha  occ. eigenvalues --   -0.58305  -0.55747  -0.54149  -0.44781  -0.36380
 Alpha  occ. eigenvalues --   -0.30434
 Alpha virt. eigenvalues --    0.01421   0.01761   0.03668   0.04026   0.04894
 Alpha virt. eigenvalues --    0.06202   0.06504   0.06823   0.07756   0.08389
 Alpha virt. eigenvalues --    0.10120   0.11693   0.12194   0.12622   0.13077

 Mulliken charges:
               1
     1  C    0.584867
     2  C   -1.310538
     3  C    0.601310
     4  C    0.519101
     5  O   -0.539676
     6  C   -0.510222
     7  C    0.734911
     8  H    0.115489
     9  H    0.058380
    10  H   -0.021688
    11  H   -0.026184
    12  H    0.122174
    13  H    0.049516
    14  H   -0.015584
    15  H   -0.361853
 Sum of Mulliken charges =  -0.00000

 Dipole moment (field-independent basis, Debye):
    X=              7.0329    Y=             -4.8291    Z=              0.0322  Tot=              8.5313

 Test job not archived.
 1\1\GINC-SE460\SP\RHF\Aug-CC-pVDZ\C6H8O1\OHZDE\09-Apr-2025\0\\#t hf au
 g-cc-pvdz iop(5/13=1,5/36=2,99/5=2) pseudo=read geom=check guess=(read
 ,tcheck) scf=(maxcycle=1)\\title\\0,1\C,0,-0.57115531,0.71615737,-1.40
 992336\C,0,-0.25532427,0.23975123,-0.04049475\C,0,-1.34207082,-0.39968
 888,0.74233711\C,0,0.86143389,0.96730362,0.7405091\O,0,0.26253934,1.97
 775774,1.03683368\C,0,2.16949258,0.38869207,0.92292685\C,0,2.09128705,
 -0.76917422,0.29240565\H,0,-1.41338656,1.41448712,-1.39329289\H,0,-0.8
 8815245,-0.14581083,-2.0026406\H,0,0.28505659,1.18650173,-1.88833618\H

 Normal termination of Gaussian 16 at Wed Apr  9 04:04:59 2025.
