 Gaussian 16, Revision C.01,

 ----------------------------------------------------------------------
 #t hf aug-cc-pvdz symm=none int=(grid=ultrafine) guess=(read,tcheck) s
 table=(opt,rrhf)
 ----------------------------------------------------------------------
 -----
 title
 -----
 Symbolic Z-matrix:
 Charge =  0 Multiplicity = 1

 SCF Done:  E(RHF) =  -191.836390318     A.U. after   14 cycles
 Normal termination of Gaussian 16 at Wed Apr  9 03:20:17 2025.
 Gaussian 16:  ES64L-G16RevC.01  3-Jul-2019

 ----------------------------------------------------------------------
 #t hf aug-cc-pvdz iop(5/13=1,5/36=2,99/5=2) pseudo=read geom=check gue
 ss=(read,tcheck) scf=(maxcycle=1)
 ----------------------------------------------------------------------
 -----
 title
 -----
 Structure from the checkpoint file:  "Grambow2020_wb97xd3_006096_reverse_mol2.chk"
 Charge =  0 Multiplicity = 1

                         Standard orientation:
 ---------------------------------------------------------------------
 Center     Atomic      Atomic             Coordinates (Angstroms)
 Number     Number       Type             X           Y           Z
 ---------------------------------------------------------------------
      1          6           0       -1.474536   -0.024193   -0.134519
      2          6           0       -0.094414   -0.197063    0.426138
      3          6           0        0.953939   -0.872780   -0.363604
      4          8           0        0.859476    0.848328    0.031370
      5          1           0       -1.970946    0.859919    0.271995
      6          1           0       -2.073421   -0.899076    0.126235
      7          1           0       -1.435970    0.034149   -1.224502
      8          1           0       -0.076028   -0.224341    1.516823
      9          1           0        1.753518   -1.148134    0.339663
     10          1           0        0.617104    1.155077   -0.849259
 ---------------------------------------------------------------------

 SCF Done:  E(RHF) =  -191.896139129     A.U. after    2 cycles

 The electronic state is 1-A.
 Alpha  occ. eigenvalues --  -20.63729 -11.31066 -11.25412 -11.24349  -1.38857
 Alpha  occ. eigenvalues --   -1.04227  -0.93854  -0.79534  -0.71767  -0.67507
 Alpha  occ. eigenvalues --   -0.60312  -0.57405  -0.54142  -0.53377  -0.47318
 Alpha  occ. eigenvalues --   -0.34846
 Alpha virt. eigenvalues --    0.03358   0.04331   0.04959   0.05457   0.07033
 Alpha virt. eigenvalues --    0.07439   0.09795   0.11731   0.12204   0.13497
 Alpha virt. eigenvalues --    0.14884   0.15049   0.16652   0.17130   0.17738

 Mulliken charges:
               1
     1  C    0.367551
     2  C    0.517769
     3  C   -0.074974
     4  O   -0.649417
     5  H    0.045860
     6  H    0.021887
     7  H   -0.059146
     8  H   -0.305961
     9  H   -0.103401
    10  H    0.239833
 Sum of Mulliken charges =  -0.00000

 Dipole moment (field-independent basis, Debye):
    X=             -2.0173    Y=              0.9003    Z=              1.1120  Tot=              2.4732

 Test job not archived.
 1\1\GINC-SE051\SP\RHF\Aug-CC-pVDZ\C3H6O1\OHZDE\09-Apr-2025\0\\#t hf au
 g-cc-pvdz iop(5/13=1,5/36=2,99/5=2) pseudo=read geom=check guess=(read
 ,tcheck) scf=(maxcycle=1)\\title\\0,1\C,0,-1.17160136,0.22361043,0.089
 36264\C,0,0.14856118,-0.38352946,-0.281459\C,0,1.3185654,0.47660735,-0
 .54713913\O,0,1.06757823,-0.58101788,0.8476988\H,0,-1.76673513,-0.4468
 9992,0.71351151\H,0,-1.73540944,0.42657272,-0.82332717\H,0,-1.01986649
 ,1.17697192,0.60027429\H,0,0.05117305,-1.35756189,-0.76359268\H,0,2.05
 433639,-0.1436022,-1.0797835\H,0,0.90153117,0.11598793,1.49187024\\Ver

 Normal termination of Gaussian 16 at Wed Apr  9 03:20:19 2025.
