 Gaussian 16, Revision C.01,

 ----------------------------------------------------------------------
 #t hf aug-cc-pvdz symm=none int=(grid=ultrafine) guess=(read,tcheck) s
 table=(opt,rrhf)
 ----------------------------------------------------------------------
 -----
 title
 -----
 Symbolic Z-matrix:
 Charge =  0 Multiplicity = 1

 SCF Done:  E(RHF) =  -283.548397387     A.U. after   16 cycles
 Normal termination of Gaussian 16 at Wed Apr  9 03:09:24 2025.
 Gaussian 16:  ES64L-G16RevC.01  3-Jul-2019

 ----------------------------------------------------------------------
 #t hf aug-cc-pvdz iop(5/13=1,5/36=2,99/5=2) pseudo=read geom=check gue
 ss=(read,tcheck) scf=(maxcycle=1)
 ----------------------------------------------------------------------
 -----
 title
 -----
 Structure from the checkpoint file:  "Grambow2020_b97d3_006719_reverse_mol1.chk"
 Charge =  0 Multiplicity = 1

                         Standard orientation:
 ---------------------------------------------------------------------
 Center     Atomic      Atomic             Coordinates (Angstroms)
 Number     Number       Type             X           Y           Z
 ---------------------------------------------------------------------
      1          6           0       -1.342278   -0.142181    0.553069
      2          6           0       -0.675058    0.882026   -0.298926
      3          8           0        0.691318    1.139732    0.004654
      4          6           0        1.330743   -0.064434    0.206351
      5          7           0        0.737057   -1.158928   -0.077807
      6          6           0       -0.614829   -1.089473   -0.472497
      7          1           0       -1.004181   -0.200640    1.590615
      8          1           0       -2.431783   -0.148823    0.463186
      9          1           0       -1.168568    1.765604   -0.704725
     10          1           0        2.357225    0.046336    0.548467
     11          1           0       -0.634101    0.016534   -1.318103
 ---------------------------------------------------------------------

 SCF Done:  E(RHF) =  -283.631619684     A.U. after    2 cycles

 The electronic state is 1-A.
 Alpha  occ. eigenvalues --  -20.64360 -15.64216 -11.37408 -11.35629 -11.29847
 Alpha  occ. eigenvalues --  -11.26177  -1.42231  -1.21586  -1.10086  -0.90943
 Alpha  occ. eigenvalues --   -0.86981  -0.79033  -0.73875  -0.68034  -0.65570
 Alpha  occ. eigenvalues --   -0.61519  -0.56976  -0.55653  -0.50901  -0.45700
 Alpha  occ. eigenvalues --   -0.43240  -0.32993
 Alpha virt. eigenvalues --    0.03031   0.03892   0.04536   0.05742   0.06885
 Alpha virt. eigenvalues --    0.08865   0.09640   0.10173   0.11174   0.12502
 Alpha virt. eigenvalues --    0.13805   0.14075   0.14296   0.14678   0.15321

 Mulliken charges:
               1
     1  C    0.619442
     2  C    0.353683
     3  O   -0.575476
     4  C    0.583197
     5  N   -0.359761
     6  C   -0.172271
     7  H   -0.182166
     8  H   -0.179669
     9  H   -0.259697
    10  H   -0.215031
    11  H    0.387748
 Sum of Mulliken charges =  -0.00000

 Dipole moment (field-independent basis, Debye):
    X=             -0.3341    Y=              2.7818    Z=              1.2209  Tot=              3.0562

 Test job not archived.
 1\1\GINC-SE049\SP\RHF\Aug-CC-pVDZ\C4H5N1O1\OHZDE\09-Apr-2025\0\\#t hf
 aug-cc-pvdz iop(5/13=1,5/36=2,99/5=2) pseudo=read geom=check guess=(re
 ad,tcheck) scf=(maxcycle=1)\\title\\0,1\C,0,-1.16099368,0.38186669,-0.
 01297449\C,0,-0.30174331,-0.66954581,-0.62640841\O,0,1.02868487,-0.272
 1449,-0.93879861\C,0,1.53129981,0.45055132,0.12169668\N,0,0.89049023,0
 .49549723,1.22553944\C,0,-0.3857958,-0.1023523,1.26879391\H,0,-0.97069
 341,1.4085784,-0.33527314\H,0,-2.22535029,0.13241781,-0.0050069\H,0,-0
 .66012237,-1.44038442,-1.30927423\H,0,2.50853737,0.88397957,-0.078619\

 Normal termination of Gaussian 16 at Wed Apr  9 03:09:27 2025.
