 Gaussian 16, Revision C.01,

 ----------------------------------------------------------------------
 #t hf aug-cc-pvdz symm=none int=(grid=ultrafine) guess=(read,tcheck) s
 table=(opt,rrhf)
 ----------------------------------------------------------------------
 -----
 title
 -----
 Symbolic Z-matrix:
 Charge =  0 Multiplicity = 1

 SCF Done:  E(RHF) =  -342.608171252     A.U. after   14 cycles
 Normal termination of Gaussian 16 at Wed Apr  9 16:54:10 2025.
 Gaussian 16:  ES64L-G16RevC.01  3-Jul-2019

 ----------------------------------------------------------------------
 #t hf aug-cc-pvdz iop(5/13=1,5/36=2,99/5=2) pseudo=read geom=check gue
 ss=(read,tcheck) scf=(maxcycle=1)
 ----------------------------------------------------------------------
 -----
 title
 -----
 Structure from the checkpoint file:  "Grambow2020_wb97xd3_009060_forward_mol2.chk"
 Charge =  0 Multiplicity = 1

                         Standard orientation:
 ---------------------------------------------------------------------
 Center     Atomic      Atomic             Coordinates (Angstroms)
 Number     Number       Type             X           Y           Z
 ---------------------------------------------------------------------
      1          8           0       -2.354155   -0.557950    0.046393
      2          6           0       -1.209797   -0.206005   -0.014295
      3          6           0       -0.744874    1.239283   -0.153594
      4          6           0        0.749005    1.237698    0.163142
      5          6           0        1.210005   -0.207488    0.014383
      6          8           0        2.350914   -0.560247   -0.090679
      7          6           0       -0.000615   -1.121666    0.026621
      8          1           0       -1.347806    1.887145    0.481289
      9          1           0       -0.938166    1.536604   -1.188497
     10          1           0        0.938778    1.524690    1.201855
     11          1           0        1.354121    1.890840   -0.463807
     12          1           0       -0.010180   -1.737597    0.928910
     13          1           0        0.006832   -1.807034   -0.823003
 ---------------------------------------------------------------------

 SCF Done:  E(RHF) =  -342.712794323     A.U. after    2 cycles

 The electronic state is 1-A.
 Alpha  occ. eigenvalues --  -20.58048 -20.58033 -11.36136 -11.36123 -11.26814
 Alpha  occ. eigenvalues --  -11.26799 -11.26747  -1.37975  -1.37526  -1.13368
 Alpha  occ. eigenvalues --   -1.01670  -0.93882  -0.77873  -0.77162  -0.69749
 Alpha  occ. eigenvalues --   -0.69035  -0.65471  -0.63392  -0.62341  -0.60416
 Alpha  occ. eigenvalues --   -0.59281  -0.55681  -0.51522  -0.50963  -0.45494
 Alpha  occ. eigenvalues --   -0.42088
 Alpha virt. eigenvalues --    0.02956   0.04045   0.04404   0.05210   0.06219
 Alpha virt. eigenvalues --    0.06742   0.08703   0.08956   0.09339   0.11681
 Alpha virt. eigenvalues --    0.13533   0.14077   0.14216   0.14715   0.14782

 Mulliken charges:
               1
     1  O   -0.501316
     2  C    0.106103
     3  C    0.253575
     4  C    0.278675
     5  C    0.122395
     6  O   -0.498488
     7  C    0.045865
     8  H   -0.017163
     9  H    0.027242
    10  H    0.027705
    11  H   -0.024009
    12  H    0.099116
    13  H    0.080302
 Sum of Mulliken charges =  -0.00000

 Dipole moment (field-independent basis, Debye):
    X=              0.0075    Y=              2.1467    Z=              0.1387  Tot=              2.1511

 Test job not archived.
 1\1\GINC-SE145\SP\RHF\Aug-CC-pVDZ\C5H6O2\OHZDE\09-Apr-2025\0\\#t hf au
 g-cc-pvdz iop(5/13=1,5/36=2,99/5=2) pseudo=read geom=check guess=(read
 ,tcheck) scf=(maxcycle=1)\\title\\0,1\O,0,0.58746718,-2.34549294,-0.57
 870949\C,0,0.33192618,-1.19800231,-0.34404746\C,0,-1.07325181,-0.63128
 049,-0.17458752\C,0,-0.90138582,0.75201723,0.4490689\C,0,0.54822947,1.
 1505332,0.19804263\O,0,0.98317618,2.26395156,0.28899107\C,0,1.34747318
 ,-0.08304878,-0.17739912\H,0,-1.68611552,-1.32203462,0.40298158\H,0,-1
 .5142981,-0.57196651,-1.1739606\H,0,-1.03757708,0.72208749,1.53436077\

 Normal termination of Gaussian 16 at Wed Apr  9 16:54:15 2025.
