 Gaussian 16, Revision C.01,

 ----------------------------------------------------------------------
 #t hf aug-cc-pvdz symm=none int=(grid=ultrafine) guess=(read,tcheck) s
 table=(opt,rrhf)
 ----------------------------------------------------------------------
 -----
 title
 -----
 Symbolic Z-matrix:
 Charge =  0 Multiplicity = 1

 SCF Done:  E(RHF) =  -343.434233289     A.U. after   16 cycles
 Normal termination of Gaussian 16 at Wed Apr  9 16:00:03 2025.
 Gaussian 16:  ES64L-G16RevC.01  3-Jul-2019

 ----------------------------------------------------------------------
 #t hf aug-cc-pvdz iop(5/13=1,5/36=2,99/5=2) pseudo=read geom=check gue
 ss=(read,tcheck) scf=(maxcycle=1)
 ----------------------------------------------------------------------
 -----
 title
 -----
 Structure from the checkpoint file:  "Grambow2020_wb97xd3_007677_forward_mol1.chk"
 Charge =  0 Multiplicity = 1

                         Standard orientation:
 ---------------------------------------------------------------------
 Center     Atomic      Atomic             Coordinates (Angstroms)
 Number     Number       Type             X           Y           Z
 ---------------------------------------------------------------------
      1          6           0       -1.904866   -0.654007   -0.452520
      2          6           0       -0.734968   -0.722119    0.327129
      3          6           0        0.746290   -1.127978    0.048365
      4          8           0        1.473184   -0.268801   -0.807650
      5          6           0        1.312894    0.082946    0.595067
      6          6           0       -0.088742    0.697284    0.618207
      7          8           0       -0.233956    1.685764   -0.286746
      8          1           0       -2.744349   -1.309646   -0.267479
      9          1           0       -1.926020   -0.058730   -1.356954
     10          1           0       -2.337450    0.706342    0.692835
     11          1           0       -0.925907   -1.198698    1.292927
     12          1           0        1.078248   -2.155992    0.115305
     13          1           0        2.205561    0.278156    1.170504
     14          1           0       -1.766687    1.070903    1.185672
     15          1           0        0.519140    1.675204   -0.895134
 ---------------------------------------------------------------------

 SCF Done:  E(RHF) =  -343.542052641     A.U. after    2 cycles

 The electronic state is 1-A.
 Alpha  occ. eigenvalues --  -20.61015 -20.60226 -11.33599 -11.33080 -11.31234
 Alpha  occ. eigenvalues --  -11.26851 -11.26211  -1.42138  -1.36239  -1.10587
 Alpha  occ. eigenvalues --   -0.98601  -0.89326  -0.85166  -0.79691  -0.75357
 Alpha  occ. eigenvalues --   -0.69862  -0.65414  -0.63981  -0.61641  -0.59767
 Alpha  occ. eigenvalues --   -0.56999  -0.55501  -0.52804  -0.49080  -0.45404
 Alpha  occ. eigenvalues --   -0.42511  -0.27987
 Alpha virt. eigenvalues --    0.02201   0.03472   0.04576   0.04657   0.05119
 Alpha virt. eigenvalues --    0.06228   0.07040   0.07536   0.09117   0.10597
 Alpha virt. eigenvalues --    0.11975   0.12407   0.12522   0.13817   0.14442

 Mulliken charges:
               1
     1  C    0.475398
     2  C   -0.198800
     3  C    0.779259
     4  O   -0.810340
     5  C    0.636100
     6  C    0.221830
     7  O   -0.576880
     8  H   -0.268575
     9  H   -0.204878
    10  H   -0.127449
    11  H   -0.079230
    12  H   -0.195765
    13  H   -0.261269
    14  H    0.394965
    15  H    0.215633
 Sum of Mulliken charges =  -0.00000

 Dipole moment (field-independent basis, Debye):
    X=              1.0631    Y=             -2.1946    Z=              0.6759  Tot=              2.5305

 Test job not archived.
 1\1\GINC-SE454\SP\RHF\Aug-CC-pVDZ\C5H8O2\OHZDE\09-Apr-2025\0\\#t hf au
 g-cc-pvdz iop(5/13=1,5/36=2,99/5=2) pseudo=read geom=check guess=(read
 ,tcheck) scf=(maxcycle=1)\\title\\0,1\C,0,1.67677832,-0.46307813,0.253
 53652\C,0,0.55270925,0.37315478,0.38895284\C,0,-0.1775446,1.38828135,-
 0.54528541\O,0,-0.83559293,0.83431895,-1.66752389\C,0,-1.48627302,0.80
 388826,-0.36647782\C,0,-0.82630768,-0.40611453,0.29900565\O,0,-0.90654
 035,-1.51881642,-0.457683\H,0,2.57493084,-0.29801393,0.83225147\H,0,1.
 72656922,-1.18733056,-0.55006843\H,0,0.76338503,-1.52914747,1.42772818

 Normal termination of Gaussian 16 at Wed Apr  9 16:00:08 2025.
