 Gaussian 16, Revision C.01,

 ----------------------------------------------------------------------
 #t hf aug-cc-pvdz symm=none int=(grid=ultrafine) guess=(read,tcheck) s
 table=(opt,rrhf)
 ----------------------------------------------------------------------
 -----
 title
 -----
 Symbolic Z-matrix:
 Charge =  0 Multiplicity = 1

 SCF Done:  E(RHF) =  -322.536263115     A.U. after   16 cycles
 Normal termination of Gaussian 16 at Wed Apr  9 15:47:03 2025.
 Gaussian 16:  ES64L-G16RevC.01  3-Jul-2019

 ----------------------------------------------------------------------
 #t hf aug-cc-pvdz iop(5/13=1,5/36=2,99/5=2) pseudo=read geom=check gue
 ss=(read,tcheck) scf=(maxcycle=1)
 ----------------------------------------------------------------------
 -----
 title
 -----
 Structure from the checkpoint file:  "Grambow2020_wb97xd3_007387_reverse_mol1.chk"
 Charge =  0 Multiplicity = 1

                         Standard orientation:
 ---------------------------------------------------------------------
 Center     Atomic      Atomic             Coordinates (Angstroms)
 Number     Number       Type             X           Y           Z
 ---------------------------------------------------------------------
      1          6           0       -1.056374   -0.758091    0.943177
      2          6           0       -1.274843   -0.214929   -0.505351
      3          6           0       -0.614979    1.305790   -0.518357
      4          8           0        0.167927    1.530374    0.503057
      5          6           0        1.972579    0.031575    0.120965
      6          7           0        1.645980   -0.954496   -0.375932
      7          6           0       -0.517773   -1.340310   -0.215971
      8          1           0       -0.481248    0.112196    1.361536
      9          1           0       -1.702613   -1.324212    1.604031
     10          1           0       -2.119089   -0.303673   -1.180239
     11          1           0       -1.517972    1.937984   -0.566388
     12          1           0       -0.122193    1.299260   -1.512154
     13          1           0        2.399150    0.900898    0.568635
     14          1           0       -0.372974   -2.328176   -0.615126
 ---------------------------------------------------------------------

 SCF Done:  E(RHF) =  -322.635754116     A.U. after    2 cycles

 The electronic state is 1-A.
 Alpha  occ. eigenvalues --  -20.46363 -15.65087 -11.35268 -11.31827 -11.27798
 Alpha  occ. eigenvalues --  -11.27430 -11.27008  -1.24784  -1.21006  -1.19017
 Alpha  occ. eigenvalues --   -0.89983  -0.84574  -0.80398  -0.77406  -0.71215
 Alpha  occ. eigenvalues --   -0.66352  -0.61484  -0.57455  -0.55758  -0.52493
 Alpha  occ. eigenvalues --   -0.49897  -0.49464  -0.48387  -0.44610  -0.36682
 Alpha  occ. eigenvalues --   -0.35858
 Alpha virt. eigenvalues --    0.02588   0.03535   0.04141   0.04717   0.05527
 Alpha virt. eigenvalues --    0.06666   0.06985   0.08406   0.09857   0.10225
 Alpha virt. eigenvalues --    0.11611   0.12696   0.12972   0.13215   0.14314

 Mulliken charges:
               1
     1  C    0.492548
     2  C    0.102883
     3  C    0.666824
     4  O   -0.851793
     5  C    0.313123
     6  N   -0.316791
     7  C    0.723371
     8  H    0.105573
     9  H   -0.308645
    10  H   -0.342599
    11  H   -0.157710
    12  H   -0.053586
    13  H   -0.011427
    14  H   -0.361772
 Sum of Mulliken charges =  -0.00000

 Dipole moment (field-independent basis, Debye):
    X=             -1.3000    Y=             -3.5193    Z=             -0.6711  Tot=              3.8113

 Test job not archived.
 1\1\GINC-SE163\SP\RHF\Aug-CC-pVDZ\C5H7N1O1\OHZDE\09-Apr-2025\0\\#t hf
 aug-cc-pvdz iop(5/13=1,5/36=2,99/5=2) pseudo=read geom=check guess=(re
 ad,tcheck) scf=(maxcycle=1)\\title\\0,1\C,0,-1.33558335,-0.44382068,0.
 41004834\C,0,-0.76200166,0.52024283,-0.67741341\C,0,0.44422561,1.37519
 088,0.07242361\O,0,0.82216246,0.83922189,1.20227604\C,0,1.80743554,-1.
 20931495,0.50808754\N,0,1.29065574,-1.67299334,-0.41052586\C,0,-0.7242
 1588,-0.86205412,-0.78326802\H,0,-0.63475465,-0.1829545,1.24908423\H,0
 ,-2.35190045,-0.7352017,0.64888616\H,0,-1.25666316,1.09737698,-1.45092

 Normal termination of Gaussian 16 at Wed Apr  9 15:47:08 2025.
