 Gaussian 16, Revision C.01,

 ----------------------------------------------------------------------
 #t hf aug-cc-pvdz symm=none int=(grid=ultrafine) guess=(read,tcheck) s
 table=(opt,rrhf)
 ----------------------------------------------------------------------
 -----
 title
 -----
 Symbolic Z-matrix:
 Charge =  0 Multiplicity = 1

 SCF Done:  E(RHF) =  -374.585528157     A.U. after   16 cycles
 Normal termination of Gaussian 16 at Wed Apr  9 15:45:42 2025.
 Gaussian 16:  ES64L-G16RevC.01  3-Jul-2019

 ----------------------------------------------------------------------
 #t hf aug-cc-pvdz iop(5/13=1,5/36=2,99/5=2) pseudo=read geom=check gue
 ss=(read,tcheck) scf=(maxcycle=1)
 ----------------------------------------------------------------------
 -----
 title
 -----
 Structure from the checkpoint file:  "Grambow2020_wb97xd3_007333_reverse_mol2.chk"
 Charge =  0 Multiplicity = 1

                         Standard orientation:
 ---------------------------------------------------------------------
 Center     Atomic      Atomic             Coordinates (Angstroms)
 Number     Number       Type             X           Y           Z
 ---------------------------------------------------------------------
      1          7           0       -2.032947   -0.949105   -0.071057
      2          6           0       -0.818992   -0.346434    0.019972
      3          6           0       -0.870108    1.164888   -0.140333
      4          8           0        0.037637    1.871160    0.174844
      5          6           0        1.515064   -0.434868    0.357782
      6          8           0        2.271253   -0.338785   -0.568216
      7          7           0        0.241895   -0.983651    0.269670
      8          1           0       -2.068586   -1.952875   -0.073818
      9          1           0       -2.822837   -0.450697   -0.435203
     10          1           0       -1.813343    1.576181   -0.553671
     11          1           0        1.815225   -0.203833    1.394852
 ---------------------------------------------------------------------

 SCF Done:  E(RHF) =  -374.701932249     A.U. after    2 cycles

 The electronic state is 1-A.
 Alpha  occ. eigenvalues --  -20.62409 -20.55196 -15.68054 -15.63755 -11.38879
 Alpha  occ. eigenvalues --  -11.37952 -11.36482  -1.41741  -1.35844  -1.27839
 Alpha  occ. eigenvalues --   -1.17225  -0.96184  -0.89179  -0.78765  -0.75973
 Alpha  occ. eigenvalues --   -0.73853  -0.69900  -0.68136  -0.66054  -0.61073
 Alpha  occ. eigenvalues --   -0.56237  -0.54633  -0.51474  -0.46231  -0.41594
 Alpha  occ. eigenvalues --   -0.39727
 Alpha virt. eigenvalues --    0.01638   0.03555   0.04393   0.04781   0.06347
 Alpha virt. eigenvalues --    0.08720   0.09735   0.10640   0.11804   0.12559
 Alpha virt. eigenvalues --    0.13143   0.13332   0.14633   0.15557   0.16456

 Mulliken charges:
               1
     1  N   -0.171120
     2  C    0.537303
     3  C    0.544799
     4  O   -0.368686
     5  C    0.841862
     6  O   -0.476587
     7  N   -0.547522
     8  H   -0.026449
     9  H   -0.019110
    10  H   -0.164078
    11  H   -0.150412
 Sum of Mulliken charges =  -0.00000

 Dipole moment (field-independent basis, Debye):
    X=             -6.8782    Y=             -0.7026    Z=              0.7020  Tot=              6.9496

 Test job not archived.
 1\1\GINC-SE087\SP\RHF\Aug-CC-pVDZ\C3H4N2O2\OHZDE\09-Apr-2025\0\\#t hf
 aug-cc-pvdz iop(5/13=1,5/36=2,99/5=2) pseudo=read geom=check guess=(re
 ad,tcheck) scf=(maxcycle=1)\\title\\0,1\N,0,-1.79266546,-0.23255135,-0
 .29984133\C,0,-0.46066998,-0.09371625,-0.07246872\C,0,-0.0449979,1.321
 58464,0.29704839\O,0,1.01414164,1.56846765,0.78636538\C,0,1.71545152,-
 0.99241381,0.09061101\O,0,2.51622597,-0.81874974,-0.78524709\N,0,0.343
 16238,-1.06640915,-0.11244897\H,0,-2.12884412,-1.11421789,-0.64404979\
 H,0,-2.37393035,0.57390221,-0.42907656\H,0,-0.79571026,2.11360343,0.09

 Normal termination of Gaussian 16 at Wed Apr  9 15:45:46 2025.
