 Gaussian 16, Revision C.01,

 ----------------------------------------------------------------------
 #t hf aug-cc-pvdz symm=none int=(grid=ultrafine) guess=(read,tcheck) s
 table=(opt,rrhf)
 ----------------------------------------------------------------------
 -----
 title
 -----
 Symbolic Z-matrix:
 Charge =  0 Multiplicity = 1

 SCF Done:  E(RHF) =  -344.765764415     A.U. after   14 cycles

 1\1\GINC-SE113\Stability\RHF\Aug-CC-pVDZ\C5H10O2\OHZDE\09-Apr-2025\0\\
 #t hf aug-cc-pvdz symm=none int=(grid=ultrafine) guess=(read,tcheck) s
 table=(opt,rrhf)\\title\\0,1\C,0,2.02023898,1.2966944,-0.33667881\O,0,
 0.67158317,0.96880072,-0.13425157\C,0,0.38763062,-0.38070397,-0.475810
 94\C,0,0.84701606,-1.49214807,0.44603119\O,0,-0.80828288,-1.31624841,1
 .13034738\C,0,-1.07197693,-0.67784011,-0.17925979\C,0,-2.03994755,0.46
 072589,-0.03115243\H,0,2.68632602,0.69478058,0.29394067\H,0,2.31180327
 ,1.15174823,-1.38594659\H,0,2.14705635,2.34676711,-0.0763452\H,0,0.673

 Normal termination of Gaussian 16 at Wed Apr  9 14:58:04 2025.
 Gaussian 16:  ES64L-G16RevC.01  3-Jul-2019

 ----------------------------------------------------------------------
 #t hf aug-cc-pvdz iop(5/13=1,5/36=2,99/5=2) pseudo=read geom=check gue
 ss=(read,tcheck) scf=(maxcycle=1)
 ----------------------------------------------------------------------
 -----
 title
 -----
 Structure from the checkpoint file:  "Grambow2020_wb97xd3_006656_reverse_mol2.chk"
 Charge =  0 Multiplicity = 1

                         Standard orientation:
 ---------------------------------------------------------------------
 Center     Atomic      Atomic             Coordinates (Angstroms)
 Number     Number       Type             X           Y           Z
 ---------------------------------------------------------------------
      1          6           0       -2.484836    0.248061   -0.156859
      2          8           0       -1.126973    0.593499   -0.222009
      3          6           0       -0.318636   -0.240143    0.596579
      4          6           0       -0.029179   -1.659911    0.153174
      5          8           0        1.450318   -0.910854   -0.546288
      6          6           0        1.138585    0.155251    0.432698
      7          6           0        1.476332    1.507252   -0.126996
      8          1           0       -2.665020   -0.771661   -0.519287
      9          1           0       -2.865572    0.322911    0.870964
     10          1           0       -3.033305    0.945537   -0.788696
     11          1           0       -0.686053   -0.177022    1.629084
     12          1           0       -0.549604   -1.861494   -0.793266
     13          1           0        2.157548   -1.470275   -0.215803
     14          1           0        1.690645   -0.059123    1.347761
     15          1           0        1.177458    2.279121    0.583929
     16          1           0        2.550751    1.589606   -0.300245
     17          1           0        0.942793    1.678181   -1.059645
 ---------------------------------------------------------------------

 SCF Done:  E(RHF) =  -344.873618577     A.U. after    2 cycles

 The electronic state is 1-A.
 Alpha  occ. eigenvalues --  -20.62524 -20.56726 -11.31700 -11.28651 -11.27977
 Alpha  occ. eigenvalues --  -11.24235 -11.23475  -1.37853  -1.33356  -1.06502
 Alpha  occ. eigenvalues --   -0.98866  -0.91698  -0.84556  -0.79025  -0.74053
 Alpha  occ. eigenvalues --   -0.67372  -0.66545  -0.63689  -0.61689  -0.60152
 Alpha  occ. eigenvalues --   -0.57258  -0.54145  -0.53328  -0.51699  -0.49716
 Alpha  occ. eigenvalues --   -0.47006  -0.43130  -0.32817
 Alpha virt. eigenvalues --    0.03120   0.04089   0.04712   0.04931   0.06239
 Alpha virt. eigenvalues --    0.06392   0.06597   0.07390   0.09076   0.09390
 Alpha virt. eigenvalues --    0.10099   0.12104   0.13310   0.13838   0.14463

 Mulliken charges:
               1
     1  C    0.678819
     2  O   -0.741828
     3  C    0.810546
     4  C   -0.049259
     5  O   -0.644362
     6  C   -0.013292
     7  C    0.530663
     8  H   -0.078331
     9  H   -0.065619
    10  H   -0.274558
    11  H   -0.129311
    12  H   -0.089581
    13  H    0.232390
    14  H   -0.233285
    15  H    0.047061
    16  H   -0.033939
    17  H    0.053884
 Sum of Mulliken charges =  -0.00000

 Dipole moment (field-independent basis, Debye):
    X=              1.0457    Y=              1.4856    Z=              0.8787  Tot=              2.0181

 Test job not archived.
 1\1\GINC-SE113\SP\RHF\Aug-CC-pVDZ\C5H10O2\OHZDE\09-Apr-2025\0\\#t hf a
 ug-cc-pvdz iop(5/13=1,5/36=2,99/5=2) pseudo=read geom=check guess=(rea
 d,tcheck) scf=(maxcycle=1)\\title\\0,1\C,0,2.02023898,1.2966944,-0.336
 67881\O,0,0.67158317,0.96880072,-0.13425157\C,0,0.38763062,-0.38070397
 ,-0.47581094\C,0,0.84701606,-1.49214807,0.44603119\O,0,-0.80828288,-1.
 31624841,1.13034738\C,0,-1.07197693,-0.67784011,-0.17925979\C,0,-2.039
 94755,0.46072589,-0.03115243\H,0,2.68632602,0.69478058,0.29394067\H,0,
 2.31180327,1.15174823,-1.38594659\H,0,2.14705635,2.34676711,-0.0763452

 Normal termination of Gaussian 16 at Wed Apr  9 14:58:10 2025.
