 Gaussian 16, Revision C.01,

 ----------------------------------------------------------------------
 #t hf aug-cc-pvdz symm=none int=(grid=ultrafine) guess=(read,tcheck) s
 table=(opt,rrhf)
 ----------------------------------------------------------------------
 -----
 title
 -----
 Symbolic Z-matrix:
 Charge =  0 Multiplicity = 1

 SCF Done:  E(RHF) =  -269.914870449     A.U. after   14 cycles

 1\1\GINC-SE041\Stability\RHF\Aug-CC-pVDZ\C5H10O1\OHZDE\09-Apr-2025\0\\
 #t hf aug-cc-pvdz symm=none int=(grid=ultrafine) guess=(read,tcheck) s
 table=(opt,rrhf)\\title\\0,1\O,0,2.92715535,0.77389812,0.46560652\C,0,
 2.96726419,0.36122351,1.69657143\C,0,0.07977125,-0.62461973,-0.5366458
 8\C,0,-1.38397306,-1.06242082,-0.32361171\C,0,-1.79375338,0.42406196,-
 0.36661137\C,0,-0.32727808,0.79622588,-0.0655368\H,0,2.10444402,0.5623
 673,-0.01081172\H,0,0.84319948,-1.16766505,0.026941\H,0,1.99392492,-0.
 16242123,1.898152\H,0,0.35064018,-0.63518125,-1.59409128\H,0,-1.528046

 Normal termination of Gaussian 16 at Wed Apr  9 03:21:42 2025.
 Gaussian 16:  ES64L-G16RevC.01  3-Jul-2019

 ----------------------------------------------------------------------
 #t hf aug-cc-pvdz iop(5/13=1,5/36=2,99/5=2) pseudo=read geom=check gue
 ss=(read,tcheck) scf=(maxcycle=1)
 ----------------------------------------------------------------------
 -----
 title
 -----
 Structure from the checkpoint file:  "Grambow2020_wb97xd3_006161_reverse_mol2.chk"
 Charge =  0 Multiplicity = 1

                         Standard orientation:
 ---------------------------------------------------------------------
 Center     Atomic      Atomic             Coordinates (Angstroms)
 Number     Number       Type             X           Y           Z
 ---------------------------------------------------------------------
      1          8           0       -2.613028   -0.193452   -0.480577
      2          6           0       -2.960024    0.208765    0.704749
      3          6           0        0.600186    0.668645   -0.482761
      4          6           0        1.978798    0.829064    0.190512
      5          6           0        2.120444   -0.706891    0.177129
      6          6           0        0.591720   -0.806798   -0.003773
      7          1           0       -1.659930   -0.132007   -0.671370
      8          1           0       -0.194945    1.337360   -0.142263
      9          1           0       -2.021919    0.543492    1.224505
     10          1           0        0.675261    0.737922   -1.569608
     11          1           0        1.879561    1.212575    1.206989
     12          1           0        2.731347    1.417365   -0.333406
     13          1           0        2.649678   -1.052572   -0.712004
     14          1           0        2.557179   -1.185907    1.052665
     15          1           0        0.087281   -0.916036    0.958972
     16          1           0        0.213974   -1.571287   -0.684999
 ---------------------------------------------------------------------

 SCF Done:  E(RHF) =  -270.000691923     A.U. after    2 cycles

 The electronic state is 1-A.
 Alpha  occ. eigenvalues --  -20.64804 -11.31498 -11.24966 -11.24829 -11.24287
 Alpha  occ. eigenvalues --  -11.24219  -1.41284  -1.13741  -0.91516  -0.91262
 Alpha  occ. eigenvalues --   -0.89423  -0.77105  -0.75700  -0.67329  -0.66567
 Alpha  occ. eigenvalues --   -0.60645  -0.59891  -0.56002  -0.55874  -0.51282
 Alpha  occ. eigenvalues --   -0.47393  -0.46066  -0.46029  -0.36679
 Alpha virt. eigenvalues --    0.03084   0.03956   0.04177   0.04746   0.06260
 Alpha virt. eigenvalues --    0.06505   0.06750   0.06997   0.07994   0.09241
 Alpha virt. eigenvalues --    0.09969   0.12781   0.12867   0.13080   0.14067

 Mulliken charges:
               1
     1  O   -0.259408
     2  C    0.192628
     3  C    0.432520
     4  C    0.377991
     5  C    0.445318
     6  C    0.464297
     7  H    0.288195
     8  H   -0.308425
     9  H   -0.111982
    10  H   -0.238410
    11  H   -0.214448
    12  H   -0.159353
    13  H   -0.191558
    14  H   -0.165522
    15  H   -0.262053
    16  H   -0.289791
 Sum of Mulliken charges =   0.00000

 Dipole moment (field-independent basis, Debye):
    X=              4.1058    Y=              0.2378    Z=             -0.5152  Tot=              4.1448

 Test job not archived.
 1\1\GINC-SE041\SP\RHF\Aug-CC-pVDZ\C5H10O1\OHZDE\09-Apr-2025\0\\#t hf a
 ug-cc-pvdz iop(5/13=1,5/36=2,99/5=2) pseudo=read geom=check guess=(rea
 d,tcheck) scf=(maxcycle=1)\\title\\0,1\O,0,2.92715535,0.77389812,0.465
 60652\C,0,2.96726419,0.36122351,1.69657143\C,0,0.07977125,-0.62461973,
 -0.53664588\C,0,-1.38397306,-1.06242082,-0.32361171\C,0,-1.79375338,0.
 42406196,-0.36661137\C,0,-0.32727808,0.79622588,-0.0655368\H,0,2.10444
 402,0.5623673,-0.01081172\H,0,0.84319948,-1.16766505,0.026941\H,0,1.99
 392492,-0.16242123,1.898152\H,0,0.35064018,-0.63518125,-1.59409128\H,0

 Normal termination of Gaussian 16 at Wed Apr  9 03:21:48 2025.
