 Gaussian 16, Revision C.01,

 ----------------------------------------------------------------------
 #t hf aug-cc-pvdz symm=none int=(grid=ultrafine) guess=(read,tcheck) s
 table=(opt,rrhf)
 ----------------------------------------------------------------------
 -----
 title
 -----
 Symbolic Z-matrix:
 Charge =  0 Multiplicity = 1

 SCF Done:  E(RHF) =  -339.803423838     A.U. after   16 cycles
 Normal termination of Gaussian 16 at Wed Apr  9 14:27:39 2025.
 Gaussian 16:  ES64L-G16RevC.01  3-Jul-2019

 ----------------------------------------------------------------------
 #t hf aug-cc-pvdz iop(5/13=1,5/36=2,99/5=2) pseudo=read geom=check gue
 ss=(read,tcheck) scf=(maxcycle=1)
 ----------------------------------------------------------------------
 -----
 title
 -----
 Structure from the checkpoint file:  "Grambow2020_wb97xd3_006549_reverse_mol2.chk"
 Charge =  0 Multiplicity = 1

                         Standard orientation:
 ---------------------------------------------------------------------
 Center     Atomic      Atomic             Coordinates (Angstroms)
 Number     Number       Type             X           Y           Z
 ---------------------------------------------------------------------
      1          6           0        1.163169    1.878310   -0.229614
      2          7           0        0.114821    1.104795   -0.283030
      3          6           0       -0.024050   -0.236260   -0.181411
      4          6           0       -1.401149   -0.793484   -0.384054
      5          8           0       -2.382380   -0.008520    0.281944
      6          6           0        1.128911   -1.016258   -0.038551
      7          7           0        2.101249   -1.629673    0.086612
      8          1           0        2.142324    1.435150   -0.129801
      9          1           0        1.015362    2.943556   -0.286904
     10          1           0        0.719626    1.112319    2.659839
     11          1           0       -0.788121    1.567347   -0.352782
     12          1           0        0.612243    0.392042    2.492311
     13          1           0       -1.413892   -1.836376   -0.055468
     14          1           0       -1.709212   -0.778409   -1.434196
     15          1           0       -2.233068   -0.087168    1.228154
 ---------------------------------------------------------------------

 SCF Done:  E(RHF) =  -339.911160332     A.U. after    2 cycles

 The electronic state is 1-A.
 Alpha  occ. eigenvalues --  -20.59596 -15.77037 -15.61784 -11.31488 -11.31439
 Alpha  occ. eigenvalues --  -11.27578 -11.27398  -1.35189  -1.30847  -1.17466
 Alpha  occ. eigenvalues --   -1.05368  -0.93592  -0.90640  -0.77179  -0.74814
 Alpha  occ. eigenvalues --   -0.71698  -0.65132  -0.64114  -0.61101  -0.60429
 Alpha  occ. eigenvalues --   -0.57550  -0.54737  -0.52666  -0.49933  -0.47652
 Alpha  occ. eigenvalues --   -0.45036  -0.27583
 Alpha virt. eigenvalues --    0.02317   0.03624   0.04483   0.05064   0.05828
 Alpha virt. eigenvalues --    0.06359   0.07490   0.07917   0.08577   0.10061
 Alpha virt. eigenvalues --    0.11115   0.12258   0.13141   0.13693   0.14682

 Mulliken charges:
               1
     1  C    0.634773
     2  N   -0.168716
     3  C    0.833935
     4  C    0.763956
     5  O   -0.565112
     6  C   -0.704463
     7  N   -0.251767
     8  H   -0.302200
     9  H   -0.333220
    10  H    0.073508
    11  H    0.060948
    12  H   -0.014880
    13  H   -0.081799
    14  H   -0.108172
    15  H    0.163208
 Sum of Mulliken charges =  -0.00000

 Dipole moment (field-independent basis, Debye):
    X=             -2.4436    Y=              4.1535    Z=             -0.0666  Tot=              4.8195

 Test job not archived.
 1\1\GINC-SE173\SP\RHF\Aug-CC-pVDZ\C4H8N2O1\OHZDE\09-Apr-2025\0\\#t hf
 aug-cc-pvdz iop(5/13=1,5/36=2,99/5=2) pseudo=read geom=check guess=(re
 ad,tcheck) scf=(maxcycle=1)\\title\\0,1\C,0,-1.79154127,-0.05554618,1.
 0976388\N,0,-0.50185833,-0.08206733,0.90731085\C,0,0.25133105,-0.55917
 52,-0.10911246\C,0,1.7396487,-0.49404383,0.06010407\O,0,2.14580362,0.7
 5262525,0.6109127\C,0,-0.39397796,-1.20182333,-1.17151703\N,0,-0.95998
 865,-1.71979876,-2.03680233\H,0,-2.44241526,-0.51933837,0.37213263\H,0
 ,-2.16758026,0.43335596,1.98050242\H,0,-1.34949552,2.11778581,-0.95507

 Normal termination of Gaussian 16 at Wed Apr  9 14:27:44 2025.
