 Gaussian 16, Revision C.01,

 ----------------------------------------------------------------------
 #t hf aug-cc-pvdz symm=none int=(grid=ultrafine) guess=(read,tcheck) s
 table=(opt,rrhf)
 ----------------------------------------------------------------------
 -----
 title
 -----
 Symbolic Z-matrix:
 Charge =  0 Multiplicity = 1

 SCF Done:  E(RHF) =  -317.577414143     A.U. after   17 cycles
 Normal termination of Gaussian 16 at Wed Apr  9 03:46:49 2025.
 Gaussian 16:  ES64L-G16RevC.01  3-Jul-2019

 ----------------------------------------------------------------------
 #t hf aug-cc-pvdz iop(5/13=1,5/36=2,99/5=2) pseudo=read geom=check gue
 ss=(read,tcheck) scf=(maxcycle=1)
 ----------------------------------------------------------------------
 -----
 title
 -----
 Structure from the checkpoint file:  "Grambow2020_wb97xd3_007979_reverse_mol1.chk"
 Charge =  0 Multiplicity = 1

                         Standard orientation:
 ---------------------------------------------------------------------
 Center     Atomic      Atomic             Coordinates (Angstroms)
 Number     Number       Type             X           Y           Z
 ---------------------------------------------------------------------
      1          7           0       -2.207672   -0.012877    0.047180
      2          6           0       -0.855225   -0.011986   -0.016066
      3          7           0       -0.247404    1.189144   -0.024085
      4          6           0        1.068871    1.206097    0.008322
      5          6           0        1.965178    0.083497    0.003476
      6          6           0        1.224639   -1.090849   -0.063948
      7          7           0       -0.231756   -1.188976   -0.047291
      8          1           0       -2.696673   -0.868495   -0.138815
      9          1           0       -2.676892    0.863210   -0.090846
     10          1           0        1.489502    2.210479    0.013047
     11          1           0        0.605182   -1.163628    0.997472
     12          1           0        1.665925   -2.073159   -0.202194
 ---------------------------------------------------------------------

 SCF Done:  E(RHF) =  -317.666921007     A.U. after    2 cycles

 The electronic state is 1-A.
 Alpha  occ. eigenvalues --  -15.68192 -15.66066 -15.65985 -11.38694 -11.31464
 Alpha  occ. eigenvalues --  -11.30581 -11.21993  -1.32942  -1.20195  -1.19148
 Alpha  occ. eigenvalues --   -1.03509  -0.91045  -0.87456  -0.75494  -0.74064
 Alpha  occ. eigenvalues --   -0.67771  -0.65978  -0.61641  -0.57837  -0.55312
 Alpha  occ. eigenvalues --   -0.52066  -0.45776  -0.42924  -0.33827  -0.33103
 Alpha virt. eigenvalues --    0.02579   0.03562   0.04114   0.04593   0.05348
 Alpha virt. eigenvalues --    0.06251   0.09199   0.09996   0.10186   0.12020
 Alpha virt. eigenvalues --    0.12772   0.13247   0.14561   0.14962   0.15385

 Mulliken charges:
               1
     1  N   -0.238060
     2  C    0.708919
     3  N   -0.449734
     4  C    0.675197
     5  C   -0.382181
     6  C    0.620550
     7  N   -0.772626
     8  H   -0.032091
     9  H   -0.021342
    10  H   -0.278867
    11  H    0.398179
    12  H   -0.227945
 Sum of Mulliken charges =  -0.00000

 Dipole moment (field-independent basis, Debye):
    X=             -4.1361    Y=             -0.7297    Z=              0.1749  Tot=              4.2036

 Test job not archived.
 1\1\GINC-SE015\SP\RHF\Aug-CC-pVDZ\C4H5N3\OHZDE\09-Apr-2025\0\\#t hf au
 g-cc-pvdz iop(5/13=1,5/36=2,99/5=2) pseudo=read geom=check guess=(read
 ,tcheck) scf=(maxcycle=1)\\title\\0,1\N,0,2.14070368,-0.11529173,-0.01
 115783\C,0,0.78771868,-0.08626966,-0.05242622\N,0,0.14674204,-1.245128
 61,0.18927553\C,0,-1.16851609,-1.21388526,0.24438001\C,0,-2.03320387,-
 0.08722077,0.02860018\C,0,-1.26192959,1.02617946,-0.28366448\N,0,0.196
 65446,1.07982286,-0.3090692\H,0,2.64923487,0.67019784,-0.3719912\H,0,2
 .5823902,-1.01561063,0.02180704\H,0,-1.61668283,-2.18339426,0.45635996

 Normal termination of Gaussian 16 at Wed Apr  9 03:46:53 2025.
