 Gaussian 16, Revision C.01,

 ----------------------------------------------------------------------
 #t hf aug-cc-pvdz symm=none int=(grid=ultrafine) guess=(read,tcheck) s
 table=(opt,rrhf)
 ----------------------------------------------------------------------
 -----
 title
 -----
 Symbolic Z-matrix:
 Charge =  0 Multiplicity = 1

 SCF Done:  E(RHF) =  -322.562174999     A.U. after   16 cycles
 Normal termination of Gaussian 16 at Wed Apr  9 14:53:13 2025.
 Gaussian 16:  ES64L-G16RevC.01  3-Jul-2019

 ----------------------------------------------------------------------
 #t hf aug-cc-pvdz iop(5/13=1,5/36=2,99/5=2) pseudo=read geom=check gue
 ss=(read,tcheck) scf=(maxcycle=1)
 ----------------------------------------------------------------------
 -----
 title
 -----
 Structure from the checkpoint file:  "Grambow2020_wb97xd3_006638_reverse_mol1.chk"
 Charge =  0 Multiplicity = 1

                         Standard orientation:
 ---------------------------------------------------------------------
 Center     Atomic      Atomic             Coordinates (Angstroms)
 Number     Number       Type             X           Y           Z
 ---------------------------------------------------------------------
      1          8           0        1.711125   -1.019963    0.436640
      2          6           0        1.731922   -0.011851   -0.215976
      3          6           0        0.580587    0.961407   -0.310764
      4          6           0       -0.826195    0.468225   -0.561368
      5          6           0       -1.177966   -1.022818   -0.589549
      6          6           0       -1.620125   -0.388944    0.637087
      7          7           0       -0.249212    1.223988    0.763003
      8          1           0        2.634221    0.264420   -0.802591
      9          1           0        0.786151    1.778555   -1.018878
     10          1           0       -1.455361    1.103575   -1.170482
     11          1           0       -0.358612   -1.724479   -0.514447
     12          1           0       -1.912285   -1.233382   -1.356321
     13          1           0       -1.142934   -0.637342    1.566527
     14          1           0       -2.625033    0.004327    0.705472
 ---------------------------------------------------------------------

 SCF Done:  E(RHF) =  -322.657474823     A.U. after    2 cycles

 The electronic state is 1-A.
 Alpha  occ. eigenvalues --  -20.57804 -15.60986 -11.34421 -11.30816 -11.30703
 Alpha  occ. eigenvalues --  -11.28466 -11.26800  -1.36883  -1.23797  -1.10352
 Alpha  occ. eigenvalues --   -0.92172  -0.86849  -0.81386  -0.75165  -0.72007
 Alpha  occ. eigenvalues --   -0.68308  -0.66110  -0.62542  -0.59220  -0.56102
 Alpha  occ. eigenvalues --   -0.54196  -0.51452  -0.48324  -0.43696  -0.39864
 Alpha  occ. eigenvalues --   -0.33090
 Alpha virt. eigenvalues --    0.02779   0.03714   0.04545   0.04943   0.06442
 Alpha virt. eigenvalues --    0.06969   0.07645   0.08112   0.09913   0.11307
 Alpha virt. eigenvalues --    0.12109   0.13066   0.13303   0.13910   0.14231

 Mulliken charges:
               1
     1  O   -0.464906
     2  C    0.518538
     3  C    0.857399
     4  C   -0.051456
     5  C    1.055125
     6  C    0.609140
     7  N   -0.955067
     8  H   -0.138840
     9  H   -0.139484
    10  H   -0.450999
    11  H   -0.188016
    12  H   -0.204512
    13  H   -0.225008
    14  H   -0.221913
 Sum of Mulliken charges =  -0.00000

 Dipole moment (field-independent basis, Debye):
    X=             -1.9503    Y=             -0.1257    Z=             -3.1679  Tot=              3.7223

 Test job not archived.
 1\1\GINC-SE226\SP\RHF\Aug-CC-pVDZ\C5H7N1O1\OHZDE\09-Apr-2025\0\\#t hf
 aug-cc-pvdz iop(5/13=1,5/36=2,99/5=2) pseudo=read geom=check guess=(re
 ad,tcheck) scf=(maxcycle=1)\\title\\0,1\O,0,1.30894822,1.00830689,1.61
 245096\C,0,1.4933107,1.26596838,0.45389595\C,0,0.47607425,1.03567617,-
 0.63879867\C,0,-0.26618005,-0.27761137,-0.73576107\C,0,-0.13692034,-1.
 37143706,0.32940696\C,0,-1.3997848,-0.66682016,0.43249116\N,0,-0.87970
 367,1.20090571,-0.4265329\H,0,2.45743044,1.70422279,0.11775151\H,0,0.8
 7749213,1.2743254,-1.63545457\H,0,-0.49097431,-0.6284366,-1.73422443\H

 Normal termination of Gaussian 16 at Wed Apr  9 14:53:17 2025.
