 Gaussian 16, Revision C.01,

 ----------------------------------------------------------------------
 #t hf aug-cc-pvdz symm=none int=(grid=ultrafine) guess=(read,tcheck) s
 table=(opt,rrhf)
 ----------------------------------------------------------------------
 -----
 title
 -----
 Symbolic Z-matrix:
 Charge =  0 Multiplicity = 1

 SCF Done:  E(RHF) =  -281.269937601     A.U. after   16 cycles
 Normal termination of Gaussian 16 at Wed Apr  9 03:03:33 2025.
 Gaussian 16:  ES64L-G16RevC.01  3-Jul-2019

 ----------------------------------------------------------------------
 #t hf aug-cc-pvdz iop(5/13=1,5/36=2,99/5=2) pseudo=read geom=check gue
 ss=(read,tcheck) scf=(maxcycle=1)
 ----------------------------------------------------------------------
 -----
 title
 -----
 Structure from the checkpoint file:  "Grambow2020_b97d3_006503_reverse_mol2.chk"
 Charge =  0 Multiplicity = 1

                         Standard orientation:
 ---------------------------------------------------------------------
 Center     Atomic      Atomic             Coordinates (Angstroms)
 Number     Number       Type             X           Y           Z
 ---------------------------------------------------------------------
      1          8           0       -2.502490   -0.639885    0.000329
      2          6           0       -1.498612   -0.020496   -0.000320
      3          6           0       -0.534465    0.871022   -0.000613
      4          6           0        0.807879    0.936568    0.000299
      5          6           0        2.410316   -1.074506   -0.000309
      6          7           0        1.653036   -0.149897    0.000318
      7          1           0        1.337963    1.892826    0.000798
 ---------------------------------------------------------------------

 SCF Done:  E(RHF) =  -281.355577136     A.U. after    2 cycles

 The electronic state is 1-A.
 Alpha  occ. eigenvalues --  -20.66890 -15.70513 -11.43481 -11.39466 -11.34549
 Alpha  occ. eigenvalues --  -11.27843  -1.44898  -1.27988  -1.11699  -0.99908
 Alpha  occ. eigenvalues --   -0.83691  -0.76639  -0.72471  -0.66048  -0.64995
 Alpha  occ. eigenvalues --   -0.58332  -0.52063  -0.51553  -0.41002  -0.39726
 Alpha virt. eigenvalues --   -0.00382   0.02858   0.05633   0.06769   0.07495
 Alpha virt. eigenvalues --    0.09050   0.09784   0.10808   0.11524   0.12418
 Alpha virt. eigenvalues --    0.13744   0.14102   0.14714   0.15550   0.15808

 Mulliken charges:
               1
     1  O   -0.249785
     2  C   -0.177321
     3  C    0.248592
     4  C    0.860830
     5  C   -0.159425
     6  N   -0.334261
     7  H   -0.188630
 Sum of Mulliken charges =   0.00000

 Dipole moment (field-independent basis, Debye):
    X=              1.3123    Y=              2.0389    Z=              0.0004  Tot=              2.4247

 Test job not archived.
 1\1\GINC-SE113\SP\RHF\Aug-CC-pVDZ\C4H1N1O1\OHZDE\09-Apr-2025\0\\#t hf
 aug-cc-pvdz iop(5/13=1,5/36=2,99/5=2) pseudo=read geom=check guess=(re
 ad,tcheck) scf=(maxcycle=1)\\title\\0,1\O,0,-0.70735497,-2.77518438,0.
 28148724\C,0,-0.16659985,-1.73409318,0.15849505\C,0,0.64790645,-0.7135
 4725,0.01902908\C,0,0.61196839,0.62522222,-0.09317838\C,0,-1.50979645,
 2.07783657,-0.0774491\N,0,-0.53277238,1.38953332,-0.08339402\H,0,1.523
 5338,1.2187617,-0.20352788\\Version=ES64L-G16RevC.01\State=1-A\HF=-281
 .3555771\RMSD=6.224e-03\Dipole=0.7592805,0.5691118,-0.0980157\Quadrupo

 Normal termination of Gaussian 16 at Wed Apr  9 03:03:35 2025.
