 Gaussian 16, Revision C.01,

 ----------------------------------------------------------------------
 #t hf aug-cc-pvdz symm=none int=(grid=ultrafine) guess=(read,tcheck) s
 table=(opt,rrhf)
 ----------------------------------------------------------------------
 -----
 title
 -----
 Symbolic Z-matrix:
 Charge =  0 Multiplicity = 1

 SCF Done:  E(RHF) =  -308.913161132     A.U. after   16 cycles

 1\1\GINC-SE454\Stability\RHF\Aug-CC-pVDZ\C6H12O1\OHZDE\09-Apr-2025\0\\
 #t hf aug-cc-pvdz symm=none int=(grid=ultrafine) guess=(read,tcheck) s
 table=(opt,rrhf)\\title\\0,1\C,0,2.61750836,0.13842676,0.2827825\C,0,1
 .20767685,-0.08395134,-0.22121273\O,0,0.32192866,-0.53563736,0.9835374
 1\C,0,0.53524921,1.06067724,-0.77620066\C,0,-0.93601004,0.81082918,-1.
 04642948\C,0,-1.38040923,0.27562381,0.2429164\C,0,-2.20793188,-0.95898
 583,0.36842653\H,0,3.28713707,0.33316999,-0.55532013\H,0,2.99335229,-0
 .73202859,0.82317339\H,0,2.64280737,0.99720006,0.95499398\H,0,1.156815

 Normal termination of Gaussian 16 at Wed Apr  9 15:54:54 2025.
 Gaussian 16:  ES64L-G16RevC.01  3-Jul-2019

 ----------------------------------------------------------------------
 #t hf aug-cc-pvdz iop(5/13=1,5/36=2,99/5=2) pseudo=read geom=check gue
 ss=(read,tcheck) scf=(maxcycle=1)
 ----------------------------------------------------------------------
 -----
 title
 -----
 Structure from the checkpoint file:  "Grambow2020_wb97xd3_007575_reverse_mol1.chk"
 Charge =  0 Multiplicity = 1

                         Standard orientation:
 ---------------------------------------------------------------------
 Center     Atomic      Atomic             Coordinates (Angstroms)
 Number     Number       Type             X           Y           Z
 ---------------------------------------------------------------------
      1          6           0       -2.584699   -0.333272   -0.011272
      2          6           0       -1.152772   -0.031271    0.375343
      3          8           0       -0.229213   -1.100508   -0.290815
      4          6           0       -0.626625    1.239101   -0.048531
      5          6           0        0.867277    1.367945    0.178864
      6          6           0        1.362946    0.141971   -0.451729
      7          6           0        2.340362   -0.772405    0.206590
      8          1           0       -3.264891    0.318678    0.537402
      9          1           0       -2.851669   -1.367764    0.211271
     10          1           0       -2.726815   -0.164142   -1.079541
     11          1           0       -0.981772   -0.236669    1.442821
     12          1           0       -0.178034   -1.910000    0.243664
     13          1           0       -0.994741    1.613223   -1.001245
     14          1           0        1.162134    1.441244    1.231112
     15          1           0        1.241510    2.245097   -0.353969
     16          1           0        1.327790    0.123760   -1.533346
     17          1           0        2.118198   -0.908448    1.264944
     18          1           0        3.319285   -0.279724    0.146133
     19          1           0        2.423778   -1.743604   -0.278312
 ---------------------------------------------------------------------

 SCF Done:  E(RHF) =  -309.007871773     A.U. after    2 cycles

 The electronic state is 1-A.
 Alpha  occ. eigenvalues --  -20.58004 -11.35053 -11.27068 -11.26553 -11.23374
 Alpha  occ. eigenvalues --  -11.20852 -11.14140  -1.30525  -1.09918  -1.02758
 Alpha  occ. eigenvalues --   -0.97412  -0.86611  -0.81251  -0.74532  -0.68558
 Alpha  occ. eigenvalues --   -0.66495  -0.62800  -0.60945  -0.58318  -0.57024
 Alpha  occ. eigenvalues --   -0.55953  -0.54231  -0.53488  -0.49409  -0.47674
 Alpha  occ. eigenvalues --   -0.46253  -0.44762  -0.22523
 Alpha virt. eigenvalues --    0.02644   0.03753   0.04355   0.04876   0.05817
 Alpha virt. eigenvalues --    0.06480   0.06528   0.06839   0.07223   0.08543
 Alpha virt. eigenvalues --    0.09042   0.09524   0.10019   0.12695   0.13295

 Mulliken charges:
               1
     1  C    0.556711
     2  C   -0.001214
     3  O   -0.643484
     4  C    0.162379
     5  C    0.443406
     6  C    0.265724
     7  C    0.390549
     8  H    0.034362
     9  H   -0.064867
    10  H   -0.007214
    11  H   -0.295149
    12  H    0.190171
    13  H   -0.431762
    14  H   -0.202401
    15  H    0.019400
    16  H   -0.375330
    17  H   -0.025898
    18  H    0.049975
    19  H   -0.065359
 Sum of Mulliken charges =   0.00000

 Dipole moment (field-independent basis, Debye):
    X=              4.0067    Y=             -2.9845    Z=              0.1576  Tot=              4.9986

 Test job not archived.
 1\1\GINC-SE454\SP\RHF\Aug-CC-pVDZ\C6H12O1\OHZDE\09-Apr-2025\0\\#t hf a
 ug-cc-pvdz iop(5/13=1,5/36=2,99/5=2) pseudo=read geom=check guess=(rea
 d,tcheck) scf=(maxcycle=1)\\title\\0,1\C,0,2.61750836,0.13842676,0.282
 7825\C,0,1.20767685,-0.08395134,-0.22121273\O,0,0.32192866,-0.53563736
 ,0.98353741\C,0,0.53524921,1.06067724,-0.77620066\C,0,-0.93601004,0.81
 082918,-1.04642948\C,0,-1.38040923,0.27562381,0.2429164\C,0,-2.2079318
 8,-0.95898583,0.36842653\H,0,3.28713707,0.33316999,-0.55532013\H,0,2.9
 9335229,-0.73202859,0.82317339\H,0,2.64280737,0.99720006,0.95499398\H,

 Normal termination of Gaussian 16 at Wed Apr  9 15:55:02 2025.
