 Gaussian 16, Revision C.01,

 ----------------------------------------------------------------------
 #t hf aug-cc-pvdz symm=none int=(grid=ultrafine) guess=(read,tcheck) s
 table=(opt,rrhf)
 ----------------------------------------------------------------------
 -----
 title
 -----
 Symbolic Z-matrix:
 Charge =  0 Multiplicity = 1

 SCF Done:  E(RHF) =  -324.845902415     A.U. after   15 cycles
 Normal termination of Gaussian 16 at Wed Apr  9 04:05:06 2025.
 Gaussian 16:  ES64L-G16RevC.01  3-Jul-2019

 ----------------------------------------------------------------------
 #t hf aug-cc-pvdz iop(5/13=1,5/36=2,99/5=2) pseudo=read geom=check gue
 ss=(read,tcheck) scf=(maxcycle=1)
 ----------------------------------------------------------------------
 -----
 title
 -----
 Structure from the checkpoint file:  "Grambow2020_wb97xd3_009235_reverse_mol1.chk"
 Charge =  0 Multiplicity = 1

                         Standard orientation:
 ---------------------------------------------------------------------
 Center     Atomic      Atomic             Coordinates (Angstroms)
 Number     Number       Type             X           Y           Z
 ---------------------------------------------------------------------
      1          6           0       -2.641098   -0.396307   -0.359477
      2          8           0       -1.683433    0.502145   -0.332830
      3          6           0       -0.554084    0.301227    0.265829
      4          6           0        0.298501   -0.937343    0.245356
      5          7           0        1.464256   -0.050285    0.417472
      6          6           0        2.613800   -0.301514   -0.413746
      7          6           0        0.670111    1.161441    0.120622
      8          1           0       -2.370044   -1.442812   -0.307528
      9          1           0       -3.540227   -0.059712   -0.849618
     10          1           0       -2.383321   -0.348417    1.613226
     11          1           0       -1.665019   -0.063718    1.815552
     12          1           0        0.175329   -1.692500    1.024550
     13          1           0        0.256345   -1.432666   -0.744008
     14          1           0        2.371802   -0.320768   -1.490645
     15          1           0        3.059627   -1.261454   -0.146435
     16          1           0        3.364313    0.473184   -0.245960
     17          1           0        0.807768    1.536549   -0.906024
     18          1           0        0.817717    1.982124    0.825727
 ---------------------------------------------------------------------

 SCF Done:  E(RHF) =  -324.951244447     A.U. after    2 cycles

 The electronic state is 1-A.
 Alpha  occ. eigenvalues --  -20.68735 -15.62237 -11.31321 -11.29365 -11.27674
 Alpha  occ. eigenvalues --  -11.27547 -11.26189  -1.46080  -1.23974  -1.04486
 Alpha  occ. eigenvalues --   -0.97439  -0.94038  -0.83487  -0.77594  -0.72115
 Alpha  occ. eigenvalues --   -0.71591  -0.70886  -0.64773  -0.61536  -0.58209
 Alpha  occ. eigenvalues --   -0.56971  -0.56001  -0.53657  -0.51812  -0.49725
 Alpha  occ. eigenvalues --   -0.47863  -0.36714  -0.26154
 Alpha virt. eigenvalues --    0.03375   0.04104   0.04283   0.04843   0.05969
 Alpha virt. eigenvalues --    0.06676   0.06920   0.07388   0.07599   0.08660
 Alpha virt. eigenvalues --    0.09319   0.10113   0.10988   0.12096   0.14006

 Mulliken charges:
               1
     1  C    0.735868
     2  O   -0.276580
     3  C   -0.693783
     4  C    0.919480
     5  N   -0.789726
     6  C    0.740942
     7  C    0.891884
     8  H   -0.231998
     9  H   -0.335521
    10  H   -0.127327
    11  H    0.316830
    12  H   -0.235331
    13  H   -0.118788
    14  H   -0.117390
    15  H   -0.187671
    16  H   -0.197397
    17  H   -0.121760
    18  H   -0.171732
 Sum of Mulliken charges =  -0.00000

 Dipole moment (field-independent basis, Debye):
    X=              1.1937    Y=             -0.5643    Z=             -1.7584  Tot=              2.1990

 Test job not archived.
 1\1\GINC-SE252\SP\RHF\Aug-CC-pVDZ\C5H11N1O1\OHZDE\09-Apr-2025\0\\#t hf
  aug-cc-pvdz iop(5/13=1,5/36=2,99/5=2) pseudo=read geom=check guess=(r
 ead,tcheck) scf=(maxcycle=1)\\title\\0,1\C,0,2.59458592,0.86969961,-0.
 04244879\O,0,1.52754421,0.85000416,-0.80800964\C,0,0.56960295,-0.00505
 66,-0.64861084\C,0,-0.06656205,-0.45538871,0.63741789\N,0,-1.30786489,
 -0.66003441,-0.13249589\C,0,-2.5332685,-0.17420055,0.44874569\C,0,-0.7
 8098197,0.07274719,-1.30403018\H,0,2.50580736,0.51903725,0.97759815\H,
 0,3.32695525,1.60442098,-0.33534202\H,0,2.68958841,-1.04599602,-0.5729

 Normal termination of Gaussian 16 at Wed Apr  9 04:05:12 2025.
