 Gaussian 16, Revision C.01,

 ----------------------------------------------------------------------
 #t hf aug-cc-pvdz symm=none int=(grid=ultrafine) guess=(read,tcheck) s
 table=(opt,rrhf)
 ----------------------------------------------------------------------
 -----
 title
 -----
 Symbolic Z-matrix:
 Charge =  0 Multiplicity = 1

 SCF Done:  E(RHF) =  -308.906687480     A.U. after   15 cycles

 1\1\GINC-SE026\Stability\RHF\Aug-CC-pVDZ\C6H12O1\OHZDE\09-Apr-2025\0\\
 #t hf aug-cc-pvdz symm=none int=(grid=ultrafine) guess=(read,tcheck) s
 table=(opt,rrhf)\\title\\0,1\C,0,1.90364459,-0.41489466,-0.70378679\C,
 0,1.11425924,0.01193753,0.50561012\O,0,1.88124316,-0.13728218,1.651936
 88\C,0,0.15898578,1.01617805,0.47109144\C,0,-0.7770882,1.31931516,-0.6
 4795055\C,0,-1.74663218,0.39253783,-0.00760852\C,0,-1.83811071,-0.9494
 0292,-0.3062394\H,0,1.26338655,-0.48100588,-1.58275924\H,0,2.35694645,
 -1.39119326,-0.53420357\H,0,2.69700793,0.30810164,-0.9051641\H,0,0.253

 Normal termination of Gaussian 16 at Wed Apr  9 15:55:29 2025.
 Gaussian 16:  ES64L-G16RevC.01  3-Jul-2019

 ----------------------------------------------------------------------
 #t hf aug-cc-pvdz iop(5/13=1,5/36=2,99/5=2) pseudo=read geom=check gue
 ss=(read,tcheck) scf=(maxcycle=1)
 ----------------------------------------------------------------------
 -----
 title
 -----
 Structure from the checkpoint file:  "Grambow2020_wb97xd3_007582_forward_mol1.chk"
 Charge =  0 Multiplicity = 1

                         Standard orientation:
 ---------------------------------------------------------------------
 Center     Atomic      Atomic             Coordinates (Angstroms)
 Number     Number       Type             X           Y           Z
 ---------------------------------------------------------------------
      1          6           0        1.527018    0.970605    0.927137
      2          6           0        1.048264   -0.032280   -0.089214
      3          8           0        2.094884   -0.405183   -0.919953
      4          6           0        0.044560   -0.953071    0.169555
      5          6           0       -1.169297   -0.738337    1.006706
      6          6           0       -1.868057   -0.294649   -0.227735
      7          6           0       -1.933493    1.017275   -0.643582
      8          1           0        0.687726    1.411280    1.464061
      9          1           0        2.080223    1.771213    0.436840
     10          1           0        2.184992    0.483534    1.650002
     11          1           0        0.313139    1.004135   -0.915378
     12          1           0        1.773300   -1.052757   -1.550755
     13          1           0        0.071329   -1.885243   -0.386146
     14          1           0       -1.071287    0.046723    1.754928
     15          1           0       -1.560728   -1.642601    1.467239
     16          1           0       -2.214355   -1.077483   -0.892827
     17          1           0       -2.473317    1.246440   -1.555697
     18          1           0       -0.521507    1.305687   -1.065718
     19          1           0       -1.922554    1.813271    0.095869
 ---------------------------------------------------------------------

 SCF Done:  E(RHF) =  -309.005893699     A.U. after    2 cycles

 The electronic state is 1-A.
 Alpha  occ. eigenvalues --  -20.58572 -11.31039 -11.25162 -11.24784 -11.23836
 Alpha  occ. eigenvalues --  -11.23307 -11.23166  -1.34701  -1.11452  -1.02492
 Alpha  occ. eigenvalues --   -0.97064  -0.89852  -0.78361  -0.77515  -0.70259
 Alpha  occ. eigenvalues --   -0.66538  -0.64598  -0.62593  -0.58553  -0.56095
 Alpha  occ. eigenvalues --   -0.55358  -0.54363  -0.53956  -0.52935  -0.50523
 Alpha  occ. eigenvalues --   -0.49232  -0.31846  -0.30764
 Alpha virt. eigenvalues --    0.03237   0.04238   0.04320   0.04635   0.06142
 Alpha virt. eigenvalues --    0.06396   0.06592   0.06806   0.07966   0.09237
 Alpha virt. eigenvalues --    0.09603   0.10840   0.11959   0.13367   0.13955

 Mulliken charges:
               1
     1  C    0.566463
     2  C   -0.524100
     3  O   -0.547472
     4  C    0.437103
     5  C    0.822959
     6  C    0.372787
     7  C    0.074132
     8  H   -0.055692
     9  H   -0.008356
    10  H    0.010266
    11  H    0.438023
    12  H    0.115510
    13  H   -0.531197
    14  H   -0.243923
    15  H   -0.183148
    16  H   -0.383479
    17  H   -0.208600
    18  H   -0.001621
    19  H   -0.149655
 Sum of Mulliken charges =  -0.00000

 Dipole moment (field-independent basis, Debye):
    X=             -1.2925    Y=             -0.9315    Z=              0.2353  Tot=              1.6105

 Test job not archived.
 1\1\GINC-SE026\SP\RHF\Aug-CC-pVDZ\C6H12O1\OHZDE\09-Apr-2025\0\\#t hf a
 ug-cc-pvdz iop(5/13=1,5/36=2,99/5=2) pseudo=read geom=check guess=(rea
 d,tcheck) scf=(maxcycle=1)\\title\\0,1\C,0,1.90364459,-0.41489466,-0.7
 0378679\C,0,1.11425924,0.01193753,0.50561012\O,0,1.88124316,-0.1372821
 8,1.65193688\C,0,0.15898578,1.01617805,0.47109144\C,0,-0.7770882,1.319
 31516,-0.64795055\C,0,-1.74663218,0.39253783,-0.00760852\C,0,-1.838110
 71,-0.94940292,-0.3062394\H,0,1.26338655,-0.48100588,-1.58275924\H,0,2
 .35694645,-1.39119326,-0.53420357\H,0,2.69700793,0.30810164,-0.9051641

 Normal termination of Gaussian 16 at Wed Apr  9 15:55:36 2025.
