 Gaussian 16, Revision C.01,

 ----------------------------------------------------------------------
 #t hf aug-cc-pvdz symm=none int=(grid=ultrafine) guess=(read,tcheck) s
 table=(opt,rrhf)
 ----------------------------------------------------------------------
 -----
 title
 -----
 Symbolic Z-matrix:
 Charge =  0 Multiplicity = 1

 SCF Done:  E(RHF) =  -306.860930499     A.U. after   15 cycles

 1\1\GINC-SE138\Stability\RHF\Aug-CC-pVDZ\C4H10O2\OHZDE\09-Apr-2025\0\\
 #t hf aug-cc-pvdz symm=none int=(grid=ultrafine) guess=(read,tcheck) s
 table=(opt,rrhf)\\title\\0,1\C,0,1.91336179,0.64297433,-1.45010715\O,0
 ,0.60575636,0.06029192,-1.348589\C,0,0.38281631,-0.67570158,-0.2500264
 1\C,0,-0.937923,-1.07950986,0.04402377\C,0,-1.95651051,0.28175788,0.81
 246735\O,0,-1.41158719,0.86179825,1.83022687\H,0,2.69640321,-0.1242146
 2,-1.35654509\H,0,1.96474834,1.10927632,-2.43815041\H,0,2.03776351,1.3
 9830371,-0.66040479\H,0,0.7500192,0.55400832,1.20785043\H,0,1.25140538

 Normal termination of Gaussian 16 at Wed Apr  9 14:04:14 2025.
 Gaussian 16:  ES64L-G16RevC.01  3-Jul-2019

 ----------------------------------------------------------------------
 #t hf aug-cc-pvdz iop(5/13=1,5/36=2,99/5=2) pseudo=read geom=check gue
 ss=(read,tcheck) scf=(maxcycle=1)
 ----------------------------------------------------------------------
 -----
 title
 -----
 Structure from the checkpoint file:  "Grambow2020_b97d3_006771_forward_mol1.chk"
 Charge =  0 Multiplicity = 1

                         Standard orientation:
 ---------------------------------------------------------------------
 Center     Atomic      Atomic             Coordinates (Angstroms)
 Number     Number       Type             X           Y           Z
 ---------------------------------------------------------------------
      1          6           0       -2.520612   -0.592923   -0.113009
      2          8           0       -1.430551    0.273593   -0.460244
      3          6           0       -0.562047    0.536698    0.527028
      4          6           0        0.656752    1.175858    0.210986
      5          6           0        1.917791    0.009423   -0.517222
      6          8           0        2.122707   -1.067478    0.166529
      7          1           0       -3.065163   -0.211406    0.763573
      8          1           0       -3.183308   -0.614703   -0.982876
      9          1           0       -2.131929   -1.599319    0.100813
     10          1           0        0.049893   -1.221792    1.079906
     11          1           0       -0.923205    0.436481    1.550003
     12          1           0        0.596024    1.851366   -0.645732
     13          1           0        1.150575    1.613471    1.080355
     14          1           0        1.466932   -0.084592   -1.531574
     15          1           0        2.732021    0.762916   -0.497321
     16          1           0        0.819602   -1.355669    0.785882
 ---------------------------------------------------------------------

 SCF Done:  E(RHF) =  -306.962622216     A.U. after    2 cycles

 The electronic state is 1-A.
 Alpha  occ. eigenvalues --  -20.65283 -20.49858 -11.39279 -11.32797 -11.30672
 Alpha  occ. eigenvalues --  -11.24467  -1.42090  -1.26178  -1.07061  -0.96752
 Alpha  occ. eigenvalues --   -0.87580  -0.81066  -0.74167  -0.70642  -0.68567
 Alpha  occ. eigenvalues --   -0.64278  -0.61009  -0.59640  -0.57347  -0.56702
 Alpha  occ. eigenvalues --   -0.54596  -0.53122  -0.44596  -0.37975  -0.34950
 Alpha virt. eigenvalues --    0.02529   0.03650   0.04119   0.05702   0.05720
 Alpha virt. eigenvalues --    0.06168   0.06749   0.07080   0.08373   0.10121
 Alpha virt. eigenvalues --    0.10214   0.11123   0.12975   0.13643   0.14534

 Mulliken charges:
               1
     1  C    0.670911
     2  O   -0.651251
     3  C    0.766697
     4  C   -0.039280
     5  C    0.726357
     6  O   -0.786192
     7  H   -0.002179
     8  H   -0.200010
     9  H   -0.047067
    10  H    0.089818
    11  H   -0.303864
    12  H   -0.043534
    13  H   -0.152265
    14  H   -0.089815
    15  H   -0.073081
    16  H    0.134753
 Sum of Mulliken charges =  -0.00000

 Dipole moment (field-independent basis, Debye):
    X=             -5.3909    Y=              2.9849    Z=              0.3017  Tot=              6.1695

 Test job not archived.
 1\1\GINC-SE138\SP\RHF\Aug-CC-pVDZ\C4H10O2\OHZDE\09-Apr-2025\0\\#t hf a
 ug-cc-pvdz iop(5/13=1,5/36=2,99/5=2) pseudo=read geom=check guess=(rea
 d,tcheck) scf=(maxcycle=1)\\title\\0,1\C,0,1.91336179,0.64297433,-1.45
 010715\O,0,0.60575636,0.06029192,-1.348589\C,0,0.38281631,-0.67570158,
 -0.25002641\C,0,-0.937923,-1.07950986,0.04402377\C,0,-1.95651051,0.281
 75788,0.81246735\O,0,-1.41158719,0.86179825,1.83022687\H,0,2.69640321,
 -0.12421462,-1.35654509\H,0,1.96474834,1.10927632,-2.43815041\H,0,2.03
 776351,1.39830371,-0.66040479\H,0,0.7500192,0.55400832,1.20785043\H,0,

 Normal termination of Gaussian 16 at Wed Apr  9 14:04:19 2025.
