 Gaussian 16, Revision C.01,

 ----------------------------------------------------------------------
 #t hf aug-cc-pvdz symm=none int=(grid=ultrafine) guess=(read,tcheck) s
 table=(opt,rrhf)
 ----------------------------------------------------------------------
 -----
 title
 -----
 Symbolic Z-matrix:
 Charge =  0 Multiplicity = 1

 SCF Done:  E(RHF) =  -281.617030257     A.U. after   15 cycles
 Normal termination of Gaussian 16 at Wed Apr  9 03:06:35 2025.
 Gaussian 16:  ES64L-G16RevC.01  3-Jul-2019

 ----------------------------------------------------------------------
 #t hf aug-cc-pvdz iop(5/13=1,5/36=2,99/5=2) pseudo=read geom=check gue
 ss=(read,tcheck) scf=(maxcycle=1)
 ----------------------------------------------------------------------
 -----
 title
 -----
 Structure from the checkpoint file:  "Grambow2020_b97d3_006585_reverse_mol1.chk"
 Charge =  0 Multiplicity = 1

                         Standard orientation:
 ---------------------------------------------------------------------
 Center     Atomic      Atomic             Coordinates (Angstroms)
 Number     Number       Type             X           Y           Z
 ---------------------------------------------------------------------
      1          8           0       -2.165059   -0.089453    0.033182
      2          6           0       -1.034539   -0.393619    0.022005
      3          7           0        0.231576    0.986940   -0.130672
      4          6           0        1.361167    0.337296    0.067670
      5          8           0        1.386971   -0.947507   -0.040438
      6          1           0        0.150451   -1.098673   -0.022674
      7          1           0        0.195108    1.977173    0.108700
      8          1           0        2.298347    0.846538    0.348677
 ---------------------------------------------------------------------

 SCF Done:  E(RHF) =  -281.705621276     A.U. after    2 cycles

 The electronic state is 1-A.
 Alpha  occ. eigenvalues --  -20.63970 -20.58958 -15.64555 -11.39728 -11.39327
 Alpha  occ. eigenvalues --   -1.43139  -1.37978  -1.17099  -0.87752  -0.80147
 Alpha  occ. eigenvalues --   -0.76183  -0.69205  -0.65923  -0.63578  -0.61607
 Alpha  occ. eigenvalues --   -0.58980  -0.54788  -0.43284  -0.39693
 Alpha virt. eigenvalues --    0.02877   0.04879   0.05278   0.07781   0.08781
 Alpha virt. eigenvalues --    0.10276   0.10777   0.11955   0.14342   0.14970
 Alpha virt. eigenvalues --    0.15540   0.16740   0.17256   0.18887   0.19814

 Mulliken charges:
               1
     1  O   -0.304896
     2  C    0.291580
     3  N   -0.430949
     4  C    0.748629
     5  O   -0.639167
     6  H    0.495905
     7  H   -0.031824
     8  H   -0.129278
 Sum of Mulliken charges =  -0.00000

 Dipole moment (field-independent basis, Debye):
    X=              1.7857    Y=              2.1881    Z=              0.7640  Tot=              2.9258

 Test job not archived.
 1\1\GINC-SE102\SP\RHF\Aug-CC-pVDZ\C2H3N1O2\OHZDE\09-Apr-2025\0\\#t hf
 aug-cc-pvdz iop(5/13=1,5/36=2,99/5=2) pseudo=read geom=check guess=(re
 ad,tcheck) scf=(maxcycle=1)\\title\\0,1\O,0,-2.36840249,0.64899071,-0.
 29994174\C,0,-1.26930383,0.36976103,-0.59102652\N,0,-0.02420057,0.1871
 056,0.80491606\C,0,1.0244785,-0.29326584,0.1670548\O,0,1.09356972,-0.1
 9143427,-1.11666284\H,0,-0.10385574,0.11013413,-1.28212937\H,0,-0.1336
 2645,-0.03790316,1.79314052\H,0,1.85123284,-0.80760921,0.6852501\\Vers
 ion=ES64L-G16RevC.01\State=1-A\HF=-281.7056213\RMSD=2.478e-03\Dipole=0

 Normal termination of Gaussian 16 at Wed Apr  9 03:06:37 2025.
