 Gaussian 16, Revision C.01,

 ----------------------------------------------------------------------
 #t hf aug-cc-pvdz symm=none int=(grid=ultrafine) guess=(read,tcheck) s
 table=(opt,rrhf)
 ----------------------------------------------------------------------
 -----
 title
 -----
 Symbolic Z-matrix:
 Charge =  0 Multiplicity = 1

 SCF Done:  E(RHF) =  -310.064951459     A.U. after   15 cycles

 1\1\GINC-SE173\Stability\RHF\Aug-CC-pVDZ\C6H14O1\OHZDE\09-Apr-2025\0\\
 #t hf aug-cc-pvdz symm=none int=(grid=ultrafine) guess=(read,tcheck) s
 table=(opt,rrhf)\\title\\0,1\C,0,-3.41571271,-0.08375235,-0.78154682\C
 ,0,-2.2591947,-0.31109096,0.18238938\C,0,-0.89705767,-0.1227538,-0.474
 23005\C,0,0.26614927,-0.34526202,0.48986099\C,0,1.5881763,-0.22500558,
 -0.18447104\O,0,2.58661119,0.20632265,0.51958459\C,0,3.78698601,0.4390
 1361,0.02502982\H,0,-4.38000635,-0.21864262,-0.28851567\H,0,-3.3707892
 3,-0.78061035,-1.62210073\H,0,-3.39172439,0.92841632,-1.19256542\H,0,-

 Normal termination of Gaussian 16 at Wed Apr  9 16:03:35 2025.
 Gaussian 16:  ES64L-G16RevC.01  3-Jul-2019

 ----------------------------------------------------------------------
 #t hf aug-cc-pvdz iop(5/13=1,5/36=2,99/5=2) pseudo=read geom=check gue
 ss=(read,tcheck) scf=(maxcycle=1)
 ----------------------------------------------------------------------
 -----
 title
 -----
 Structure from the checkpoint file:  "Grambow2020_wb97xd3_007726_forward_mol1.chk"
 Charge =  0 Multiplicity = 1

                         Standard orientation:
 ---------------------------------------------------------------------
 Center     Atomic      Atomic             Coordinates (Angstroms)
 Number     Number       Type             X           Y           Z
 ---------------------------------------------------------------------
      1          6           0        3.682927    0.447028   -0.080535
      2          6           0        2.473169   -0.477257   -0.104466
      3          6           0        1.159082    0.263875    0.109864
      4          6           0       -0.057726   -0.658427    0.082130
      5          6           0       -1.324964    0.071616    0.361573
      6          8           0       -2.409926   -0.371488   -0.190810
      7          6           0       -3.580335    0.228947   -0.094634
      8          1           0        4.611004   -0.104313   -0.241261
      9          1           0        3.764478    0.964459    0.878514
     10          1           0        3.610550    1.209527   -0.859864
     11          1           0        2.435302   -1.007760   -1.061774
     12          1           0        2.583799   -1.248707    0.665061
     13          1           0        1.193508    0.791393    1.070092
     14          1           0        1.038994    1.036282   -0.656338
     15          1           0        0.088468   -1.460215    0.820009
     16          1           0       -0.142259   -1.145031   -0.893076
     17          1           0       -1.432668    0.681161    1.255088
     18          1           0       -1.813031    1.767776   -0.573202
     19          1           0       -3.802525    0.755508    0.826394
     20          1           0       -4.361509   -0.274012   -0.643629
     21          1           0       -2.607621    1.751140   -0.703133
 ---------------------------------------------------------------------

 SCF Done:  E(RHF) =  -310.169254080     A.U. after    2 cycles

 The electronic state is 1-A.
 Alpha  occ. eigenvalues --  -20.67859 -11.31624 -11.27541 -11.24691 -11.23542
 Alpha  occ. eigenvalues --  -11.23272 -11.22551  -1.45043  -1.09141  -1.03868
 Alpha  occ. eigenvalues --   -0.97111  -0.87803  -0.82842  -0.80145  -0.71317
 Alpha  occ. eigenvalues --   -0.69812  -0.69076  -0.64922  -0.59406  -0.58587
 Alpha  occ. eigenvalues --   -0.57145  -0.54355  -0.53267  -0.50792  -0.49595
 Alpha  occ. eigenvalues --   -0.48466  -0.47621  -0.47300  -0.25701
 Alpha virt. eigenvalues --    0.03426   0.03981   0.04397   0.04786   0.05650
 Alpha virt. eigenvalues --    0.05755   0.06652   0.07040   0.07759   0.08006
 Alpha virt. eigenvalues --    0.08550   0.09320   0.10263   0.10490   0.10899

 Mulliken charges:
               1
     1  C    0.525757
     2  C    0.244582
     3  C    0.019640
     4  C    0.150207
     5  C    0.681033
     6  O   -0.341368
     7  C    0.704975
     8  H   -0.061957
     9  H   -0.080325
    10  H   -0.070373
    11  H   -0.151060
    12  H   -0.147161
    13  H   -0.171232
    14  H   -0.179966
    15  H   -0.042222
    16  H   -0.178407
    17  H   -0.438495
    18  H    0.149609
    19  H   -0.234124
    20  H   -0.377857
    21  H   -0.001256
 Sum of Mulliken charges =  -0.00000

 Dipole moment (field-independent basis, Debye):
    X=              1.3756    Y=             -0.7519    Z=              1.3670  Tot=              2.0800

 Test job not archived.
 1\1\GINC-SE173\SP\RHF\Aug-CC-pVDZ\C6H14O1\OHZDE\09-Apr-2025\0\\#t hf a
 ug-cc-pvdz iop(5/13=1,5/36=2,99/5=2) pseudo=read geom=check guess=(rea
 d,tcheck) scf=(maxcycle=1)\\title\\0,1\C,0,-3.41571271,-0.08375235,-0.
 78154682\C,0,-2.2591947,-0.31109096,0.18238938\C,0,-0.89705767,-0.1227
 538,-0.47423005\C,0,0.26614927,-0.34526202,0.48986099\C,0,1.5881763,-0
 .22500558,-0.18447104\O,0,2.58661119,0.20632265,0.51958459\C,0,3.78698
 601,0.43901361,0.02502982\H,0,-4.38000635,-0.21864262,-0.28851567\H,0,
 -3.37078923,-0.78061035,-1.62210073\H,0,-3.39172439,0.92841632,-1.1925

 Normal termination of Gaussian 16 at Wed Apr  9 16:03:53 2025.
