 Gaussian 16, Revision C.01,

 ----------------------------------------------------------------------
 #t hf aug-cc-pvdz symm=none int=(grid=ultrafine) guess=(read,tcheck) s
 table=(opt,rrhf)
 ----------------------------------------------------------------------
 -----
 title
 -----
 Symbolic Z-matrix:
 Charge =  0 Multiplicity = 1

 SCF Done:  E(RHF) =  -337.475839329     A.U. after   17 cycles
 Normal termination of Gaussian 16 at Wed Apr  9 16:44:52 2025.
 Gaussian 16:  ES64L-G16RevC.01  3-Jul-2019

 ----------------------------------------------------------------------
 #t hf aug-cc-pvdz iop(5/13=1,5/36=2,99/5=2) pseudo=read geom=check gue
 ss=(read,tcheck) scf=(maxcycle=1)
 ----------------------------------------------------------------------
 -----
 title
 -----
 Structure from the checkpoint file:  "Grambow2020_wb97xd3_008702_reverse_mol2.chk"
 Charge =  0 Multiplicity = 1

                         Standard orientation:
 ---------------------------------------------------------------------
 Center     Atomic      Atomic             Coordinates (Angstroms)
 Number     Number       Type             X           Y           Z
 ---------------------------------------------------------------------
      1          8           0        2.774631    0.055753   -0.030003
      2          6           0        1.756600   -0.574282   -0.002611
      3          6           0        0.393922    0.088964    0.023169
      4          6           0       -0.737016   -0.817414    0.041000
      5          7           0       -1.929695   -0.333457    0.009888
      6          6           0       -2.959572    0.233444   -0.171536
      7          7           0        0.269243    1.354265    0.026248
      8          1           0        1.768130   -1.682296    0.005498
      9          1           0       -0.620465   -1.891910    0.069150
     10          1           0       -3.641439    0.617943    0.577408
     11          1           0        1.196287    1.780306   -0.005119
 ---------------------------------------------------------------------

 SCF Done:  E(RHF) =  -337.579179298     A.U. after    2 cycles

 The electronic state is 1-A.
 Alpha  occ. eigenvalues --  -20.60285 -15.74484 -15.63146 -11.36834 -11.31730
 Alpha  occ. eigenvalues --  -11.31569 -11.30018  -1.39411  -1.29714  -1.20029
 Alpha  occ. eigenvalues --   -1.06046  -0.94530  -0.81136  -0.75370  -0.73989
 Alpha  occ. eigenvalues --   -0.72221  -0.67384  -0.64031  -0.60463  -0.57629
 Alpha  occ. eigenvalues --   -0.51357  -0.49381  -0.46561  -0.42932  -0.31307
 Alpha virt. eigenvalues --    0.02477   0.02842   0.03709   0.04912   0.06352
 Alpha virt. eigenvalues --    0.07964   0.08422   0.09988   0.10985   0.11482
 Alpha virt. eigenvalues --    0.11859   0.13611   0.14198   0.14637   0.14882

 Mulliken charges:
               1
     1  O   -0.433748
     2  C    0.641750
     3  C    0.070049
     4  C    0.774938
     5  N    0.043751
     6  C    0.063670
     7  N   -0.454463
     8  H   -0.172562
     9  H   -0.347440
    10  H   -0.225732
    11  H    0.039787
 Sum of Mulliken charges =   0.00000

 Dipole moment (field-independent basis, Debye):
    X=             -2.1460    Y=             -2.7280    Z=              1.2578  Tot=              3.6918

 Test job not archived.
 1\1\GINC-SE219\SP\RHF\Aug-CC-pVDZ\C4H4N2O1\OHZDE\09-Apr-2025\0\\#t hf
 aug-cc-pvdz iop(5/13=1,5/36=2,99/5=2) pseudo=read geom=check guess=(re
 ad,tcheck) scf=(maxcycle=1)\\title\\0,1\O,0,-2.72582737,-1.09053145,0.
 08781058\C,0,-1.96336251,-0.16879586,0.03184941\C,0,-0.4600012,-0.3611
 0362,0.01248553\C,0,0.32033596,0.8574636,-0.07134965\N,0,1.60316674,0.
 77731647,-0.14609694\C,0,2.75287099,0.55797938,-0.35825212\N,0,0.06391
 291,-1.51840507,0.06452318\H,0,-2.32932508,0.87636298,-0.00826623\H,0,
 -0.13351926,1.83867028,-0.0842686\H,0,3.54966283,0.4555405,0.36860934\

 Normal termination of Gaussian 16 at Wed Apr  9 16:44:56 2025.
