 Gaussian 16, Revision C.01,

 ----------------------------------------------------------------------
 #t hf aug-cc-pvdz symm=none int=(grid=ultrafine) guess=(read,tcheck) s
 table=(opt,rrhf)
 ----------------------------------------------------------------------
 -----
 title
 -----
 Symbolic Z-matrix:
 Charge =  0 Multiplicity = 1

 SCF Done:  E(RHF) =  -322.623706627     A.U. after   15 cycles
 Normal termination of Gaussian 16 at Wed Apr  9 17:08:26 2025.
 Gaussian 16:  ES64L-G16RevC.01  3-Jul-2019

 ----------------------------------------------------------------------
 #t hf aug-cc-pvdz iop(5/13=1,5/36=2,99/5=2) pseudo=read geom=check gue
 ss=(read,tcheck) scf=(maxcycle=1)
 ----------------------------------------------------------------------
 -----
 title
 -----
 Structure from the checkpoint file:  "Grambow2020_wb97xd3_009165_reverse_mol2.chk"
 Charge =  0 Multiplicity = 1

                         Standard orientation:
 ---------------------------------------------------------------------
 Center     Atomic      Atomic             Coordinates (Angstroms)
 Number     Number       Type             X           Y           Z
 ---------------------------------------------------------------------
      1          6           0       -0.885121    1.666137    0.414209
      2          7           0       -0.137750    0.688070   -0.402879
      3          6           0        1.411385    0.937398   -0.285044
      4          6           0        1.818012   -0.292235    0.100234
      5          6           0        0.746053   -1.285530    0.246085
      6          6           0       -0.402723   -0.693921   -0.060624
      7          8           0       -1.702092   -1.064874   -0.134025
      8          1           0       -0.579999    1.531684    1.449816
      9          1           0       -1.956532    1.501370    0.308353
     10          1           0       -0.600094    2.661626    0.085109
     11          1           0       -0.338092    0.851289   -1.388571
     12          1           0        2.856801   -0.527979    0.287968
     13          1           0        0.857439   -2.318844    0.545244
     14          1           0       -1.784176   -1.987747    0.115262
 ---------------------------------------------------------------------

 SCF Done:  E(RHF) =  -322.721311477     A.U. after    2 cycles

 The electronic state is 1-A.
 Alpha  occ. eigenvalues --  -20.63453 -15.72569 -11.34262 -11.29156 -11.24862
 Alpha  occ. eigenvalues --  -11.20850 -11.20278  -1.40442  -1.27627  -1.08067
 Alpha  occ. eigenvalues --   -0.95749  -0.94633  -0.83742  -0.77925  -0.73765
 Alpha  occ. eigenvalues --   -0.69573  -0.66792  -0.62650  -0.60655  -0.59691
 Alpha  occ. eigenvalues --   -0.56008  -0.55327  -0.50562  -0.42601  -0.33056
 Alpha  occ. eigenvalues --   -0.29078
 Alpha virt. eigenvalues --    0.02257   0.03633   0.04658   0.04754   0.06526
 Alpha virt. eigenvalues --    0.06814   0.07303   0.10302   0.11754   0.11936
 Alpha virt. eigenvalues --    0.12411   0.13081   0.13888   0.14549   0.14745

 Mulliken charges:
               1
     1  C    0.818924
     2  N   -0.446424
     3  C   -0.266516
     4  C    0.256551
     5  C    0.838530
     6  C    0.135987
     7  O   -0.553579
     8  H   -0.062061
     9  H   -0.133027
    10  H   -0.140207
    11  H    0.168628
    12  H   -0.373654
    13  H   -0.389710
    14  H    0.146558
 Sum of Mulliken charges =  -0.00000

 Dipole moment (field-independent basis, Debye):
    X=             -4.3641    Y=             -2.6439    Z=              0.5228  Tot=              5.1292

 Test job not archived.
 1\1\GINC-SE113\SP\RHF\Aug-CC-pVDZ\C5H7N1O1\OHZDE\09-Apr-2025\0\\#t hf
 aug-cc-pvdz iop(5/13=1,5/36=2,99/5=2) pseudo=read geom=check guess=(re
 ad,tcheck) scf=(maxcycle=1)\\title\\0,1\C,0,-1.76925118,-0.06580045,0.
 24831701\N,0,-0.35799688,-0.38983269,0.5418724\C,0,0.09084352,-1.67429
 306,-0.24842681\C,0,1.17922237,-1.18909959,-0.88545287\C,0,1.48284886,
 0.22184552,-0.6133323\C,0,0.57025043,0.67893829,0.23636695\O,0,0.32101
 281,1.85261511,0.86224033\H,0,-1.84769723,0.12692654,-0.81955969\H,0,-
 2.07838468,0.81006939,0.81714411\H,0,-2.36955672,-0.93623036,0.4983770

 Normal termination of Gaussian 16 at Wed Apr  9 17:08:30 2025.
