 Gaussian 16, Revision C.01,

 ----------------------------------------------------------------------
 #t hf aug-cc-pvdz symm=none int=(grid=ultrafine) guess=(read,tcheck) s
 table=(opt,rrhf)
 ----------------------------------------------------------------------
 -----
 title
 -----
 Symbolic Z-matrix:
 Charge =  0 Multiplicity = 1

 SCF Done:  E(RHF) =  -324.966810528     A.U. after   13 cycles
 Normal termination of Gaussian 16 at Wed Apr  9 16:50:28 2025.
 Gaussian 16:  ES64L-G16RevC.01  3-Jul-2019

 ----------------------------------------------------------------------
 #t hf aug-cc-pvdz iop(5/13=1,5/36=2,99/5=2) pseudo=read geom=check gue
 ss=(read,tcheck) scf=(maxcycle=1)
 ----------------------------------------------------------------------
 -----
 title
 -----
 Structure from the checkpoint file:  "Grambow2020_wb97xd3_008957_reverse_mol2.chk"
 Charge =  0 Multiplicity = 1

                         Standard orientation:
 ---------------------------------------------------------------------
 Center     Atomic      Atomic             Coordinates (Angstroms)
 Number     Number       Type             X           Y           Z
 ---------------------------------------------------------------------
      1          6           0        1.687993   -1.485877    0.038744
      2          6           0        1.657366    0.023683    0.181946
      3          7           0        0.633504    0.619199   -0.675197
      4          6           0        0.074772    1.913136   -0.224588
      5          6           0       -0.678018    0.681549   -0.187132
      6          6           0       -1.757606   -0.036090    0.034434
      7          8           0       -1.871885   -1.380580   -0.171534
      8          1           0        2.534011   -1.906531    0.584190
      9          1           0        1.782366   -1.771512   -1.010649
     10          1           0        0.782562   -1.938030    0.450263
     11          1           0        1.491209    0.295010    1.234333
     12          1           0        2.615982    0.450057   -0.122790
     13          1           0        0.449519    2.310038    0.716509
     14          1           0       -0.090392    2.646571   -1.005820
     15          1           0       -0.666543    0.599816    2.864199
     16          1           0       -2.669191    0.407464    0.409938
     17          1           0       -0.492720    0.725382    3.579185
     18          1           0       -1.103293   -1.686429   -0.661134
 ---------------------------------------------------------------------

 SCF Done:  E(RHF) =  -325.072804958     A.U. after    2 cycles

 The electronic state is 1-A.
 Alpha  occ. eigenvalues --  -20.59703 -15.63941 -11.30053 -11.28159 -11.27104
 Alpha  occ. eigenvalues --  -11.27034 -11.23318  -1.35841  -1.26954  -1.04950
 Alpha  occ. eigenvalues --   -0.98162  -0.89917  -0.83898  -0.79137  -0.70290
 Alpha  occ. eigenvalues --   -0.66995  -0.65782  -0.61471  -0.60553  -0.59197
 Alpha  occ. eigenvalues --   -0.58697  -0.56550  -0.53853  -0.51334  -0.48781
 Alpha  occ. eigenvalues --   -0.46525  -0.41253  -0.32677
 Alpha virt. eigenvalues --    0.03489   0.04003   0.04365   0.04720   0.06161
 Alpha virt. eigenvalues --    0.06420   0.07134   0.07335   0.08106   0.09546
 Alpha virt. eigenvalues --    0.10963   0.11274   0.12057   0.12944   0.13373

 Mulliken charges:
               1
     1  C    0.383474
     2  C    0.644813
     3  N   -0.864497
     4  C    0.753051
     5  C   -0.483075
     6  C    1.374730
     7  O   -0.592134
     8  H   -0.054152
     9  H   -0.047022
    10  H   -0.141942
    11  H   -0.209398
    12  H   -0.255532
    13  H   -0.189011
    14  H   -0.177338
    15  H   -0.004756
    16  H   -0.311017
    17  H    0.010547
    18  H    0.163258
 Sum of Mulliken charges =  -0.00000

 Dipole moment (field-independent basis, Debye):
    X=              1.6435    Y=              0.9461    Z=              0.6339  Tot=              1.9995

 Test job not archived.
 1\1\GINC-SE141\SP\RHF\Aug-CC-pVDZ\C5H11N1O1\OHZDE\09-Apr-2025\0\\#t hf
  aug-cc-pvdz iop(5/13=1,5/36=2,99/5=2) pseudo=read geom=check guess=(r
 ead,tcheck) scf=(maxcycle=1)\\title\\0,1\C,0,-1.88049687,-0.69342332,-
 0.68064189\C,0,-1.32597029,0.0387436,0.52627461\N,0,-0.13524914,-0.627
 00701,1.0521887\C,0,0.82952135,0.23203388,1.77383238\C,0,1.10089388,-0
 .32179285,0.46825442\C,0,1.85348966,-0.54276577,-0.58738673\O,0,1.4942
 3899,-1.28359786,-1.67607563\H,0,-2.83488245,-0.26238262,-0.98651739\H
 ,0,-2.04042769,-1.74864443,-0.45118491\H,0,-1.20292704,-0.61384084,-1.

 Normal termination of Gaussian 16 at Wed Apr  9 16:50:35 2025.
