 Gaussian 16, Revision C.01,

 ----------------------------------------------------------------------
 #t hf aug-cc-pvdz symm=none int=(grid=ultrafine) guess=(read,tcheck) s
 table=(opt,rrhf)
 ----------------------------------------------------------------------
 -----
 title
 -----
 Symbolic Z-matrix:
 Charge =  0 Multiplicity = 1

 SCF Done:  E(RHF) =  -288.035280504     A.U. after   14 cycles

 1\1\GINC-SE226\Stability\RHF\Aug-CC-pVDZ\C6H11N1\OHZDE\09-Apr-2025\0\\
 #t hf aug-cc-pvdz symm=none int=(grid=ultrafine) guess=(read,tcheck) s
 table=(opt,rrhf)\\title\\0,1\C,0,-2.46369537,-0.19683772,0.66153407\C,
 0,-1.27329633,-0.66738532,0.99011411\C,0,0.04691678,0.04396052,0.82242
 46\C,0,0.98729809,-0.73012717,-0.12208651\C,0,2.37481161,-0.11771268,-
 0.23706164\C,0,-0.13037582,1.42215569,0.35699186\N,0,-0.26484517,2.495
 23694,-0.02606053\H,0,-3.35453355,-0.79474205,0.80561918\H,0,-1.128198
 39,1.15266866,-2.50134792\H,0,-2.59279976,0.79420798,0.24046044\H,0,-1

 Normal termination of Gaussian 16 at Wed Apr  9 14:32:00 2025.
 Gaussian 16:  ES64L-G16RevC.01  3-Jul-2019

 ----------------------------------------------------------------------
 #t hf aug-cc-pvdz iop(5/13=1,5/36=2,99/5=2) pseudo=read geom=check gue
 ss=(read,tcheck) scf=(maxcycle=1)
 ----------------------------------------------------------------------
 -----
 title
 -----
 Structure from the checkpoint file:  "Grambow2020_wb97xd3_006569_reverse_mol2.chk"
 Charge =  0 Multiplicity = 1

                         Standard orientation:
 ---------------------------------------------------------------------
 Center     Atomic      Atomic             Coordinates (Angstroms)
 Number     Number       Type             X           Y           Z
 ---------------------------------------------------------------------
      1          6           0        2.414765   -0.513073    0.173565
      2          6           0        1.293235   -1.078711   -0.237110
      3          6           0       -0.007555   -0.373596   -0.533510
      4          6           0       -1.139714   -0.871068    0.386472
      5          6           0       -2.500008   -0.276897    0.054768
      6          6           0        0.127494    1.082775   -0.442813
      7          7           0        0.225169    2.222419   -0.353452
      8          1           0        3.294111   -1.110700    0.377122
      9          1           0        0.546811    1.639580    2.515653
     10          1           0        2.496859    0.558304    0.320381
     11          1           0        1.247702   -2.155726   -0.373315
     12          1           0        0.593595    1.273954    3.163911
     13          1           0       -0.291146   -0.593381   -1.569738
     14          1           0       -1.171814   -1.960174    0.298232
     15          1           0       -0.864488   -0.646740    1.419773
     16          1           0       -2.791591   -0.503905   -0.973491
     17          1           0       -3.266968   -0.683030    0.715129
     18          1           0       -2.498565    0.808306    0.172282
 ---------------------------------------------------------------------

 SCF Done:  E(RHF) =  -288.128298906     A.U. after    2 cycles

 The electronic state is 1-A.
 Alpha  occ. eigenvalues --  -15.63594 -11.29848 -11.28466 -11.26564 -11.25922
 Alpha  occ. eigenvalues --  -11.24917 -11.23792  -1.20028  -1.12085  -1.04305
 Alpha  occ. eigenvalues --   -0.96561  -0.85036  -0.80580  -0.70540  -0.66587
 Alpha  occ. eigenvalues --   -0.62863  -0.61287  -0.59302  -0.58593  -0.55608
 Alpha  occ. eigenvalues --   -0.53916  -0.52145  -0.51282  -0.50456  -0.46085
 Alpha  occ. eigenvalues --   -0.45905  -0.38766
 Alpha virt. eigenvalues --    0.02814   0.03843   0.04382   0.05010   0.06325
 Alpha virt. eigenvalues --    0.06503   0.07032   0.07321   0.08199   0.09024
 Alpha virt. eigenvalues --    0.10200   0.10625   0.11333   0.13064   0.13178

 Mulliken charges:
               1
     1  C    0.497410
     2  C    0.899125
     3  C    0.218466
     4  C    0.215602
     5  C    0.446371
     6  C   -0.530388
     7  N   -0.170233
     8  H   -0.304377
     9  H    0.009325
    10  H   -0.341143
    11  H   -0.466132
    12  H    0.017608
    13  H    0.019034
    14  H   -0.125624
    15  H   -0.160558
    16  H   -0.072577
    17  H   -0.041747
    18  H   -0.110160
 Sum of Mulliken charges =  -0.00000

 Dipole moment (field-independent basis, Debye):
    X=             -0.6026    Y=             -3.9752    Z=             -0.0647  Tot=              4.0211

 Test job not archived.
 1\1\GINC-SE226\SP\RHF\Aug-CC-pVDZ\C6H11N1\OHZDE\09-Apr-2025\0\\#t hf a
 ug-cc-pvdz iop(5/13=1,5/36=2,99/5=2) pseudo=read geom=check guess=(rea
 d,tcheck) scf=(maxcycle=1)\\title\\0,1\C,0,-2.46369537,-0.19683772,0.6
 6153407\C,0,-1.27329633,-0.66738532,0.99011411\C,0,0.04691678,0.043960
 52,0.8224246\C,0,0.98729809,-0.73012717,-0.12208651\C,0,2.37481161,-0.
 11771268,-0.23706164\C,0,-0.13037582,1.42215569,0.35699186\N,0,-0.2648
 4517,2.49523694,-0.02606053\H,0,-3.35453355,-0.79474205,0.80561918\H,0
 ,-1.12819839,1.15266866,-2.50134792\H,0,-2.59279976,0.79420798,0.24046

 Normal termination of Gaussian 16 at Wed Apr  9 14:32:06 2025.
