 Gaussian 16, Revision C.01,

 ----------------------------------------------------------------------
 #t hf aug-cc-pvdz symm=none int=(grid=ultrafine) guess=(read,tcheck) s
 table=(opt,rrhf)
 ----------------------------------------------------------------------
 -----
 title
 -----
 Symbolic Z-matrix:
 Charge =  0 Multiplicity = 1

 SCF Done:  E(RHF) =  -344.842050522     A.U. after   14 cycles

 1\1\GINC-SE100\Stability\RHF\Aug-CC-pVDZ\C5H10O2\OHZDE\09-Apr-2025\0\\
 #t hf aug-cc-pvdz symm=none int=(grid=ultrafine) guess=(read,tcheck) s
 table=(opt,rrhf)\\title\\0,1\C,0,2.04538496,1.31833458,0.48329623\O,0,
 1.41446105,1.4970157,-0.7672103\C,0,-0.45512143,-1.33258646,-1.1302010
 9\C,0,0.38917022,-1.63918979,-0.14589702\O,0,-0.382212,-1.28241259,0.9
 287743\C,0,-1.4325903,-0.93196877,-0.04909653\C,0,-1.88863114,0.494257
 56,0.08457291\H,0,1.3500279,0.95109527,1.24612681\H,0,2.8945421,0.6273
 0059,0.4206503\H,0,2.42335862,2.29075665,0.79785031\H,0,-0.4760277,-1.

 Normal termination of Gaussian 16 at Wed Apr  9 15:03:08 2025.
 Gaussian 16:  ES64L-G16RevC.01  3-Jul-2019

 ----------------------------------------------------------------------
 #t hf aug-cc-pvdz iop(5/13=1,5/36=2,99/5=2) pseudo=read geom=check gue
 ss=(read,tcheck) scf=(maxcycle=1)
 ----------------------------------------------------------------------
 -----
 title
 -----
 Structure from the checkpoint file:  "Grambow2020_wb97xd3_006663_reverse_mol2.chk"
 Charge =  0 Multiplicity = 1

                         Standard orientation:
 ---------------------------------------------------------------------
 Center     Atomic      Atomic             Coordinates (Angstroms)
 Number     Number       Type             X           Y           Z
 ---------------------------------------------------------------------
      1          6           0       -2.519772   -0.057236   -0.522788
      2          8           0       -2.115243    0.438470    0.735938
      3          6           0        1.094971   -0.673672    1.038279
      4          6           0        0.602010   -1.407238    0.041003
      5          8           0        0.984940   -0.628355   -1.019159
      6          6           0        1.614524    0.265690   -0.025860
      7          6           0        1.105719    1.677153   -0.119949
      8          1           0       -1.752705    0.093944   -1.290284
      9          1           0       -2.771352   -1.123855   -0.483373
     10          1           0       -3.415253    0.490759   -0.814725
     11          1           0        1.167574   -0.745181    2.109492
     12          1           0       -1.295383   -0.002368    0.980571
     13          1           0        0.068509   -2.336338   -0.112007
     14          1           0        2.695584    0.206968   -0.170951
     15          1           0        1.565422    2.283121    0.663526
     16          1           0        1.372400    2.110107   -1.085430
     17          1           0        0.022921    1.713743    0.004836
 ---------------------------------------------------------------------

 SCF Done:  E(RHF) =  -344.954729630     A.U. after    2 cycles

 The electronic state is 1-A.
 Alpha  occ. eigenvalues --  -20.59512 -20.55951 -11.31979 -11.31400 -11.27321
 Alpha  occ. eigenvalues --  -11.24333 -11.23396  -1.39140  -1.31083  -1.04567
 Alpha  occ. eigenvalues --   -1.00729  -0.91599  -0.87436  -0.74218  -0.72316
 Alpha  occ. eigenvalues --   -0.69860  -0.66272  -0.65136  -0.62096  -0.59760
 Alpha  occ. eigenvalues --   -0.57510  -0.56318  -0.52312  -0.50579  -0.49902
 Alpha  occ. eigenvalues --   -0.48563  -0.45285  -0.36181
 Alpha virt. eigenvalues --    0.03183   0.04048   0.04471   0.04891   0.05933
 Alpha virt. eigenvalues --    0.06345   0.07047   0.07677   0.08807   0.09724
 Alpha virt. eigenvalues --    0.10860   0.11633   0.12719   0.13204   0.13878

 Mulliken charges:
               1
     1  C    0.920074
     2  O   -0.495697
     3  C    0.360299
     4  C    0.666803
     5  O   -0.775041
     6  C    0.263023
     7  C    0.371568
     8  H   -0.174008
     9  H   -0.160063
    10  H   -0.222343
    11  H   -0.313570
    12  H    0.176517
    13  H   -0.310203
    14  H   -0.234022
    15  H    0.041461
    16  H    0.010262
    17  H   -0.125059
 Sum of Mulliken charges =  -0.00000

 Dipole moment (field-independent basis, Debye):
    X=              1.5841    Y=             -0.8736    Z=              0.5271  Tot=              1.8843

 Test job not archived.
 1\1\GINC-SE100\SP\RHF\Aug-CC-pVDZ\C5H10O2\OHZDE\09-Apr-2025\0\\#t hf a
 ug-cc-pvdz iop(5/13=1,5/36=2,99/5=2) pseudo=read geom=check guess=(rea
 d,tcheck) scf=(maxcycle=1)\\title\\0,1\C,0,2.04538496,1.31833458,0.483
 29623\O,0,1.41446105,1.4970157,-0.7672103\C,0,-0.45512143,-1.33258646,
 -1.13020109\C,0,0.38917022,-1.63918979,-0.14589702\O,0,-0.382212,-1.28
 241259,0.9287743\C,0,-1.4325903,-0.93196877,-0.04909653\C,0,-1.8886311
 4,0.49425756,0.08457291\H,0,1.3500279,0.95109527,1.24612681\H,0,2.8945
 421,0.62730059,0.4206503\H,0,2.42335862,2.29075665,0.79785031\H,0,-0.4

 Normal termination of Gaussian 16 at Wed Apr  9 15:03:14 2025.
