 Gaussian 16, Revision C.01,

 ----------------------------------------------------------------------
 #t hf aug-cc-pvdz symm=none int=(grid=ultrafine) guess=(read,tcheck) s
 table=(opt,rrhf)
 ----------------------------------------------------------------------
 -----
 title
 -----
 Symbolic Z-matrix:
 Charge =  0 Multiplicity = 1

 SCF Done:  E(RHF) =  -281.159439080     A.U. after   18 cycles
 Normal termination of Gaussian 16 at Wed Apr  9 03:03:34 2025.
 Gaussian 16:  ES64L-G16RevC.01  3-Jul-2019

 ----------------------------------------------------------------------
 #t hf aug-cc-pvdz iop(5/13=1,5/36=2,99/5=2) pseudo=read geom=check gue
 ss=(read,tcheck) scf=(maxcycle=1)
 ----------------------------------------------------------------------
 -----
 title
 -----
 Structure from the checkpoint file:  "Grambow2020_b97d3_006498_forward_mol1.chk"
 Charge =  0 Multiplicity = 1

                         Standard orientation:
 ---------------------------------------------------------------------
 Center     Atomic      Atomic             Coordinates (Angstroms)
 Number     Number       Type             X           Y           Z
 ---------------------------------------------------------------------
      1          8           0       -0.943491   -1.089190   -0.243828
      2          6           0       -0.073835    0.257704   -0.311438
      3          6           0       -1.031478    1.248769   -0.175569
      4          6           0       -1.476474   -0.010336    0.387460
      5          6           0        1.300026    0.063792   -0.027776
      6          7           0        2.445421   -0.072071    0.187819
      7          1           0       -1.879450   -0.141562    1.399829
 ---------------------------------------------------------------------

 SCF Done:  E(RHF) =  -281.240087282     A.U. after    2 cycles

 The electronic state is 1-A.
 Alpha  occ. eigenvalues --  -20.68539 -15.70116 -11.43105 -11.42662 -11.34387
 Alpha  occ. eigenvalues --  -11.31556  -1.46491  -1.23003  -1.16464  -0.98885
 Alpha  occ. eigenvalues --   -0.86325  -0.74463  -0.68390  -0.66951  -0.60291
 Alpha  occ. eigenvalues --   -0.57002  -0.53950  -0.50371  -0.46798  -0.41843
 Alpha virt. eigenvalues --    0.02174   0.03063   0.05263   0.06813   0.07133
 Alpha virt. eigenvalues --    0.08327   0.09858   0.10556   0.10778   0.11633
 Alpha virt. eigenvalues --    0.12365   0.13947   0.14656   0.16049   0.16409

 Mulliken charges:
               1
     1  O   -0.667973
     2  C    1.176721
     3  C   -0.274637
     4  C    0.726193
     5  C   -0.684015
     6  N   -0.093285
     7  H   -0.183004
 Sum of Mulliken charges =  -0.00000

 Dipole moment (field-independent basis, Debye):
    X=             -2.7233    Y=             -0.7349    Z=              1.1851  Tot=              3.0596

 Test job not archived.
 1\1\GINC-SE188\SP\RHF\Aug-CC-pVDZ\C4H1N1O1\OHZDE\09-Apr-2025\0\\#t hf
 aug-cc-pvdz iop(5/13=1,5/36=2,99/5=2) pseudo=read geom=check guess=(re
 ad,tcheck) scf=(maxcycle=1)\\title\\0,1\O,0,0.09471378,-1.18164654,-0.
 74878128\C,0,-0.33620721,-0.16762079,0.41786192\C,0,0.75443954,-0.1992
 3484,1.27064587\C,0,1.1152955,-0.58470546,-0.07900744\C,0,-1.36198862,
 0.73276382,0.04018414\N,0,-2.22196638,1.47951995,-0.24206346\H,0,1.941
 72737,-0.15400413,-0.65866977\\Version=ES64L-G16RevC.01\State=1-A\HF=-
 281.2400873\RMSD=5.508e-03\Dipole=1.0536742,-0.4018751,-0.4210014\Quad

 Normal termination of Gaussian 16 at Wed Apr  9 03:03:36 2025.
