 Gaussian 16, Revision C.01,

 ----------------------------------------------------------------------
 #t hf aug-cc-pvdz symm=none int=(grid=ultrafine) guess=(read,tcheck) s
 table=(opt,rrhf)
 ----------------------------------------------------------------------
 -----
 title
 -----
 Symbolic Z-matrix:
 Charge =  0 Multiplicity = 1

 SCF Done:  E(RHF) =  -317.673119782     A.U. after   14 cycles
 Normal termination of Gaussian 16 at Wed Apr  9 16:16:35 2025.
 Gaussian 16:  ES64L-G16RevC.01  3-Jul-2019

 ----------------------------------------------------------------------
 #t hf aug-cc-pvdz iop(5/13=1,5/36=2,99/5=2) pseudo=read geom=check gue
 ss=(read,tcheck) scf=(maxcycle=1)
 ----------------------------------------------------------------------
 -----
 title
 -----
 Structure from the checkpoint file:  "Grambow2020_wb97xd3_008050_reverse_mol2.chk"
 Charge =  0 Multiplicity = 1

                         Standard orientation:
 ---------------------------------------------------------------------
 Center     Atomic      Atomic             Coordinates (Angstroms)
 Number     Number       Type             X           Y           Z
 ---------------------------------------------------------------------
      1          7           0       -1.042990   -1.192368    0.117676
      2          6           0        0.252992   -0.698708    0.272672
      3          6           0        0.307339    0.778329    0.455552
      4          6           0        1.691704    0.502703   -0.217947
      5          7           0        1.414328   -0.971990   -0.195639
      6          6           0       -1.671935   -0.104715   -0.177197
      7          7           0       -0.945980    1.075906   -0.212460
      8          1           0        0.368446    1.202834    1.458912
      9          1           0        1.754508    0.859738   -1.244851
     10          1           0        2.568102    0.822133    0.350961
     11          1           0       -2.726140   -0.085081   -0.429834
     12          1           0       -1.423030    1.953884   -0.100707
 ---------------------------------------------------------------------

 SCF Done:  E(RHF) =  -317.763705837     A.U. after    2 cycles

 The electronic state is 1-A.
 Alpha  occ. eigenvalues --  -15.67673 -15.62913 -15.61488 -11.35854 -11.31994
 Alpha  occ. eigenvalues --  -11.29102 -11.28218  -1.33266  -1.22512  -1.15819
 Alpha  occ. eigenvalues --   -0.96636  -0.91781  -0.82146  -0.76886  -0.71608
 Alpha  occ. eigenvalues --   -0.67616  -0.64362  -0.59597  -0.56941  -0.54953
 Alpha  occ. eigenvalues --   -0.50525  -0.45849  -0.45008  -0.38834  -0.34725
 Alpha virt. eigenvalues --    0.01943   0.03306   0.04266   0.05218   0.06796
 Alpha virt. eigenvalues --    0.08798   0.08987   0.10079   0.11668   0.12407
 Alpha virt. eigenvalues --    0.12804   0.13325   0.13532   0.14079   0.14994

 Mulliken charges:
               1
     1  N   -0.592557
     2  C    0.368684
     3  C    0.690983
     4  C    0.856106
     5  N   -0.673238
     6  C    0.738472
     7  N   -0.606754
     8  H   -0.159252
     9  H   -0.150400
    10  H   -0.208089
    11  H   -0.183590
    12  H   -0.080365
 Sum of Mulliken charges =  -0.00000

 Dipole moment (field-independent basis, Debye):
    X=             -2.3309    Y=              5.3803    Z=              0.7609  Tot=              5.9126

 Test job not archived.
 1\1\GINC-SE226\SP\RHF\Aug-CC-pVDZ\C4H5N3\OHZDE\09-Apr-2025\0\\#t hf au
 g-cc-pvdz iop(5/13=1,5/36=2,99/5=2) pseudo=read geom=check guess=(read
 ,tcheck) scf=(maxcycle=1)\\title\\0,1\N,0,0.23457766,0.20673504,1.8399
 9341\C,0,0.15357568,-0.71927119,0.7992032\C,0,0.44452906,-0.1344739,-0
 .53922771\C,0,-0.52670486,-1.29984517,-0.91955871\N,0,-0.57057271,-1.7
 3790398,0.51513167\C,0,0.17169444,1.31042815,1.17409789\N,0,0.08352824
 ,1.23119747,-0.20723069\H,0,1.44448525,-0.22041511,-0.96744756\H,0,-1.
 50995446,-0.95921767,-1.24071668\H,0,-0.13073837,-2.0374804,-1.6216054

 Normal termination of Gaussian 16 at Wed Apr  9 16:16:40 2025.
