 Gaussian 16, Revision C.01,

 ----------------------------------------------------------------------
 #t hf aug-cc-pvdz symm=none int=(grid=ultrafine) guess=(read,tcheck) s
 table=(opt,rrhf)
 ----------------------------------------------------------------------
 -----
 title
 -----
 Symbolic Z-matrix:
 Charge =  0 Multiplicity = 1

 SCF Done:  E(RHF) =  -302.840129341     A.U. after   14 cycles
 Normal termination of Gaussian 16 at Wed Apr  9 16:15:02 2025.
 Gaussian 16:  ES64L-G16RevC.01  3-Jul-2019

 ----------------------------------------------------------------------
 #t hf aug-cc-pvdz iop(5/13=1,5/36=2,99/5=2) pseudo=read geom=check gue
 ss=(read,tcheck) scf=(maxcycle=1)
 ----------------------------------------------------------------------
 -----
 title
 -----
 Structure from the checkpoint file:  "Grambow2020_wb97xd3_008035_reverse_mol2.chk"
 Charge =  0 Multiplicity = 1

                         Standard orientation:
 ---------------------------------------------------------------------
 Center     Atomic      Atomic             Coordinates (Angstroms)
 Number     Number       Type             X           Y           Z
 ---------------------------------------------------------------------
      1          6           0        1.934733    1.271146   -0.089630
      2          6           0        1.619026    0.015034   -0.360233
      3          6           0        0.889461   -0.901386    0.578534
      4          7           0       -0.204346   -1.586657   -0.089627
      5          6           0       -1.359151   -0.812779   -0.360781
      6          6           0       -1.529299    0.445707   -0.038105
      7          7           0       -1.732066    1.609254    0.291598
      8          1           0        1.644589    1.737572    0.846560
      9          1           0        2.493833    1.878877   -0.790635
     10          1           0       -1.369383    2.289689   -0.376129
     11          1           0        1.902953   -0.429919   -1.310347
     12          1           0        0.562001   -0.339297    1.466287
     13          1           0        1.583145   -1.673057    0.923919
     14          1           0       -0.452902   -2.438822    0.390773
     15          1           0       -2.137974   -1.289548   -0.942939
 ---------------------------------------------------------------------

 SCF Done:  E(RHF) =  -302.933073424     A.U. after    2 cycles

 The electronic state is 1-A.
 Alpha  occ. eigenvalues --  -15.64180 -15.63328 -11.31074 -11.27615 -11.27483
 Alpha  occ. eigenvalues --  -11.24511 -11.23550  -1.21834  -1.18978  -1.05804
 Alpha  occ. eigenvalues --   -0.98906  -0.90429  -0.77278  -0.74061  -0.69742
 Alpha  occ. eigenvalues --   -0.68451  -0.64566  -0.61240  -0.57390  -0.55217
 Alpha  occ. eigenvalues --   -0.53856  -0.50192  -0.46213  -0.43910  -0.37272
 Alpha  occ. eigenvalues --   -0.30942
 Alpha virt. eigenvalues --    0.03286   0.03734   0.04221   0.05020   0.06235
 Alpha virt. eigenvalues --    0.06682   0.07356   0.07430   0.10609   0.11231
 Alpha virt. eigenvalues --    0.12421   0.12682   0.13658   0.14483   0.15294

 Mulliken charges:
               1
     1  C    0.455743
     2  C    0.522412
     3  C    0.743150
     4  N   -0.460539
     5  C    1.046508
     6  C   -0.467311
     7  N   -0.238439
     8  H   -0.322155
     9  H   -0.305526
    10  H    0.091160
    11  H   -0.421798
    12  H   -0.250655
    13  H   -0.125613
    14  H   -0.015576
    15  H   -0.251360
 Sum of Mulliken charges =  -0.00000

 Dipole moment (field-independent basis, Debye):
    X=              0.8724    Y=             -1.0099    Z=             -0.4628  Tot=              1.4125

 Test job not archived.
 1\1\GINC-SE454\SP\RHF\Aug-CC-pVDZ\C5H8N2\OHZDE\09-Apr-2025\0\\#t hf au
 g-cc-pvdz iop(5/13=1,5/36=2,99/5=2) pseudo=read geom=check guess=(read
 ,tcheck) scf=(maxcycle=1)\\title\\0,1\C,0,1.85312971,0.24803403,-0.950
 33154\C,0,1.0835831,0.86889033,-0.07109896\C,0,-0.37898555,1.14604234,
 -0.26463508\N,0,-1.15223851,0.76451355,0.9053923\C,0,-1.35786103,-0.62
 350199,1.09805908\C,0,-0.93671477,-1.57638274,0.30338272\N,0,-0.593315
 88,-2.48428128,-0.44592242\H,0,1.44930871,-0.13978019,-1.88023336\H,0,
 2.91245171,0.10478848,-0.77525097\H,0,0.3587164,-2.81025656,-0.2792976

 Normal termination of Gaussian 16 at Wed Apr  9 16:15:30 2025.
