 Gaussian 16, Revision C.01,

 ----------------------------------------------------------------------
 #t hf aug-cc-pvdz symm=none int=(grid=ultrafine) guess=(read,tcheck) s
 table=(opt,rrhf)
 ----------------------------------------------------------------------
 -----
 title
 -----
 Symbolic Z-matrix:
 Charge =  0 Multiplicity = 1

 SCF Done:  E(RHF) =  -263.730522587     A.U. after   16 cycles
 Normal termination of Gaussian 16 at Wed Apr  9 14:15:02 2025.
 Gaussian 16:  ES64L-G16RevC.01  3-Jul-2019

 ----------------------------------------------------------------------
 #t hf aug-cc-pvdz iop(5/13=1,5/36=2,99/5=2) pseudo=read geom=check gue
 ss=(read,tcheck) scf=(maxcycle=1)
 ----------------------------------------------------------------------
 -----
 title
 -----
 Structure from the checkpoint file:  "Grambow2020_b97d3_006863_reverse_mol2.chk"
 Charge =  0 Multiplicity = 1

                         Standard orientation:
 ---------------------------------------------------------------------
 Center     Atomic      Atomic             Coordinates (Angstroms)
 Number     Number       Type             X           Y           Z
 ---------------------------------------------------------------------
      1          6           0        1.986794    0.003174   -0.338970
      2          6           0       -0.175908    1.321493    0.171382
      3          6           0       -1.384258    0.742623   -0.165955
      4          7           0       -1.273404   -0.671251   -0.138607
      5          7           0       -0.139518   -1.161145    0.186097
      6          6           0        0.653332    0.096237    0.424637
      7          1           0        2.518232   -0.922526   -0.085881
      8          1           0        1.800595    0.024778   -1.419790
      9          1           0        2.603056    0.869532   -0.075964
     10          1           0       -2.348665    1.155495   -0.457658
     11          1           0       -2.027520   -1.337149   -0.351569
     12          1           0        0.864992    0.055480    1.511864
 ---------------------------------------------------------------------

 SCF Done:  E(RHF) =  -263.804906419     A.U. after    2 cycles

 The electronic state is 1-A.
 Alpha  occ. eigenvalues --  -15.79879 -15.72775 -11.28291 -11.26342 -11.24362
 Alpha  occ. eigenvalues --  -11.21066  -1.38883  -1.08940  -1.05532  -0.95210
 Alpha  occ. eigenvalues --   -0.81672  -0.78507  -0.73016  -0.66034  -0.61933
 Alpha  occ. eigenvalues --   -0.58023  -0.54918  -0.51375  -0.49702  -0.48359
 Alpha  occ. eigenvalues --   -0.33858  -0.33796
 Alpha virt. eigenvalues --    0.02171   0.03710   0.04658   0.04851   0.05903
 Alpha virt. eigenvalues --    0.07075   0.07504   0.10406   0.11076   0.11914
 Alpha virt. eigenvalues --    0.13009   0.14333   0.14888   0.15506   0.15804

 Mulliken charges:
               1
     1  C    0.460482
     2  C   -0.465902
     3  C    0.839542
     4  N   -0.172876
     5  N   -0.409256
     6  C   -0.030752
     7  H   -0.010050
     8  H    0.011835
     9  H    0.014986
    10  H   -0.284067
    11  H    0.032012
    12  H    0.014045
 Sum of Mulliken charges =  -0.00000

 Dipole moment (field-independent basis, Debye):
    X=             -1.8159    Y=             -3.8967    Z=             -0.5988  Tot=              4.3406

 Test job not archived.
 1\1\GINC-SE131\SP\RHF\Aug-CC-pVDZ\C4H6N2\OHZDE\09-Apr-2025\0\\#t hf au
 g-cc-pvdz iop(5/13=1,5/36=2,99/5=2) pseudo=read geom=check guess=(read
 ,tcheck) scf=(maxcycle=1)\\title\\0,1\C,0,-1.65606102,0.56265839,-0.01
 415723\C,0,0.12423739,-1.13908779,0.76705929\C,0,1.29503359,-1.2342435
 2,0.03961286\N,0,1.58130346,0.00422517,-0.58992861\N,0,0.76294951,0.96
 380001,-0.38833671\C,0,-0.23646327,0.29659764,0.51860127\H,0,-1.823495
 36,1.63685856,-0.16065354\H,0,-1.79937848,0.04453209,-0.97035455\H,0,-
 2.38085379,0.16815184,0.70595857\H,0,1.98765563,-2.05340184,-0.1471756

 Normal termination of Gaussian 16 at Wed Apr  9 14:15:06 2025.
