 Gaussian 16, Revision C.01,

 ----------------------------------------------------------------------
 #t hf aug-cc-pvdz symm=none int=(grid=ultrafine) guess=(read,tcheck) s
 table=(opt,rrhf)
 ----------------------------------------------------------------------
 -----
 title
 -----
 Symbolic Z-matrix:
 Charge =  0 Multiplicity = 1

 SCF Done:  E(RHF) =  -305.465982691     A.U. after   15 cycles
 Normal termination of Gaussian 16 at Wed Apr  9 16:14:57 2025.
 Gaussian 16:  ES64L-G16RevC.01  3-Jul-2019

 ----------------------------------------------------------------------
 #t hf aug-cc-pvdz iop(5/13=1,5/36=2,99/5=2) pseudo=read geom=check gue
 ss=(read,tcheck) scf=(maxcycle=1)
 ----------------------------------------------------------------------
 -----
 title
 -----
 Structure from the checkpoint file:  "Grambow2020_wb97xd3_008021_reverse_mol2.chk"
 Charge =  0 Multiplicity = 1

                         Standard orientation:
 ---------------------------------------------------------------------
 Center     Atomic      Atomic             Coordinates (Angstroms)
 Number     Number       Type             X           Y           Z
 ---------------------------------------------------------------------
      1          8           0       -2.754316    1.020652    0.069351
      2          6           0       -2.125743   -0.139438   -0.433465
      3          6           0        1.434198   -0.906393   -0.187276
      4          6           0        2.401336    0.137357   -0.060942
      5          6           0        3.232603    0.995715    0.031926
      6          6           0        0.183791   -0.774556    0.174907
      7          6           0       -1.064618   -0.650838    0.507117
      8          1           0       -2.086370    1.701172    0.177538
      9          1           0       -1.690256    0.030448   -1.423830
     10          1           0       -2.917497   -0.883692   -0.537141
     11          1           0        1.768870   -1.851830   -0.603922
     12          1           0        3.967534    1.760458    0.119430
     13          1           0       -1.377153   -0.892848    1.519510
 ---------------------------------------------------------------------

 SCF Done:  E(RHF) =  -305.563547277     A.U. after    2 cycles

 The electronic state is 1-A.
 Alpha  occ. eigenvalues --  -20.58211 -11.30662 -11.28836 -11.28364 -11.26665
 Alpha  occ. eigenvalues --  -11.25913 -11.24587  -1.33650  -1.11403  -1.05143
 Alpha  occ. eigenvalues --   -0.99181  -0.90656  -0.77711  -0.72191  -0.71698
 Alpha  occ. eigenvalues --   -0.67948  -0.66181  -0.63052  -0.60924  -0.53206
 Alpha  occ. eigenvalues --   -0.48936  -0.46819  -0.40870  -0.39803  -0.35217
 Alpha virt. eigenvalues --    0.03271   0.03779   0.04358   0.04979   0.05583
 Alpha virt. eigenvalues --    0.07082   0.09181   0.09472   0.10474   0.10925
 Alpha virt. eigenvalues --    0.11366   0.11841   0.12695   0.13326   0.13592

 Mulliken charges:
               1
     1  O   -0.544506
     2  C    0.764528
     3  C    0.977503
     4  C   -0.859683
     5  C    1.204459
     6  C   -0.905076
     7  C    0.666273
     8  H    0.158586
     9  H   -0.173402
    10  H   -0.102431
    11  H   -0.354952
    12  H   -0.523116
    13  H   -0.308182
 Sum of Mulliken charges =   0.00000

 Dipole moment (field-independent basis, Debye):
    X=              0.9028    Y=             -0.4108    Z=             -0.3119  Tot=              1.0398

 Test job not archived.
 1\1\GINC-SE168\SP\RHF\Aug-CC-pVDZ\C6H6O1\OHZDE\09-Apr-2025\0\\#t hf au
 g-cc-pvdz iop(5/13=1,5/36=2,99/5=2) pseudo=read geom=check guess=(read
 ,tcheck) scf=(maxcycle=1)\\title\\0,1\O,0,2.18149051,0.3985151,2.03877
 235\C,0,1.86832207,0.77489313,0.71438514\C,0,-1.21300014,-0.05030802,-
 1.05945348\C,0,-1.97657637,-1.20400451,-0.70355211\C,0,-2.62703891,-2.
 1735025,-0.43266367\C,0,-0.40502868,0.55988598,-0.23064758\C,0,0.41816
 154,1.1610648,0.57255701\H,0,1.63839784,-0.35737626,2.27253107\H,0,2.1
 1109071,-0.01708463,-0.00197278\H,0,2.50311068,1.63492332,0.49318415\H

 Normal termination of Gaussian 16 at Wed Apr  9 16:15:29 2025.
