 Gaussian 16, Revision C.01,

 ----------------------------------------------------------------------
 #t hf aug-cc-pvdz symm=none int=(grid=ultrafine) guess=(read,tcheck) s
 table=(opt,rrhf)
 ----------------------------------------------------------------------
 -----
 title
 -----
 Symbolic Z-matrix:
 Charge =  0 Multiplicity = 1

 SCF Done:  E(RHF) =  -269.572552383     A.U. after   13 cycles
 Normal termination of Gaussian 16 at Wed Apr  9 16:22:04 2025.
 Gaussian 16:  ES64L-G16RevC.01  3-Jul-2019

 ----------------------------------------------------------------------
 #t hf aug-cc-pvdz iop(5/13=1,5/36=2,99/5=2) pseudo=read geom=check gue
 ss=(read,tcheck) scf=(maxcycle=1)
 ----------------------------------------------------------------------
 -----
 title
 -----
 Structure from the checkpoint file:  "Grambow2020_wb97xd3_008143_forward_mol2.chk"
 Charge =  0 Multiplicity = 1

                         Standard orientation:
 ---------------------------------------------------------------------
 Center     Atomic      Atomic             Coordinates (Angstroms)
 Number     Number       Type             X           Y           Z
 ---------------------------------------------------------------------
      1          6           0        2.184985    0.271971   -0.000090
      2          6           0        0.708070    0.087807   -0.000311
      3          6           0       -0.463110    1.109736   -0.000424
      4          6           0       -1.324433    0.123987    0.755522
      5          6           0       -1.325045    0.123928   -0.755345
      6          6           0       -0.158395   -0.892716   -0.758343
      7          6           0       -0.158140   -0.892134    0.758734
      8          1           0        2.689056   -0.697234    0.003479
      9          1           0        2.515561    0.819127   -0.886437
     10          1           0        2.514767    0.825383    0.882692
     11          1           0       -0.490727    2.190087   -0.000289
     12          1           0       -2.135886    0.311895    1.443109
     13          1           0       -2.137474    0.309623   -1.442319
     14          1           0        0.130897   -1.677682   -1.442413
     15          1           0        0.130219   -1.676678    1.443713
 ---------------------------------------------------------------------

 SCF Done:  E(RHF) =  -269.652513649     A.U. after    2 cycles

 The electronic state is 1-A.
 Alpha  occ. eigenvalues --  -11.24107 -11.23712 -11.23658 -11.23421 -11.23385
 Alpha  occ. eigenvalues --  -11.23341 -11.22820  -1.25992  -1.02085  -0.95687
 Alpha  occ. eigenvalues --   -0.87150  -0.84350  -0.71632  -0.71176  -0.67399
 Alpha  occ. eigenvalues --   -0.60781  -0.58124  -0.57848  -0.53920  -0.53619
 Alpha  occ. eigenvalues --   -0.53605  -0.41150  -0.40890  -0.34194  -0.33720
 Alpha virt. eigenvalues --    0.03484   0.04007   0.04415   0.04474   0.06017
 Alpha virt. eigenvalues --    0.06092   0.07001   0.07220   0.10270   0.11968
 Alpha virt. eigenvalues --    0.12287   0.12683   0.13414   0.13547   0.14280

 Mulliken charges:
               1
     1  C    0.461566
     2  C   -0.469817
     3  C    0.455218
     4  C    0.455911
     5  C    0.455924
     6  C    0.379545
     7  C    0.380443
     8  H    0.017492
     9  H    0.040357
    10  H    0.040058
    11  H   -0.435688
    12  H   -0.395787
    13  H   -0.396099
    14  H   -0.494539
    15  H   -0.494584
 Sum of Mulliken charges =  -0.00000

 Dipole moment (field-independent basis, Debye):
    X=              0.2062    Y=              0.0592    Z=              0.0010  Tot=              0.2145

 Test job not archived.
 1\1\GINC-SE042\SP\RHF\Aug-CC-pVDZ\C7H8\OHZDE\09-Apr-2025\0\\#t hf aug-
 cc-pvdz iop(5/13=1,5/36=2,99/5=2) pseudo=read geom=check guess=(read,t
 check) scf=(maxcycle=1)\\title\\0,1\C,0,2.02162394,-0.01317376,0.01820
 906\C,0,0.53336222,-0.00306,0.00524486\C,0,-0.50802043,-1.13196966,-0.
 23368059\C,0,-1.47275291,-0.12114766,-0.81036455\C,0,-1.4885267,-0.420
 72821,0.6704202\C,0,-0.45104461,0.70190177,0.91120975\C,0,-0.43550054,
 1.00216343,-0.57577526\H,0,2.40695962,0.98871085,0.22119603\H,0,2.4059
 6936,-0.68368211,0.79084638\H,0,2.42367391,-0.33908809,-0.94431868\H,0

 Normal termination of Gaussian 16 at Wed Apr  9 16:22:10 2025.
