 Gaussian 16, Revision C.01,

 ----------------------------------------------------------------------
 #t hf aug-cc-pvdz symm=none int=(grid=ultrafine) guess=(read,tcheck) s
 table=(opt,rrhf)
 ----------------------------------------------------------------------
 -----
 title
 -----
 Symbolic Z-matrix:
 Charge =  0 Multiplicity = 1

 SCF Done:  E(RHF) =  -353.528297714     A.U. after   16 cycles
 Normal termination of Gaussian 16 at Wed Apr  9 14:26:14 2025.
 Gaussian 16:  ES64L-G16RevC.01  3-Jul-2019

 ----------------------------------------------------------------------
 #t hf aug-cc-pvdz iop(5/13=1,5/36=2,99/5=2) pseudo=read geom=check gue
 ss=(read,tcheck) scf=(maxcycle=1)
 ----------------------------------------------------------------------
 -----
 title
 -----
 Structure from the checkpoint file:  "Grambow2020_wb97xd3_006535_reverse_mol2.chk"
 Charge =  0 Multiplicity = 1

                         Standard orientation:
 ---------------------------------------------------------------------
 Center     Atomic      Atomic             Coordinates (Angstroms)
 Number     Number       Type             X           Y           Z
 ---------------------------------------------------------------------
      1          8           0        2.234344   -0.027436    0.059323
      2          6           0        1.034426    0.014215   -0.008575
      3          7           0        0.305320   -1.194136   -0.056793
      4          7           0       -0.976977   -1.085018   -0.003374
      5          6           0       -1.702184    0.017832    0.053618
      6          6           0       -0.960368    1.212103   -0.000859
      7          7           0        0.329713    1.228316   -0.055513
      8          1           0       -1.452523   -1.981608   -0.017112
      9          1           0       -2.775020   -0.072643    0.103445
     10          1           0       -1.484850    2.164711   -0.016250
 ---------------------------------------------------------------------

 SCF Done:  E(RHF) =  -353.632104720     A.U. after    2 cycles

 The electronic state is 1-A.
 Alpha  occ. eigenvalues --  -20.52145 -15.82637 -15.69581 -15.65924 -11.38303
 Alpha  occ. eigenvalues --  -11.34078 -11.33551  -1.41663  -1.33972  -1.22908
 Alpha  occ. eigenvalues --   -1.13842  -0.98329  -0.92392  -0.81280  -0.78000
 Alpha  occ. eigenvalues --   -0.70069  -0.67498  -0.67311  -0.61854  -0.55256
 Alpha  occ. eigenvalues --   -0.52590  -0.48129  -0.46547  -0.41903  -0.34352
 Alpha virt. eigenvalues --    0.00747   0.02629   0.02815   0.04798   0.07820
 Alpha virt. eigenvalues --    0.09373   0.09645   0.09821   0.10956   0.12446
 Alpha virt. eigenvalues --    0.12911   0.13517   0.14178   0.14357   0.15683

 Mulliken charges:
               1
     1  O   -0.466899
     2  C    0.673251
     3  N   -0.373310
     4  N   -0.076146
     5  C    0.713353
     6  C    0.501355
     7  N   -0.476289
     8  H    0.070158
     9  H   -0.316113
    10  H   -0.249360
 Sum of Mulliken charges =  -0.00000

 Dipole moment (field-independent basis, Debye):
    X=             -9.2045    Y=             -1.3502    Z=              0.0437  Tot=              9.3031

 Test job not archived.
 1\1\GINC-SE174\SP\RHF\Aug-CC-pVDZ\C3H3N3O1\OHZDE\09-Apr-2025\0\\#t hf
 aug-cc-pvdz iop(5/13=1,5/36=2,99/5=2) pseudo=read geom=check guess=(re
 ad,tcheck) scf=(maxcycle=1)\\title\\0,1\O,0,2.2550052,-1.5804098,0.151
 92672\C,0,1.26012014,-0.90522077,0.13024819\N,0,1.38009656,0.49992444,
 0.20239045\N,0,0.29099627,1.17044783,0.04972352\C,0,-0.93438038,0.7102
 2103,-0.12942707\C,0,-1.04570659,-0.69196745,-0.09753813\N,0,-0.024143
 37,-1.46818087,0.04895656\H,0,0.43470242,2.17455648,0.08603862\H,0,-1.
 73823919,1.41785438,-0.25071656\H,0,-2.02845807,-1.15031126,-0.1806062

 Normal termination of Gaussian 16 at Wed Apr  9 14:26:17 2025.
