 Gaussian 16, Revision C.01,

 ----------------------------------------------------------------------
 #t hf aug-cc-pvdz symm=none int=(grid=ultrafine) guess=(read,tcheck) s
 table=(opt,rrhf)
 ----------------------------------------------------------------------
 -----
 title
 -----
 Symbolic Z-matrix:
 Charge =  0 Multiplicity = 1

 SCF Done:  E(RHF) =  -269.876071712     A.U. after   17 cycles

 1\1\GINC-SE366\Stability\RHF\Aug-CC-pVDZ\C5H10O1\OHZDE\09-Apr-2025\0\\
 #t hf aug-cc-pvdz symm=none int=(grid=ultrafine) guess=(read,tcheck) s
 table=(opt,rrhf)\\title\\0,1\C,0,2.4913157,-0.06329758,0.76685248\C,0,
 1.00686578,0.10098863,-1.25170826\C,0,0.05967947,0.26102651,-0.2259354
 2\O,0,0.4179424,0.51969173,0.96829947\C,0,-1.43919748,0.19437598,-0.51
 733214\C,0,-2.27112128,-0.39156002,0.63113552\H,0,3.25976317,0.0319156
 5,0.00412861\H,0,2.55462758,0.64485813,1.58660567\H,0,2.18975382,-1.07
 640202,1.01065364\H,0,0.74354184,-0.3481173,-2.212134\H,0,1.76278143,0

 Normal termination of Gaussian 16 at Wed Apr  9 03:10:01 2025.
 Gaussian 16:  ES64L-G16RevC.01  3-Jul-2019

 ----------------------------------------------------------------------
 #t hf aug-cc-pvdz iop(5/13=1,5/36=2,99/5=2) pseudo=read geom=check gue
 ss=(read,tcheck) scf=(maxcycle=1)
 ----------------------------------------------------------------------
 -----
 title
 -----
 Structure from the checkpoint file:  "Grambow2020_b97d3_006747_forward_mol1.chk"
 Charge =  0 Multiplicity = 1

                         Standard orientation:
 ---------------------------------------------------------------------
 Center     Atomic      Atomic             Coordinates (Angstroms)
 Number     Number       Type             X           Y           Z
 ---------------------------------------------------------------------
      1          6           0       -2.449311   -0.643866    0.258634
      2          6           0       -0.929025    1.349811    0.120238
      3          6           0       -0.018103    0.315888   -0.155822
      4          8           0       -0.419875   -0.853454   -0.460252
      5          6           0        1.488675    0.571890   -0.164055
      6          6           0        2.326113   -0.625916    0.303228
      7          1           0       -3.203439    0.138820    0.254353
      8          1           0       -2.574519   -1.419141   -0.490205
      9          1           0       -2.093820   -0.952904    1.235814
     10          1           0       -0.616277    2.276572    0.606815
     11          1           0       -1.728961    1.460380   -0.612144
     12          1           0        1.695662    1.462444    0.446293
     13          1           0        1.764251    0.841184   -1.197137
     14          1           0        2.109906   -1.504823   -0.315698
     15          1           0        3.399131   -0.399503    0.233725
     16          1           0        2.096968   -0.882246    1.346854
 ---------------------------------------------------------------------

 SCF Done:  E(RHF) =  -269.961424285     A.U. after    2 cycles

 The electronic state is 1-A.
 Alpha  occ. eigenvalues --  -20.53653 -11.36024 -11.31171 -11.23222 -11.21655
 Alpha  occ. eigenvalues --  -11.19643  -1.30368  -1.02875  -0.97386  -0.94976
 Alpha  occ. eigenvalues --   -0.84335  -0.71153  -0.65773  -0.63868  -0.63246
 Alpha  occ. eigenvalues --   -0.60873  -0.57703  -0.54769  -0.53980  -0.49897
 Alpha  occ. eigenvalues --   -0.48296  -0.47777  -0.40761  -0.28967
 Alpha virt. eigenvalues --    0.01538   0.04099   0.04649   0.05158   0.05471
 Alpha virt. eigenvalues --    0.06252   0.06617   0.07020   0.07369   0.08701
 Alpha virt. eigenvalues --    0.09532   0.11979   0.12442   0.14053   0.14535

 Mulliken charges:
               1
     1  C    0.575905
     2  C    0.507739
     3  C    0.024182
     4  O   -0.722781
     5  C   -0.097132
     6  C    0.387587
     7  H   -0.079251
     8  H   -0.017779
     9  H    0.012221
    10  H   -0.356587
    11  H   -0.130338
    12  H   -0.038359
    13  H    0.082907
    14  H   -0.024726
    15  H   -0.058165
    16  H   -0.065422
 Sum of Mulliken charges =  -0.00000

 Dipole moment (field-independent basis, Debye):
    X=             -2.3801    Y=              0.1727    Z=              0.8717  Tot=              2.5406

 Test job not archived.
 1\1\GINC-SE366\SP\RHF\Aug-CC-pVDZ\C5H10O1\OHZDE\09-Apr-2025\0\\#t hf a
 ug-cc-pvdz iop(5/13=1,5/36=2,99/5=2) pseudo=read geom=check guess=(rea
 d,tcheck) scf=(maxcycle=1)\\title\\0,1\C,0,2.4913157,-0.06329758,0.766
 85248\C,0,1.00686578,0.10098863,-1.25170826\C,0,0.05967947,0.26102651,
 -0.22593542\O,0,0.4179424,0.51969173,0.96829947\C,0,-1.43919748,0.1943
 7598,-0.51733214\C,0,-2.27112128,-0.39156002,0.63113552\H,0,3.25976317
 ,0.03191565,0.00412861\H,0,2.55462758,0.64485813,1.58660567\H,0,2.1897
 5382,-1.07640202,1.01065364\H,0,0.74354184,-0.3481173,-2.212134\H,0,1.

 Normal termination of Gaussian 16 at Wed Apr  9 03:10:05 2025.
