 Gaussian 16, Revision C.01,

 ----------------------------------------------------------------------
 #t hf aug-cc-pvdz symm=none int=(grid=ultrafine) guess=(read,tcheck) s
 table=(opt,rrhf)
 ----------------------------------------------------------------------
 -----
 title
 -----
 Symbolic Z-matrix:
 Charge =  0 Multiplicity = 1

 SCF Done:  E(RHF) =  -339.784418850     A.U. after   15 cycles
 Normal termination of Gaussian 16 at Wed Apr  9 14:27:46 2025.
 Gaussian 16:  ES64L-G16RevC.01  3-Jul-2019

 ----------------------------------------------------------------------
 #t hf aug-cc-pvdz iop(5/13=1,5/36=2,99/5=2) pseudo=read geom=check gue
 ss=(read,tcheck) scf=(maxcycle=1)
 ----------------------------------------------------------------------
 -----
 title
 -----
 Structure from the checkpoint file:  "Grambow2020_wb97xd3_006542_reverse_mol1.chk"
 Charge =  0 Multiplicity = 1

                         Standard orientation:
 ---------------------------------------------------------------------
 Center     Atomic      Atomic             Coordinates (Angstroms)
 Number     Number       Type             X           Y           Z
 ---------------------------------------------------------------------
      1          6           0        1.451312   -1.697937   -0.374930
      2          7           0        0.609234   -1.069290    0.631400
      3          6           0       -0.053807    0.130813    0.187993
      4          6           0       -1.400811    0.342197    0.677394
      5          8           0       -2.220601   -0.184687   -0.667686
      6          6           0        0.751115    1.291148   -0.057778
      7          7           0        1.433219    2.194032   -0.281365
      8          1           0        2.219627   -1.030007   -0.786405
      9          1           0        1.947767   -2.565912    0.061880
     10          1           0        0.830465   -2.044314   -1.204377
     11          1           0        1.162755   -0.891263    1.460819
     12          1           0       -1.116513   -0.221739   -0.931105
     13          1           0       -1.759376    1.362052    0.755406
     14          1           0       -1.757143   -0.317656    1.463281
     15          1           0       -2.546800   -1.084180   -0.524341
 ---------------------------------------------------------------------

 SCF Done:  E(RHF) =  -339.888373716     A.U. after    2 cycles

 The electronic state is 1-A.
 Alpha  occ. eigenvalues --  -20.65764 -15.62451 -15.60544 -11.35259 -11.26277
 Alpha  occ. eigenvalues --  -11.26189 -11.25796  -1.39414  -1.19816  -1.15753
 Alpha  occ. eigenvalues --   -1.04938  -0.91424  -0.86237  -0.80428  -0.74495
 Alpha  occ. eigenvalues --   -0.67628  -0.64192  -0.63205  -0.61075  -0.59377
 Alpha  occ. eigenvalues --   -0.55800  -0.52806  -0.51925  -0.48338  -0.44404
 Alpha  occ. eigenvalues --   -0.38735  -0.32836
 Alpha virt. eigenvalues --    0.02005   0.03587   0.03887   0.05067   0.06451
 Alpha virt. eigenvalues --    0.06805   0.07438   0.08391   0.10350   0.10956
 Alpha virt. eigenvalues --    0.11793   0.12193   0.13634   0.14082   0.14931

 Mulliken charges:
               1
     1  C    0.770717
     2  N   -0.709164
     3  C    0.531281
     4  C    0.791048
     5  O   -0.598269
     6  C   -0.491542
     7  N   -0.248816
     8  H   -0.087384
     9  H   -0.188235
    10  H   -0.154983
    11  H   -0.031538
    12  H    0.610391
    13  H   -0.277644
    14  H   -0.154473
    15  H    0.238611
 Sum of Mulliken charges =  -0.00000

 Dipole moment (field-independent basis, Debye):
    X=             -4.0242    Y=             -4.3134    Z=              1.6723  Tot=              6.1315

 Test job not archived.
 1\1\GINC-SE097\SP\RHF\Aug-CC-pVDZ\C4H8N2O1\OHZDE\09-Apr-2025\0\\#t hf
 aug-cc-pvdz iop(5/13=1,5/36=2,99/5=2) pseudo=read geom=check guess=(re
 ad,tcheck) scf=(maxcycle=1)\\title\\0,1\C,0,-1.73781422,0.6020834,0.88
 817755\N,0,-0.55138665,-0.23205079,1.00481134\C,0,0.16724743,-0.421405
 19,-0.22976989\C,0,1.61225113,-0.46249854,-0.13547644\O,0,1.91906497,1
 .1001049,-0.60774626\C,0,-0.45225707,-1.21104763,-1.25317464\N,0,-0.99
 591398,-1.8203437,-2.06782262\H,0,-2.45706889,0.24312242,0.14013276\H,
 0,-2.24137906,0.6493855,1.85504614\H,0,-1.44361233,1.61649759,0.609214

 Normal termination of Gaussian 16 at Wed Apr  9 14:27:51 2025.
