 Gaussian 16, Revision C.01,

 ----------------------------------------------------------------------
 #t hf aug-cc-pvdz symm=none int=(grid=ultrafine) guess=(read,tcheck) s
 table=(opt,rrhf)
 ----------------------------------------------------------------------
 -----
 title
 -----
 Symbolic Z-matrix:
 Charge =  0 Multiplicity = 1

 SCF Done:  E(RHF) =  -358.499561198     A.U. after   16 cycles
 Normal termination of Gaussian 16 at Wed Apr  9 17:07:15 2025.
 Gaussian 16:  ES64L-G16RevC.01  3-Jul-2019

 ----------------------------------------------------------------------
 #t hf aug-cc-pvdz iop(5/13=1,5/36=2,99/5=2) pseudo=read geom=check gue
 ss=(read,tcheck) scf=(maxcycle=1)
 ----------------------------------------------------------------------
 -----
 title
 -----
 Structure from the checkpoint file:  "Grambow2020_wb97xd3_009149_forward_mol1.chk"
 Charge =  0 Multiplicity = 1

                         Standard orientation:
 ---------------------------------------------------------------------
 Center     Atomic      Atomic             Coordinates (Angstroms)
 Number     Number       Type             X           Y           Z
 ---------------------------------------------------------------------
      1          6           0        2.179270   -0.625125   -0.324100
      2          6           0        0.883179   -0.004374    0.059876
      3          6           0        0.417373    1.293418   -0.120326
      4          8           0       -0.737243    1.656463    0.183136
      5          6           0       -1.115009   -0.671342    0.055781
      6          8           0       -2.027488   -0.783204   -0.620731
      7          7           0       -0.086219   -0.832640    0.793251
      8          1           0        2.762821   -0.957046    0.541690
      9          1           0        2.060227   -1.484184   -0.990812
     10          1           0        2.775191    0.118429   -0.856475
     11          1           0        1.123490    2.005457   -0.579487
     12          1           0       -0.189217   -0.795711    1.805702
 ---------------------------------------------------------------------

 SCF Done:  E(RHF) =  -358.611075341     A.U. after    2 cycles

 The electronic state is 1-A.
 Alpha  occ. eigenvalues --  -20.70450 -20.50727 -15.74150 -11.50518 -11.30598
 Alpha  occ. eigenvalues --  -11.25358 -11.24372  -1.51465  -1.33780  -1.28171
 Alpha  occ. eigenvalues --   -1.03670  -0.91054  -0.87482  -0.80939  -0.79430
 Alpha  occ. eigenvalues --   -0.73700  -0.68191  -0.65050  -0.63103  -0.58480
 Alpha  occ. eigenvalues --   -0.56266  -0.55023  -0.52151  -0.50320  -0.41325
 Alpha  occ. eigenvalues --   -0.30605
 Alpha virt. eigenvalues --    0.02297   0.03790   0.04796   0.05185   0.07218
 Alpha virt. eigenvalues --    0.07977   0.09142   0.09542   0.10315   0.11819
 Alpha virt. eigenvalues --    0.12897   0.13117   0.13506   0.14660   0.15748

 Mulliken charges:
               1
     1  C    0.332332
     2  C   -0.232077
     3  C    0.913405
     4  O   -0.715336
     5  C    0.095673
     6  O   -0.063275
     7  N   -0.185058
     8  H   -0.011498
     9  H    0.007946
    10  H   -0.031645
    11  H   -0.206105
    12  H    0.095638
 Sum of Mulliken charges =  -0.00000

 Dipole moment (field-independent basis, Debye):
    X=              2.1260    Y=             -3.8951    Z=              1.7876  Tot=              4.7841

 Test job not archived.
 1\1\GINC-SE174\SP\RHF\Aug-CC-pVDZ\C4H5N1O2\OHZDE\09-Apr-2025\0\\#t hf
 aug-cc-pvdz iop(5/13=1,5/36=2,99/5=2) pseudo=read geom=check guess=(re
 ad,tcheck) scf=(maxcycle=1)\\title\\0,1\C,0,-1.53822169,-0.34005844,-0
 .41656464\C,0,-0.13016426,0.07734604,-0.18041171\C,0,0.42309082,1.3461
 2163,-0.04688933\O,0,1.62250284,1.54575365,0.23344464\C,0,1.44011277,-
 0.6798742,1.00215682\O,0,1.86216851,-0.65883301,2.0624523\N,0,0.897394
 45,-0.97309446,-0.11487796\H,0,-1.67171195,-0.85794168,-1.37274065\H,0
 ,-1.92737472,-0.99342788,0.36977428\H,0,-2.16556879,0.5529525,-0.43617

 Normal termination of Gaussian 16 at Wed Apr  9 17:07:20 2025.
