 Gaussian 16, Revision C.01,

 ----------------------------------------------------------------------
 #t hf aug-cc-pvdz symm=none int=(grid=ultrafine) guess=(read,tcheck) s
 table=(opt,rrhf)
 ----------------------------------------------------------------------
 -----
 title
 -----
 Symbolic Z-matrix:
 Charge =  0 Multiplicity = 1

 SCF Done:  E(RHF) =  -305.653659599     A.U. after   16 cycles
 Normal termination of Gaussian 16 at Wed Apr  9 03:03:50 2025.
 Gaussian 16:  ES64L-G16RevC.01  3-Jul-2019

 ----------------------------------------------------------------------
 #t hf aug-cc-pvdz iop(5/13=1,5/36=2,99/5=2) pseudo=read geom=check gue
 ss=(read,tcheck) scf=(maxcycle=1)
 ----------------------------------------------------------------------
 -----
 title
 -----
 Structure from the checkpoint file:  "Grambow2020_b97d3_006512_reverse_mol1.chk"
 Charge =  0 Multiplicity = 1

                         Standard orientation:
 ---------------------------------------------------------------------
 Center     Atomic      Atomic             Coordinates (Angstroms)
 Number     Number       Type             X           Y           Z
 ---------------------------------------------------------------------
      1          8           0       -2.127584   -0.618639   -0.171714
      2          6           0       -0.842300    1.134905   -0.078500
      3          6           0        0.527197    0.869118    0.375188
      4          6           0        0.261788   -0.559154    0.881633
      5          6           0        1.263220   -0.964301   -0.190969
      6          8           0        1.387260    0.406473   -0.689603
      7          1           0       -2.015006   -0.996073   -1.071042
      8          1           0       -1.067607    1.245539   -1.136499
      9          1           0       -1.566127    1.538957    0.626867
     10          1           0        0.975569    1.651133    1.014393
     11          1           0        0.373367   -0.769333    1.947166
     12          1           0       -1.176792   -0.872248    0.373371
     13          1           0        0.913155   -1.644420   -0.987399
     14          1           0        2.226597   -1.339634    0.199572
 ---------------------------------------------------------------------

 SCF Done:  E(RHF) =  -305.747246928     A.U. after    2 cycles

 The electronic state is 1-A.
 Alpha  occ. eigenvalues --  -20.57329 -20.54455 -11.37929 -11.31737 -11.28694
 Alpha  occ. eigenvalues --  -11.19514  -1.34584  -1.25734  -1.06567  -0.96496
 Alpha  occ. eigenvalues --   -0.87758  -0.74981  -0.71153  -0.69252  -0.65742
 Alpha  occ. eigenvalues --   -0.64748  -0.59547  -0.57769  -0.56638  -0.50568
 Alpha  occ. eigenvalues --   -0.48145  -0.46165  -0.43803  -0.30163
 Alpha virt. eigenvalues --    0.02513   0.03668   0.04286   0.05051   0.05599
 Alpha virt. eigenvalues --    0.06203   0.06975   0.08014   0.09268   0.10317
 Alpha virt. eigenvalues --    0.12343   0.12967   0.14093   0.14192   0.14866

 Mulliken charges:
               1
     1  O   -0.628529
     2  C    0.620229
     3  C    0.921822
     4  C   -0.338749
     5  C    0.926813
     6  O   -0.858507
     7  H    0.155349
     8  H   -0.188399
     9  H   -0.149112
    10  H   -0.202232
    11  H   -0.356622
    12  H    0.548240
    13  H   -0.242775
    14  H   -0.207527
 Sum of Mulliken charges =  -0.00000

 Dipole moment (field-independent basis, Debye):
    X=             -0.0461    Y=              2.2106    Z=             -0.0776  Tot=              2.2124

 Test job not archived.
 1\1\GINC-SE455\SP\RHF\Aug-CC-pVDZ\C4H8O2\OHZDE\09-Apr-2025\0\\#t hf au
 g-cc-pvdz iop(5/13=1,5/36=2,99/5=2) pseudo=read geom=check guess=(read
 ,tcheck) scf=(maxcycle=1)\\title\\0,1\O,0,-1.52105194,0.5504107,-1.424
 09355\C,0,-1.18547422,-0.77549937,0.26851098\C,0,0.21262249,-0.8777341
 8,0.70079656\C,0,0.82039789,-0.1882846,-0.53296048\C,0,1.29629234,0.85
 32091,0.47018485\O,0,0.60389136,0.19867382,1.58158285\H,0,-1.68185407,
 1.44297865,-1.04807883\H,0,-1.88663987,-0.13319817,0.79593902\H,0,-1.6
 0686848,-1.56131235,-0.35570916\H,0,0.53306449,-1.88017358,1.03784487\

 Normal termination of Gaussian 16 at Wed Apr  9 03:03:54 2025.
