 Gaussian 16, Revision C.01,

 ----------------------------------------------------------------------
 #t hf aug-cc-pvdz symm=none int=(grid=ultrafine) guess=(read,tcheck) s
 table=(opt,rrhf)
 ----------------------------------------------------------------------
 -----
 title
 -----
 Symbolic Z-matrix:
 Charge =  0 Multiplicity = 1

 SCF Done:  E(RHF) =  -309.057313148     A.U. after   12 cycles

 1\1\GINC-SE232\Stability\RHF\Aug-CC-pVDZ\C6H12O1\OHZDE\09-Apr-2025\0\\
 #t hf aug-cc-pvdz symm=none int=(grid=ultrafine) guess=(read,tcheck) s
 table=(opt,rrhf)\\title\\0,1\C,0,-1.86558554,-1.03476955,-0.5094614\C,
 0,-0.78327356,-0.02854809,-0.128207\C,0,-1.34830389,1.13550163,0.68106
 843\C,0,0.30264758,-0.71783953,0.65892484\O,0,1.21579608,-1.54599091,-
 0.04732201\C,0,1.72596267,-0.38456931,0.59856315\C,0,2.31776625,0.6879
 7595,-0.26859263\H,0,-2.64216173,-0.56439323,-1.11592515\H,0,-1.441913
 44,-1.86394489,-1.07818255\H,0,-2.34369673,-1.44756321,0.38362033\H,0,

 Normal termination of Gaussian 16 at Wed Apr  9 16:01:21 2025.
 Gaussian 16:  ES64L-G16RevC.01  3-Jul-2019

 ----------------------------------------------------------------------
 #t hf aug-cc-pvdz iop(5/13=1,5/36=2,99/5=2) pseudo=read geom=check gue
 ss=(read,tcheck) scf=(maxcycle=1)
 ----------------------------------------------------------------------
 -----
 title
 -----
 Structure from the checkpoint file:  "Grambow2020_wb97xd3_007691_forward_mol2.chk"
 Charge =  0 Multiplicity = 1

                         Standard orientation:
 ---------------------------------------------------------------------
 Center     Atomic      Atomic             Coordinates (Angstroms)
 Number     Number       Type             X           Y           Z
 ---------------------------------------------------------------------
      1          6           0       -2.073687   -0.877113   -0.439992
      2          6           0       -0.970373    0.162782   -0.265200
      3          6           0       -1.500966    1.458721    0.341605
      4          6           0        0.127267   -0.396181    0.604669
      5          8           0        1.012374   -1.348989    0.032654
      6          6           0        1.552341   -0.101146    0.454153
      7          6           0        2.134162    0.794605   -0.600199
      8          1           0       -2.860019   -0.507171   -1.101011
      9          1           0       -1.674355   -1.799224   -0.865101
     10          1           0       -2.533543   -1.120556    0.522220
     11          1           0       -0.549904    0.379569   -1.250409
     12          1           0       -1.898721    1.284240    1.345413
     13          1           0       -2.308454    1.872608   -0.265324
     14          1           0       -0.715290    2.213211    0.419379
     15          1           0       -0.211965   -0.669395    1.606541
     16          1           0        2.160909   -0.183768    1.354325
     17          1           0        1.501405    0.843997   -1.484856
     18          1           0        3.113960    0.423302   -0.906170
     19          1           0        2.264511    1.805079   -0.206443
 ---------------------------------------------------------------------

 SCF Done:  E(RHF) =  -309.156784305     A.U. after    2 cycles

 The electronic state is 1-A.
 Alpha  occ. eigenvalues --  -20.57387 -11.29150 -11.28640 -11.23927 -11.23315
 Alpha  occ. eigenvalues --  -11.22860 -11.22204  -1.37477  -1.07574  -1.00540
 Alpha  occ. eigenvalues --   -0.93129  -0.90173  -0.83381  -0.76601  -0.70182
 Alpha  occ. eigenvalues --   -0.65057  -0.61785  -0.58994  -0.58146  -0.56458
 Alpha  occ. eigenvalues --   -0.55371  -0.54166  -0.52062  -0.49660  -0.48624
 Alpha  occ. eigenvalues --   -0.47314  -0.44666  -0.42219
 Alpha virt. eigenvalues --    0.03428   0.04148   0.04380   0.04877   0.05960
 Alpha virt. eigenvalues --    0.06303   0.06467   0.07421   0.07573   0.08756
 Alpha virt. eigenvalues --    0.09173   0.09739   0.12430   0.13137   0.14316

 Mulliken charges:
               1
     1  C    0.798398
     2  C   -1.346913
     3  C    0.735515
     4  C    0.976683
     5  O   -0.784099
     6  C    0.067028
     7  C    0.361747
     8  H   -0.061932
     9  H   -0.028944
    10  H    0.001903
    11  H    0.005016
    12  H    0.019499
    13  H   -0.065937
    14  H   -0.093620
    15  H   -0.358189
    16  H   -0.290498
    17  H   -0.048315
    18  H    0.042154
    19  H    0.070503
 Sum of Mulliken charges =  -0.00000

 Dipole moment (field-independent basis, Debye):
    X=             -0.3670    Y=              2.2224    Z=              0.5784  Tot=              2.3256

 Test job not archived.
 1\1\GINC-SE232\SP\RHF\Aug-CC-pVDZ\C6H12O1\OHZDE\09-Apr-2025\0\\#t hf a
 ug-cc-pvdz iop(5/13=1,5/36=2,99/5=2) pseudo=read geom=check guess=(rea
 d,tcheck) scf=(maxcycle=1)\\title\\0,1\C,0,-1.86558554,-1.03476955,-0.
 5094614\C,0,-0.78327356,-0.02854809,-0.128207\C,0,-1.34830389,1.135501
 63,0.68106843\C,0,0.30264758,-0.71783953,0.65892484\O,0,1.21579608,-1.
 54599091,-0.04732201\C,0,1.72596267,-0.38456931,0.59856315\C,0,2.31776
 625,0.68797595,-0.26859263\H,0,-2.64216173,-0.56439323,-1.11592515\H,0
 ,-1.44191344,-1.86394489,-1.07818255\H,0,-2.34369673,-1.44756321,0.383

 Normal termination of Gaussian 16 at Wed Apr  9 16:01:29 2025.
