 Gaussian 16, Revision C.01,

 ----------------------------------------------------------------------
 #t hf aug-cc-pvdz symm=none int=(grid=ultrafine) guess=(read,tcheck) s
 table=(opt,rrhf)
 ----------------------------------------------------------------------
 -----
 title
 -----
 Symbolic Z-matrix:
 Charge =  0 Multiplicity = 1

 SCF Done:  E(RHF) =  -279.722123861     A.U. after   20 cycles
 Normal termination of Gaussian 16 at Wed Apr  9 03:15:51 2025.
 Gaussian 16:  ES64L-G16RevC.01  3-Jul-2019

 ----------------------------------------------------------------------
 #t hf aug-cc-pvdz iop(5/13=1,5/36=2,99/5=2) pseudo=read geom=check gue
 ss=(read,tcheck) scf=(maxcycle=1)
 ----------------------------------------------------------------------
 -----
 title
 -----
 Structure from the checkpoint file:  "Grambow2020_b97d3_007058_reverse_mol1.chk"
 Charge =  0 Multiplicity = 1

                         Standard orientation:
 ---------------------------------------------------------------------
 Center     Atomic      Atomic             Coordinates (Angstroms)
 Number     Number       Type             X           Y           Z
 ---------------------------------------------------------------------
      1          7           0       -2.016023   -0.536769   -0.010466
      2          6           0       -0.745341    0.080336    0.044931
      3          6           0        0.330634   -0.872743    0.149301
      4          6           0        1.722199   -0.547916   -0.182710
      5          7           0        1.960853    0.667083    0.031017
      6          7           0       -0.552404    1.372784    0.063566
      7          1           0       -2.072038   -1.369835   -0.591293
      8          1           0       -2.775615    0.108114   -0.213987
      9          1           0        0.169287   -1.751637    0.782246
     10          1           0        2.478003   -1.336022   -0.354038
     11          1           0       -1.391573    1.869636   -0.280876
 ---------------------------------------------------------------------

 SCF Done:  E(RHF) =  -279.801081568     A.U. after    2 cycles

 The electronic state is 1-A.
 Alpha  occ. eigenvalues --  -15.70633 -15.64669 -15.59582 -11.33610 -11.32688
 Alpha  occ. eigenvalues --  -11.28495  -1.23543  -1.20304  -1.09678  -0.98305
 Alpha  occ. eigenvalues --   -0.82985  -0.73599  -0.69271  -0.68462  -0.63210
 Alpha  occ. eigenvalues --   -0.57930  -0.56943  -0.52610  -0.49809  -0.41142
 Alpha  occ. eigenvalues --   -0.37109  -0.31365
 Alpha virt. eigenvalues --    0.00890   0.03117   0.03346   0.04883   0.05473
 Alpha virt. eigenvalues --    0.06963   0.10054   0.10502   0.12307   0.12829
 Alpha virt. eigenvalues --    0.13217   0.14084   0.14789   0.15375   0.16316

 Mulliken charges:
               1
     1  N   -0.337178
     2  C    0.615434
     3  C    0.222345
     4  C    0.616507
     5  N   -0.317862
     6  N   -0.384057
     7  H    0.024860
     8  H    0.010619
     9  H   -0.280226
    10  H   -0.123880
    11  H   -0.046562
 Sum of Mulliken charges =  -0.00000

 Dipole moment (field-independent basis, Debye):
    X=             -1.2919    Y=             -3.5215    Z=             -1.6867  Tot=              4.1128

 Test job not archived.
 1\1\GINC-SE454\SP\RHF\Aug-CC-pVDZ\C3H5N3\OHZDE\09-Apr-2025\0\\#t hf au
 g-cc-pvdz iop(5/13=1,5/36=2,99/5=2) pseudo=read geom=check guess=(read
 ,tcheck) scf=(maxcycle=1)\\title\\0,1\N,0,-1.75170147,-0.25508474,0.08
 972533\C,0,-0.45659731,0.31075179,0.12222357\C,0,0.58280802,-0.6851657
 8,0.19121806\C,0,1.97822988,-0.41158022,-0.16953851\N,0,2.26972668,0.7
 9047369,0.05171406\N,0,-0.21214722,1.59428061,0.15035046\H,0,-1.853968
 53,-1.07842288,-0.49862222\H,0,-2.48954825,0.42158707,-0.08908189\H,0,
 0.40119224,-1.56438043,0.8181977\H,0,2.69805752,-1.22680596,-0.3669181

 Normal termination of Gaussian 16 at Wed Apr  9 03:15:55 2025.
