 Gaussian 16, Revision C.01,

 ----------------------------------------------------------------------
 #t hf aug-cc-pvdz symm=none int=(grid=ultrafine) guess=(read,tcheck) s
 table=(opt,rrhf)
 ----------------------------------------------------------------------
 -----
 title
 -----
 Symbolic Z-matrix:
 Charge =  0 Multiplicity = 1

 SCF Done:  E(RHF) =  -318.730662091     A.U. after   15 cycles
 Normal termination of Gaussian 16 at Wed Apr  9 03:46:32 2025.
 Gaussian 16:  ES64L-G16RevC.01  3-Jul-2019

 ----------------------------------------------------------------------
 #t hf aug-cc-pvdz iop(5/13=1,5/36=2,99/5=2) pseudo=read geom=check gue
 ss=(read,tcheck) scf=(maxcycle=1)
 ----------------------------------------------------------------------
 -----
 title
 -----
 Structure from the checkpoint file:  "Grambow2020_wb97xd3_007953_forward_mol1.chk"
 Charge =  0 Multiplicity = 1

                         Standard orientation:
 ---------------------------------------------------------------------
 Center     Atomic      Atomic             Coordinates (Angstroms)
 Number     Number       Type             X           Y           Z
 ---------------------------------------------------------------------
      1          6           0       -1.829200   -0.684027   -0.465611
      2          6           0       -1.326338    0.655970    0.029836
      3          6           0        0.501125    1.288283    0.141010
      4          6           0        0.142378    0.248997    1.031904
      5          7           0        0.790420   -0.893280    0.625320
      6          7           0        1.381376   -0.657268   -0.553312
      7          7           0        1.211172    0.554993   -0.877255
      8          1           0       -2.778104   -0.528561   -0.982645
      9          1           0       -1.138654   -1.123087   -1.187516
     10          1           0       -1.993067   -1.400273    0.340990
     11          1           0       -1.306597    1.368555   -0.788634
     12          1           0       -1.921906    1.103793    0.818785
     13          1           0       -0.200702    0.331275    2.051515
     14          1           0        0.730465   -1.838159    0.961396
 ---------------------------------------------------------------------

 SCF Done:  E(RHF) =  -318.821912945     A.U. after    2 cycles

 The electronic state is 1-A.
 Alpha  occ. eigenvalues --  -15.74050 -15.70855 -15.66011 -11.31743 -11.29611
 Alpha  occ. eigenvalues --  -11.25411 -11.25295  -1.40927  -1.17276  -1.10944
 Alpha  occ. eigenvalues --   -1.01921  -0.87563  -0.84195  -0.82225  -0.74499
 Alpha  occ. eigenvalues --   -0.67505  -0.64680  -0.62084  -0.57451  -0.55795
 Alpha  occ. eigenvalues --   -0.54434  -0.52632  -0.43733  -0.41990  -0.40062
 Alpha  occ. eigenvalues --   -0.35193
 Alpha virt. eigenvalues --    0.01989   0.03548   0.03694   0.05597   0.06387
 Alpha virt. eigenvalues --    0.07010   0.07455   0.09025   0.10998   0.11295
 Alpha virt. eigenvalues --    0.12395   0.13485   0.14118   0.14237   0.15073

 Mulliken charges:
               1
     1  C    0.424412
     2  C    0.218104
     3  C   -0.073432
     4  C    0.799034
     5  N   -0.027753
     6  N   -0.219725
     7  N   -0.373883
     8  H   -0.075551
     9  H    0.002236
    10  H   -0.099090
    11  H   -0.071664
    12  H   -0.170702
    13  H   -0.237753
    14  H   -0.094233
 Sum of Mulliken charges =  -0.00000

 Dipole moment (field-independent basis, Debye):
    X=             -3.6404    Y=             -3.5711    Z=              3.1554  Tot=              5.9968

 Test job not archived.
 1\1\GINC-SE334\SP\RHF\Aug-CC-pVDZ\C4H7N3\OHZDE\09-Apr-2025\0\\#t hf au
 g-cc-pvdz iop(5/13=1,5/36=2,99/5=2) pseudo=read geom=check guess=(read
 ,tcheck) scf=(maxcycle=1)\\title\\0,1\C,0,-1.23483756,0.84892004,-0.11
 674129\C,0,-0.85864992,-0.61044041,-0.26734069\C,0,0.66646661,-1.54238
 022,0.47918955\C,0,0.94620484,-0.59068199,-0.53003032\N,0,1.58012406,0
 .47504543,0.0636327\N,0,1.54863166,0.30960353,1.39244478\N,0,1.0092237
 7,-0.80237851,1.66816343\H,0,-2.32300815,0.92324764,-0.06906563\H,0,-0
 .84383403,1.26398657,0.81364091\H,0,-0.88648219,1.46472275,-0.94734489

 Normal termination of Gaussian 16 at Wed Apr  9 03:46:37 2025.
