 Gaussian 16, Revision C.01,

 ----------------------------------------------------------------------
 #t hf aug-cc-pvdz symm=none int=(grid=ultrafine) guess=(read,tcheck) s
 table=(opt,rrhf)
 ----------------------------------------------------------------------
 -----
 title
 -----
 Symbolic Z-matrix:
 Charge =  0 Multiplicity = 1

 SCF Done:  E(RHF) =  -322.554721424     A.U. after   16 cycles
 Normal termination of Gaussian 16 at Wed Apr  9 15:46:00 2025.
 Gaussian 16:  ES64L-G16RevC.01  3-Jul-2019

 ----------------------------------------------------------------------
 #t hf aug-cc-pvdz iop(5/13=1,5/36=2,99/5=2) pseudo=read geom=check gue
 ss=(read,tcheck) scf=(maxcycle=1)
 ----------------------------------------------------------------------
 -----
 title
 -----
 Structure from the checkpoint file:  "Grambow2020_wb97xd3_007353_forward_mol1.chk"
 Charge =  0 Multiplicity = 1

                         Standard orientation:
 ---------------------------------------------------------------------
 Center     Atomic      Atomic             Coordinates (Angstroms)
 Number     Number       Type             X           Y           Z
 ---------------------------------------------------------------------
      1          8           0        2.086929   -0.833785   -0.218350
      2          6           0        0.998502   -0.272955   -0.271508
      3          6           0        0.731069    1.335251    0.115440
      4          7           0       -0.596190    0.844767    0.416861
      5          6           0       -1.406127    0.453927   -0.560215
      6          6           0       -1.560537   -0.956984   -0.054248
      7          6           0       -0.289284   -0.568426    0.707142
      8          1           0        1.279782    1.606325    1.015799
      9          1           0        0.776415    2.099470   -0.657557
     10          1           0        0.333577   -0.211400   -1.265879
     11          1           0       -1.780644    1.053731   -1.379719
     12          1           0       -1.457948   -1.749633   -0.792390
     13          1           0       -2.448782   -1.127107    0.557883
     14          1           0       -0.066246   -0.859351    1.730969
 ---------------------------------------------------------------------

 SCF Done:  E(RHF) =  -322.648622555     A.U. after    2 cycles

 The electronic state is 1-A.
 Alpha  occ. eigenvalues --  -20.46849 -15.71243 -11.37147 -11.31662 -11.29365
 Alpha  occ. eigenvalues --  -11.28811 -11.28551  -1.35627  -1.26597  -1.07495
 Alpha  occ. eigenvalues --   -0.98297  -0.90957  -0.83729  -0.76072  -0.72009
 Alpha  occ. eigenvalues --   -0.67796  -0.64764  -0.60537  -0.57898  -0.55381
 Alpha  occ. eigenvalues --   -0.54899  -0.53174  -0.52067  -0.45169  -0.34963
 Alpha  occ. eigenvalues --   -0.33519
 Alpha virt. eigenvalues --    0.02061   0.03145   0.03932   0.04426   0.05128
 Alpha virt. eigenvalues --    0.06205   0.06793   0.07927   0.09058   0.10580
 Alpha virt. eigenvalues --    0.11947   0.12032   0.12923   0.13199   0.14412

 Mulliken charges:
               1
     1  O   -0.691472
     2  C    0.409708
     3  C    0.754648
     4  N   -0.616767
     5  C    0.436952
     6  C    0.627152
     7  C    0.342563
     8  H   -0.275306
     9  H   -0.257090
    10  H    0.066291
    11  H   -0.332406
    12  H   -0.009830
    13  H   -0.099264
    14  H   -0.355177
 Sum of Mulliken charges =   0.00000

 Dipole moment (field-independent basis, Debye):
    X=             -7.0784    Y=              2.6192    Z=             -0.0209  Tot=              7.5475

 Test job not archived.
 1\1\GINC-SE173\SP\RHF\Aug-CC-pVDZ\C5H7N1O1\OHZDE\09-Apr-2025\0\\#t hf
 aug-cc-pvdz iop(5/13=1,5/36=2,99/5=2) pseudo=read geom=check guess=(re
 ad,tcheck) scf=(maxcycle=1)\\title\\0,1\O,0,1.74543872,1.7221639,-0.53
 915643\C,0,0.98139688,0.86438814,-0.11196797\C,0,1.43047958,-0.6954671
 6,0.30366615\N,0,0.05140449,-0.97805442,-0.0300131\C,0,-0.93123144,-0.
 54614918,0.7518546\C,0,-1.60307413,0.27875224,-0.31523549\C,0,-0.22164
 025,0.13285051,-0.96108992\H,0,2.12004971,-1.10225938,-0.43405125\H,0,
 1.71505762,-0.92913513,1.32739694\H,0,0.31386028,1.00379402,0.87274052

 Normal termination of Gaussian 16 at Wed Apr  9 15:46:05 2025.
