 Gaussian 16, Revision C.01,

 ----------------------------------------------------------------------
 #t hf aug-cc-pvdz symm=none int=(grid=ultrafine) guess=(read,tcheck) s
 table=(opt,rrhf)
 ----------------------------------------------------------------------
 -----
 title
 -----
 Symbolic Z-matrix:
 Charge =  0 Multiplicity = 1

 SCF Done:  E(RHF) =  -337.581686669     A.U. after   15 cycles
 Normal termination of Gaussian 16 at Wed Apr  9 17:10:10 2025.
 Gaussian 16:  ES64L-G16RevC.01  3-Jul-2019

 ----------------------------------------------------------------------
 #t hf aug-cc-pvdz iop(5/13=1,5/36=2,99/5=2) pseudo=read geom=check gue
 ss=(read,tcheck) scf=(maxcycle=1)
 ----------------------------------------------------------------------
 -----
 title
 -----
 Structure from the checkpoint file:  "Grambow2020_wb97xd3_009173_reverse_mol2.chk"
 Charge =  0 Multiplicity = 1

                         Standard orientation:
 ---------------------------------------------------------------------
 Center     Atomic      Atomic             Coordinates (Angstroms)
 Number     Number       Type             X           Y           Z
 ---------------------------------------------------------------------
      1          8           0       -0.814930   -1.408330    0.615038
      2          6           0        1.596727   -0.079378   -0.062297
      3          6           0        0.930575    1.118030    0.326476
      4          6           0       -0.350836    1.408589    0.097768
      5          7           0       -1.325673    0.569433   -0.426147
      6          6           0       -1.503833   -0.766273   -0.123622
      7          7           0        2.199414   -0.989819   -0.419872
      8          1           0        1.553777    1.878488    0.777663
      9          1           0       -0.701975    2.407616    0.330116
     10          1           0       -2.097182    1.014223   -0.893916
     11          1           0       -2.387164   -1.176784   -0.641986
 ---------------------------------------------------------------------

 SCF Done:  E(RHF) =  -337.685810445     A.U. after    2 cycles

 The electronic state is 1-A.
 Alpha  occ. eigenvalues --  -20.57227 -15.69869 -15.63019 -11.39244 -11.33949
 Alpha  occ. eigenvalues --  -11.29172 -11.28117  -1.38699  -1.25518  -1.18758
 Alpha  occ. eigenvalues --   -1.08177  -0.93033  -0.82793  -0.79288  -0.72598
 Alpha  occ. eigenvalues --   -0.68721  -0.65037  -0.62514  -0.60704  -0.53826
 Alpha  occ. eigenvalues --   -0.52619  -0.47912  -0.47107  -0.45081  -0.36764
 Alpha virt. eigenvalues --    0.01447   0.03029   0.04532   0.05696   0.07342
 Alpha virt. eigenvalues --    0.07927   0.09764   0.11188   0.11872   0.12012
 Alpha virt. eigenvalues --    0.12372   0.13501   0.14315   0.14884   0.15192

 Mulliken charges:
               1
     1  O   -0.381345
     2  C   -0.727533
     3  C    1.133441
     4  C    0.612499
     5  N   -0.409062
     6  C    0.750337
     7  N   -0.145099
     8  H   -0.337067
     9  H   -0.300330
    10  H   -0.018222
    11  H   -0.177621
 Sum of Mulliken charges =   0.00000

 Dipole moment (field-independent basis, Debye):
    X=             -5.0473    Y=              5.5462    Z=             -1.1014  Tot=              7.5795

 Test job not archived.
 1\1\GINC-SE226\SP\RHF\Aug-CC-pVDZ\C4H4N2O1\OHZDE\09-Apr-2025\0\\#t hf
 aug-cc-pvdz iop(5/13=1,5/36=2,99/5=2) pseudo=read geom=check guess=(re
 ad,tcheck) scf=(maxcycle=1)\\title\\0,1\O,0,0.02135738,-1.69185472,1.0
 0839283\C,0,1.51165128,-0.49095965,-1.08393986\C,0,1.1645042,0.7532928
 6,-0.483928\C,0,-0.01183179,1.05288125,0.06854676\N,0,-1.07700576,0.19
 309629,0.30338994\C,0,-0.99360083,-1.10411764,0.76992232\N,0,1.8161606
 9,-1.44511501,-1.64683912\H,0,1.90655078,1.53666173,-0.56104087\H,0,-0
 .19152148,2.07744721,0.3740202\H,0,-1.99065912,0.61155693,0.34812002\H

 Normal termination of Gaussian 16 at Wed Apr  9 17:10:13 2025.
