 Gaussian 16, Revision C.01,

 ----------------------------------------------------------------------
 #t hf aug-cc-pvdz symm=none int=(grid=ultrafine) guess=(read,tcheck) s
 table=(opt,rrhf)
 ----------------------------------------------------------------------
 -----
 title
 -----
 Symbolic Z-matrix:
 Charge =  0 Multiplicity = 1

 SCF Done:  E(RHF) =  -315.683550458     A.U. after   15 cycles
 Normal termination of Gaussian 16 at Wed Apr  9 03:08:40 2025.
 Gaussian 16:  ES64L-G16RevC.01  3-Jul-2019

 ----------------------------------------------------------------------
 #t hf aug-cc-pvdz iop(5/13=1,5/36=2,99/5=2) pseudo=read geom=check gue
 ss=(read,tcheck) scf=(maxcycle=1)
 ----------------------------------------------------------------------
 -----
 title
 -----
 Structure from the checkpoint file:  "Grambow2020_b97d3_006677_forward_mol2.chk"
 Charge =  0 Multiplicity = 1

                         Standard orientation:
 ---------------------------------------------------------------------
 Center     Atomic      Atomic             Coordinates (Angstroms)
 Number     Number       Type             X           Y           Z
 ---------------------------------------------------------------------
      1          8           0        2.028522    0.075452    0.000218
      2          6           0        0.674560    0.032620    0.001803
      3          7           0       -0.023349   -1.108626    0.000060
      4          7           0       -1.285916   -0.652661   -0.001220
      5          7           0       -1.459128    0.664466   -0.000119
      6          6           0       -0.200475    1.137340   -0.000879
      7          1           0        2.349810   -0.848107   -0.005414
      8          1           0       -2.070526   -1.292615    0.005500
      9          1           0        0.026778    2.195097    0.001581
 ---------------------------------------------------------------------

 SCF Done:  E(RHF) =  -315.775402476     A.U. after    2 cycles

 The electronic state is 1-A.
 Alpha  occ. eigenvalues --  -20.62510 -15.74851 -15.70023 -15.68142 -11.35017
 Alpha  occ. eigenvalues --  -11.28167  -1.41501  -1.37435  -1.16160  -1.08365
 Alpha  occ. eigenvalues --   -0.88031  -0.83634  -0.75518  -0.72402  -0.66617
 Alpha  occ. eigenvalues --   -0.62895  -0.61697  -0.59357  -0.50998  -0.47881
 Alpha  occ. eigenvalues --   -0.40066  -0.35868
 Alpha virt. eigenvalues --    0.03545   0.03618   0.04705   0.09945   0.10045
 Alpha virt. eigenvalues --    0.11237   0.12196   0.12377   0.13868   0.14864
 Alpha virt. eigenvalues --    0.15816   0.16746   0.17697   0.18152   0.19610

 Mulliken charges:
               1
     1  O   -0.508773
     2  C    0.707428
     3  N   -0.484410
     4  N    0.094195
     5  N   -0.454692
     6  C    0.683866
     7  H    0.144472
     8  H    0.033892
     9  H   -0.215976
 Sum of Mulliken charges =   0.00000

 Dipole moment (field-independent basis, Debye):
    X=             -0.2458    Y=             -1.2587    Z=              0.0030  Tot=              1.2825

 Test job not archived.
 1\1\GINC-SE094\SP\RHF\Aug-CC-pVDZ\C2H3N3O1\OHZDE\09-Apr-2025\0\\#t hf
 aug-cc-pvdz iop(5/13=1,5/36=2,99/5=2) pseudo=read geom=check guess=(re
 ad,tcheck) scf=(maxcycle=1)\\title\\0,1\O,0,-1.99722219,-0.26270043,-0
 .2041003\C,0,-0.66002545,-0.0944969,-0.06748625\N,0,0.17540227,-1.0886
 2428,0.25390835\N,0,1.3570792,-0.45205505,0.27386993\N,0,1.35514936,0.
 84720031,-0.00318556\C,0,0.05549023,1.10911524,-0.22702805\H,0,-2.1929
 8342,-1.20370885,-0.0241017\H,0,2.21321928,-0.95012673,0.48398632\H,0,
 -0.30610928,2.0953967,-0.48586275\\Version=ES64L-G16RevC.01\State=1-A\

 Normal termination of Gaussian 16 at Wed Apr  9 03:08:42 2025.
