 Gaussian 16, Revision C.01,

 ----------------------------------------------------------------------
 #t hf aug-cc-pvdz symm=none int=(grid=ultrafine) guess=(read,tcheck) s
 table=(opt,rrhf)
 ----------------------------------------------------------------------
 -----
 title
 -----
 Symbolic Z-matrix:
 Charge =  0 Multiplicity = 1

 SCF Done:  E(RHF) =  -306.651860818     A.U. after   13 cycles
 Normal termination of Gaussian 16 at Wed Apr  9 16:22:09 2025.
 Gaussian 16:  ES64L-G16RevC.01  3-Jul-2019

 ----------------------------------------------------------------------
 #t hf aug-cc-pvdz iop(5/13=1,5/36=2,99/5=2) pseudo=read geom=check gue
 ss=(read,tcheck) scf=(maxcycle=1)
 ----------------------------------------------------------------------
 -----
 title
 -----
 Structure from the checkpoint file:  "Grambow2020_wb97xd3_008155_forward_mol2.chk"
 Charge =  0 Multiplicity = 1

                         Standard orientation:
 ---------------------------------------------------------------------
 Center     Atomic      Atomic             Coordinates (Angstroms)
 Number     Number       Type             X           Y           Z
 ---------------------------------------------------------------------
      1          8           0        2.129689   -0.141501   -0.077477
      2          6           0        0.766182    0.053790   -0.045821
      3          6           0        0.014239    1.340399   -0.319328
      4          6           0       -1.169409    0.639968    0.388779
      5          6           0       -1.563893   -0.506126   -0.569316
      6          6           0       -0.215204   -1.106698   -0.220431
      7          6           0       -0.138726   -0.329266    1.073335
      8          1           0        2.385454   -0.386322   -0.969245
      9          1           0       -0.134660    1.667272   -1.353059
     10          1           0        0.420010    2.154094    0.282945
     11          1           0       -1.923805    1.227000    0.903670
     12          1           0       -2.382979   -1.104740   -0.168119
     13          1           0       -1.773199   -0.240078   -1.609736
     14          1           0        0.159493   -2.105358   -0.400415
     15          1           0        0.053032   -0.632258    2.090471
 ---------------------------------------------------------------------

 SCF Done:  E(RHF) =  -306.743772504     A.U. after    2 cycles

 The electronic state is 1-A.
 Alpha  occ. eigenvalues --  -20.58283 -11.29373 -11.24564 -11.23829 -11.23388
 Alpha  occ. eigenvalues --  -11.23294 -11.23064  -1.34363  -1.22018  -0.97321
 Alpha  occ. eigenvalues --   -0.95993  -0.85269  -0.77823  -0.72966  -0.71797
 Alpha  occ. eigenvalues --   -0.64618  -0.62758  -0.61555  -0.59358  -0.54461
 Alpha  occ. eigenvalues --   -0.52309  -0.48432  -0.45722  -0.44575  -0.38117
 Alpha  occ. eigenvalues --   -0.37219
 Alpha virt. eigenvalues --    0.03317   0.04008   0.04455   0.04693   0.06280
 Alpha virt. eigenvalues --    0.06497   0.06963   0.07230   0.11021   0.11902
 Alpha virt. eigenvalues --    0.12580   0.12891   0.13829   0.14178   0.14735

 Mulliken charges:
               1
     1  O   -0.605691
     2  C    0.352349
     3  C    0.481363
     4  C    0.322736
     5  C    0.643063
     6  C    0.272326
     7  C    0.156157
     8  H    0.137814
     9  H   -0.190081
    10  H   -0.059062
    11  H   -0.376401
    12  H   -0.125729
    13  H   -0.164151
    14  H   -0.426804
    15  H   -0.417891
 Sum of Mulliken charges =  -0.00000

 Dipole moment (field-independent basis, Debye):
    X=             -0.9794    Y=             -0.2219    Z=             -1.1280  Tot=              1.5103

 Test job not archived.
 1\1\GINC-SE113\SP\RHF\Aug-CC-pVDZ\C6H8O1\OHZDE\09-Apr-2025\0\\#t hf au
 g-cc-pvdz iop(5/13=1,5/36=2,99/5=2) pseudo=read geom=check guess=(read
 ,tcheck) scf=(maxcycle=1)\\title\\0,1\O,0,2.1528621,0.8754598,-0.41753
 088\C,0,0.93166244,0.27767679,-0.19477896\C,0,0.67296142,-1.13569249,0
 .28589593\C,0,-0.76297072,-0.90762725,-0.2424293\C,0,-1.35014023,0.167
 91137,0.69860381\C,0,-0.32740829,1.10206271,0.07993508\C,0,-0.20462406
 ,0.2422897,-1.15691378\H,0,2.44899534,1.28499788,0.39805833\H,0,0.7910
 8387,-1.3730334,1.34765527\H,0,1.21931602,-1.85275018,-0.3279488\H,0,-

 Normal termination of Gaussian 16 at Wed Apr  9 16:22:14 2025.
