 Gaussian 16, Revision C.01,

 ----------------------------------------------------------------------
 #t hf aug-cc-pvdz symm=none int=(grid=ultrafine) guess=(read,tcheck) s
 table=(opt,rrhf)
 ----------------------------------------------------------------------
 -----
 title
 -----
 Symbolic Z-matrix:
 Charge =  0 Multiplicity = 1

 SCF Done:  E(RHF) =  -302.785951241     A.U. after   16 cycles
 Normal termination of Gaussian 16 at Wed Apr  9 03:59:47 2025.
 Gaussian 16:  ES64L-G16RevC.01  3-Jul-2019

 ----------------------------------------------------------------------
 #t hf aug-cc-pvdz iop(5/13=1,5/36=2,99/5=2) pseudo=read geom=check gue
 ss=(read,tcheck) scf=(maxcycle=1)
 ----------------------------------------------------------------------
 -----
 title
 -----
 Structure from the checkpoint file:  "Grambow2020_wb97xd3_008843_reverse_mol1.chk"
 Charge =  0 Multiplicity = 1

                         Standard orientation:
 ---------------------------------------------------------------------
 Center     Atomic      Atomic             Coordinates (Angstroms)
 Number     Number       Type             X           Y           Z
 ---------------------------------------------------------------------
      1          6           0        0.682030    1.593641   -0.215993
      2          6           0        0.714917    0.129627    0.208204
      3          6           0       -0.571942   -0.312175    0.950471
      4          6           0       -1.779378   -0.175314    0.143432
      5          7           0       -2.701712   -0.071198   -0.531509
      6          6           0        1.126453   -0.870809   -0.933785
      7          7           0        1.879347   -0.453862    0.583571
      8          1           0       -0.192060    1.823716   -0.827945
      9          1           0        0.644864    2.222981    0.675507
     10          1           0        1.589812    1.839615   -0.765099
     11          1           0       -0.678894    0.298073    1.849884
     12          1           0       -0.459867   -1.349518    1.267199
     13          1           0        1.344435   -0.310278   -1.836102
     14          1           0        0.386786   -1.661818   -1.013208
     15          1           0        2.088989   -1.377169   -0.628659
 ---------------------------------------------------------------------

 SCF Done:  E(RHF) =  -302.873654271     A.U. after    2 cycles

 The electronic state is 1-A.
 Alpha  occ. eigenvalues --  -15.65205 -15.64259 -11.32082 -11.29588 -11.29552
 Alpha  occ. eigenvalues --  -11.29239 -11.24641  -1.24289  -1.20106  -1.04971
 Alpha  occ. eigenvalues --   -0.98355  -0.92896  -0.77953  -0.70897  -0.67706
 Alpha  occ. eigenvalues --   -0.65769  -0.60480  -0.58438  -0.56866  -0.55414
 Alpha  occ. eigenvalues --   -0.54911  -0.54120  -0.47297  -0.46732  -0.46311
 Alpha  occ. eigenvalues --   -0.37131
 Alpha virt. eigenvalues --    0.03179   0.03601   0.03890   0.05430   0.06362
 Alpha virt. eigenvalues --    0.06590   0.07391   0.08384   0.09469   0.10169
 Alpha virt. eigenvalues --    0.11821   0.12865   0.13652   0.14266   0.14612

 Mulliken charges:
               1
     1  C    0.629627
     2  C   -0.848943
     3  C    0.758074
     4  C   -0.167522
     5  N   -0.222191
     6  C    0.546315
     7  N   -0.877507
     8  H    0.008033
     9  H    0.008994
    10  H   -0.033543
    11  H    0.050145
    12  H    0.053346
    13  H   -0.044144
    14  H   -0.111956
    15  H    0.251273
 Sum of Mulliken charges =  -0.00000

 Dipole moment (field-independent basis, Debye):
    X=              1.9097    Y=             -0.0589    Z=              0.2508  Tot=              1.9270

 Test job not archived.
 1\1\GINC-SE071\SP\RHF\Aug-CC-pVDZ\C5H8N2\OHZDE\09-Apr-2025\0\\#t hf au
 g-cc-pvdz iop(5/13=1,5/36=2,99/5=2) pseudo=read geom=check guess=(read
 ,tcheck) scf=(maxcycle=1)\\title\\0,1\C,0,-0.95485308,1.21867786,-0.22
 089073\C,0,-0.33258583,-0.1659884,-0.3617527\C,0,1.17291421,-0.1162485
 4,-0.72665188\C,0,1.98639329,0.56834424,0.27211173\N,0,2.59256236,1.09
 618008,1.09127825\C,0,-0.63108637,-1.13977151,0.83700398\N,0,-1.056634
 6,-1.20091346,-0.85362726\H,0,-0.42156526,1.83605725,0.5043007\H,0,-0.
 91916081,1.72617445,-1.18701424\H,0,-1.99935525,1.1260844,0.07326921\H

 Normal termination of Gaussian 16 at Wed Apr  9 03:59:52 2025.
