 Gaussian 16, Revision C.01,

 ----------------------------------------------------------------------
 #t hf aug-cc-pvdz symm=none int=(grid=ultrafine) guess=(read,tcheck) s
 table=(opt,rrhf)
 ----------------------------------------------------------------------
 -----
 title
 -----
 Symbolic Z-matrix:
 Charge =  0 Multiplicity = 1

 SCF Done:  E(RHF) =  -308.992254750     A.U. after   15 cycles

 1\1\GINC-SE219\Stability\RHF\Aug-CC-pVDZ\C6H12O1\OHZDE\09-Apr-2025\0\\
 #t hf aug-cc-pvdz symm=none int=(grid=ultrafine) guess=(read,tcheck) s
 table=(opt,rrhf)\\title\\0,1\C,0,-1.44226467,-1.15612536,-0.25658505\C
 ,0,-0.60834313,0.12020844,-0.32579969\C,0,-1.34726783,1.27775639,0.343
 37028\C,0,0.77026945,-0.07964087,0.30106524\O,0,1.45143118,-1.13424818
 ,-0.4487756\C,0,1.71128042,-2.29695778,0.0311279\C,0,1.67392583,1.1336
 8834,0.26442796\H,0,-2.41032549,-1.00558207,-0.73694115\H,0,-0.9544981
 5,-1.99394277,-0.75577524\H,0,-1.63022831,-1.44077867,0.78307609\H,0,-

 Normal termination of Gaussian 16 at Wed Apr  9 16:01:25 2025.
 Gaussian 16:  ES64L-G16RevC.01  3-Jul-2019

 ----------------------------------------------------------------------
 #t hf aug-cc-pvdz iop(5/13=1,5/36=2,99/5=2) pseudo=read geom=check gue
 ss=(read,tcheck) scf=(maxcycle=1)
 ----------------------------------------------------------------------
 -----
 title
 -----
 Structure from the checkpoint file:  "Grambow2020_wb97xd3_007698_reverse_mol2.chk"
 Charge =  0 Multiplicity = 1

                         Standard orientation:
 ---------------------------------------------------------------------
 Center     Atomic      Atomic             Coordinates (Angstroms)
 Number     Number       Type             X           Y           Z
 ---------------------------------------------------------------------
      1          6           0       -0.882133   -1.734050   -0.039068
      2          6           0       -0.894854   -0.238123   -0.341199
      3          6           0       -2.170935    0.404883    0.199055
      4          6           0        0.344058    0.455272    0.222514
      5          8           0        1.517347   -0.147608   -0.408650
      6          6           0        2.364516   -0.883597    0.216127
      7          6           0        0.423327    1.943056   -0.042666
      8          1           0       -1.756591   -2.218730   -0.476052
      9          1           0        0.002783   -2.227707   -0.441898
     10          1           0       -0.910746   -1.912076    1.040163
     11          1           0       -0.866322   -0.100152   -1.428066
     12          1           0       -2.193569    0.372789    1.292467
     13          1           0       -3.045961   -0.137274   -0.162301
     14          1           0       -2.277159    1.444583   -0.111296
     15          1           0        0.433347    0.244566    1.296482
     16          1           0        2.031655   -0.928419    1.292390
     17          1           0        0.293919    2.154338   -1.105666
     18          1           0        1.393483    2.329724    0.269918
     19          1           0       -0.347496    2.474581    0.514485
 ---------------------------------------------------------------------

 SCF Done:  E(RHF) =  -309.090672316     A.U. after    2 cycles

 The electronic state is 1-A.
 Alpha  occ. eigenvalues --  -20.63351 -11.31179 -11.29963 -11.25143 -11.24122
 Alpha  occ. eigenvalues --  -11.23780 -11.23110  -1.40643  -1.10939  -1.02119
 Alpha  occ. eigenvalues --   -0.94336  -0.90361  -0.83705  -0.79974  -0.69168
 Alpha  occ. eigenvalues --   -0.66038  -0.63664  -0.61601  -0.57946  -0.57111
 Alpha  occ. eigenvalues --   -0.56740  -0.55229  -0.53932  -0.52185  -0.49628
 Alpha  occ. eigenvalues --   -0.48249  -0.47156  -0.34830
 Alpha virt. eigenvalues --    0.03132   0.03932   0.04200   0.04905   0.06088
 Alpha virt. eigenvalues --    0.06172   0.06535   0.06919   0.07802   0.08845
 Alpha virt. eigenvalues --    0.09175   0.09385   0.10833   0.12562   0.12869

 Mulliken charges:
               1
     1  C    0.781391
     2  C   -1.062003
     3  C    0.814954
     4  C    0.146211
     5  O   -0.504554
     6  C    0.097426
     7  C    0.561407
     8  H   -0.069537
     9  H   -0.068029
    10  H    0.000947
    11  H   -0.159621
    12  H    0.007403
    13  H   -0.087001
    14  H   -0.102640
    15  H   -0.224483
    16  H   -0.098039
    17  H    0.010381
    18  H   -0.058064
    19  H    0.013851
 Sum of Mulliken charges =  -0.00000

 Dipole moment (field-independent basis, Debye):
    X=             -3.4316    Y=              1.6798    Z=              1.4420  Tot=              4.0838

 Test job not archived.
 1\1\GINC-SE219\SP\RHF\Aug-CC-pVDZ\C6H12O1\OHZDE\09-Apr-2025\0\\#t hf a
 ug-cc-pvdz iop(5/13=1,5/36=2,99/5=2) pseudo=read geom=check guess=(rea
 d,tcheck) scf=(maxcycle=1)\\title\\0,1\C,0,-1.44226467,-1.15612536,-0.
 25658505\C,0,-0.60834313,0.12020844,-0.32579969\C,0,-1.34726783,1.2777
 5639,0.34337028\C,0,0.77026945,-0.07964087,0.30106524\O,0,1.45143118,-
 1.13424818,-0.4487756\C,0,1.71128042,-2.29695778,0.0311279\C,0,1.67392
 583,1.13368834,0.26442796\H,0,-2.41032549,-1.00558207,-0.73694115\H,0,
 -0.95449815,-1.99394277,-0.75577524\H,0,-1.63022831,-1.44077867,0.7830

 Normal termination of Gaussian 16 at Wed Apr  9 16:01:32 2025.
