 Gaussian 16, Revision C.01,

 ----------------------------------------------------------------------
 #t hf aug-cc-pvdz symm=none int=(grid=ultrafine) guess=(read,tcheck) s
 table=(opt,rrhf)
 ----------------------------------------------------------------------
 -----
 title
 -----
 Symbolic Z-matrix:
 Charge =  0 Multiplicity = 1

 SCF Done:  E(RHF) =  -268.707943951     A.U. after   15 cycles
 Normal termination of Gaussian 16 at Wed Apr  9 14:23:21 2025.
 Gaussian 16:  ES64L-G16RevC.01  3-Jul-2019

 ----------------------------------------------------------------------
 #t hf aug-cc-pvdz iop(5/13=1,5/36=2,99/5=2) pseudo=read geom=check gue
 ss=(read,tcheck) scf=(maxcycle=1)
 ----------------------------------------------------------------------
 -----
 title
 -----
 Structure from the checkpoint file:  "Grambow2020_wb97xd3_006185_reverse_mol1.chk"
 Charge =  0 Multiplicity = 1

                         Standard orientation:
 ---------------------------------------------------------------------
 Center     Atomic      Atomic             Coordinates (Angstroms)
 Number     Number       Type             X           Y           Z
 ---------------------------------------------------------------------
      1          8           0        1.757215   -0.476839    0.384174
      2          6           0        0.553089   -0.159605   -0.212613
      3          6           0        0.005269    1.597472   -0.574901
      4          6           0       -0.422670    0.753912    0.549309
      5          6           0       -1.591915   -0.196459    0.256417
      6          6           0       -0.594079   -1.171534   -0.412511
      7          1           0        2.392485   -0.731491   -0.287874
      8          1           0        0.936023    2.086367   -0.239985
      9          1           0        0.669199    0.419105   -1.230294
     10          1           0       -0.144573    0.996561    1.570267
     11          1           0       -2.086723   -0.605906    1.135969
     12          1           0       -2.330457    0.237143   -0.415913
     13          1           0       -0.400030   -2.051759    0.199594
     14          1           0       -0.791809   -1.478019   -1.439353
 ---------------------------------------------------------------------

 SCF Done:  E(RHF) =  -268.788653112     A.U. after    2 cycles

 The electronic state is 1-A.
 Alpha  occ. eigenvalues --  -20.60357 -11.32649 -11.25240 -11.24802 -11.24700
 Alpha  occ. eigenvalues --  -11.23344  -1.36383  -1.16707  -0.99124  -0.90697
 Alpha  occ. eigenvalues --   -0.81502  -0.76627  -0.72942  -0.65823  -0.62953
 Alpha  occ. eigenvalues --   -0.61388  -0.56571  -0.55101  -0.50911  -0.49609
 Alpha  occ. eigenvalues --   -0.46125  -0.42533  -0.33159
 Alpha virt. eigenvalues --    0.03071   0.04152   0.04768   0.05400   0.06290
 Alpha virt. eigenvalues --    0.06812   0.07060   0.08306   0.10222   0.12254
 Alpha virt. eigenvalues --    0.12606   0.12772   0.13924   0.14827   0.15032

 Mulliken charges:
               1
     1  O   -0.559469
     2  C   -0.040827
     3  C   -0.418891
     4  C    0.302319
     5  C    0.795692
     6  C    0.384325
     7  H    0.149939
     8  H   -0.020198
     9  H    0.271338
    10  H   -0.279817
    11  H   -0.180949
    12  H   -0.143267
    13  H   -0.095427
    14  H   -0.164766
 Sum of Mulliken charges =  -0.00000

 Dipole moment (field-independent basis, Debye):
    X=              0.8723    Y=             -1.9160    Z=              0.1569  Tot=              2.1111

 Test job not archived.
 1\1\GINC-SE226\SP\RHF\Aug-CC-pVDZ\C5H8O1\OHZDE\09-Apr-2025\0\\#t hf au
 g-cc-pvdz iop(5/13=1,5/36=2,99/5=2) pseudo=read geom=check guess=(read
 ,tcheck) scf=(maxcycle=1)\\title\\0,1\O,0,1.19508915,0.74695917,1.4251
 7737\C,0,0.64433853,0.14788819,0.30960562\C,0,0.42069983,1.02274489,-1
 .33456351\C,0,-0.61046008,0.78102769,-0.31630184\C,0,-1.30413824,-0.58
 63757,-0.38802132\C,0,-0.0905967,-1.2080964,0.34320618\H,0,2.11793049,
 0.4970273,1.50238562\H,0,0.91302084,1.96487932,-1.03877545\H,0,1.37273
 923,0.11030435,-0.61347744\H,0,-1.05363915,1.60185088,0.23904732\H,0,-

 Normal termination of Gaussian 16 at Wed Apr  9 14:23:25 2025.
