 Gaussian 16, Revision C.01,

 ----------------------------------------------------------------------
 #t hf aug-cc-pvdz symm=none int=(grid=ultrafine) guess=(read,tcheck) s
 table=(opt,rrhf)
 ----------------------------------------------------------------------
 -----
 title
 -----
 Symbolic Z-matrix:
 Charge =  0 Multiplicity = 1

 SCF Done:  E(RHF) =  -304.680347048     A.U. after   15 cycles
 Normal termination of Gaussian 16 at Wed Apr  9 03:14:51 2025.
 Gaussian 16:  ES64L-G16RevC.01  3-Jul-2019

 ----------------------------------------------------------------------
 #t hf aug-cc-pvdz iop(5/13=1,5/36=2,99/5=2) pseudo=read geom=check gue
 ss=(read,tcheck) scf=(maxcycle=1)
 ----------------------------------------------------------------------
 -----
 title
 -----
 Structure from the checkpoint file:  "Grambow2020_b97d3_007011_forward_mol2.chk"
 Charge =  0 Multiplicity = 1

                         Standard orientation:
 ---------------------------------------------------------------------
 Center     Atomic      Atomic             Coordinates (Angstroms)
 Number     Number       Type             X           Y           Z
 ---------------------------------------------------------------------
      1          8           0       -1.434920   -1.230609    0.037243
      2          6           0       -1.208012    0.067635   -0.447995
      3          6           0       -0.874527    1.172588    0.497944
      4          6           0        0.222623    0.570537   -0.394215
      5          6           0        1.276348   -0.243610    0.266908
      6          8           0        2.443710   -0.262859   -0.088029
      7          1           0       -2.298897   -1.219329    0.490462
      8          1           0       -1.755818    0.330031   -1.359509
      9          1           0       -1.193216    2.191152    0.279522
     10          1           0       -0.814624    0.917747    1.556707
     11          1           0        0.573996    1.162766   -1.237709
     12          1           0        0.919652   -0.837527    1.140969
 ---------------------------------------------------------------------

 SCF Done:  E(RHF) =  -304.775066851     A.U. after    2 cycles

 The electronic state is 1-A.
 Alpha  occ. eigenvalues --  -20.60515 -20.56629 -11.34595 -11.32706 -11.27006
 Alpha  occ. eigenvalues --  -11.26492  -1.35615  -1.34351  -1.15032  -0.91628
 Alpha  occ. eigenvalues --   -0.85355  -0.79000  -0.72718  -0.70314  -0.66688
 Alpha  occ. eigenvalues --   -0.64117  -0.59541  -0.57281  -0.55637  -0.53548
 Alpha  occ. eigenvalues --   -0.45570  -0.43213  -0.42727
 Alpha virt. eigenvalues --    0.02622   0.03811   0.04287   0.05389   0.06375
 Alpha virt. eigenvalues --    0.06942   0.10160   0.10575   0.10814   0.12388
 Alpha virt. eigenvalues --    0.13130   0.13729   0.14828   0.15338   0.15699

 Mulliken charges:
               1
     1  O   -0.629702
     2  C    0.871238
     3  C    0.558451
     4  C    0.325627
     5  C    0.442412
     6  O   -0.476724
     7  H    0.190260
     8  H   -0.250831
     9  H   -0.288292
    10  H   -0.297619
    11  H   -0.359521
    12  H   -0.085300
 Sum of Mulliken charges =  -0.00000

 Dipole moment (field-independent basis, Debye):
    X=             -5.0962    Y=              1.8077    Z=              1.0133  Tot=              5.5014

 Test job not archived.
 1\1\GINC-SE125\SP\RHF\Aug-CC-pVDZ\C4H6O2\OHZDE\09-Apr-2025\0\\#t hf au
 g-cc-pvdz iop(5/13=1,5/36=2,99/5=2) pseudo=read geom=check guess=(read
 ,tcheck) scf=(maxcycle=1)\\title\\0,1\O,0,-1.56458389,0.68736631,0.605
 42847\C,0,-0.95181321,-0.25629352,-0.23504789\C,0,0.146424,0.16204513,
 -1.15472179\C,0,0.47312105,-0.64701098,0.11052456\C,0,1.19466187,0.052
 22126,1.20629343\O,0,2.02659917,-0.48159229,1.92184112\H,0,-2.11700604
 ,1.258369,0.03905816\H,0,-1.59278482,-1.0844197,-0.55623744\H,0,0.2732
 8812,-0.33797206,-2.11421746\H,0,0.4390883,1.21244666,-1.13197124\H,0,

 Normal termination of Gaussian 16 at Wed Apr  9 03:14:56 2025.
