 Gaussian 16, Revision C.01,

 ----------------------------------------------------------------------
 #t hf aug-cc-pvdz symm=none int=(grid=ultrafine) guess=(read,tcheck) s
 table=(opt,rrhf)
 ----------------------------------------------------------------------
 -----
 title
 -----
 Symbolic Z-matrix:
 Charge =  0 Multiplicity = 1

 SCF Done:  E(RHF) =  -360.787196244     A.U. after   15 cycles
 Normal termination of Gaussian 16 at Wed Apr  9 14:48:57 2025.
 Gaussian 16:  ES64L-G16RevC.01  3-Jul-2019

 ----------------------------------------------------------------------
 #t hf aug-cc-pvdz iop(5/13=1,5/36=2,99/5=2) pseudo=read geom=check gue
 ss=(read,tcheck) scf=(maxcycle=1)
 ----------------------------------------------------------------------
 -----
 title
 -----
 Structure from the checkpoint file:  "Grambow2020_wb97xd3_006618_forward_mol1.chk"
 Charge =  0 Multiplicity = 1

                         Standard orientation:
 ---------------------------------------------------------------------
 Center     Atomic      Atomic             Coordinates (Angstroms)
 Number     Number       Type             X           Y           Z
 ---------------------------------------------------------------------
      1          6           0        1.738401   -0.986340    0.275526
      2          6           0        1.255951    0.205859   -0.427805
      3          8           0       -0.762355   -0.962013   -1.023027
      4          6           0        0.716614    1.373111    0.250904
      5          7           0       -0.637021    1.213847   -0.276840
      6          6           0       -1.322434   -0.059277    0.086685
      7          8           0       -1.074817   -0.481466    1.250016
      8          1           0        2.693411   -0.686656    0.735064
      9          1           0        1.900394   -1.834426   -0.383374
     10          1           0        1.042322   -1.229042    1.081846
     11          1           0        1.411340    0.290830   -1.497564
     12          1           0       -0.941816   -1.852633   -0.702467
     13          1           0        0.700505    1.283929    1.334148
     14          1           0        1.134077    2.323789   -0.077532
     15          1           0       -0.736796    1.457698   -1.254908
     16          1           0       -2.378106    0.097296   -0.225116
 ---------------------------------------------------------------------

 SCF Done:  E(RHF) =  -360.898563410     A.U. after    2 cycles

 The electronic state is 1-A.
 Alpha  occ. eigenvalues --  -20.54010 -20.43914 -15.63361 -11.39466 -11.33287
 Alpha  occ. eigenvalues --  -11.30410 -11.27082  -1.31268  -1.21734  -1.19169
 Alpha  occ. eigenvalues --   -1.08704  -0.96501  -0.85096  -0.79422  -0.72109
 Alpha  occ. eigenvalues --   -0.67823  -0.66621  -0.64063  -0.61142  -0.59722
 Alpha  occ. eigenvalues --   -0.57723  -0.56560  -0.55935  -0.52717  -0.46854
 Alpha  occ. eigenvalues --   -0.38633  -0.37665  -0.35817
 Alpha virt. eigenvalues --    0.01703   0.02787   0.03536   0.03891   0.05545
 Alpha virt. eigenvalues --    0.06216   0.06824   0.07329   0.07679   0.08714
 Alpha virt. eigenvalues --    0.11478   0.11690   0.13002   0.13355   0.14184

 Mulliken charges:
               1
     1  C    0.397189
     2  C    0.093994
     3  O   -0.669973
     4  C    1.053181
     5  N   -0.593742
     6  C    1.050073
     7  O   -0.770059
     8  H    0.149430
     9  H   -0.024469
    10  H    0.063721
    11  H   -0.397707
    12  H    0.160825
    13  H   -0.185488
    14  H   -0.099788
    15  H   -0.032312
    16  H   -0.194875
 Sum of Mulliken charges =  -0.00000

 Dipole moment (field-independent basis, Debye):
    X=              6.2223    Y=              1.6390    Z=             -3.3722  Tot=              7.2646

 Test job not archived.
 1\1\GINC-SE226\SP\RHF\Aug-CC-pVDZ\C4H9N1O2\OHZDE\09-Apr-2025\0\\#t hf
 aug-cc-pvdz iop(5/13=1,5/36=2,99/5=2) pseudo=read geom=check guess=(re
 ad,tcheck) scf=(maxcycle=1)\\title\\0,1\C,0,-1.72341582,-0.31388118,-0
 .34086155\C,0,-0.45138259,-0.94740143,0.01879953\O,0,0.70603169,0.5105
 5535,-1.50649582\C,0,0.25607836,-0.67622673,1.25975557\N,0,1.40744053,
 -0.04707157,0.61575459\C,0,1.10805762,1.1765081,-0.18174585\O,0,0.2075
 4147,1.91720914,0.30129705\H,0,-2.47718604,-0.78445455,0.30984563\H,0,
 -1.99531484,-0.46292672,-1.38177324\H,0,-1.67702496,0.74696629,-0.0838

 Normal termination of Gaussian 16 at Wed Apr  9 14:49:03 2025.
