 Gaussian 16, Revision C.01,

 ----------------------------------------------------------------------
 #t hf aug-cc-pvdz symm=none int=(grid=ultrafine) guess=(read,tcheck) s
 table=(opt,rrhf)
 ----------------------------------------------------------------------
 -----
 title
 -----
 Symbolic Z-matrix:
 Charge =  0 Multiplicity = 1

 SCF Done:  E(RHF) =  -320.112527546     A.U. after   19 cycles
 Normal termination of Gaussian 16 at Wed Apr  9 04:05:39 2025.
 Gaussian 16:  ES64L-G16RevC.01  3-Jul-2019

 ----------------------------------------------------------------------
 #t hf aug-cc-pvdz iop(5/13=1,5/36=2,99/5=2) pseudo=read geom=check gue
 ss=(read,tcheck) scf=(maxcycle=1)
 ----------------------------------------------------------------------
 -----
 title
 -----
 Structure from the checkpoint file:  "Grambow2020_wb97xd3_009369_reverse_mol1.chk"
 Charge =  0 Multiplicity = 1

                         Standard orientation:
 ---------------------------------------------------------------------
 Center     Atomic      Atomic             Coordinates (Angstroms)
 Number     Number       Type             X           Y           Z
 ---------------------------------------------------------------------
      1          6           0        2.955660   -0.267813   -0.001063
      2          6           0        1.833864    0.157929   -0.000163
      3          6           0        0.524536    0.621063    0.000732
      4          6           0       -0.376409    1.453079    0.001010
      5          8           0       -2.211273    0.262984   -0.001595
      6          7           0       -1.648241   -0.808065   -0.000252
      7          6           0       -0.560905   -1.288831    0.000815
      8          1           0        3.959017   -0.622660   -0.001299
      9          1           0       -0.966305    2.339519    0.002573
     10          1           0       -0.025323   -2.216842    0.005272
 ---------------------------------------------------------------------

 SCF Done:  E(RHF) =  -320.213843822     A.U. after    2 cycles

 The electronic state is 1-A.
 Alpha  occ. eigenvalues --  -20.61897 -15.78220 -11.33862 -11.29200 -11.28100
 Alpha  occ. eigenvalues --  -11.27729 -11.26222  -1.46145  -1.17959  -1.08954
 Alpha  occ. eigenvalues --   -1.02289  -0.84896  -0.81157  -0.74769  -0.72538
 Alpha  occ. eigenvalues --   -0.70388  -0.68562  -0.67296  -0.49598  -0.49505
 Alpha  occ. eigenvalues --   -0.41646  -0.41255  -0.37578  -0.36145
 Alpha virt. eigenvalues --    0.02882   0.04014   0.04175   0.07083   0.07876
 Alpha virt. eigenvalues --    0.09151   0.09189   0.09811   0.10340   0.11318
 Alpha virt. eigenvalues --    0.12063   0.12583   0.14203   0.14268   0.15548

 Mulliken charges:
               1
     1  C    0.234601
     2  C    0.331090
     3  C    0.461129
     4  C   -0.057266
     5  O   -0.588498
     6  N    0.221532
     7  C    0.573239
     8  H   -0.552773
     9  H   -0.465684
    10  H   -0.157370
 Sum of Mulliken charges =  -0.00000

 Dipole moment (field-independent basis, Debye):
    X=              2.3896    Y=             -1.7678    Z=              0.0104  Tot=              2.9724

 Test job not archived.
 1\1\GINC-SE363\SP\RHF\Aug-CC-pVDZ\C5H3N1O1\OHZDE\09-Apr-2025\0\\#t hf
 aug-cc-pvdz iop(5/13=1,5/36=2,99/5=2) pseudo=read geom=check guess=(re
 ad,tcheck) scf=(maxcycle=1)\\title\\0,1\C,0,2.59271422,-0.11042012,0.3
 3644575\C,0,1.45199353,0.25434441,0.26303674\C,0,0.12317206,0.6472557,
 0.16983682\C,0,-0.83023256,1.41713341,0.21737856\O,0,-2.5518402,0.1792
 8529,-0.31820958\N,0,-1.91426405,-0.83835969,-0.46669379\C,0,-0.803661
 53,-1.25861799,-0.40852774\H,0,3.61094408,-0.41155731,0.40831321\H,0,-
 1.48068188,2.25332774,0.32438405\H,0,-0.20451566,-2.13900744,-0.526891

 Normal termination of Gaussian 16 at Wed Apr  9 04:05:45 2025.
