 Gaussian 16, Revision C.01,

 ----------------------------------------------------------------------
 #t hf aug-cc-pvdz symm=none int=(grid=ultrafine) guess=(read,tcheck) s
 table=(opt,rrhf)
 ----------------------------------------------------------------------
 -----
 title
 -----
 Symbolic Z-matrix:
 Charge =  0 Multiplicity = 1

 SCF Done:  E(RHF) =  -289.056458574     A.U. after   15 cycles

 1\1\GINC-SE112\Stability\RHF\Aug-CC-pVDZ\C6H13N1\OHZDE\09-Apr-2025\0\\
 #t hf aug-cc-pvdz symm=none int=(grid=ultrafine) guess=(read,tcheck) s
 table=(opt,rrhf)\\title\\0,1\C,0,-1.12104922,1.94977542,0.59623198\C,0
 ,-0.76351564,0.49798986,0.8632037\N,0,-1.50535315,-0.48526804,0.197261
 81\C,0,-0.511871,-1.72727454,-0.71369448\C,0,0.23724643,-0.20324656,0.
 00527731\C,0,1.3188992,-0.87596839,0.82750857\C,0,0.73354778,0.5537706
 2,-1.20307274\H,0,-2.0264981,2.19857878,1.15323527\H,0,-0.32989556,2.6
 2692661,0.9307186\H,0,-1.32463446,2.12447528,-0.45941318\H,0,-0.576960

 Normal termination of Gaussian 16 at Wed Apr  9 17:03:57 2025.
 Gaussian 16:  ES64L-G16RevC.01  3-Jul-2019

 ----------------------------------------------------------------------
 #t hf aug-cc-pvdz iop(5/13=1,5/36=2,99/5=2) pseudo=read geom=check gue
 ss=(read,tcheck) scf=(maxcycle=1)
 ----------------------------------------------------------------------
 -----
 title
 -----
 Structure from the checkpoint file:  "Grambow2020_wb97xd3_009132_reverse_mol1.chk"
 Charge =  0 Multiplicity = 1

                         Standard orientation:
 ---------------------------------------------------------------------
 Center     Atomic      Atomic             Coordinates (Angstroms)
 Number     Number       Type             X           Y           Z
 ---------------------------------------------------------------------
      1          6           0        2.264753   -0.076970   -0.001071
      2          6           0        0.920008    0.314449    0.586496
      3          7           0        0.247167    1.394639    0.002482
      4          6           0       -1.487588    1.060108   -0.485516
      5          6           0       -0.340177   -0.280406    0.050420
      6          6           0       -1.206443   -0.862963    1.149876
      7          6           0       -0.204146   -1.145569   -1.179413
      8          1           0        3.020338    0.631863    0.343373
      9          1           0        2.572135   -1.074098    0.326942
     10          1           0        2.251579   -0.042114   -1.089632
     11          1           0        0.961088    0.287246    1.688663
     12          1           0       -2.134685    0.268080   -0.885905
     13          1           0       -1.995826    1.530322    0.347453
     14          1           0       -1.327723    1.757047   -1.297668
     15          1           0       -0.722083   -1.763270    1.535640
     16          1           0       -1.319105   -0.159767    1.974759
     17          1           0       -2.198071   -1.135570    0.780552
     18          1           0        0.257154   -0.596712   -1.998468
     19          1           0       -1.184155   -1.497028   -1.511035
     20          1           0        0.410748   -2.020370   -0.956808
 ---------------------------------------------------------------------

 SCF Done:  E(RHF) =  -289.143553657     A.U. after    2 cycles

 The electronic state is 1-A.
 Alpha  occ. eigenvalues --  -15.60411 -11.29792 -11.27023 -11.25451 -11.24091
 Alpha  occ. eigenvalues --  -11.23764 -11.21870  -1.20043  -1.03237  -0.97946
 Alpha  occ. eigenvalues --   -0.95291  -0.91605  -0.78326  -0.73138  -0.65258
 Alpha  occ. eigenvalues --   -0.63726  -0.61848  -0.59204  -0.56662  -0.55423
 Alpha  occ. eigenvalues --   -0.54025  -0.53363  -0.52674  -0.50943  -0.48830
 Alpha  occ. eigenvalues --   -0.45604  -0.37315  -0.32470
 Alpha virt. eigenvalues --    0.03232   0.04107   0.04311   0.04808   0.06360
 Alpha virt. eigenvalues --    0.06501   0.06742   0.06855   0.07239   0.08965
 Alpha virt. eigenvalues --    0.09176   0.09260   0.09641   0.12284   0.12860

 Mulliken charges:
               1
     1  C    0.446044
     2  C    0.597118
     3  N   -0.992955
     4  C    0.857243
     5  C   -2.221139
     6  C    0.939222
     7  C    0.860089
     8  H   -0.032475
     9  H    0.026834
    10  H    0.050075
    11  H   -0.171657
    12  H    0.004830
    13  H   -0.069060
    14  H   -0.183633
    15  H   -0.009933
    16  H    0.006498
    17  H   -0.071142
    18  H    0.107840
    19  H   -0.137061
    20  H   -0.006737
 Sum of Mulliken charges =  -0.00000

 Dipole moment (field-independent basis, Debye):
    X=             -1.0403    Y=             -2.2809    Z=              0.0889  Tot=              2.5085

 Test job not archived.
 1\1\GINC-SE112\SP\RHF\Aug-CC-pVDZ\C6H13N1\OHZDE\09-Apr-2025\0\\#t hf a
 ug-cc-pvdz iop(5/13=1,5/36=2,99/5=2) pseudo=read geom=check guess=(rea
 d,tcheck) scf=(maxcycle=1)\\title\\0,1\C,0,-1.12104922,1.94977542,0.59
 623198\C,0,-0.76351564,0.49798986,0.8632037\N,0,-1.50535315,-0.4852680
 4,0.19726181\C,0,-0.511871,-1.72727454,-0.71369448\C,0,0.23724643,-0.2
 0324656,0.00527731\C,0,1.3188992,-0.87596839,0.82750857\C,0,0.73354778
 ,0.55377062,-1.20307274\H,0,-2.0264981,2.19857878,1.15323527\H,0,-0.32
 989556,2.62692661,0.9307186\H,0,-1.32463446,2.12447528,-0.45941318\H,0

 Normal termination of Gaussian 16 at Wed Apr  9 17:04:06 2025.
