 Gaussian 16, Revision C.01,

 ----------------------------------------------------------------------
 #t hf aug-cc-pvdz symm=none int=(grid=ultrafine) guess=(read,tcheck) s
 table=(opt,rrhf)
 ----------------------------------------------------------------------
 -----
 title
 -----
 Symbolic Z-matrix:
 Charge =  0 Multiplicity = 1

 SCF Done:  E(RHF) =  -323.857113392     A.U. after   14 cycles
 Normal termination of Gaussian 16 at Wed Apr  9 03:40:30 2025.
 Gaussian 16:  ES64L-G16RevC.01  3-Jul-2019

 ----------------------------------------------------------------------
 #t hf aug-cc-pvdz iop(5/13=1,5/36=2,99/5=2) pseudo=read geom=check gue
 ss=(read,tcheck) scf=(maxcycle=1)
 ----------------------------------------------------------------------
 -----
 title
 -----
 Structure from the checkpoint file:  "Grambow2020_wb97xd3_007538_reverse_mol2.chk"
 Charge =  0 Multiplicity = 1

                         Standard orientation:
 ---------------------------------------------------------------------
 Center     Atomic      Atomic             Coordinates (Angstroms)
 Number     Number       Type             X           Y           Z
 ---------------------------------------------------------------------
      1          6           0       -3.114534    0.670847    0.121443
      2          8           0       -1.902458    0.287322   -0.471161
      3          6           0       -1.135331   -0.544346    0.372162
      4          6           0        0.096795   -0.990284   -0.345909
      5          6           0        3.100113    0.906059   -0.108805
      6          6           0        1.293095   -0.584494   -0.001648
      7          7           0        2.401732   -0.273369    0.375556
      8          1           0       -3.641127    1.304984   -0.590419
      9          1           0       -2.949341    1.236476    1.048547
     10          1           0       -3.743196   -0.199291    0.354655
     11          1           0       -1.735813   -1.418210    0.665752
     12          1           0       -0.864359   -0.008280    1.292103
     13          1           0        0.003137   -1.653049   -1.197048
     14          1           0        2.506549    1.487620   -0.818673
     15          1           0        4.028535    0.588355   -0.583804
     16          1           0        3.362322    1.529714    0.745828
 ---------------------------------------------------------------------

 SCF Done:  E(RHF) =  -323.961822474     A.U. after    2 cycles

 The electronic state is 1-A.
 Alpha  occ. eigenvalues --  -20.57105 -15.64569 -11.31486 -11.29764 -11.28214
 Alpha  occ. eigenvalues --  -11.27788 -11.23848  -1.34068  -1.22938  -1.05821
 Alpha  occ. eigenvalues --   -0.97037  -0.93008  -0.86440  -0.71547  -0.68240
 Alpha  occ. eigenvalues --   -0.66572  -0.66088  -0.63412  -0.61627  -0.60694
 Alpha  occ. eigenvalues --   -0.55055  -0.54134  -0.50077  -0.49351  -0.43971
 Alpha  occ. eigenvalues --   -0.43283  -0.33790
 Alpha virt. eigenvalues --    0.03415   0.04007   0.04404   0.05125   0.05990
 Alpha virt. eigenvalues --    0.06488   0.06801   0.07455   0.08690   0.10109
 Alpha virt. eigenvalues --    0.11262   0.12706   0.13514   0.13929   0.14519

 Mulliken charges:
               1
     1  C    0.677752
     2  O   -0.632555
     3  C    0.466561
     4  C    1.379744
     5  C    0.748143
     6  C   -0.943014
     7  N   -0.336599
     8  H   -0.256853
     9  H   -0.061922
    10  H   -0.067529
    11  H   -0.080295
    12  H   -0.226475
    13  H   -0.312198
    14  H   -0.110374
    15  H   -0.121181
    16  H   -0.123205
 Sum of Mulliken charges =  -0.00000

 Dipole moment (field-independent basis, Debye):
    X=             -0.4875    Y=              0.8171    Z=              0.4291  Tot=              1.0438

 Test job not archived.
 1\1\GINC-SE341\SP\RHF\Aug-CC-pVDZ\C5H9N1O1\OHZDE\09-Apr-2025\0\\#t hf
 aug-cc-pvdz iop(5/13=1,5/36=2,99/5=2) pseudo=read geom=check guess=(re
 ad,tcheck) scf=(maxcycle=1)\\title\\0,1\C,0,2.95554079,0.37628575,0.38
 719079\O,0,1.59206529,0.63494177,0.59073982\C,0,0.83507989,-0.5503891,
 0.70612159\C,0,-0.58812112,-0.21135261,1.00972716\C,0,-2.92943351,0.24
 480629,-1.63270153\C,0,-1.5544017,-0.41244556,0.14939073\N,0,-2.453728
 64,-0.68029274,-0.61717683\H,0,3.463359,1.33669778,0.31033255\H,0,3.12
 492578,-0.19157672,-0.53778871\H,0,3.3887631,-0.18851837,1.22388611\H,

 Normal termination of Gaussian 16 at Wed Apr  9 03:40:35 2025.
