 Gaussian 16, Revision C.01,

 ----------------------------------------------------------------------
 #t hf aug-cc-pvdz symm=none int=(grid=ultrafine) guess=(read,tcheck) s
 table=(opt,rrhf)
 ----------------------------------------------------------------------
 -----
 title
 -----
 Symbolic Z-matrix:
 Charge =  0 Multiplicity = 1

 SCF Done:  E(RHF) =  -286.906033052     A.U. after   14 cycles
 Normal termination of Gaussian 16 at Wed Apr  9 16:34:12 2025.
 Gaussian 16:  ES64L-G16RevC.01  3-Jul-2019

 ----------------------------------------------------------------------
 #t hf aug-cc-pvdz iop(5/13=1,5/36=2,99/5=2) pseudo=read geom=check gue
 ss=(read,tcheck) scf=(maxcycle=1)
 ----------------------------------------------------------------------
 -----
 title
 -----
 Structure from the checkpoint file:  "Grambow2020_wb97xd3_008584_reverse_mol2.chk"
 Charge =  0 Multiplicity = 1

                         Standard orientation:
 ---------------------------------------------------------------------
 Center     Atomic      Atomic             Coordinates (Angstroms)
 Number     Number       Type             X           Y           Z
 ---------------------------------------------------------------------
      1          6           0        2.299163   -0.546413    0.473390
      2          6           0        1.164041   -0.097742   -0.440047
      3          6           0       -0.081639   -0.921996   -0.343663
      4          6           0       -1.099605   -0.118169   -0.022347
      5          6           0       -2.540172   -0.439904    0.195224
      6          6           0       -0.504650    1.226111    0.089222
      7          7           0        0.751294    1.267396   -0.133162
      8          1           0        1.969972   -0.542345    1.513924
      9          1           0        2.623717   -1.556035    0.216126
     10          1           0        3.146970    0.130860    0.375238
     11          1           0       -0.123942   -1.991126   -0.507799
     12          1           0       -2.856901   -0.157700    1.202234
     13          1           0       -2.730563   -1.505321    0.066324
     14          1           0       -3.174879    0.105697   -0.507146
     15          1           0       -1.063026    2.125602    0.338986
     16          1           0        1.526765   -0.092720   -1.476424
 ---------------------------------------------------------------------

 SCF Done:  E(RHF) =  -286.992064544     A.U. after    2 cycles

 The electronic state is 1-A.
 Alpha  occ. eigenvalues --  -15.61211 -11.27844 -11.26373 -11.24787 -11.24319
 Alpha  occ. eigenvalues --  -11.24043 -11.22756  -1.23483  -1.05736  -1.02444
 Alpha  occ. eigenvalues --   -0.94655  -0.87420  -0.76533  -0.74319  -0.66778
 Alpha  occ. eigenvalues --   -0.62245  -0.59003  -0.58429  -0.57374  -0.54094
 Alpha  occ. eigenvalues --   -0.53340  -0.51983  -0.48413  -0.42841  -0.41029
 Alpha  occ. eigenvalues --   -0.34368
 Alpha virt. eigenvalues --    0.03177   0.03795   0.04586   0.04609   0.05798
 Alpha virt. eigenvalues --    0.06641   0.06715   0.07378   0.08828   0.09725
 Alpha virt. eigenvalues --    0.11329   0.12032   0.12593   0.13502   0.14101

 Mulliken charges:
               1
     1  C    0.577622
     2  C   -0.130953
     3  C    0.581008
     4  C   -0.730123
     5  C    0.471866
     6  C    0.601794
     7  N   -0.578660
     8  H   -0.006655
     9  H   -0.004272
    10  H   -0.013095
    11  H   -0.371503
    12  H    0.064129
    13  H   -0.079272
    14  H    0.065970
    15  H   -0.364308
    16  H   -0.083548
 Sum of Mulliken charges =  -0.00000

 Dipole moment (field-independent basis, Debye):
    X=             -1.5724    Y=             -1.8160    Z=              0.0197  Tot=              2.4022

 Test job not archived.
 1\1\GINC-SE037\SP\RHF\Aug-CC-pVDZ\C6H9N1\OHZDE\09-Apr-2025\0\\#t hf au
 g-cc-pvdz iop(5/13=1,5/36=2,99/5=2) pseudo=read geom=check guess=(read
 ,tcheck) scf=(maxcycle=1)\\title\\0,1\C,0,2.36774256,-0.18231038,0.367
 36906\C,0,1.18850945,0.19481924,-0.52221348\C,0,0.01104157,-0.72424473
 ,-0.42580431\C,0,-1.06065133,-0.00701352,-0.07553085\C,0,-2.4690883,-0
 .44233395,0.15443705\C,0,-0.56868909,1.37665361,0.05464502\N,0,0.67706
 329,1.5183216,-0.18323482\H,0,2.05432446,-0.22284493,1.41198383\H,0,2.
 76479399,-1.15909568,0.08612607\H,0,3.15975947,0.55973198,0.2714924\H,

 Normal termination of Gaussian 16 at Wed Apr  9 16:34:19 2025.
