 Gaussian 16, Revision C.01,

 ----------------------------------------------------------------------
 #t hf aug-cc-pvdz symm=none int=(grid=ultrafine) guess=(read,tcheck) s
 table=(opt,rrhf)
 ----------------------------------------------------------------------
 -----
 title
 -----
 Symbolic Z-matrix:
 Charge =  0 Multiplicity = 1

 SCF Done:  E(RHF) =  -302.720936896     A.U. after   15 cycles
 Normal termination of Gaussian 16 at Wed Apr  9 03:59:47 2025.
 Gaussian 16:  ES64L-G16RevC.01  3-Jul-2019

 ----------------------------------------------------------------------
 #t hf aug-cc-pvdz iop(5/13=1,5/36=2,99/5=2) pseudo=read geom=check gue
 ss=(read,tcheck) scf=(maxcycle=1)
 ----------------------------------------------------------------------
 -----
 title
 -----
 Structure from the checkpoint file:  "Grambow2020_wb97xd3_008838_reverse_mol1.chk"
 Charge =  0 Multiplicity = 1

                         Standard orientation:
 ---------------------------------------------------------------------
 Center     Atomic      Atomic             Coordinates (Angstroms)
 Number     Number       Type             X           Y           Z
 ---------------------------------------------------------------------
      1          6           0       -0.654224    1.522584   -0.173842
      2          6           0       -0.479175   -0.332678   -0.631520
      3          6           0        0.651671   -0.926932    0.204367
      4          6           0        1.918810   -0.213602    0.069251
      5          7           0        2.908569    0.358101   -0.027757
      6          6           0       -1.718199    0.212603    0.567089
      7          7           0       -1.704070   -0.965062   -0.215365
      8          1           0       -0.854354    2.138957    0.712790
      9          1           0        0.419414    1.595944   -0.325142
     10          1           0       -1.165669    1.943351   -1.033294
     11          1           0        0.780166   -1.924756   -0.224699
     12          1           0        0.443254   -1.079019    1.270572
     13          1           0       -2.609650    0.818509    0.466722
     14          1           0       -1.373330    0.085024    1.586246
     15          1           0       -2.384626   -0.901139   -0.963416
 ---------------------------------------------------------------------

 SCF Done:  E(RHF) =  -302.808761535     A.U. after    2 cycles

 The electronic state is 1-A.
 Alpha  occ. eigenvalues --  -15.64907 -15.63199 -11.33884 -11.29803 -11.28865
 Alpha  occ. eigenvalues --  -11.28223 -11.28095  -1.27004  -1.19269  -1.04787
 Alpha  occ. eigenvalues --   -0.99501  -0.88763  -0.82124  -0.70083  -0.68852
 Alpha  occ. eigenvalues --   -0.65245  -0.62446  -0.61263  -0.57489  -0.56091
 Alpha  occ. eigenvalues --   -0.54196  -0.51174  -0.46192  -0.45570  -0.41649
 Alpha  occ. eigenvalues --   -0.33376
 Alpha virt. eigenvalues --    0.02360   0.03654   0.04035   0.04703   0.06471
 Alpha virt. eigenvalues --    0.06635   0.07503   0.08415   0.09000   0.10722
 Alpha virt. eigenvalues --    0.12514   0.13208   0.13311   0.13748   0.13963

 Mulliken charges:
               1
     1  C    0.523674
     2  C   -0.483584
     3  C    0.607750
     4  C   -0.280397
     5  N   -0.205615
     6  C    0.874993
     7  N   -0.438319
     8  H   -0.102664
     9  H   -0.238053
    10  H   -0.019971
    11  H    0.071287
    12  H    0.054066
    13  H   -0.159124
    14  H   -0.267936
    15  H    0.063893
 Sum of Mulliken charges =  -0.00000

 Dipole moment (field-independent basis, Debye):
    X=             -5.0346    Y=              0.1669    Z=              1.5320  Tot=              5.2652

 Test job not archived.
 1\1\GINC-SE334\SP\RHF\Aug-CC-pVDZ\C5H8N2\OHZDE\09-Apr-2025\0\\#t hf au
 g-cc-pvdz iop(5/13=1,5/36=2,99/5=2) pseudo=read geom=check guess=(read
 ,tcheck) scf=(maxcycle=1)\\title\\0,1\C,0,-0.89170499,0.91288628,0.620
 60812\C,0,-0.19518158,-0.12035498,-0.83863044\C,0,1.32162855,-0.201820
 21,-0.68595916\C,0,1.97234127,1.10174637,-0.58583882\N,0,2.47846829,2.
 12692524,-0.49245009\C,0,-0.86366893,-0.92997044,0.63338283\N,0,-0.719
 44398,-1.45122006,-0.67307306\H,0,-0.90570484,0.88640709,1.71841738\H,
 0,-0.13841568,1.655463,0.37139482\H,0,-1.85651234,1.24501406,0.2516686

 Normal termination of Gaussian 16 at Wed Apr  9 03:59:52 2025.
