 Gaussian 16, Revision C.01,

 ----------------------------------------------------------------------
 #t hf aug-cc-pvdz symm=none int=(grid=ultrafine) guess=(read,tcheck) s
 table=(opt,rrhf)
 ----------------------------------------------------------------------
 -----
 title
 -----
 Symbolic Z-matrix:
 Charge =  0 Multiplicity = 1

 SCF Done:  E(RHF) =  -283.494029377     A.U. after   16 cycles
 Normal termination of Gaussian 16 at Wed Apr  9 03:09:44 2025.
 Gaussian 16:  ES64L-G16RevC.01  3-Jul-2019

 ----------------------------------------------------------------------
 #t hf aug-cc-pvdz iop(5/13=1,5/36=2,99/5=2) pseudo=read geom=check gue
 ss=(read,tcheck) scf=(maxcycle=1)
 ----------------------------------------------------------------------
 -----
 title
 -----
 Structure from the checkpoint file:  "Grambow2020_b97d3_006725_forward_mol1.chk"
 Charge =  0 Multiplicity = 1

                         Standard orientation:
 ---------------------------------------------------------------------
 Center     Atomic      Atomic             Coordinates (Angstroms)
 Number     Number       Type             X           Y           Z
 ---------------------------------------------------------------------
      1          6           0        1.348653   -0.004290   -0.703584
      2          6           0        0.680323    0.886074    0.191995
      3          8           0       -1.043406    1.011564    0.027152
      4          6           0       -1.344160   -0.231325   -0.135951
      5          7           0       -0.432546   -1.197856    0.085157
      6          6           0        0.798787   -0.512249    0.605617
      7          1           0        0.161349   -1.133316   -0.983398
      8          1           0        2.364229    0.138387   -1.064440
      9          1           0        0.951398    1.830250    0.655068
     10          1           0       -2.261490   -0.472968   -0.682427
     11          1           0        1.257974   -0.899131    1.513419
 ---------------------------------------------------------------------

 SCF Done:  E(RHF) =  -283.577494742     A.U. after    2 cycles

 The electronic state is 1-A.
 Alpha  occ. eigenvalues --  -20.62553 -15.65191 -11.40191 -11.32609 -11.28547
 Alpha  occ. eigenvalues --  -11.21302  -1.40295  -1.22853  -1.11422  -0.86928
 Alpha  occ. eigenvalues --   -0.83167  -0.78589  -0.73450  -0.68230  -0.65268
 Alpha  occ. eigenvalues --   -0.60758  -0.55602  -0.54292  -0.49259  -0.45290
 Alpha  occ. eigenvalues --   -0.41290  -0.31287
 Alpha virt. eigenvalues --    0.03376   0.03861   0.04888   0.04984   0.06926
 Alpha virt. eigenvalues --    0.08427   0.09787   0.10683   0.10975   0.11467
 Alpha virt. eigenvalues --    0.13566   0.14070   0.14939   0.15304   0.15731

 Mulliken charges:
               1
     1  C   -0.020741
     2  C    0.684085
     3  O   -0.603874
     4  C    0.739034
     5  N   -0.754094
     6  C    0.660468
     7  H    0.621054
     8  H   -0.420214
     9  H   -0.364784
    10  H   -0.204604
    11  H   -0.336330
 Sum of Mulliken charges =  -0.00000

 Dipole moment (field-independent basis, Debye):
    X=             -0.3593    Y=              0.1293    Z=              0.7382  Tot=              0.8311

 Test job not archived.
 1\1\GINC-SE095\SP\RHF\Aug-CC-pVDZ\C4H5N1O1\OHZDE\09-Apr-2025\0\\#t hf
 aug-cc-pvdz iop(5/13=1,5/36=2,99/5=2) pseudo=read geom=check guess=(re
 ad,tcheck) scf=(maxcycle=1)\\title\\0,1\C,0,-1.25170258,0.31292781,-0.
 16397859\C,0,-0.40477776,-0.71443502,-0.68235932\O,0,1.21667968,-0.254
 16782,-1.09852381\C,0,1.50254699,0.49638264,-0.09016784\N,0,0.70522183
 ,0.52954817,0.9948595\C,0,-0.37378532,-0.48981205,0.76298033\H,0,-0.14
 140816,1.3065229,0.57270377\H,0,-2.329265,0.3469649,-0.30422702\H,0,-0
 .57729561,-1.58994269,-1.30131854\H,0,2.25835463,1.27675212,-0.2254469

 Normal termination of Gaussian 16 at Wed Apr  9 03:09:47 2025.
