 Gaussian 16, Revision C.01,

 ----------------------------------------------------------------------
 #t hf aug-cc-pvdz symm=none int=(grid=ultrafine) guess=(read,tcheck) s
 table=(opt,rrhf)
 ----------------------------------------------------------------------
 -----
 title
 -----
 Symbolic Z-matrix:
 Charge =  0 Multiplicity = 1

 SCF Done:  E(RHF) =  -321.593731381     A.U. after   14 cycles
 Normal termination of Gaussian 16 at Wed Apr  9 03:45:15 2025.
 Gaussian 16:  ES64L-G16RevC.01  3-Jul-2019

 ----------------------------------------------------------------------
 #t hf aug-cc-pvdz iop(5/13=1,5/36=2,99/5=2) pseudo=read geom=check gue
 ss=(read,tcheck) scf=(maxcycle=1)
 ----------------------------------------------------------------------
 -----
 title
 -----
 Structure from the checkpoint file:  "Grambow2020_wb97xd3_007885_reverse_mol2.chk"
 Charge =  0 Multiplicity = 1

                         Standard orientation:
 ---------------------------------------------------------------------
 Center     Atomic      Atomic             Coordinates (Angstroms)
 Number     Number       Type             X           Y           Z
 ---------------------------------------------------------------------
      1          8           0        2.793008    0.211313   -0.005526
      2          6           0        2.130381   -0.696023   -0.036014
      3          6           0       -1.062903   -0.218752   -1.117328
      4          7           0       -1.205011   -1.021125   -0.023373
      5          6           0       -1.019483   -0.290498    1.113498
      6          6           0       -0.766536    1.003560    0.743283
      7          6           0       -0.793302    1.049070   -0.674956
      8          1           0       -1.166534   -0.612025   -2.115361
      9          1           0       -1.370163   -2.009250   -0.051982
     10          1           0       -1.084837   -0.746070    2.088004
     11          1           0       -0.580564    1.826178    1.414878
     12          1           0       -0.635832    1.914393   -1.298618
 ---------------------------------------------------------------------

 SCF Done:  E(RHF) =  -321.693853163     A.U. after    2 cycles

 The electronic state is 1-A.
 Alpha  occ. eigenvalues --  -20.66493 -15.67138 -11.35704 -11.26412 -11.26398
 Alpha  occ. eigenvalues --  -11.22068 -11.21974  -1.47681  -1.26832  -1.03618
 Alpha  occ. eigenvalues --   -0.97843  -0.80205  -0.79515  -0.77233  -0.74161
 Alpha  occ. eigenvalues --   -0.64410  -0.64328  -0.59917  -0.58772  -0.57948
 Alpha  occ. eigenvalues --   -0.55452  -0.53511  -0.53283  -0.35055  -0.30511
 Alpha virt. eigenvalues --    0.03140   0.03892   0.04412   0.06143   0.06517
 Alpha virt. eigenvalues --    0.07440   0.10161   0.10528   0.11507   0.12205
 Alpha virt. eigenvalues --    0.13200   0.14266   0.14599   0.14760   0.14933

 Mulliken charges:
               1
     1  O   -0.226284
     2  C    0.220483
     3  C    0.526803
     4  N   -0.303620
     5  C    0.529375
     6  C    0.383484
     7  C    0.374983
     8  H   -0.323454
     9  H   -0.116377
    10  H   -0.323769
    11  H   -0.372459
    12  H   -0.369165
 Sum of Mulliken charges =  -0.00000

 Dipole moment (field-independent basis, Debye):
    X=             -0.8640    Y=             -2.2134    Z=             -0.0627  Tot=              2.3769

 Test job not archived.
 1\1\GINC-SE396\SP\RHF\Aug-CC-pVDZ\C5H5N1O1\OHZDE\09-Apr-2025\0\\#t hf
 aug-cc-pvdz iop(5/13=1,5/36=2,99/5=2) pseudo=read geom=check guess=(re
 ad,tcheck) scf=(maxcycle=1)\\title\\0,1\O,0,0.64151533,-1.4857652,2.75
 230529\C,0,-0.13166301,-1.73093536,1.97426381\C,0,0.41272741,-0.509262
 97,-1.15706962\N,0,-0.90996944,-0.2605994,-0.93486657\C,0,-1.04522833,
 0.79164573,-0.07743096\C,0,0.21037454,1.23277007,0.24583167\C,0,1.1373
 1828,0.40524164,-0.43985135\H,0,0.72903023,-1.31028914,-1.8049757\H,0,
 -1.66753049,-0.80208189,-1.30551814\H,0,-2.01723123,1.14166648,0.22945

 Normal termination of Gaussian 16 at Wed Apr  9 03:45:19 2025.
