 Gaussian 16, Revision C.01,

 ----------------------------------------------------------------------
 #t hf aug-cc-pvdz symm=none int=(grid=ultrafine) guess=(read,tcheck) s
 table=(opt,rrhf)
 ----------------------------------------------------------------------
 -----
 title
 -----
 Symbolic Z-matrix:
 Charge =  0 Multiplicity = 1

 SCF Done:  E(RHF) =  -343.709295900     A.U. after   13 cycles
 Normal termination of Gaussian 16 at Wed Apr  9 03:34:23 2025.
 Gaussian 16:  ES64L-G16RevC.01  3-Jul-2019

 ----------------------------------------------------------------------
 #t hf aug-cc-pvdz iop(5/13=1,5/36=2,99/5=2) pseudo=read geom=check gue
 ss=(read,tcheck) scf=(maxcycle=1)
 ----------------------------------------------------------------------
 -----
 title
 -----
 Structure from the checkpoint file:  "Grambow2020_wb97xd3_007148_reverse_mol2.chk"
 Charge =  0 Multiplicity = 1

                         Standard orientation:
 ---------------------------------------------------------------------
 Center     Atomic      Atomic             Coordinates (Angstroms)
 Number     Number       Type             X           Y           Z
 ---------------------------------------------------------------------
      1          8           0       -0.228673    1.373220   -0.308150
      2          6           0       -0.618853    0.028059   -0.103543
      3          6           0        0.467923   -0.968893   -0.286549
      4          6           0        1.759720   -0.716048   -0.078505
      5          8           0        2.296672    0.454737    0.317576
      6          6           0       -2.031402   -0.318698   -0.461419
      7          6           0       -1.635832   -0.138605    0.979552
      8          1           0        1.584546    1.111760    0.348856
      9          1           0        0.193321   -1.969170   -0.595768
     10          1           0       -0.103369    1.498602   -1.253176
     11          1           0        2.515300   -1.479579   -0.222077
     12          1           0       -2.231601   -1.317891   -0.826652
     13          1           0       -2.630144    0.463515   -0.909218
     14          1           0       -1.964344    0.766306    1.473086
     15          1           0       -1.557036   -1.012082    1.612331
 ---------------------------------------------------------------------

 SCF Done:  E(RHF) =  -343.817639291     A.U. after    2 cycles

 The electronic state is 1-A.
 Alpha  occ. eigenvalues --  -20.59740 -20.58912 -11.31009 -11.30400 -11.24295
 Alpha  occ. eigenvalues --  -11.24030 -11.22802  -1.36621  -1.34585  -1.13936
 Alpha  occ. eigenvalues --   -1.02506  -0.86555  -0.84126  -0.79823  -0.73819
 Alpha  occ. eigenvalues --   -0.68945  -0.66766  -0.65007  -0.62003  -0.58925
 Alpha  occ. eigenvalues --   -0.57151  -0.55345  -0.52877  -0.52058  -0.45011
 Alpha  occ. eigenvalues --   -0.42826  -0.33191
 Alpha virt. eigenvalues --    0.03268   0.04231   0.04653   0.04974   0.06027
 Alpha virt. eigenvalues --    0.06819   0.07117   0.08195   0.10220   0.11605
 Alpha virt. eigenvalues --    0.12296   0.13346   0.13603   0.13840   0.15094

 Mulliken charges:
               1
     1  O   -0.634123
     2  C    0.138974
     3  C    0.899692
     4  C    0.513801
     5  O   -0.493774
     6  C    0.665936
     7  C    0.508631
     8  H    0.179711
     9  H   -0.442036
    10  H    0.150078
    11  H   -0.290355
    12  H   -0.365155
    13  H   -0.261888
    14  H   -0.242671
    15  H   -0.326821
 Sum of Mulliken charges =  -0.00000

 Dipole moment (field-independent basis, Debye):
    X=             -1.8021    Y=             -0.8385    Z=             -1.3492  Tot=              2.4022

 Test job not archived.
 1\1\GINC-SE424\SP\RHF\Aug-CC-pVDZ\C5H8O2\OHZDE\09-Apr-2025\0\\#t hf au
 g-cc-pvdz iop(5/13=1,5/36=2,99/5=2) pseudo=read geom=check guess=(read
 ,tcheck) scf=(maxcycle=1)\\title\\0,1\O,0,0.10874842,-0.69000091,-1.32
 381228\C,0,-0.32500761,-0.16480145,-0.08301211\C,0,0.75544173,0.041417
 08,0.9162811\C,0,2.0251062,0.29990872,0.60469381\O,0,2.54259872,0.4117
 0261,-0.63451503\C,0,-1.70187677,-0.5529379,0.36104932\C,0,-1.44642374
 ,0.81559676,-0.21093095\H,0,1.8433955,0.19075542,-1.26861173\H,0,0.493
 67568,-0.00783479,1.96538996\H,0,0.32861918,-1.61586317,-1.18622143\H,

 Normal termination of Gaussian 16 at Wed Apr  9 03:34:28 2025.
