 Gaussian 16, Revision C.01,

 ----------------------------------------------------------------------
 #t hf aug-cc-pvdz symm=none int=(grid=ultrafine) guess=(read,tcheck) s
 table=(opt,rrhf)
 ----------------------------------------------------------------------
 -----
 title
 -----
 Symbolic Z-matrix:
 Charge =  0 Multiplicity = 1

 SCF Done:  E(RHF) =  -318.827685159     A.U. after   15 cycles
 Normal termination of Gaussian 16 at Wed Apr  9 15:29:57 2025.
 Gaussian 16:  ES64L-G16RevC.01  3-Jul-2019

 ----------------------------------------------------------------------
 #t hf aug-cc-pvdz iop(5/13=1,5/36=2,99/5=2) pseudo=read geom=check gue
 ss=(read,tcheck) scf=(maxcycle=1)
 ----------------------------------------------------------------------
 -----
 title
 -----
 Structure from the checkpoint file:  "Grambow2020_wb97xd3_006932_reverse_mol1.chk"
 Charge =  0 Multiplicity = 1

                         Standard orientation:
 ---------------------------------------------------------------------
 Center     Atomic      Atomic             Coordinates (Angstroms)
 Number     Number       Type             X           Y           Z
 ---------------------------------------------------------------------
      1          7           0        2.443738   -0.465794    0.037223
      2          6           0        1.087959   -0.182111   -0.009806
      3          6           0        0.000091   -0.981560    0.045278
      4          6           0       -1.143080   -0.072239    0.094855
      5          7           0       -2.459820   -0.472265   -0.208754
      6          6           0       -0.694045    1.304377   -0.025739
      7          7           0        0.666501    1.135386   -0.028871
      8          1           0        2.650883   -1.444913   -0.072396
      9          1           0        3.003703    0.093979   -0.587308
     10          1           0       -0.022626   -2.059352    0.039468
     11          1           0       -3.073820    0.326926   -0.271908
     12          1           0       -2.831684   -1.157681    0.431004
     13          1           0       -1.083826    0.540625    1.155641
     14          1           0        1.298888    1.908331    0.080787
 ---------------------------------------------------------------------

 SCF Done:  E(RHF) =  -318.921205661     A.U. after    2 cycles

 The electronic state is 1-A.
 Alpha  occ. eigenvalues --  -15.65960 -15.65071 -15.61645 -11.32569 -11.28716
 Alpha  occ. eigenvalues --  -11.25038 -11.21673  -1.28481  -1.18896  -1.15745
 Alpha  occ. eigenvalues --   -1.02302  -0.95722  -0.79663  -0.77678  -0.72984
 Alpha  occ. eigenvalues --   -0.67331  -0.67016  -0.65156  -0.58792  -0.57250
 Alpha  occ. eigenvalues --   -0.56153  -0.49659  -0.45188  -0.36661  -0.35445
 Alpha  occ. eigenvalues --   -0.31530
 Alpha virt. eigenvalues --    0.02596   0.03449   0.04183   0.05570   0.06157
 Alpha virt. eigenvalues --    0.06995   0.08077   0.10723   0.11840   0.12902
 Alpha virt. eigenvalues --    0.13212   0.13680   0.14341   0.15144   0.15517

 Mulliken charges:
               1
     1  N   -0.250990
     2  C    0.206915
     3  C    1.268068
     4  C    0.239137
     5  N   -0.412971
     6  C   -0.427862
     7  N   -0.334603
     8  H    0.029520
     9  H   -0.037043
    10  H   -0.410534
    11  H    0.044966
    12  H   -0.009011
    13  H    0.238306
    14  H   -0.143899
 Sum of Mulliken charges =  -0.00000

 Dipole moment (field-independent basis, Debye):
    X=              2.5729    Y=             -1.8564    Z=              0.4652  Tot=              3.2066

 Test job not archived.
 1\1\GINC-SE129\SP\RHF\Aug-CC-pVDZ\C4H7N3\OHZDE\09-Apr-2025\0\\#t hf au
 g-cc-pvdz iop(5/13=1,5/36=2,99/5=2) pseudo=read geom=check guess=(read
 ,tcheck) scf=(maxcycle=1)\\title\\0,1\N,0,-2.43531867,-0.41258474,-0.1
 7314151\C,0,-1.09226934,-0.10564686,-0.02203327\C,0,0.01125026,-0.8850
 9253,-0.00424071\C,0,1.13796087,0.04475187,0.04130692\N,0,2.43560489,-
 0.33562013,0.43809449\C,0,0.65586202,1.41170401,0.14265126\N,0,-0.6977
 9049,1.21874754,0.04242169\H,0,-2.63194088,-1.39644145,-0.08969006\H,0
 ,-3.0504568,0.12972752,0.41375411\H,0,0.0533618,-1.96231003,-0.0081912

 Normal termination of Gaussian 16 at Wed Apr  9 15:30:01 2025.
