 Gaussian 16, Revision C.01,

 ----------------------------------------------------------------------
 #t hf aug-cc-pvdz symm=none int=(grid=ultrafine) guess=(read,tcheck) s
 table=(opt,rrhf)
 ----------------------------------------------------------------------
 -----
 title
 -----
 Symbolic Z-matrix:
 Charge =  0 Multiplicity = 1

 SCF Done:  E(RHF) =  -307.773191237     A.U. after   14 cycles

 1\1\GINC-SE229\Stability\RHF\Aug-CC-pVDZ\C6H10O1\OHZDE\09-Apr-2025\0\\
 #t hf aug-cc-pvdz symm=none int=(grid=ultrafine) guess=(read,tcheck) s
 table=(opt,rrhf)\\title\\0,1\C,0,1.8969392,-1.44153518,0.25857425\C,0,
 1.22465545,-0.20530884,0.68043835\C,0,-0.39934682,2.15979262,-0.364560
 98\C,0,-1.09246289,0.95957429,0.22437842\O,0,-1.81847806,0.1930356,-0.
 76073312\C,0,-1.02993339,-0.98010801,-0.56360893\C,0,-0.21807972,-0.27
 008444,0.54573873\H,0,2.85676376,-1.60796778,0.74700526\H,0,2.14476763
 ,-1.16927986,-0.78455761\H,0,1.30360263,-2.36494886,0.21408898\H,0,0.1

 Normal termination of Gaussian 16 at Wed Apr  9 16:31:14 2025.
 Gaussian 16:  ES64L-G16RevC.01  3-Jul-2019

 ----------------------------------------------------------------------
 #t hf aug-cc-pvdz iop(5/13=1,5/36=2,99/5=2) pseudo=read geom=check gue
 ss=(read,tcheck) scf=(maxcycle=1)
 ----------------------------------------------------------------------
 -----
 title
 -----
 Structure from the checkpoint file:  "Grambow2020_wb97xd3_008494_reverse_mol2.chk"
 Charge =  0 Multiplicity = 1

                         Standard orientation:
 ---------------------------------------------------------------------
 Center     Atomic      Atomic             Coordinates (Angstroms)
 Number     Number       Type             X           Y           Z
 ---------------------------------------------------------------------
      1          6           0       -2.566768   -0.256360   -0.240910
      2          6           0       -1.336877   -0.860965    0.288250
      3          6           0        1.597880   -1.382814   -0.373558
      4          6           0        1.203552   -0.188138    0.454112
      5          8           0        1.404846    1.063264   -0.237695
      6          6           0        0.019733    1.406362   -0.211731
      7          6           0       -0.303948    0.115419    0.577313
      8          1           0       -3.464605   -0.840495   -0.040404
      9          1           0       -2.378526   -0.375058   -1.324488
     10          1           0       -2.736210    0.814277   -0.062735
     11          1           0        1.382280   -2.304207    0.169245
     12          1           0        2.664835   -1.344994   -0.599594
     13          1           0        1.041677   -1.406151   -1.313199
     14          1           0        1.746297   -0.180907    1.404876
     15          1           0       -0.410494    1.456611   -1.217915
     16          1           0       -0.161109    2.354996    0.300691
     17          1           0       -0.604345    0.318795    1.624228
 ---------------------------------------------------------------------

 SCF Done:  E(RHF) =  -307.867536111     A.U. after    2 cycles

 The electronic state is 1-A.
 Alpha  occ. eigenvalues --  -20.56350 -11.29388 -11.29147 -11.27123 -11.25246
 Alpha  occ. eigenvalues --  -11.24746 -11.22182  -1.34879  -1.08515  -1.01504
 Alpha  occ. eigenvalues --   -0.97456  -0.88954  -0.82000  -0.70984  -0.69898
 Alpha  occ. eigenvalues --   -0.64854  -0.63393  -0.59420  -0.57980  -0.57318
 Alpha  occ. eigenvalues --   -0.54499  -0.52950  -0.52705  -0.49121  -0.45848
 Alpha  occ. eigenvalues --   -0.42539  -0.34282
 Alpha virt. eigenvalues --    0.03175   0.04191   0.04530   0.04767   0.06154
 Alpha virt. eigenvalues --    0.06433   0.06819   0.07087   0.07411   0.08311
 Alpha virt. eigenvalues --    0.09579   0.11372   0.12334   0.13378   0.13780

 Mulliken charges:
               1
     1  C    0.460591
     2  C   -0.820804
     3  C    0.442429
     4  C    0.503125
     5  O   -0.823767
     6  C    1.063332
     7  C   -0.118105
     8  H   -0.102680
     9  H    0.105361
    10  H   -0.103533
    11  H    0.049497
    12  H   -0.036295
    13  H   -0.015916
    14  H   -0.211887
    15  H   -0.214921
    16  H   -0.185435
    17  H    0.009007
 Sum of Mulliken charges =  -0.00000

 Dipole moment (field-independent basis, Debye):
    X=             -1.9331    Y=              0.8344    Z=              0.3960  Tot=              2.1424

 Test job not archived.
 1\1\GINC-SE229\SP\RHF\Aug-CC-pVDZ\C6H10O1\OHZDE\09-Apr-2025\0\\#t hf a
 ug-cc-pvdz iop(5/13=1,5/36=2,99/5=2) pseudo=read geom=check guess=(rea
 d,tcheck) scf=(maxcycle=1)\\title\\0,1\C,0,1.8969392,-1.44153518,0.258
 57425\C,0,1.22465545,-0.20530884,0.68043835\C,0,-0.39934682,2.15979262
 ,-0.36456098\C,0,-1.09246289,0.95957429,0.22437842\O,0,-1.81847806,0.1
 930356,-0.76073312\C,0,-1.02993339,-0.98010801,-0.56360893\C,0,-0.2180
 7972,-0.27008444,0.54573873\H,0,2.85676376,-1.60796778,0.74700526\H,0,
 2.14476763,-1.16927986,-0.78455761\H,0,1.30360263,-2.36494886,0.214088

 Normal termination of Gaussian 16 at Wed Apr  9 16:31:20 2025.
