 Gaussian 16, Revision C.01,

 ----------------------------------------------------------------------
 #t hf aug-cc-pvdz symm=none int=(grid=ultrafine) guess=(read,tcheck) s
 table=(opt,rrhf)
 ----------------------------------------------------------------------
 -----
 title
 -----
 Symbolic Z-matrix:
 Charge =  0 Multiplicity = 1

 SCF Done:  E(RHF) =  -346.080100882     A.U. after   12 cycles

 1\1\GINC-SE057\Stability\RHF\Aug-CC-pVDZ\C5H12O2\OHZDE\09-Apr-2025\0\\
 #t hf aug-cc-pvdz symm=none int=(grid=ultrafine) guess=(read,tcheck) s
 table=(opt,rrhf)\\title\\0,1\C,0,-1.72398646,-0.47573491,1.38002953\O,
 0,-0.39444696,-0.35095003,0.94027859\C,0,-0.22246391,0.43307924,-0.237
 33955\C,0,-0.45265292,1.91166585,0.03454657\C,0,1.17778316,0.1606937,-
 0.76661018\C,0,1.46338404,-1.31086583,-1.03997445\O,0,1.65542745,-2.06
 639176,0.1341773\H,0,-2.11596879,0.46513586,1.77999431\H,0,-1.73323817
 ,-1.21955507,2.17559918\H,0,-2.38037913,-0.8145417,0.56868457\H,0,-0.9

 Normal termination of Gaussian 16 at Wed Apr  9 16:15:20 2025.
 Gaussian 16:  ES64L-G16RevC.01  3-Jul-2019

 ----------------------------------------------------------------------
 #t hf aug-cc-pvdz iop(5/13=1,5/36=2,99/5=2) pseudo=read geom=check gue
 ss=(read,tcheck) scf=(maxcycle=1)
 ----------------------------------------------------------------------
 -----
 title
 -----
 Structure from the checkpoint file:  "Grambow2020_wb97xd3_008009_forward_mol2.chk"
 Charge =  0 Multiplicity = 1

                         Standard orientation:
 ---------------------------------------------------------------------
 Center     Atomic      Atomic             Coordinates (Angstroms)
 Number     Number       Type             X           Y           Z
 ---------------------------------------------------------------------
      1          6           0       -1.696606    1.563202    0.197967
      2          8           0       -0.643828    0.767019   -0.286159
      3          6           0       -0.570169   -0.539428    0.278497
      4          6           0       -1.699840   -1.429160   -0.216830
      5          6           0        0.798260   -1.108819   -0.065316
      6          6           0        1.964907   -0.244304    0.396561
      7          8           0        2.142362    0.913325   -0.387492
      8          1           0       -2.673789    1.207481   -0.144722
      9          1           0       -1.542472    2.571185   -0.184783
     10          1           0       -1.698001    1.595545    1.294723
     11          1           0       -0.642157   -0.436853    1.373115
     12          1           0       -1.667119   -1.503759   -1.305580
     13          1           0       -2.678938   -1.047386    0.075291
     14          1           0       -1.600770   -2.431995    0.202214
     15          1           0        0.870316   -1.254425   -1.147811
     16          1           0        0.876060   -2.094982    0.401843
     17          1           0        1.828585    0.017589    1.457377
     18          1           0        2.894064   -0.813318    0.322941
     19          1           0        1.266630    1.299227   -0.500677
 ---------------------------------------------------------------------

 SCF Done:  E(RHF) =  -346.192336340     A.U. after    2 cycles

 The electronic state is 1-A.
 Alpha  occ. eigenvalues --  -20.58187 -20.54558 -11.29761 -11.29055 -11.27498
 Alpha  occ. eigenvalues --  -11.23224 -11.23053  -1.35067  -1.30261  -1.06838
 Alpha  occ. eigenvalues --   -0.97699  -0.94027  -0.85643  -0.80347  -0.70443
 Alpha  occ. eigenvalues --   -0.68504  -0.65804  -0.65224  -0.61008  -0.59859
 Alpha  occ. eigenvalues --   -0.57796  -0.55587  -0.54918  -0.51930  -0.50995
 Alpha  occ. eigenvalues --   -0.50290  -0.46399  -0.43913  -0.43432
 Alpha virt. eigenvalues --    0.03206   0.04193   0.04436   0.04802   0.06117
 Alpha virt. eigenvalues --    0.06293   0.06675   0.07067   0.07653   0.09115
 Alpha virt. eigenvalues --    0.09237   0.09971   0.12592   0.13462   0.13946

 Mulliken charges:
               1
     1  C    0.774124
     2  O   -0.737619
     3  C    0.024262
     4  C    0.485651
     5  C    0.115139
     6  C    0.964441
     7  O   -0.553876
     8  H   -0.163992
     9  H   -0.255760
    10  H   -0.072626
    11  H   -0.237068
    12  H    0.010886
    13  H   -0.122377
    14  H   -0.014356
    15  H   -0.080862
    16  H   -0.043641
    17  H   -0.126176
    18  H   -0.149113
    19  H    0.182961
 Sum of Mulliken charges =  -0.00000

 Dipole moment (field-independent basis, Debye):
    X=             -3.0844    Y=             -1.3579    Z=              1.5948  Tot=              3.7284

 Test job not archived.
 1\1\GINC-SE057\SP\RHF\Aug-CC-pVDZ\C5H12O2\OHZDE\09-Apr-2025\0\\#t hf a
 ug-cc-pvdz iop(5/13=1,5/36=2,99/5=2) pseudo=read geom=check guess=(rea
 d,tcheck) scf=(maxcycle=1)\\title\\0,1\C,0,-1.72398646,-0.47573491,1.3
 8002953\O,0,-0.39444696,-0.35095003,0.94027859\C,0,-0.22246391,0.43307
 924,-0.23733955\C,0,-0.45265292,1.91166585,0.03454657\C,0,1.17778316,0
 .1606937,-0.76661018\C,0,1.46338404,-1.31086583,-1.03997445\O,0,1.6554
 2745,-2.06639176,0.1341773\H,0,-2.11596879,0.46513586,1.77999431\H,0,-
 1.73323817,-1.21955507,2.17559918\H,0,-2.38037913,-0.8145417,0.5686845

 Normal termination of Gaussian 16 at Wed Apr  9 16:15:33 2025.
