 Gaussian 16, Revision C.01,

 ----------------------------------------------------------------------
 #t hf aug-cc-pvdz symm=none int=(grid=ultrafine) guess=(read,tcheck) s
 table=(opt,rrhf)
 ----------------------------------------------------------------------
 -----
 title
 -----
 Symbolic Z-matrix:
 Charge =  0 Multiplicity = 1

 SCF Done:  E(RHF) =  -317.727515277     A.U. after   14 cycles
 Normal termination of Gaussian 16 at Wed Apr  9 16:17:47 2025.
 Gaussian 16:  ES64L-G16RevC.01  3-Jul-2019

 ----------------------------------------------------------------------
 #t hf aug-cc-pvdz iop(5/13=1,5/36=2,99/5=2) pseudo=read geom=check gue
 ss=(read,tcheck) scf=(maxcycle=1)
 ----------------------------------------------------------------------
 -----
 title
 -----
 Structure from the checkpoint file:  "Grambow2020_wb97xd3_008064_reverse_mol2.chk"
 Charge =  0 Multiplicity = 1

                         Standard orientation:
 ---------------------------------------------------------------------
 Center     Atomic      Atomic             Coordinates (Angstroms)
 Number     Number       Type             X           Y           Z
 ---------------------------------------------------------------------
      1          7           0       -2.039840   -1.426431   -0.201258
      2          6           0       -1.390848   -0.522503    0.076726
      3          6           0       -0.576012    0.669699    0.407439
      4          6           0        0.775022    0.252827    0.996887
      5          7           0        1.578919   -0.408410    0.032896
      6          6           0        2.229507   -0.932108   -0.778193
      7          7           0       -0.379641    1.577467   -0.699945
      8          1           0       -1.106813    1.201848    1.201136
      9          1           0        1.293315    1.155140    1.321722
     10          1           0        0.631969   -0.409625    1.851101
     11          1           0        0.099788    1.118012   -1.464375
     12          1           0       -1.260339    1.928756   -1.048592
 ---------------------------------------------------------------------

 SCF Done:  E(RHF) =  -317.822769370     A.U. after    2 cycles

 The electronic state is 1-A.
 Alpha  occ. eigenvalues --  -15.67719 -15.65396 -15.65211 -11.35282 -11.34311
 Alpha  occ. eigenvalues --  -11.30256 -11.29642  -1.27100  -1.22416  -1.19293
 Alpha  occ. eigenvalues --   -1.07164  -0.95158  -0.78491  -0.73901  -0.72575
 Alpha  occ. eigenvalues --   -0.65599  -0.62574  -0.60822  -0.56322  -0.51020
 Alpha  occ. eigenvalues --   -0.49213  -0.48729  -0.48283  -0.47251  -0.43991
 Alpha virt. eigenvalues --    0.02111   0.03390   0.04280   0.05054   0.07137
 Alpha virt. eigenvalues --    0.08622   0.09376   0.10066   0.10955   0.11897
 Alpha virt. eigenvalues --    0.12406   0.12530   0.12910   0.14029   0.14723

 Mulliken charges:
               1
     1  N   -0.133499
     2  C   -0.451816
     3  C    0.848775
     4  C    0.974598
     5  N   -0.165720
     6  C   -0.446468
     7  N   -0.441283
     8  H   -0.039809
     9  H   -0.072507
    10  H   -0.142114
    11  H    0.056607
    12  H    0.013236
 Sum of Mulliken charges =  -0.00000

 Dipole moment (field-independent basis, Debye):
    X=             -0.4531    Y=              3.8332    Z=              2.5480  Tot=              4.6250

 Test job not archived.
 1\1\GINC-SE087\SP\RHF\Aug-CC-pVDZ\C4H5N3\OHZDE\09-Apr-2025\0\\#t hf au
 g-cc-pvdz iop(5/13=1,5/36=2,99/5=2) pseudo=read geom=check guess=(read
 ,tcheck) scf=(maxcycle=1)\\title\\0,1\N,0,1.95590512,-0.81456449,1.726
 67066\C,0,1.36745453,-0.45680604,0.80945514\C,0,0.62824959,0.04424505,
 -0.37257707\C,0,-0.66109341,-0.75609635,-0.58131658\N,0,-1.58465137,-0
 .53460523,0.47260251\C,0,-2.335157,-0.32478479,1.33753372\N,0,0.337238
 82,1.45936253,-0.33185363\H,0,1.25807201,-0.15456336,-1.24360291\H,0,-
 1.11458467,-0.42591559,-1.51600333\H,0,-0.44390571,-1.82295291,-0.6415

 Normal termination of Gaussian 16 at Wed Apr  9 16:17:52 2025.
