 Gaussian 16, Revision C.01,

 ----------------------------------------------------------------------
 #t hf aug-cc-pvdz symm=none int=(grid=ultrafine) guess=(read,tcheck) s
 table=(opt,rrhf)
 ----------------------------------------------------------------------
 -----
 title
 -----
 Symbolic Z-matrix:
 Charge =  0 Multiplicity = 1

 SCF Done:  E(RHF) =  -309.087391982     A.U. after   12 cycles

 1\1\GINC-SE460\Stability\RHF\Aug-CC-pVDZ\C6H12O1\OHZDE\09-Apr-2025\0\\
 #t hf aug-cc-pvdz symm=none int=(grid=ultrafine) guess=(read,tcheck) s
 table=(opt,rrhf)\\title\\0,1\C,0,-0.84677142,-1.60711302,-0.65142159\C
 ,0,-0.63584135,-0.10882086,-0.51556318\C,0,-1.10597929,0.4969705,0.804
 92336\C,0,-0.39342769,1.83859349,0.79241046\O,0,0.84536313,1.61439914,
 0.1364387\C,0,0.82290629,0.38180533,-0.58442959\C,0,1.85895821,-0.5583
 2418,0.00733975\H,0,-1.91164534,-1.84727892,-0.63119498\H,0,-0.4415173
 9,-1.98571225,-1.592585\H,0,-0.36899079,-2.15401873,0.16386502\H,0,-1.

 Normal termination of Gaussian 16 at Wed Apr  9 03:27:36 2025.
 Gaussian 16:  ES64L-G16RevC.01  3-Jul-2019

 ----------------------------------------------------------------------
 #t hf aug-cc-pvdz iop(5/13=1,5/36=2,99/5=2) pseudo=read geom=check gue
 ss=(read,tcheck) scf=(maxcycle=1)
 ----------------------------------------------------------------------
 -----
 title
 -----
 Structure from the checkpoint file:  "Grambow2020_wb97xd3_006728_forward_mol2.chk"
 Charge =  0 Multiplicity = 1

                         Standard orientation:
 ---------------------------------------------------------------------
 Center     Atomic      Atomic             Coordinates (Angstroms)
 Number     Number       Type             X           Y           Z
 ---------------------------------------------------------------------
      1          6           0        2.005684   -0.823751   -0.043146
      2          6           0        0.549518   -0.641445   -0.435796
      3          6           0       -0.464241   -1.277762    0.512408
      4          6           0       -1.747069   -0.578146    0.096803
      5          8           0       -1.366869    0.734702   -0.286658
      6          6           0        0.041617    0.811128   -0.509751
      7          6           0        0.652340    1.770786    0.496982
      8          1           0        2.277240   -1.881120   -0.059676
      9          1           0        2.675047   -0.300962   -0.730170
     10          1           0        2.198559   -0.448605    0.963898
     11          1           0        0.399011   -1.083431   -1.426752
     12          1           0       -0.213293   -1.044248    1.551229
     13          1           0       -0.520209   -2.362581    0.413722
     14          1           0       -2.485198   -0.504880    0.898027
     15          1           0       -2.214393   -1.092302   -0.753127
     16          1           0        0.196153    1.212152   -1.517771
     17          1           0        0.559289    1.389645    1.516481
     18          1           0        1.708631    1.948937    0.285470
     19          1           0        0.127021    2.724914    0.446935
 ---------------------------------------------------------------------

 SCF Done:  E(RHF) =  -309.184951770     A.U. after    2 cycles

 The electronic state is 1-A.
 Alpha  occ. eigenvalues --  -20.55450 -11.28000 -11.27614 -11.23596 -11.22882
 Alpha  occ. eigenvalues --  -11.22794 -11.21805  -1.32989  -1.07703  -1.02337
 Alpha  occ. eigenvalues --   -0.95271  -0.89394  -0.80910  -0.75656  -0.69396
 Alpha  occ. eigenvalues --   -0.65625  -0.62899  -0.60075  -0.57695  -0.55956
 Alpha  occ. eigenvalues --   -0.54218  -0.53673  -0.52323  -0.49823  -0.47699
 Alpha  occ. eigenvalues --   -0.46078  -0.44347  -0.41485
 Alpha virt. eigenvalues --    0.03411   0.04392   0.04469   0.04586   0.06290
 Alpha virt. eigenvalues --    0.06472   0.06518   0.06804   0.07121   0.08879
 Alpha virt. eigenvalues --    0.09481   0.09762   0.12157   0.12750   0.13541

 Mulliken charges:
               1
     1  C    0.774584
     2  C   -1.095354
     3  C    0.375240
     4  C    0.995951
     5  O   -0.783128
     6  C    0.576437
     7  C    0.387675
     8  H   -0.057791
     9  H   -0.005146
    10  H    0.008205
    11  H   -0.165719
    12  H   -0.201272
    13  H   -0.050186
    14  H   -0.186150
    15  H   -0.203584
    16  H   -0.245473
    17  H   -0.064113
    18  H    0.025191
    19  H   -0.085369
 Sum of Mulliken charges =  -0.00000

 Dipole moment (field-independent basis, Debye):
    X=              1.2946    Y=             -1.4409    Z=              0.1873  Tot=              1.9461

 Test job not archived.
 1\1\GINC-SE460\SP\RHF\Aug-CC-pVDZ\C6H12O1\OHZDE\09-Apr-2025\0\\#t hf a
 ug-cc-pvdz iop(5/13=1,5/36=2,99/5=2) pseudo=read geom=check guess=(rea
 d,tcheck) scf=(maxcycle=1)\\title\\0,1\C,0,-0.84677142,-1.60711302,-0.
 65142159\C,0,-0.63584135,-0.10882086,-0.51556318\C,0,-1.10597929,0.496
 9705,0.80492336\C,0,-0.39342769,1.83859349,0.79241046\O,0,0.84536313,1
 .61439914,0.1364387\C,0,0.82290629,0.38180533,-0.58442959\C,0,1.858958
 21,-0.55832418,0.00733975\H,0,-1.91164534,-1.84727892,-0.63119498\H,0,
 -0.44151739,-1.98571225,-1.592585\H,0,-0.36899079,-2.15401873,0.163865

 Normal termination of Gaussian 16 at Wed Apr  9 03:27:43 2025.
