 Gaussian 16, Revision C.01,

 ----------------------------------------------------------------------
 #t hf aug-cc-pvdz symm=none int=(grid=ultrafine) guess=(read,tcheck) s
 table=(opt,rrhf)
 ----------------------------------------------------------------------
 -----
 title
 -----
 Symbolic Z-matrix:
 Charge =  0 Multiplicity = 1

 SCF Done:  E(RHF) =  -345.908672390     A.U. after   15 cycles

 1\1\GINC-SE087\Stability\RHF\Aug-CC-pVDZ\C5H12O2\OHZDE\09-Apr-2025\0\\
 #t hf aug-cc-pvdz symm=none int=(grid=ultrafine) guess=(read,tcheck) s
 table=(opt,rrhf)\\title\\0,1\C,0,1.86018115,0.73833508,1.28233648\C,0,
 0.93713866,-0.42583555,1.06765488\C,0,0.53982643,-0.79418636,-0.197896
 41\O,0,-0.06560624,-2.01144401,-0.41869067\C,0,-0.89797898,0.74116914,
 -0.7300763\C,0,-1.57825918,-0.03123208,-1.83009659\O,0,-1.56589679,1.0
 7335226,0.28837951\H,0,2.90050236,0.41100846,1.21607403\H,0,1.70043116
 ,1.51079521,0.52920233\H,0,1.71174426,1.19131876,2.26216668\H,0,0.9284

 Normal termination of Gaussian 16 at Wed Apr  9 16:20:29 2025.
 Gaussian 16:  ES64L-G16RevC.01  3-Jul-2019

 ----------------------------------------------------------------------
 #t hf aug-cc-pvdz iop(5/13=1,5/36=2,99/5=2) pseudo=read geom=check gue
 ss=(read,tcheck) scf=(maxcycle=1)
 ----------------------------------------------------------------------
 -----
 title
 -----
 Structure from the checkpoint file:  "Grambow2020_wb97xd3_008071_reverse_mol1.chk"
 Charge =  0 Multiplicity = 1

                         Standard orientation:
 ---------------------------------------------------------------------
 Center     Atomic      Atomic             Coordinates (Angstroms)
 Number     Number       Type             X           Y           Z
 ---------------------------------------------------------------------
      1          6           0       -2.385473   -0.666455   -0.484084
      2          6           0       -1.516149    0.287758    0.282169
      3          6           0       -0.393635    0.842799   -0.289714
      4          8           0        0.236717    1.917513    0.297365
      5          6           0        1.020984   -0.802378   -0.297444
      6          6           0        2.262843    0.036636   -0.449988
      7          8           0        0.875477   -1.496688    0.746814
      8          1           0       -3.135590   -0.115527   -1.056452
      9          1           0       -1.795939   -1.260384   -1.183457
     10          1           0       -2.907615   -1.354063    0.180640
     11          1           0       -1.989708    0.831178    1.094999
     12          1           0       -0.990897   -0.673124    1.456585
     13          1           0       -0.263871    0.838859   -1.362764
     14          1           0        0.163010    1.843739    1.251883
     15          1           0        0.604362   -1.207517   -1.232624
     16          1           0        2.458671    0.608929    0.455252
     17          1           0        3.105621   -0.639485   -0.616105
     18          1           0        2.196449    0.722464   -1.294783
     19          1           0       -0.273467   -1.151836    1.387762
 ---------------------------------------------------------------------

 SCF Done:  E(RHF) =  -346.021211111     A.U. after    2 cycles

 The electronic state is 1-A.
 Alpha  occ. eigenvalues --  -20.59087 -20.55344 -11.32761 -11.29151 -11.28743
 Alpha  occ. eigenvalues --  -11.24978 -11.22941  -1.35244  -1.32592  -1.07642
 Alpha  occ. eigenvalues --   -0.99720  -0.93654  -0.83398  -0.79716  -0.71045
 Alpha  occ. eigenvalues --   -0.69931  -0.66016  -0.64980  -0.61240  -0.59559
 Alpha  occ. eigenvalues --   -0.57613  -0.57365  -0.55249  -0.54183  -0.53160
 Alpha  occ. eigenvalues --   -0.52948  -0.43802  -0.41527  -0.31840
 Alpha virt. eigenvalues --    0.03285   0.03843   0.04298   0.04913   0.06040
 Alpha virt. eigenvalues --    0.06134   0.06479   0.07665   0.08677   0.08925
 Alpha virt. eigenvalues --    0.09167   0.09689   0.10804   0.12544   0.13443

 Mulliken charges:
               1
     1  C    0.438105
     2  C   -0.199006
     3  C    0.773544
     4  O   -0.547671
     5  C    0.551486
     6  C    0.376539
     7  O   -0.739241
     8  H    0.050082
     9  H   -0.154224
    10  H   -0.037916
    11  H   -0.332454
    12  H    0.383642
    13  H   -0.357385
    14  H    0.134373
    15  H   -0.204984
    16  H   -0.045660
    17  H   -0.021129
    18  H   -0.049293
    19  H   -0.018808
 Sum of Mulliken charges =  -0.00000

 Dipole moment (field-independent basis, Debye):
    X=             -1.9096    Y=              1.0411    Z=             -1.2980  Tot=              2.5328

 Test job not archived.
 1\1\GINC-SE087\SP\RHF\Aug-CC-pVDZ\C5H12O2\OHZDE\09-Apr-2025\0\\#t hf a
 ug-cc-pvdz iop(5/13=1,5/36=2,99/5=2) pseudo=read geom=check guess=(rea
 d,tcheck) scf=(maxcycle=1)\\title\\0,1\C,0,1.86018115,0.73833508,1.282
 33648\C,0,0.93713866,-0.42583555,1.06765488\C,0,0.53982643,-0.79418636
 ,-0.19789641\O,0,-0.06560624,-2.01144401,-0.41869067\C,0,-0.89797898,0
 .74116914,-0.7300763\C,0,-1.57825918,-0.03123208,-1.83009659\O,0,-1.56
 589679,1.07335226,0.28837951\H,0,2.90050236,0.41100846,1.21607403\H,0,
 1.70043116,1.51079521,0.52920233\H,0,1.71174426,1.19131876,2.26216668\

 Normal termination of Gaussian 16 at Wed Apr  9 16:20:37 2025.
