 Gaussian 16, Revision C.01,

 ----------------------------------------------------------------------
 #t hf aug-cc-pvdz symm=none int=(grid=ultrafine) guess=(read,tcheck) s
 table=(opt,rrhf)
 ----------------------------------------------------------------------
 -----
 title
 -----
 Symbolic Z-matrix:
 Charge =  0 Multiplicity = 1

 SCF Done:  E(RHF) =  -322.442286561     A.U. after   14 cycles
 Normal termination of Gaussian 16 at Wed Apr  9 14:29:41 2025.
 Gaussian 16:  ES64L-G16RevC.01  3-Jul-2019

 ----------------------------------------------------------------------
 #t hf aug-cc-pvdz iop(5/13=1,5/36=2,99/5=2) pseudo=read geom=check gue
 ss=(read,tcheck) scf=(maxcycle=1)
 ----------------------------------------------------------------------
 -----
 title
 -----
 Structure from the checkpoint file:  "Grambow2020_wb97xd3_006560_reverse_mol1.chk"
 Charge =  0 Multiplicity = 1

                         Standard orientation:
 ---------------------------------------------------------------------
 Center     Atomic      Atomic             Coordinates (Angstroms)
 Number     Number       Type             X           Y           Z
 ---------------------------------------------------------------------
      1          8           0        2.296380    0.391318   -0.002279
      2          6           0        1.141050   -0.216388    0.001208
      3          6           0       -0.050062   -0.098341    0.936828
      4          6           0       -0.682108    0.967415   -0.005435
      5          6           0       -1.959024    0.146756   -0.001263
      6          7           0       -0.917660   -0.953769    0.005683
      7          6           0       -0.049768   -0.109623   -0.935134
      8          1           0        2.173139   -0.997606    0.007239
      9          1           0        1.401376   -1.594962    0.006264
     10          1           0       -0.128481   -0.167321    2.019368
     11          1           0       -0.508233    2.042299   -0.012125
     12          1           0       -2.579444    0.163750    0.896708
     13          1           0       -2.579042    0.153022   -0.899683
     14          1           0       -0.127266   -0.192258   -2.016536
 ---------------------------------------------------------------------

 SCF Done:  E(RHF) =  -322.534830062     A.U. after    2 cycles

 The electronic state is 1-A.
 Alpha  occ. eigenvalues --  -20.52315 -15.65478 -11.37976 -11.30170 -11.30132
 Alpha  occ. eigenvalues --  -11.28564 -11.28271  -1.35176  -1.30316  -1.03307
 Alpha  occ. eigenvalues --   -0.94667  -0.91603  -0.84590  -0.75515  -0.72717
 Alpha  occ. eigenvalues --   -0.66668  -0.65517  -0.63623  -0.57923  -0.53728
 Alpha  occ. eigenvalues --   -0.50264  -0.49667  -0.47520  -0.41030  -0.40648
 Alpha  occ. eigenvalues --   -0.39635
 Alpha virt. eigenvalues --    0.02950   0.03641   0.03953   0.04643   0.05960
 Alpha virt. eigenvalues --    0.06766   0.07518   0.09710   0.10875   0.11244
 Alpha virt. eigenvalues --    0.12545   0.12583   0.13982   0.14039   0.14204

 Mulliken charges:
               1
     1  O   -0.891435
     2  C    0.717280
     3  C    0.527167
     4  C    0.067292
     5  C    1.114956
     6  N   -0.988130
     7  C    0.527227
     8  H    0.164437
     9  H    0.100615
    10  H   -0.266426
    11  H   -0.344945
    12  H   -0.230684
    13  H   -0.230804
    14  H   -0.266549
 Sum of Mulliken charges =  -0.00000

 Dipole moment (field-independent basis, Debye):
    X=             -3.0505    Y=             -0.4489    Z=              0.0024  Tot=              3.0833

 Test job not archived.
 1\1\GINC-SE112\SP\RHF\Aug-CC-pVDZ\C5H7N1O1\OHZDE\09-Apr-2025\0\\#t hf
 aug-cc-pvdz iop(5/13=1,5/36=2,99/5=2) pseudo=read geom=check guess=(re
 ad,tcheck) scf=(maxcycle=1)\\title\\0,1\O,0,2.45811601,-0.20095291,0.4
 9424332\C,0,1.33045827,0.09679855,-0.09213438\C,0,0.1621486,-0.7757535
 8,-0.51848529\C,0,-0.54124405,-0.49509428,0.84153179\C,0,-1.78117853,-
 0.09172291,0.06444174\N,0,-0.69380408,0.45597935,-0.83737982\C,0,0.110
 31004,0.85060833,0.40705798\H,0,2.39485347,0.48548226,-0.71785994\H,0,
 1.64968989,0.78302267,-1.27342598\H,0,0.11721827,-1.67870743,-1.123015

 Normal termination of Gaussian 16 at Wed Apr  9 14:29:45 2025.
