 Gaussian 16, Revision C.01,

 ----------------------------------------------------------------------
 #t hf aug-cc-pvdz symm=none int=(grid=ultrafine) guess=(read,tcheck) s
 table=(opt,rrhf)
 ----------------------------------------------------------------------
 -----
 title
 -----
 Symbolic Z-matrix:
 Charge =  0 Multiplicity = 1

 SCF Done:  E(RHF) =  -301.996794397     A.U. after   14 cycles
 Normal termination of Gaussian 16 at Wed Apr  9 03:15:37 2025.
 Gaussian 16:  ES64L-G16RevC.01  3-Jul-2019

 ----------------------------------------------------------------------
 #t hf aug-cc-pvdz iop(5/13=1,5/36=2,99/5=2) pseudo=read geom=check gue
 ss=(read,tcheck) scf=(maxcycle=1)
 ----------------------------------------------------------------------
 -----
 title
 -----
 Structure from the checkpoint file:  "Grambow2020_b97d3_007043_reverse_mol2.chk"
 Charge =  0 Multiplicity = 1

                         Standard orientation:
 ---------------------------------------------------------------------
 Center     Atomic      Atomic             Coordinates (Angstroms)
 Number     Number       Type             X           Y           Z
 ---------------------------------------------------------------------
      1          6           0       -2.105972   -0.993266    0.197627
      2          7           0       -1.150049    0.066992   -0.065789
      3          6           0       -1.585890    1.215117   -0.399085
      4          6           0        1.776766   -0.331416   -0.091626
      5          8           0        1.560441   -1.471794    0.122963
      6          7           0        1.905534    0.868162   -0.331589
      7          1           0       -1.900251   -1.827343   -0.489105
      8          1           0       -1.937763   -1.372369    1.216118
      9          1           0       -3.166824   -0.694159    0.093577
     10          1           0       -0.859248    2.009241   -0.600828
     11          1           0       -2.658552    1.467473   -0.500651
     12          1           0        0.645540    2.735111    2.386764
     13          1           0        2.825335    1.294666   -0.363624
     14          1           0        0.770420    2.273048    1.814185
 ---------------------------------------------------------------------

 SCF Done:  E(RHF) =  -302.096481846     A.U. after    2 cycles

 The electronic state is 1-A.
 Alpha  occ. eigenvalues --  -20.62756 -15.64908 -15.62948 -11.42620 -11.28437
 Alpha  occ. eigenvalues --  -11.25843  -1.41895  -1.21420  -1.19044  -0.95067
 Alpha  occ. eigenvalues --   -0.79264  -0.78333  -0.72715  -0.65694  -0.65011
 Alpha  occ. eigenvalues --   -0.63450  -0.62231  -0.58621  -0.58151  -0.52776
 Alpha  occ. eigenvalues --   -0.47612  -0.44008  -0.41254  -0.40232
 Alpha virt. eigenvalues --    0.03384   0.03821   0.04863   0.05585   0.06530
 Alpha virt. eigenvalues --    0.07522   0.07684   0.10101   0.10206   0.10451
 Alpha virt. eigenvalues --    0.12096   0.13413   0.14251   0.15069   0.16062

 Mulliken charges:
               1
     1  C    0.673701
     2  N   -0.295324
     3  C    0.519349
     4  C    0.074148
     5  O   -0.198596
     6  N    0.069542
     7  H   -0.109395
     8  H   -0.100795
     9  H   -0.178237
    10  H   -0.289941
    11  H   -0.223393
    12  H    0.062043
    13  H    0.060192
    14  H   -0.063293
 Sum of Mulliken charges =  -0.00000

 Dipole moment (field-independent basis, Debye):
    X=             -0.0444    Y=              1.9404    Z=             -0.4561  Tot=              1.9938

 Test job not archived.
 1\1\GINC-SE195\SP\RHF\Aug-CC-pVDZ\C3H8N2O1\OHZDE\09-Apr-2025\0\\#t hf
 aug-cc-pvdz iop(5/13=1,5/36=2,99/5=2) pseudo=read geom=check guess=(re
 ad,tcheck) scf=(maxcycle=1)\\title\\0,1\C,0,-1.84061154,-1.09016557,0.
 3464687\N,0,-0.76576278,-0.27298085,-0.18666819\C,0,-1.06212159,0.7812
 5567,-0.83473515\C,0,2.08809834,-1.02315281,-0.05116786\O,0,1.73616687
 ,-2.02214308,0.46985826\N,0,2.36002478,0.03599586,-0.61456089\H,0,-1.7
 5278771,-2.10167159,-0.0763168\H,0,-1.70159169,-1.18757412,1.43298672\
 H,0,-2.85797618,-0.70263683,0.14524907\H,0,-0.24657298,1.39075284,-1.2

 Normal termination of Gaussian 16 at Wed Apr  9 03:15:41 2025.
