 Gaussian 16, Revision C.01,

 ----------------------------------------------------------------------
 #t hf aug-cc-pvdz symm=none int=(grid=ultrafine) guess=(read,tcheck) s
 table=(opt,rrhf)
 ----------------------------------------------------------------------
 -----
 title
 -----
 Symbolic Z-matrix:
 Charge =  0 Multiplicity = 1

 SCF Done:  E(RHF) =  -338.601607781     A.U. after   16 cycles
 Normal termination of Gaussian 16 at Wed Apr  9 03:59:41 2025.
 Gaussian 16:  ES64L-G16RevC.01  3-Jul-2019

 ----------------------------------------------------------------------
 #t hf aug-cc-pvdz iop(5/13=1,5/36=2,99/5=2) pseudo=read geom=check gue
 ss=(read,tcheck) scf=(maxcycle=1)
 ----------------------------------------------------------------------
 -----
 title
 -----
 Structure from the checkpoint file:  "Grambow2020_wb97xd3_008823_reverse_mol1.chk"
 Charge =  0 Multiplicity = 1

                         Standard orientation:
 ---------------------------------------------------------------------
 Center     Atomic      Atomic             Coordinates (Angstroms)
 Number     Number       Type             X           Y           Z
 ---------------------------------------------------------------------
      1          6           0        2.457721   -0.455166    0.075255
      2          6           0        1.008936   -0.133043    0.022637
      3          6           0       -0.125757   -0.972258   -0.123313
      4          6           0       -1.237112   -0.000544   -0.133917
      5          8           0       -2.376061   -0.528178    0.149760
      6          7           0       -0.814295    1.248799   -0.064232
      7          7           0        0.548798    1.100769    0.002510
      8          1           0        3.070622    0.446566    0.073052
      9          1           0        2.739733   -1.064997   -0.784485
     10          1           0        2.684476   -1.029238    0.974534
     11          1           0       -0.102374   -1.857675   -0.747292
     12          1           0       -1.252617   -1.285992    0.583421
     13          1           0        1.104401    1.935852    0.090778
 ---------------------------------------------------------------------

 SCF Done:  E(RHF) =  -338.702197706     A.U. after    2 cycles

 The electronic state is 1-A.
 Alpha  occ. eigenvalues --  -20.52457 -15.74314 -15.63415 -11.35439 -11.35073
 Alpha  occ. eigenvalues --  -11.28926 -11.24386  -1.37233  -1.30767  -1.12303
 Alpha  occ. eigenvalues --   -1.06087  -1.00131  -0.86006  -0.78052  -0.73888
 Alpha  occ. eigenvalues --   -0.67490  -0.63955  -0.63322  -0.60873  -0.59794
 Alpha  occ. eigenvalues --   -0.58806  -0.53318  -0.49078  -0.42216  -0.39160
 Alpha  occ. eigenvalues --   -0.33670
 Alpha virt. eigenvalues --    0.01601   0.03354   0.04008   0.04673   0.06525
 Alpha virt. eigenvalues --    0.07421   0.08475   0.09226   0.09600   0.11315
 Alpha virt. eigenvalues --    0.12275   0.13217   0.13974   0.14879   0.15377

 Mulliken charges:
               1
     1  C    0.506273
     2  C    0.053307
     3  C   -0.055980
     4  C    0.592884
     5  O   -0.807464
     6  N   -0.553854
     7  N   -0.096135
     8  H   -0.126210
     9  H    0.080247
    10  H    0.104751
    11  H   -0.216223
    12  H    0.544136
    13  H   -0.025732
 Sum of Mulliken charges =  -0.00000

 Dipole moment (field-independent basis, Debye):
    X=              8.2995    Y=             -0.6195    Z=             -0.2113  Tot=              8.3253

 Test job not archived.
 1\1\GINC-SE253\SP\RHF\Aug-CC-pVDZ\C4H6N2O1\OHZDE\09-Apr-2025\0\\#t hf
 aug-cc-pvdz iop(5/13=1,5/36=2,99/5=2) pseudo=read geom=check guess=(re
 ad,tcheck) scf=(maxcycle=1)\\title\\0,1\C,0,-1.88192603,0.08852791,-0.
 11259926\C,0,-0.41137201,0.05441883,0.09189076\C,0,0.63697755,-0.37244
 446,-0.76359925\C,0,1.83267316,-0.17115707,0.07856894\O,0,2.92481446,-
 0.10014017,-0.59837879\N,0,1.52887958,0.25965665,1.28960001\N,0,0.1600
 505,0.35085167,1.24081613\H,0,-2.40882694,0.36434846,0.80122306\H,0,-2
 .24053774,-0.89045183,-0.434428\H,0,-2.13804657,0.80583042,-0.89334063

 Normal termination of Gaussian 16 at Wed Apr  9 03:59:45 2025.
