 Gaussian 16, Revision C.01,

 ----------------------------------------------------------------------
 #t hf aug-cc-pvdz symm=none int=(grid=ultrafine) guess=(read,tcheck) s
 table=(opt,rrhf)
 ----------------------------------------------------------------------
 -----
 title
 -----
 Symbolic Z-matrix:
 Charge =  0 Multiplicity = 1

 SCF Done:  E(RHF) =  -360.653492805     A.U. after   16 cycles
 Normal termination of Gaussian 16 at Wed Apr  9 16:00:12 2025.
 Gaussian 16:  ES64L-G16RevC.01  3-Jul-2019

 ----------------------------------------------------------------------
 #t hf aug-cc-pvdz iop(5/13=1,5/36=2,99/5=2) pseudo=read geom=check gue
 ss=(read,tcheck) scf=(maxcycle=1)
 ----------------------------------------------------------------------
 -----
 title
 -----
 Structure from the checkpoint file:  "Grambow2020_wb97xd3_007660_forward_mol1.chk"
 Charge =  0 Multiplicity = 1

                         Standard orientation:
 ---------------------------------------------------------------------
 Center     Atomic      Atomic             Coordinates (Angstroms)
 Number     Number       Type             X           Y           Z
 ---------------------------------------------------------------------
      1          6           0        1.461468   -1.144700   -0.676784
      2          8           0       -0.351502   -1.293510    0.049463
      3          6           0       -0.466299   -0.523879    1.263213
      4          6           0       -0.630466    0.219912    0.020734
      5          7           0        0.456234    0.849733   -0.547418
      6          8           0        1.318294    1.361874    0.476252
      7          6           0       -1.980897    0.508549   -0.567286
      8          1           0        1.470322   -2.194432   -0.402831
      9          1           0        1.419844   -0.968395   -1.740868
     10          1           0        2.165422   -0.527869   -0.131376
     11          1           0        0.454708   -0.391517    1.818141
     12          1           0       -1.331243   -0.803788    1.857242
     13          1           0        1.525001    2.238783    0.150509
     14          1           0       -2.293818    1.508039   -0.261939
     15          1           0       -2.732472   -0.212935   -0.246824
     16          1           0       -1.908572    0.497782   -1.655107
 ---------------------------------------------------------------------

 SCF Done:  E(RHF) =  -360.765047143     A.U. after    2 cycles

 The electronic state is 1-A.
 Alpha  occ. eigenvalues --  -20.59915 -20.56483 -15.59000 -11.34348 -11.31628
 Alpha  occ. eigenvalues --  -11.29688 -11.22774  -1.37617  -1.31052  -1.06385
 Alpha  occ. eigenvalues --   -0.98601  -0.94396  -0.90740  -0.76538  -0.69216
 Alpha  occ. eigenvalues --   -0.68533  -0.64010  -0.62764  -0.61848  -0.58776
 Alpha  occ. eigenvalues --   -0.56710  -0.54453  -0.53981  -0.52613  -0.47715
 Alpha  occ. eigenvalues --   -0.45812  -0.37911  -0.29559
 Alpha virt. eigenvalues --    0.03256   0.04125   0.04457   0.05004   0.06363
 Alpha virt. eigenvalues --    0.06823   0.07045   0.07333   0.08906   0.09627
 Alpha virt. eigenvalues --    0.11382   0.12948   0.13933   0.14400   0.14573

 Mulliken charges:
               1
     1  C    0.740739
     2  O   -0.769882
     3  C    1.083934
     4  C    0.218210
     5  N   -0.746725
     6  O   -0.600601
     7  C    0.495282
     8  H   -0.120656
     9  H   -0.071218
    10  H    0.001580
    11  H   -0.222473
    12  H   -0.288693
    13  H    0.189567
    14  H    0.053374
    15  H   -0.025708
    16  H    0.063270
 Sum of Mulliken charges =  -0.00000

 Dipole moment (field-independent basis, Debye):
    X=              0.3412    Y=             -1.1666    Z=              0.5459  Tot=              1.3324

 Test job not archived.
 1\1\GINC-SE026\SP\RHF\Aug-CC-pVDZ\C4H9N1O2\OHZDE\09-Apr-2025\0\\#t hf
 aug-cc-pvdz iop(5/13=1,5/36=2,99/5=2) pseudo=read geom=check guess=(re
 ad,tcheck) scf=(maxcycle=1)\\title\\0,1\C,0,1.68543415,0.73401385,-0.7
 1550275\O,0,1.00420148,-0.63734382,0.5058649\C,0,0.14054393,-0.0396633
 5,1.49357701\C,0,-0.47937576,-0.351442,0.21200548\N,0,-0.54804921,0.61
 629906,-0.76735563\O,0,-0.75829521,1.9031431,-0.17307768\C,0,-1.238304
 62,-1.62509316,-0.02162396\H,0,2.61371036,0.46428868,-0.22294035\H,0,1
 .61276203,0.38910322,-1.73572184\H,0,1.36217853,1.75400706,-0.5463267\

 Normal termination of Gaussian 16 at Wed Apr  9 16:00:18 2025.
