 Gaussian 16, Revision C.01,

 ----------------------------------------------------------------------
 #t hf aug-cc-pvdz symm=none int=(grid=ultrafine) guess=(read,tcheck) s
 table=(opt,rrhf)
 ----------------------------------------------------------------------
 -----
 title
 -----
 Symbolic Z-matrix:
 Charge =  0 Multiplicity = 1

 SCF Done:  E(RHF) =  -360.975472577     A.U. after   13 cycles
 Normal termination of Gaussian 16 at Wed Apr  9 16:35:10 2025.
 Gaussian 16:  ES64L-G16RevC.01  3-Jul-2019

 ----------------------------------------------------------------------
 #t hf aug-cc-pvdz iop(5/13=1,5/36=2,99/5=2) pseudo=read geom=check gue
 ss=(read,tcheck) scf=(maxcycle=1)
 ----------------------------------------------------------------------
 -----
 title
 -----
 Structure from the checkpoint file:  "Grambow2020_wb97xd3_008624_forward_mol2.chk"
 Charge =  0 Multiplicity = 1

                         Standard orientation:
 ---------------------------------------------------------------------
 Center     Atomic      Atomic             Coordinates (Angstroms)
 Number     Number       Type             X           Y           Z
 ---------------------------------------------------------------------
      1          6           0       -3.240619    0.196849    0.004417
      2          6           0       -1.942860   -0.600312    0.000083
      3          6           0       -0.733041    0.307155   -0.004325
      4          8           0        0.434178   -0.519289   -0.003820
      5          6           0        1.609879    0.134533   -0.001984
      6          8           0        1.726792    1.334388    0.005070
      7          7           0        2.640382   -0.749838   -0.029777
      8          1           0       -3.314463    0.840440   -0.875323
      9          1           0       -4.106583   -0.465964    0.002987
     10          1           0       -3.311853    0.835093    0.888227
     11          1           0       -1.895443   -1.250661    0.877678
     12          1           0       -1.902083   -1.251206   -0.877309
     13          1           0       -0.717017    0.950318   -0.887846
     14          1           0       -0.714098    0.954974    0.875729
     15          1           0        3.564740   -0.386954    0.101050
     16          1           0        2.466204   -1.727313    0.104100
 ---------------------------------------------------------------------

 SCF Done:  E(RHF) =  -361.093826913     A.U. after    2 cycles

 The electronic state is 1-A.
 Alpha  occ. eigenvalues --  -20.61129 -20.53902 -15.64942 -11.41483 -11.29320
 Alpha  occ. eigenvalues --  -11.23669 -11.23136  -1.42492  -1.32110  -1.18657
 Alpha  occ. eigenvalues --   -1.06218  -0.94759  -0.83347  -0.80273  -0.75444
 Alpha  occ. eigenvalues --   -0.71148  -0.70002  -0.65472  -0.62631  -0.61241
 Alpha  occ. eigenvalues --   -0.56030  -0.55594  -0.52309  -0.49652  -0.49219
 Alpha  occ. eigenvalues --   -0.47307  -0.47014  -0.42765
 Alpha virt. eigenvalues --    0.03149   0.03763   0.04780   0.05066   0.05688
 Alpha virt. eigenvalues --    0.06446   0.07505   0.08440   0.08650   0.11352
 Alpha virt. eigenvalues --    0.12279   0.12965   0.14193   0.14479   0.15509

 Mulliken charges:
               1
     1  C    0.444055
     2  C    0.110063
     3  C    0.718692
     4  O   -0.571990
     5  C    0.618403
     6  O   -0.427271
     7  N   -0.068374
     8  H   -0.056593
     9  H   -0.073712
    10  H   -0.057567
    11  H   -0.115132
    12  H   -0.119335
    13  H   -0.185140
    14  H   -0.185595
    15  H   -0.015661
    16  H   -0.014842
 Sum of Mulliken charges =  -0.00000

 Dipole moment (field-independent basis, Debye):
    X=             -0.4601    Y=             -2.7765    Z=              0.4035  Tot=              2.8431

 Test job not archived.
 1\1\GINC-SE129\SP\RHF\Aug-CC-pVDZ\C4H9N1O2\OHZDE\09-Apr-2025\0\\#t hf
 aug-cc-pvdz iop(5/13=1,5/36=2,99/5=2) pseudo=read geom=check guess=(re
 ad,tcheck) scf=(maxcycle=1)\\title\\0,1\C,0,-2.66441226,0.08907448,-0.
 14247418\C,0,-1.26721032,0.61234571,-0.44854155\C,0,-0.19742659,-0.311
 99649,0.088424\O,0,1.07464924,0.25009288,-0.24517568\C,0,2.14639413,-0
 .45612391,0.15778848\O,0,2.09292465,-1.50082405,0.75704781\N,0,3.29141
 074,0.1867107,-0.18937431\H,0,-2.82447281,-0.01040701,0.93367185\H,0,-
 3.42825127,0.76435507,-0.52946502\H,0,-2.82873963,-0.89228978,-0.59355

 Normal termination of Gaussian 16 at Wed Apr  9 16:35:16 2025.
