 Gaussian 16, Revision C.01,

 ----------------------------------------------------------------------
 #t hf aug-cc-pvdz symm=none int=(grid=ultrafine) guess=(read,tcheck) s
 table=(opt,rrhf)
 ----------------------------------------------------------------------
 -----
 title
 -----
 Symbolic Z-matrix:
 Charge =  0 Multiplicity = 1

 SCF Done:  E(RHF) =  -307.815826239     A.U. after   15 cycles

 1\1\GINC-SE100\Stability\RHF\Aug-CC-pVDZ\C6H10O1\OHZDE\09-Apr-2025\0\\
 #t hf aug-cc-pvdz symm=none int=(grid=ultrafine) guess=(read,tcheck) s
 table=(opt,rrhf)\\title\\0,1\C,0,1.80683717,0.31402836,-0.37710767\C,0
 ,0.60755173,-0.5633738,-0.03568007\C,0,0.13934522,-0.36248933,1.418227
 72\C,0,-0.92043592,0.6572963,1.50518453\O,0,-1.46683401,-1.34300569,-0
 .89453361\C,0,-1.29635501,0.88272027,0.08647689\C,0,-0.6515403,-0.1821
 1984,-0.81432423\H,0,2.66721594,0.04559527,0.23843235\H,0,1.60005634,1
 .37313224,-0.19987094\H,0,2.09586003,0.1996468,-1.42353905\H,0,0.85057

 Normal termination of Gaussian 16 at Wed Apr  9 16:35:16 2025.
 Gaussian 16:  ES64L-G16RevC.01  3-Jul-2019

 ----------------------------------------------------------------------
 #t hf aug-cc-pvdz iop(5/13=1,5/36=2,99/5=2) pseudo=read geom=check gue
 ss=(read,tcheck) scf=(maxcycle=1)
 ----------------------------------------------------------------------
 -----
 title
 -----
 Structure from the checkpoint file:  "Grambow2020_wb97xd3_008619_reverse_mol2.chk"
 Charge =  0 Multiplicity = 1

                         Standard orientation:
 ---------------------------------------------------------------------
 Center     Atomic      Atomic             Coordinates (Angstroms)
 Number     Number       Type             X           Y           Z
 ---------------------------------------------------------------------
      1          6           0       -1.948871   -0.688535    0.442222
      2          6           0       -0.708315   -0.474403   -0.417931
      3          6           0       -0.568999    0.989398   -0.877599
      4          6           0        0.268645    1.766939    0.052156
      5          8           0        1.593139   -1.043014   -0.586820
      6          6           0        0.867565    0.726356    0.925852
      7          6           0        0.595365   -0.674076    0.355053
      8          1           0       -2.854463   -0.483093   -0.131271
      9          1           0       -1.960000   -0.026620    1.312634
     10          1           0       -2.007810   -1.717195    0.802806
     11          1           0       -0.728849   -1.165468   -1.262822
     12          1           0       -1.474833    1.490844   -1.222448
     13          1           0        0.135627    1.041609   -1.733457
     14          1           0        2.447501   -1.040590   -0.151572
     15          1           0        1.896708    0.924188    1.235728
     16          1           0        0.263854    0.891605    1.836881
     17          1           0        0.504818   -1.445243    1.129568
 ---------------------------------------------------------------------

 SCF Done:  E(RHF) =  -307.907129164     A.U. after    2 cycles

 The electronic state is 1-A.
 Alpha  occ. eigenvalues --  -20.57827 -11.29387 -11.26124 -11.24123 -11.23972
 Alpha  occ. eigenvalues --  -11.23506 -11.23352  -1.33382  -1.13306  -1.01162
 Alpha  occ. eigenvalues --   -0.96462  -0.90529  -0.77592  -0.73734  -0.70270
 Alpha  occ. eigenvalues --   -0.66872  -0.63438  -0.60898  -0.56534  -0.56094
 Alpha  occ. eigenvalues --   -0.54059  -0.51531  -0.49978  -0.48185  -0.46653
 Alpha  occ. eigenvalues --   -0.46139  -0.34416
 Alpha virt. eigenvalues --    0.03181   0.03964   0.04536   0.04994   0.06240
 Alpha virt. eigenvalues --    0.06432   0.06750   0.07056   0.08100   0.09200
 Alpha virt. eigenvalues --    0.09760   0.10161   0.12730   0.13628   0.14227

 Mulliken charges:
               1
     1  C    0.654864
     2  C   -0.497826
     3  C    0.488943
     4  C   -0.732528
     5  O   -0.655220
     6  C    0.246849
     7  C    0.868989
     8  H   -0.082004
     9  H   -0.033228
    10  H   -0.071627
    11  H   -0.121617
    12  H   -0.127341
    13  H    0.145593
    14  H    0.152874
    15  H   -0.121900
    16  H    0.070461
    17  H   -0.185282
 Sum of Mulliken charges =  -0.00000

 Dipole moment (field-independent basis, Debye):
    X=             -0.2015    Y=             -1.9927    Z=              1.4095  Tot=              2.4491

 Test job not archived.
 1\1\GINC-SE100\SP\RHF\Aug-CC-pVDZ\C6H10O1\OHZDE\09-Apr-2025\0\\#t hf a
 ug-cc-pvdz iop(5/13=1,5/36=2,99/5=2) pseudo=read geom=check guess=(rea
 d,tcheck) scf=(maxcycle=1)\\title\\0,1\C,0,1.80683717,0.31402836,-0.37
 710767\C,0,0.60755173,-0.5633738,-0.03568007\C,0,0.13934522,-0.3624893
 3,1.41822772\C,0,-0.92043592,0.6572963,1.50518453\O,0,-1.46683401,-1.3
 4300569,-0.89453361\C,0,-1.29635501,0.88272027,0.08647689\C,0,-0.65154
 03,-0.18211984,-0.81432423\H,0,2.66721594,0.04559527,0.23843235\H,0,1.
 60005634,1.37313224,-0.19987094\H,0,2.09586003,0.1996468,-1.42353905\H

 Normal termination of Gaussian 16 at Wed Apr  9 16:35:23 2025.
