 Gaussian 16, Revision C.01,

 ----------------------------------------------------------------------
 #t hf aug-cc-pvdz symm=none int=(grid=ultrafine) guess=(read,tcheck) s
 table=(opt,rrhf)
 ----------------------------------------------------------------------
 -----
 title
 -----
 Symbolic Z-matrix:
 Charge =  0 Multiplicity = 1

 SCF Done:  E(RHF) =  -338.596842761     A.U. after   16 cycles
 Normal termination of Gaussian 16 at Wed Apr  9 15:18:54 2025.
 Gaussian 16:  ES64L-G16RevC.01  3-Jul-2019

 ----------------------------------------------------------------------
 #t hf aug-cc-pvdz iop(5/13=1,5/36=2,99/5=2) pseudo=read geom=check gue
 ss=(read,tcheck) scf=(maxcycle=1)
 ----------------------------------------------------------------------
 -----
 title
 -----
 Structure from the checkpoint file:  "Grambow2020_wb97xd3_006844_reverse_mol1.chk"
 Charge =  0 Multiplicity = 1

                         Standard orientation:
 ---------------------------------------------------------------------
 Center     Atomic      Atomic             Coordinates (Angstroms)
 Number     Number       Type             X           Y           Z
 ---------------------------------------------------------------------
      1          7           0        2.270380   -0.483615    0.025258
      2          6           0        0.939895   -0.007955   -0.092382
      3          6           0        0.405572    1.212322    0.228857
      4          7           0       -0.922571    1.240915   -0.010643
      5          6           0       -1.398245    0.031151   -0.580505
      6          8           0       -1.371107   -1.038794    0.683084
      7          6           0       -0.160969   -0.760222   -0.584251
      8          1           0        2.956757    0.198817   -0.257505
      9          1           0        2.491994   -0.809529    0.955250
     10          1           0        0.929198    2.081428    0.610598
     11          1           0       -1.469443    2.080856   -0.017108
     12          1           0       -2.027790   -1.661618    0.358264
     13          1           0       -0.064047   -1.732469   -1.046800
 ---------------------------------------------------------------------

 SCF Done:  E(RHF) =  -338.696966959     A.U. after    2 cycles

 The electronic state is 1-A.
 Alpha  occ. eigenvalues --  -20.59277 -15.64734 -15.62268 -11.31293 -11.30565
 Alpha  occ. eigenvalues --  -11.25767 -11.25444  -1.32835  -1.24087  -1.16063
 Alpha  occ. eigenvalues --   -1.02226  -0.96064  -0.80994  -0.77850  -0.71939
 Alpha  occ. eigenvalues --   -0.68943  -0.66053  -0.63228  -0.59420  -0.58330
 Alpha  occ. eigenvalues --   -0.56123  -0.52783  -0.44986  -0.41709  -0.34621
 Alpha  occ. eigenvalues --   -0.30973
 Alpha virt. eigenvalues --    0.02696   0.03846   0.04261   0.05204   0.06254
 Alpha virt. eigenvalues --    0.06402   0.08510   0.10176   0.11258   0.12107
 Alpha virt. eigenvalues --    0.13195   0.13528   0.14384   0.15161   0.15221

 Mulliken charges:
               1
     1  N   -0.345084
     2  C    0.084125
     3  C    0.916191
     4  N   -0.265545
     5  C   -0.074781
     6  O   -0.642262
     7  C    0.863488
     8  H    0.000088
     9  H    0.009464
    10  H   -0.309907
    11  H   -0.121125
    12  H    0.205646
    13  H   -0.320299
 Sum of Mulliken charges =  -0.00000

 Dipole moment (field-independent basis, Debye):
    X=              2.3399    Y=              1.7123    Z=              0.9307  Tot=              3.0452

 Test job not archived.
 1\1\GINC-SE114\SP\RHF\Aug-CC-pVDZ\C4H6N2O1\OHZDE\09-Apr-2025\0\\#t hf
 aug-cc-pvdz iop(5/13=1,5/36=2,99/5=2) pseudo=read geom=check guess=(re
 ad,tcheck) scf=(maxcycle=1)\\title\\0,1\N,0,-1.9600917,0.81469502,-0.2
 2446561\C,0,-0.69901482,0.1666644,-0.21958543\C,0,-0.38591841,-1.15721
 195,-0.05498563\N,0,0.94991053,-1.34919326,-0.08409261\C,0,1.6661284,-
 0.14938753,-0.33316107\O,0,1.54112048,0.68851257,1.08967852\C,0,0.5568
 1756,0.81198616,-0.38140165\H,0,-2.66206235,0.30177676,-0.73528361\H,0
 ,-2.30547105,1.01262297,0.70384209\H,0,-1.07289004,-1.98670287,0.06859

 Normal termination of Gaussian 16 at Wed Apr  9 15:18:59 2025.
