 Gaussian 16, Revision C.01,

 ----------------------------------------------------------------------
 #t hf aug-cc-pvdz symm=none int=(grid=ultrafine) guess=(read,tcheck) s
 table=(opt,rrhf)
 ----------------------------------------------------------------------
 -----
 title
 -----
 Symbolic Z-matrix:
 Charge =  0 Multiplicity = 1

 SCF Done:  E(RHF) =  -273.109619472     A.U. after   14 cycles
 Normal termination of Gaussian 16 at Wed Apr  9 16:08:42 2025.
 Gaussian 16:  ES64L-G16RevC.01  3-Jul-2019

 ----------------------------------------------------------------------
 #t hf aug-cc-pvdz iop(5/13=1,5/36=2,99/5=2) pseudo=read geom=check gue
 ss=(read,tcheck) scf=(maxcycle=1)
 ----------------------------------------------------------------------
 -----
 title
 -----
 Structure from the checkpoint file:  "Grambow2020_wb97xd3_007784_forward_mol1.chk"
 Charge =  0 Multiplicity = 1

                         Standard orientation:
 ---------------------------------------------------------------------
 Center     Atomic      Atomic             Coordinates (Angstroms)
 Number     Number       Type             X           Y           Z
 ---------------------------------------------------------------------
      1          6           0       -1.488133   -1.099429   -0.748545
      2          6           0       -0.679436   -0.022809   -0.022248
      3          6           0       -0.597668   -0.384825    1.466180
      4          6           0       -1.402145    1.328572   -0.164377
      5          6           0        0.615894    0.239081   -0.799522
      6          6           0        2.057101   -0.677032   -0.045154
      7          6           0        1.738908    0.808600   -0.028834
      8          1           0       -1.600538   -0.844878   -1.802992
      9          1           0       -0.985817   -2.069449   -0.689204
     10          1           0       -2.480832   -1.213613   -0.303906
     11          1           0       -1.599024   -0.387665    1.903566
     12          1           0       -0.182411   -1.384045    1.615557
     13          1           0       -0.001527    0.324964    2.043354
     14          1           0       -1.460305    1.633058   -1.210683
     15          1           0       -2.417967    1.246880    0.229413
     16          1           0       -0.887325    2.115728    0.391532
     17          1           0        1.249890   -1.076533   -0.819874
     18          1           0        1.950082   -1.182568    0.906546
     19          1           0        2.950545   -0.939746   -0.602464
     20          1           0        2.439244    1.429467   -0.579292
     21          1           0        1.558864    1.195458    0.973448
 ---------------------------------------------------------------------

 SCF Done:  E(RHF) =  -273.194329367     A.U. after    2 cycles

 The electronic state is 1-A.
 Alpha  occ. eigenvalues --  -11.26958 -11.24258 -11.24199 -11.23762 -11.22194
 Alpha  occ. eigenvalues --  -11.22005 -11.21299  -1.13591  -1.06331  -0.93003
 Alpha  occ. eigenvalues --   -0.92444  -0.86618  -0.82588  -0.71407  -0.66630
 Alpha  occ. eigenvalues --   -0.62486  -0.60217  -0.59426  -0.55270  -0.54125
 Alpha  occ. eigenvalues --   -0.53212  -0.52902  -0.51012  -0.50339  -0.47337
 Alpha  occ. eigenvalues --   -0.45790  -0.44209  -0.31547
 Alpha virt. eigenvalues --    0.03405   0.04130   0.04349   0.04849   0.06220
 Alpha virt. eigenvalues --    0.06351   0.06696   0.06799   0.07125   0.08717
 Alpha virt. eigenvalues --    0.09282   0.09426   0.09595   0.10199   0.12678

 Mulliken charges:
               1
     1  C    1.238707
     2  C   -3.660636
     3  C    1.185004
     4  C    1.179759
     5  C   -0.553212
     6  C    0.472490
     7  C    1.059366
     8  H    0.038927
     9  H   -0.083483
    10  H    0.005047
    11  H   -0.038315
    12  H   -0.010868
    13  H   -0.065283
    14  H    0.052777
    15  H   -0.040603
    16  H    0.002765
    17  H    0.100562
    18  H   -0.214373
    19  H   -0.166026
    20  H   -0.249873
    21  H   -0.252731
 Sum of Mulliken charges =  -0.00000

 Dipole moment (field-independent basis, Debye):
    X=              0.8050    Y=             -0.6043    Z=              1.8124  Tot=              2.0731

 Test job not archived.
 1\1\GINC-SE097\SP\RHF\Aug-CC-pVDZ\C7H14\OHZDE\09-Apr-2025\0\\#t hf aug
 -cc-pvdz iop(5/13=1,5/36=2,99/5=2) pseudo=read geom=check guess=(read,
 tcheck) scf=(maxcycle=1)\\title\\0,1\C,0,-0.74932178,1.63078642,0.7847
 7714\C,0,-0.51266871,0.20570383,0.28104763\C,0,-0.94251851,0.12250927,
 -1.18914593\C,0,-1.37487672,-0.76711957,1.10503337\C,0,0.9033597,-0.23
 385774,0.67126649\C,0,2.09109775,-0.04221716,-0.75630593\C,0,1.5058701
 3,-1.30497873,-0.14675066\H,0,-0.49352498,1.70842649,1.84205084\H,0,-0
 .12876942,2.3453366,0.23603754\H,0,-1.79321326,1.92801899,0.65010704\H

 Normal termination of Gaussian 16 at Wed Apr  9 16:08:51 2025.
