 Gaussian 16, Revision C.01,

 ----------------------------------------------------------------------
 #t hf aug-cc-pvdz symm=none int=(grid=ultrafine) guess=(read,tcheck) s
 table=(opt,rrhf)
 ----------------------------------------------------------------------
 -----
 title
 -----
 Symbolic Z-matrix:
 Charge =  0 Multiplicity = 1

 SCF Done:  E(RHF) =  -320.563189863     A.U. after   15 cycles
 Normal termination of Gaussian 16 at Wed Apr  9 14:19:04 2025.
 Gaussian 16:  ES64L-G16RevC.01  3-Jul-2019

 ----------------------------------------------------------------------
 #t hf aug-cc-pvdz iop(5/13=1,5/36=2,99/5=2) pseudo=read geom=check gue
 ss=(read,tcheck) scf=(maxcycle=1)
 ----------------------------------------------------------------------
 -----
 title
 -----
 Structure from the checkpoint file:  "Grambow2020_b97d3_007130_reverse_mol1.chk"
 Charge =  0 Multiplicity = 1

                         Standard orientation:
 ---------------------------------------------------------------------
 Center     Atomic      Atomic             Coordinates (Angstroms)
 Number     Number       Type             X           Y           Z
 ---------------------------------------------------------------------
      1          6           0        2.033599   -0.963099   -0.002218
      2          7           0        0.624144   -0.580589    0.002081
      3          6           0        0.183961    0.691043    0.003348
      4          8           0        0.838167    1.725808    0.000025
      5          6           0       -2.057491    0.320765   -0.003255
      6          8           0       -2.188551   -0.863123    0.000730
      7          1           0        2.618668   -0.037453   -0.032756
      8          1           0        2.295113   -1.526442    0.905356
      9          1           0        2.274237   -1.573033   -0.884892
     10          1           0       -0.088787   -1.306774    0.009282
     11          1           0       -1.625581    1.314079   -0.004845
 ---------------------------------------------------------------------

 SCF Done:  E(RHF) =  -320.664774953     A.U. after    2 cycles

 The electronic state is 1-A.
 Alpha  occ. eigenvalues --  -20.68311 -20.54248 -15.65257 -11.43801 -11.34958
 Alpha  occ. eigenvalues --  -11.27604  -1.45343  -1.33325  -1.19418  -0.95422
 Alpha  occ. eigenvalues --   -0.90156  -0.78179  -0.76325  -0.69249  -0.65199
 Alpha  occ. eigenvalues --   -0.63736  -0.63093  -0.61847  -0.54848  -0.54190
 Alpha  occ. eigenvalues --   -0.53545  -0.39596  -0.30537
 Alpha virt. eigenvalues --    0.03299   0.03796   0.04306   0.05519   0.05738
 Alpha virt. eigenvalues --    0.07463   0.08295   0.09660   0.11720   0.12257
 Alpha virt. eigenvalues --    0.12978   0.13009   0.13449   0.15246   0.16542

 Mulliken charges:
               1
     1  C    0.684858
     2  N   -0.279508
     3  C    0.085983
     4  O   -0.532038
     5  C    0.328604
     6  O   -0.264138
     7  H   -0.168211
     8  H   -0.080347
     9  H   -0.085721
    10  H   -0.004401
    11  H    0.314919
 Sum of Mulliken charges =  -0.00000

 Dipole moment (field-independent basis, Debye):
    X=             -1.5947    Y=             -2.2016    Z=             -0.0034  Tot=              2.7185

 Test job not archived.
 1\1\GINC-SE041\SP\RHF\Aug-CC-pVDZ\C3H5N1O2\OHZDE\09-Apr-2025\0\\#t hf
 aug-cc-pvdz iop(5/13=1,5/36=2,99/5=2) pseudo=read geom=check guess=(re
 ad,tcheck) scf=(maxcycle=1)\\title\\0,1\C,0,-1.03376109,1.39751331,-0.
 02329575\N,0,-0.0000422,0.36654148,-0.06096394\C,0,-0.21563696,-0.9332
 163,0.21282254\O,0,-1.26223761,-1.48370774,0.52955784\C,0,1.88280386,-
 1.74456982,-0.10262753\O,0,2.5495256,-0.80496936,-0.40497738\H,0,-1.97
 556185,0.9003732,0.23345376\H,0,-0.80777106,2.15906303,0.73723483\H,0,
 -1.13797787,1.88773405,-1.00199973\H,0,0.95363923,0.62635363,-0.303158

 Normal termination of Gaussian 16 at Wed Apr  9 14:19:07 2025.
