 Gaussian 16, Revision C.01,

 ----------------------------------------------------------------------
 #t hf aug-cc-pvdz symm=none int=(grid=ultrafine) guess=(read,tcheck) s
 table=(opt,rrhf)
 ----------------------------------------------------------------------
 -----
 title
 -----
 Symbolic Z-matrix:
 Charge =  0 Multiplicity = 1

 SCF Done:  E(RHF) =  -338.668458324     A.U. after   15 cycles
 Normal termination of Gaussian 16 at Wed Apr  9 03:39:22 2025.
 Gaussian 16:  ES64L-G16RevC.01  3-Jul-2019

 ----------------------------------------------------------------------
 #t hf aug-cc-pvdz iop(5/13=1,5/36=2,99/5=2) pseudo=read geom=check gue
 ss=(read,tcheck) scf=(maxcycle=1)
 ----------------------------------------------------------------------
 -----
 title
 -----
 Structure from the checkpoint file:  "Grambow2020_wb97xd3_007488_reverse_mol2.chk"
 Charge =  0 Multiplicity = 1

                         Standard orientation:
 ---------------------------------------------------------------------
 Center     Atomic      Atomic             Coordinates (Angstroms)
 Number     Number       Type             X           Y           Z
 ---------------------------------------------------------------------
      1          6           0        1.603181   -1.667965   -0.101868
      2          8           0        1.833227   -0.291670   -0.368488
      3          6           0        0.335738    1.423725    0.124783
      4          6           0        1.202722    0.528972    0.523839
      5          7           0       -2.677388   -1.492078    0.088122
      6          6           0       -2.415925   -0.384676   -0.035885
      7          7           0       -0.569941    2.175689   -0.216123
      8          1           0        1.947271   -1.932580    0.904071
      9          1           0        2.176727   -2.228313   -0.837387
     10          1           0        0.540919   -1.911068   -0.193863
     11          1           0        1.468873    0.463878    1.575556
     12          1           0       -2.146433    0.652399   -0.154819
     13          1           0       -0.276173    3.103438   -0.514861
 ---------------------------------------------------------------------

 SCF Done:  E(RHF) =  -338.776477257     A.U. after    2 cycles

 The electronic state is 1-A.
 Alpha  occ. eigenvalues --  -20.60726 -15.67529 -15.64585 -11.34095 -11.32145
 Alpha  occ. eigenvalues --  -11.29730 -11.28418  -1.37626  -1.23640  -1.19597
 Alpha  occ. eigenvalues --   -1.03874  -0.92958  -0.79045  -0.78194  -0.73738
 Alpha  occ. eigenvalues --   -0.70548  -0.66304  -0.61083  -0.57781  -0.55253
 Alpha  occ. eigenvalues --   -0.53852  -0.49598  -0.48814  -0.48082  -0.47935
 Alpha  occ. eigenvalues --   -0.36051
 Alpha virt. eigenvalues --    0.02782   0.03730   0.04715   0.05510   0.06517
 Alpha virt. eigenvalues --    0.07809   0.09097   0.10347   0.11016   0.11196
 Alpha virt. eigenvalues --    0.12511   0.12663   0.13343   0.14436   0.14870

 Mulliken charges:
               1
     1  C    0.777457
     2  O   -0.674399
     3  C   -0.710237
     4  C    1.174861
     5  N   -0.328281
     6  C    0.350953
     7  N   -0.122135
     8  H   -0.042992
     9  H   -0.180161
    10  H   -0.099912
    11  H   -0.195851
    12  H   -0.009991
    13  H    0.060687
 Sum of Mulliken charges =  -0.00000

 Dipole moment (field-independent basis, Debye):
    X=              2.2464    Y=              2.6790    Z=              0.6668  Tot=              3.5592

 Test job not archived.
 1\1\GINC-SE335\SP\RHF\Aug-CC-pVDZ\C4H6N2O1\OHZDE\09-Apr-2025\0\\#t hf
 aug-cc-pvdz iop(5/13=1,5/36=2,99/5=2) pseudo=read geom=check guess=(re
 ad,tcheck) scf=(maxcycle=1)\\title\\0,1\C,0,-1.87153098,0.2664219,-0.8
 5719185\O,0,-1.58370204,-0.35219673,0.38886702\C,0,0.50644576,-0.35315
 745,1.41825918\C,0,-0.58379713,0.28137448,1.07151976\N,0,2.13573035,0.
 34089492,-2.38251804\C,0,2.30828902,-0.0684808,-1.32766506\N,0,1.58404
 557,-0.89432929,1.63697021\H,0,-2.16790023,1.31139783,-0.71393202\H,0,
 -2.70026242,-0.28580969,-1.29557073\H,0,-1.00422547,0.22678277,-1.5221

 Normal termination of Gaussian 16 at Wed Apr  9 03:39:25 2025.
