 Gaussian 16, Revision C.01,

 ----------------------------------------------------------------------
 #t hf aug-cc-pvdz symm=none int=(grid=ultrafine) guess=(read,tcheck) s
 table=(opt,rrhf)
 ----------------------------------------------------------------------
 -----
 title
 -----
 Symbolic Z-matrix:
 Charge =  0 Multiplicity = 1

 SCF Done:  E(RHF) =  -321.520944454     A.U. after   14 cycles
 Normal termination of Gaussian 16 at Wed Apr  9 16:22:48 2025.
 Gaussian 16:  ES64L-G16RevC.01  3-Jul-2019

 ----------------------------------------------------------------------
 #t hf aug-cc-pvdz iop(5/13=1,5/36=2,99/5=2) pseudo=read geom=check gue
 ss=(read,tcheck) scf=(maxcycle=1)
 ----------------------------------------------------------------------
 -----
 title
 -----
 Structure from the checkpoint file:  "Grambow2020_wb97xd3_008182_forward_mol2.chk"
 Charge =  0 Multiplicity = 1

                         Standard orientation:
 ---------------------------------------------------------------------
 Center     Atomic      Atomic             Coordinates (Angstroms)
 Number     Number       Type             X           Y           Z
 ---------------------------------------------------------------------
      1          8           0        1.890830   -1.261690    0.087095
      2          6           0        0.549373   -1.215495   -0.301131
      3          6           0       -0.208820   -0.081433    0.433299
      4          6           0        0.379077    1.222831    0.119211
      5          6           0        0.910527    2.257277   -0.158746
      6          6           0       -1.634881   -0.127791    0.092253
      7          7           0       -2.744209   -0.208385   -0.184569
      8          1           0        2.330156   -0.463082   -0.217986
      9          1           0        0.431232   -1.077622   -1.381372
     10          1           0        0.100929   -2.169366   -0.023410
     11          1           0       -0.115605   -0.260064    1.508804
     12          1           0        1.364451    3.190022   -0.400127
 ---------------------------------------------------------------------

 SCF Done:  E(RHF) =  -321.620493854     A.U. after    2 cycles

 The electronic state is 1-A.
 Alpha  occ. eigenvalues --  -20.60087 -15.65261 -11.33441 -11.32933 -11.30120
 Alpha  occ. eigenvalues --  -11.28143 -11.27251  -1.36060  -1.21379  -1.12169
 Alpha  occ. eigenvalues --   -1.03311  -0.92254  -0.77966  -0.75062  -0.73138
 Alpha  occ. eigenvalues --   -0.69680  -0.63985  -0.63146  -0.56203  -0.54489
 Alpha  occ. eigenvalues --   -0.51090  -0.48210  -0.47443  -0.43323  -0.42454
 Alpha virt. eigenvalues --    0.02586   0.03822   0.04525   0.05497   0.06247
 Alpha virt. eigenvalues --    0.08837   0.09549   0.09712   0.10391   0.11594
 Alpha virt. eigenvalues --    0.12514   0.13370   0.13438   0.14742   0.14875

 Mulliken charges:
               1
     1  O   -0.539919
     2  C    0.953444
     3  C    0.005507
     4  C   -0.574846
     5  C    1.098276
     6  C   -0.304082
     7  N   -0.161608
     8  H    0.173042
     9  H   -0.108530
    10  H   -0.155515
    11  H    0.109417
    12  H   -0.495185
 Sum of Mulliken charges =  -0.00000

 Dipole moment (field-independent basis, Debye):
    X=              3.0832    Y=              1.2882    Z=             -0.0487  Tot=              3.3418

 Test job not archived.
 1\1\GINC-SE219\SP\RHF\Aug-CC-pVDZ\C5H5N1O1\OHZDE\09-Apr-2025\0\\#t hf
 aug-cc-pvdz iop(5/13=1,5/36=2,99/5=2) pseudo=read geom=check guess=(re
 ad,tcheck) scf=(maxcycle=1)\\title\\0,1\O,0,-2.01290549,-0.0015317,-0.
 37145439\C,0,-0.99965873,-0.71568315,0.27327817\C,0,0.3838578,-0.42197
 024,-0.35914199\C,0,0.71463619,1.00026778,-0.2442398\C,0,0.92345792,2.
 17281289,-0.13789359\C,0,1.40956192,-1.26735121,0.26164393\N,0,2.17807
 312,-1.95754741,0.75838652\H,0,-1.88483539,0.93670347,-0.20662515\H,0,
 -0.95151492,-0.49735032,1.34561212\H,0,-1.22162198,-1.77522301,0.14596

 Normal termination of Gaussian 16 at Wed Apr  9 16:22:52 2025.
