 Gaussian 16, Revision C.01,

 ----------------------------------------------------------------------
 #t hf aug-cc-pvdz symm=none int=(grid=ultrafine) guess=(read,tcheck) s
 table=(opt,rrhf)
 ----------------------------------------------------------------------
 -----
 title
 -----
 Symbolic Z-matrix:
 Charge =  0 Multiplicity = 1

 SCF Done:  E(RHF) =  -307.699693383     A.U. after   16 cycles

 1\1\GINC-SE163\Stability\RHF\Aug-CC-pVDZ\C6H10O1\OHZDE\09-Apr-2025\0\\
 #t hf aug-cc-pvdz symm=none int=(grid=ultrafine) guess=(read,tcheck) s
 table=(opt,rrhf)\\title\\0,1\C,0,1.7498069,-0.46984781,-0.50251258\C,0
 ,0.39322083,0.25382401,0.7900272\C,0,-0.11599495,1.55180387,0.32349623
 \C,0,-1.29386458,1.26435009,-0.45099088\C,0,-1.64187152,-0.03642892,-0
 .38768527\C,0,-0.77851414,-0.71647337,0.64661208\O,0,-0.47197159,-2.07
 242857,0.44950051\H,0,1.43328337,-0.5738361,-1.54142663\H,0,2.65900865
 ,0.12347896,-0.41521862\H,0,1.85770996,-1.43929522,-0.02810864\H,0,1.0

 Normal termination of Gaussian 16 at Wed Apr  9 16:09:21 2025.
 Gaussian 16:  ES64L-G16RevC.01  3-Jul-2019

 ----------------------------------------------------------------------
 #t hf aug-cc-pvdz iop(5/13=1,5/36=2,99/5=2) pseudo=read geom=check gue
 ss=(read,tcheck) scf=(maxcycle=1)
 ----------------------------------------------------------------------
 -----
 title
 -----
 Structure from the checkpoint file:  "Grambow2020_wb97xd3_007817_forward_mol1.chk"
 Charge =  0 Multiplicity = 1

                         Standard orientation:
 ---------------------------------------------------------------------
 Center     Atomic      Atomic             Coordinates (Angstroms)
 Number     Number       Type             X           Y           Z
 ---------------------------------------------------------------------
      1          6           0        1.260773    1.544019   -0.625249
      2          6           0        0.071724    0.660512    0.731315
      3          6           0       -1.341721    0.905981    0.409410
      4          6           0       -1.766386   -0.205136   -0.399858
      5          6           0       -0.823796   -1.165090   -0.484447
      6          6           0        0.293423   -0.829152    0.472938
      7          8           0        1.591792   -1.237087    0.127593
      8          1           0        1.092335    1.283659   -1.671282
      9          1           0        1.223128    2.620894   -0.466421
     10          1           0        2.189677    1.118248   -0.261399
     11          1           0        0.555232    1.149313    1.566136
     12          1           0       -0.159949    1.358538   -0.302598
     13          1           0       -1.908330    1.765259    0.724786
     14          1           0       -2.734102   -0.247698   -0.883960
     15          1           0       -0.909305   -2.124441   -0.972983
     16          1           0        0.090368   -1.296386    1.451123
     17          1           0        1.662515   -1.197494   -0.828803
 ---------------------------------------------------------------------

 SCF Done:  E(RHF) =  -307.794093230     A.U. after    2 cycles

 The electronic state is 1-A.
 Alpha  occ. eigenvalues --  -20.57888 -11.31994 -11.30500 -11.25094 -11.24618
 Alpha  occ. eigenvalues --  -11.20886 -11.20522  -1.33788  -1.15756  -1.01020
 Alpha  occ. eigenvalues --   -0.94357  -0.92471  -0.78914  -0.75513  -0.71622
 Alpha  occ. eigenvalues --   -0.67397  -0.64926  -0.61816  -0.59200  -0.56525
 Alpha  occ. eigenvalues --   -0.55862  -0.53310  -0.52106  -0.49345  -0.46522
 Alpha  occ. eigenvalues --   -0.39723  -0.23856
 Alpha virt. eigenvalues --    0.03034   0.04152   0.04374   0.04805   0.05989
 Alpha virt. eigenvalues --    0.06241   0.06606   0.06994   0.08552   0.09489
 Alpha virt. eigenvalues --    0.11706   0.11998   0.13496   0.13853   0.14284

 Mulliken charges:
               1
     1  C    0.173730
     2  C   -0.155044
     3  C   -0.122109
     4  C    0.352124
     5  C    0.332064
     6  C    0.867416
     7  O   -0.596436
     8  H   -0.013872
     9  H   -0.100523
    10  H   -0.173628
    11  H   -0.213306
    12  H    0.593694
    13  H   -0.362602
    14  H   -0.331701
    15  H   -0.354824
    16  H   -0.062188
    17  H    0.167204
 Sum of Mulliken charges =  -0.00000

 Dipole moment (field-independent basis, Debye):
    X=              0.2659    Y=              1.6964    Z=             -0.5363  Tot=              1.7989

 Test job not archived.
 1\1\GINC-SE163\SP\RHF\Aug-CC-pVDZ\C6H10O1\OHZDE\09-Apr-2025\0\\#t hf a
 ug-cc-pvdz iop(5/13=1,5/36=2,99/5=2) pseudo=read geom=check guess=(rea
 d,tcheck) scf=(maxcycle=1)\\title\\0,1\C,0,1.7498069,-0.46984781,-0.50
 251258\C,0,0.39322083,0.25382401,0.7900272\C,0,-0.11599495,1.55180387,
 0.32349623\C,0,-1.29386458,1.26435009,-0.45099088\C,0,-1.64187152,-0.0
 3642892,-0.38768527\C,0,-0.77851414,-0.71647337,0.64661208\O,0,-0.4719
 7159,-2.07242857,0.44950051\H,0,1.43328337,-0.5738361,-1.54142663\H,0,
 2.65900865,0.12347896,-0.41521862\H,0,1.85770996,-1.43929522,-0.028108

 Normal termination of Gaussian 16 at Wed Apr  9 16:09:27 2025.
