 Gaussian 16, Revision C.01,

 ----------------------------------------------------------------------
 #t hf aug-cc-pvdz symm=none int=(grid=ultrafine) guess=(read,tcheck) s
 table=(opt,rrhf)
 ----------------------------------------------------------------------
 -----
 title
 -----
 Symbolic Z-matrix:
 Charge =  0 Multiplicity = 1

 SCF Done:  E(RHF) =  -354.777103789     A.U. after   14 cycles
 Normal termination of Gaussian 16 at Wed Apr  9 03:39:13 2025.
 Gaussian 16:  ES64L-G16RevC.01  3-Jul-2019

 ----------------------------------------------------------------------
 #t hf aug-cc-pvdz iop(5/13=1,5/36=2,99/5=2) pseudo=read geom=check gue
 ss=(read,tcheck) scf=(maxcycle=1)
 ----------------------------------------------------------------------
 -----
 title
 -----
 Structure from the checkpoint file:  "Grambow2020_wb97xd3_007470_reverse_mol2.chk"
 Charge =  0 Multiplicity = 1

                         Standard orientation:
 ---------------------------------------------------------------------
 Center     Atomic      Atomic             Coordinates (Angstroms)
 Number     Number       Type             X           Y           Z
 ---------------------------------------------------------------------
      1          7           0       -2.369194   -0.577065   -0.082240
      2          6           0       -1.079340   -0.062210   -0.013003
      3          6           0       -0.654046    1.231336   -0.002236
      4          7           0        0.743780    1.143876    0.005401
      5          6           0        1.040419   -0.160077    0.000169
      6          8           0        2.316814   -0.564729    0.010414
      7          7           0       -0.009635   -0.929873   -0.009124
      8          1           0       -2.402957   -1.530678    0.241676
      9          1           0       -3.064434   -0.008290    0.371512
     10          1           0       -1.171609    2.173399   -0.018767
     11          1           0        1.404862    1.897124    0.017485
     12          1           0        2.302778   -1.526594   -0.003057
 ---------------------------------------------------------------------

 SCF Done:  E(RHF) =  -354.885114458     A.U. after    2 cycles

 The electronic state is 1-A.
 Alpha  occ. eigenvalues --  -20.62649 -15.67265 -15.62046 -15.60032 -11.37572
 Alpha  occ. eigenvalues --  -11.29618 -11.24503  -1.41141  -1.30167  -1.18156
 Alpha  occ. eigenvalues --   -1.12003  -0.97561  -0.84285  -0.81091  -0.77309
 Alpha  occ. eigenvalues --   -0.70278  -0.66480  -0.65800  -0.62435  -0.60449
 Alpha  occ. eigenvalues --   -0.57359  -0.55711  -0.47295  -0.44452  -0.38110
 Alpha  occ. eigenvalues --   -0.28324
 Alpha virt. eigenvalues --    0.03096   0.03613   0.04013   0.06256   0.07334
 Alpha virt. eigenvalues --    0.08703   0.11570   0.11961   0.13288   0.13422
 Alpha virt. eigenvalues --    0.13591   0.14266   0.15306   0.16569   0.17131

 Mulliken charges:
               1
     1  N   -0.332111
     2  C    0.573721
     3  C    1.021283
     4  N   -0.458046
     5  C    0.534253
     6  O   -0.444288
     7  N   -0.600893
     8  H   -0.013202
     9  H   -0.022985
    10  H   -0.296756
    11  H   -0.094375
    12  H    0.133398
 Sum of Mulliken charges =  -0.00000

 Dipole moment (field-independent basis, Debye):
    X=              0.2906    Y=              1.3488    Z=              1.1180  Tot=              1.7758

 Test job not archived.
 1\1\GINC-SE128\SP\RHF\Aug-CC-pVDZ\C3H5N3O1\OHZDE\09-Apr-2025\0\\#t hf
 aug-cc-pvdz iop(5/13=1,5/36=2,99/5=2) pseudo=read geom=check guess=(re
 ad,tcheck) scf=(maxcycle=1)\\title\\0,1\N,0,2.21883444,0.16224385,0.03
 357364\C,0,0.82834201,0.16580868,0.02303709\C,0,-0.0433126,1.21109177,
 0.06608807\N,0,-1.30977033,0.61409413,0.10219554\C,0,-1.10506554,-0.70
 71895,0.07726982\O,0,-2.142081,-1.55409075,0.0970089\N,0,0.15401551,-1
 .03518332,0.02806671\H,0,2.58757325,-0.70619314,-0.32038767\H,0,2.6360
 7146,0.95474208,-0.42535341\H,0,0.0913177,2.27725564,0.09431443\H,0,-2

 Normal termination of Gaussian 16 at Wed Apr  9 03:39:17 2025.
