 Gaussian 16, Revision C.01,

 ----------------------------------------------------------------------
 #t hf aug-cc-pvdz symm=none int=(grid=ultrafine) guess=(read,tcheck) s
 table=(opt,rrhf)
 ----------------------------------------------------------------------
 -----
 title
 -----
 Symbolic Z-matrix:
 Charge =  0 Multiplicity = 1

 SCF Done:  E(RHF) =  -306.655176397     A.U. after   16 cycles
 Normal termination of Gaussian 16 at Wed Apr  9 03:59:19 2025.
 Gaussian 16:  ES64L-G16RevC.01  3-Jul-2019

 ----------------------------------------------------------------------
 #t hf aug-cc-pvdz iop(5/13=1,5/36=2,99/5=2) pseudo=read geom=check gue
 ss=(read,tcheck) scf=(maxcycle=1)
 ----------------------------------------------------------------------
 -----
 title
 -----
 Structure from the checkpoint file:  "Grambow2020_wb97xd3_008795_reverse_mol2.chk"
 Charge =  0 Multiplicity = 1

                         Standard orientation:
 ---------------------------------------------------------------------
 Center     Atomic      Atomic             Coordinates (Angstroms)
 Number     Number       Type             X           Y           Z
 ---------------------------------------------------------------------
      1          8           0        2.300185   -0.061112   -0.165601
      2          6           0        1.109045   -0.042866    0.002929
      3          6           0        0.257256   -1.286372   -0.106128
      4          6           0       -1.177019   -1.065069    0.355872
      5          6           0       -1.751091    0.197636   -0.284023
      6          6           0       -1.000486    1.462804   -0.182888
      7          6           0        0.381968    1.266120    0.286694
      8          1           0        0.275798   -1.571517   -1.164175
      9          1           0        0.757417   -2.092090    0.433879
     10          1           0       -1.791859   -1.935654    0.118885
     11          1           0       -1.208026   -0.957863    1.445300
     12          1           0       -1.760387    0.107011   -1.390050
     13          1           0       -2.805216    0.361061   -0.044912
     14          1           0        0.162312    1.274458    1.376054
     15          1           0        1.050450    2.109968    0.115090
 ---------------------------------------------------------------------

 SCF Done:  E(RHF) =  -306.745569152     A.U. after    2 cycles

 The electronic state is 1-A.
 Alpha  occ. eigenvalues --  -20.56801 -11.35030 -11.28064 -11.25964 -11.25729
 Alpha  occ. eigenvalues --  -11.25668 -11.25635  -1.36557  -1.13407  -1.03480
 Alpha  occ. eigenvalues --   -0.99905  -0.87430  -0.79338  -0.71782  -0.67754
 Alpha  occ. eigenvalues --   -0.66649  -0.64425  -0.60283  -0.58859  -0.57858
 Alpha  occ. eigenvalues --   -0.53801  -0.52201  -0.51097  -0.48850  -0.44207
 Alpha  occ. eigenvalues --   -0.34583
 Alpha virt. eigenvalues --    0.02824   0.03923   0.04416   0.04630   0.06426
 Alpha virt. eigenvalues --    0.06692   0.06941   0.07297   0.07675   0.09398
 Alpha virt. eigenvalues --    0.11003   0.12003   0.13675   0.14036   0.14412

 Mulliken charges:
               1
     1  O   -0.531314
     2  C   -0.106807
     3  C    0.221502
     4  C    0.561578
     5  C    0.322585
     6  C   -0.814986
     7  C    0.265886
     8  H    0.050286
     9  H   -0.010557
    10  H   -0.063807
    11  H   -0.080528
    12  H    0.094584
    13  H   -0.081789
    14  H    0.291539
    15  H   -0.118173
 Sum of Mulliken charges =  -0.00000

 Dipole moment (field-independent basis, Debye):
    X=             -2.9080    Y=             -2.2173    Z=              0.9559  Tot=              3.7798

 Test job not archived.
 1\1\GINC-SE179\SP\RHF\Aug-CC-pVDZ\C6H8O1\OHZDE\09-Apr-2025\0\\#t hf au
 g-cc-pvdz iop(5/13=1,5/36=2,99/5=2) pseudo=read geom=check guess=(read
 ,tcheck) scf=(maxcycle=1)\\title\\0,1\O,0,0.99702074,-2.51143389,0.055
 31939\C,0,0.59922317,-1.37682991,0.09983262\C,0,-0.86309267,-1.0256610
 9,-0.04868595\C,0,-1.15525679,0.43792314,0.25483584\C,0,-0.17153159,1.
 33990954,-0.48823375\C,0,1.27584592,1.0896501,-0.35880538\C,0,1.572968
 57,-0.21510604,0.25739349\H,0,-1.12384382,-1.25753267,-1.08760753\H,0,
 -1.44418435,-1.7115017,0.57010866\H,0,-2.18546345,0.68342125,-0.010711

 Normal termination of Gaussian 16 at Wed Apr  9 03:59:24 2025.
