 Gaussian 16, Revision C.01,

 ----------------------------------------------------------------------
 #t hf aug-cc-pvdz symm=none int=(grid=ultrafine) guess=(read,tcheck) s
 table=(opt,rrhf)
 ----------------------------------------------------------------------
 -----
 title
 -----
 Symbolic Z-matrix:
 Charge =  0 Multiplicity = 1

 SCF Done:  E(RHF) =  -306.734423386     A.U. after   14 cycles
 Normal termination of Gaussian 16 at Wed Apr  9 03:59:49 2025.
 Gaussian 16:  ES64L-G16RevC.01  3-Jul-2019

 ----------------------------------------------------------------------
 #t hf aug-cc-pvdz iop(5/13=1,5/36=2,99/5=2) pseudo=read geom=check gue
 ss=(read,tcheck) scf=(maxcycle=1)
 ----------------------------------------------------------------------
 -----
 title
 -----
 Structure from the checkpoint file:  "Grambow2020_wb97xd3_008800_reverse_mol2.chk"
 Charge =  0 Multiplicity = 1

                         Standard orientation:
 ---------------------------------------------------------------------
 Center     Atomic      Atomic             Coordinates (Angstroms)
 Number     Number       Type             X           Y           Z
 ---------------------------------------------------------------------
      1          8           0       -2.348815    0.088131    0.124280
      2          6           0       -0.999882   -0.042867   -0.008315
      3          6           0       -0.330643   -1.196790   -0.006113
      4          6           0        1.158082   -1.197300   -0.233989
      5          6           0        1.810747    0.073981    0.304904
      6          6           0        1.015309    1.299843   -0.047883
      7          6           0       -0.306656    1.236216   -0.177539
      8          1           0       -0.856161   -2.142763    0.081001
      9          1           0       -2.743142   -0.783487    0.205148
     10          1           0        1.614220   -2.070756    0.235983
     11          1           0        1.361512   -1.285639   -1.310201
     12          1           0        1.879100    0.018409    1.400104
     13          1           0        2.834799    0.159609   -0.063499
     14          1           0        1.528644    2.250266   -0.141862
     15          1           0       -0.910183    2.110814   -0.387304
 ---------------------------------------------------------------------

 SCF Done:  E(RHF) =  -306.828735864     A.U. after    2 cycles

 The electronic state is 1-A.
 Alpha  occ. eigenvalues --  -20.59818 -11.30168 -11.24561 -11.23748 -11.23627
 Alpha  occ. eigenvalues --  -11.23613 -11.22058  -1.36327  -1.12171  -1.00929
 Alpha  occ. eigenvalues --   -0.99558  -0.84737  -0.84273  -0.73131  -0.68401
 Alpha  occ. eigenvalues --   -0.65803  -0.62926  -0.59706  -0.58909  -0.56595
 Alpha  occ. eigenvalues --   -0.55977  -0.51770  -0.49332  -0.46464  -0.40622
 Alpha  occ. eigenvalues --   -0.30253
 Alpha virt. eigenvalues --    0.03386   0.03970   0.04482   0.05253   0.05965
 Alpha virt. eigenvalues --    0.06194   0.07111   0.08515   0.10372   0.12545
 Alpha virt. eigenvalues --    0.12891   0.13147   0.14107   0.14299   0.14800

 Mulliken charges:
               1
     1  O   -0.584485
     2  C   -0.078044
     3  C    0.681440
     4  C    0.234284
     5  C    0.298068
     6  C    0.220989
     7  C    0.468631
     8  H   -0.534169
     9  H    0.137170
    10  H    0.026259
    11  H   -0.024221
    12  H    0.001854
    13  H    0.007672
    14  H   -0.399746
    15  H   -0.455704
 Sum of Mulliken charges =  -0.00000

 Dipole moment (field-independent basis, Debye):
    X=              0.8733    Y=             -1.1696    Z=              0.0489  Tot=              1.4605

 Test job not archived.
 1\1\GINC-SE116\SP\RHF\Aug-CC-pVDZ\C6H8O1\OHZDE\09-Apr-2025\0\\#t hf au
 g-cc-pvdz iop(5/13=1,5/36=2,99/5=2) pseudo=read geom=check guess=(read
 ,tcheck) scf=(maxcycle=1)\\title\\0,1\O,0,0.57057258,-2.60211302,0.250
 33751\C,0,0.24087947,-1.28233542,0.18828248\C,0,-0.98481325,-0.8001121
 9,-0.0228129\C,0,-1.21702195,0.6876999,0.0040619\C,0,0.00914968,1.4579
 3563,-0.48150203\C,0,1.27999555,0.90347522,0.09939681\C,0,1.38262595,-
 0.388762,0.39611232\H,0,-1.83210913,-1.46914251,-0.13732077\H,0,-0.222
 35871,-3.13039221,0.13230253\H,0,-2.0806646,0.94874737,-0.61062185\H,0

 Normal termination of Gaussian 16 at Wed Apr  9 03:59:54 2025.
