 Gaussian 16, Revision C.01,

 ----------------------------------------------------------------------
 #t hf aug-cc-pvdz symm=none int=(grid=ultrafine) guess=(read,tcheck) s
 table=(opt,rrhf)
 ----------------------------------------------------------------------
 -----
 title
 -----
 Symbolic Z-matrix:
 Charge =  0 Multiplicity = 1

 SCF Done:  E(RHF) =  -320.287058633     A.U. after   15 cycles
 Normal termination of Gaussian 16 at Wed Apr  9 04:05:26 2025.
 Gaussian 16:  ES64L-G16RevC.01  3-Jul-2019

 ----------------------------------------------------------------------
 #t hf aug-cc-pvdz iop(5/13=1,5/36=2,99/5=2) pseudo=read geom=check gue
 ss=(read,tcheck) scf=(maxcycle=1)
 ----------------------------------------------------------------------
 -----
 title
 -----
 Structure from the checkpoint file:  "Grambow2020_wb97xd3_009377_reverse_mol2.chk"
 Charge =  0 Multiplicity = 1

                         Standard orientation:
 ---------------------------------------------------------------------
 Center     Atomic      Atomic             Coordinates (Angstroms)
 Number     Number       Type             X           Y           Z
 ---------------------------------------------------------------------
      1          8           0        1.357255   -1.522278   -0.300367
      2          6           0        0.672057   -0.610254    0.056286
      3          6           0       -0.746312   -0.753633    0.566515
      4          6           0       -2.468198    0.953144   -0.057246
      5          6           0       -1.724618   -0.065277   -0.349794
      6          6           0        1.194720    0.775103    0.022885
      7          7           0        1.602246    1.847081    0.020803
      8          1           0       -0.802105   -0.312314    1.564499
      9          1           0       -0.964972   -1.818699    0.636227
     10          1           0       -1.872582   -0.414834   -1.375293
 ---------------------------------------------------------------------

 SCF Done:  E(RHF) =  -320.380726249     A.U. after    2 cycles

 The electronic state is 1-A.
 Alpha  occ. eigenvalues --  -20.63670 -15.68512 -11.42806 -11.33156 -11.32065
 Alpha  occ. eigenvalues --  -11.31747 -11.28212  -1.43433  -1.23175  -1.14008
 Alpha  occ. eigenvalues --   -1.03060  -0.92271  -0.76107  -0.75458  -0.71174
 Alpha  occ. eigenvalues --   -0.65502  -0.63045  -0.59347  -0.58211  -0.52091
 Alpha  occ. eigenvalues --   -0.50860  -0.50382  -0.47943  -0.43187
 Alpha virt. eigenvalues --    0.02091   0.03250   0.03698   0.04747   0.05219
 Alpha virt. eigenvalues --    0.06964   0.08464   0.09254   0.10397   0.11388
 Alpha virt. eigenvalues --    0.11856   0.12714   0.13602   0.14590   0.14643

 Mulliken charges:
               1
     1  O   -0.438907
     2  C    0.570923
     3  C    0.159950
     4  C   -0.314933
     5  C    0.656577
     6  C   -0.230632
     7  N   -0.102510
     8  H    0.010188
     9  H    0.020883
    10  H   -0.331538
 Sum of Mulliken charges =  -0.00000

 Dipole moment (field-independent basis, Debye):
    X=             -1.9815    Y=             -2.5895    Z=              0.6385  Tot=              3.3226

 Test job not archived.
 1\1\GINC-SE334\SP\RHF\Aug-CC-pVDZ\C5H3N1O1\OHZDE\09-Apr-2025\0\\#t hf
 aug-cc-pvdz iop(5/13=1,5/36=2,99/5=2) pseudo=read geom=check guess=(re
 ad,tcheck) scf=(maxcycle=1)\\title\\0,1\O,0,-1.7995594,-0.45385643,1.2
 4321399\C,0,-1.07016775,0.0033126,0.41407623\C,0,0.02359884,-0.7747264
 7,-0.28663261\C,0,2.21309634,0.33353739,-0.78151192\C,0,1.38367198,-0.
 21758452,0.04552831\C,0,-1.20190772,1.41964053,0.00156678\N,0,-1.31445
 731,2.50920327,-0.33814737\H,0,-0.14572945,-0.71686858,-1.36451374\H,0
 ,-0.05684736,-1.81397488,0.03042923\H,0,1.77029782,-0.25625492,1.06766

 Normal termination of Gaussian 16 at Wed Apr  9 04:05:30 2025.
