 Gaussian 16, Revision C.01,

 ----------------------------------------------------------------------
 #t hf aug-cc-pvdz symm=none int=(grid=ultrafine) guess=(read,tcheck) s
 table=(opt,rrhf)
 ----------------------------------------------------------------------
 -----
 title
 -----
 Symbolic Z-matrix:
 Charge =  0 Multiplicity = 1

 SCF Done:  E(RHF) =  -394.427471207     A.U. after   15 cycles
 Normal termination of Gaussian 16 at Wed Apr  9 15:36:44 2025.
 Gaussian 16:  ES64L-G16RevC.01  3-Jul-2019

 ----------------------------------------------------------------------
 #t hf aug-cc-pvdz iop(5/13=1,5/36=2,99/5=2) pseudo=read geom=check gue
 ss=(read,tcheck) scf=(maxcycle=1)
 ----------------------------------------------------------------------
 -----
 title
 -----
 Structure from the checkpoint file:  "Grambow2020_wb97xd3_007207_reverse_mol2.chk"
 Charge =  0 Multiplicity = 1

                         Standard orientation:
 ---------------------------------------------------------------------
 Center     Atomic      Atomic             Coordinates (Angstroms)
 Number     Number       Type             X           Y           Z
 ---------------------------------------------------------------------
      1          7           0        0.428581    1.698622    0.005743
      2          6           0        1.090856    0.762433    0.009599
      3          8           0       -1.165784   -1.209562    0.008551
      4          6           0       -2.226246   -0.644589   -0.007195
      5          8           0       -2.407115    0.665741   -0.008390
      6          6           0        1.881824   -0.493089    0.016389
      7          8           0        3.073427   -0.481152   -0.024120
      8          1           0       -1.543612    1.118353    0.000957
      9          1           0       -3.193576   -1.163462   -0.023415
     10          1           0        1.254290   -1.393992    0.061167
 ---------------------------------------------------------------------

 SCF Done:  E(RHF) =  -394.553593074     A.U. after    2 cycles

 The electronic state is 1-A.
 Alpha  occ. eigenvalues --  -20.64023 -20.63834 -20.58868 -15.69039 -11.42010
 Alpha  occ. eigenvalues --  -11.41730 -11.33308  -1.44751  -1.42959  -1.35215
 Alpha  occ. eigenvalues --   -1.24356  -0.97035  -0.91486  -0.78372  -0.75029
 Alpha  occ. eigenvalues --   -0.74318  -0.72285  -0.66279  -0.63050  -0.61863
 Alpha  occ. eigenvalues --   -0.60274  -0.53032  -0.52376  -0.51548  -0.51262
 Alpha  occ. eigenvalues --   -0.49519
 Alpha virt. eigenvalues --    0.03315   0.03419   0.04678   0.06025   0.07845
 Alpha virt. eigenvalues --    0.08346   0.09638   0.10611   0.11704   0.12495
 Alpha virt. eigenvalues --    0.12582   0.13698   0.14687   0.15484   0.15924

 Mulliken charges:
               1
     1  N   -0.131960
     2  C   -0.337862
     3  O   -0.338180
     4  C    0.720640
     5  O   -0.312107
     6  C    0.838715
     7  O   -0.369026
     8  H    0.182040
     9  H   -0.242071
    10  H   -0.010188
 Sum of Mulliken charges =  -0.00000

 Dipole moment (field-independent basis, Debye):
    X=             -2.1992    Y=             -1.2960    Z=              0.0818  Tot=              2.5540

 Test job not archived.
 1\1\GINC-SE114\SP\RHF\Aug-CC-pVDZ\C3H3N1O3\OHZDE\09-Apr-2025\0\\#t hf
 aug-cc-pvdz iop(5/13=1,5/36=2,99/5=2) pseudo=read geom=check guess=(re
 ad,tcheck) scf=(maxcycle=1)\\title\\0,1\N,0,-0.97549669,1.41545788,-0.
 86754461\C,0,-1.478698,0.53011831,-0.34025487\O,0,1.06509808,-0.802244
 56,0.51712593\C,0,2.02072124,-0.16546922,0.16311492\O,0,1.98876828,0.9
 6367615,-0.52513548\C,0,-2.05758146,-0.64400471,0.3585592\O,0,-3.23609
 284,-0.78507426,0.47218513\H,0,1.06401081,1.21479545,-0.70498286\H,0,3
 .05848999,-0.45374813,0.37560418\H,0,-1.29292842,-1.33456791,0.7404734

 Normal termination of Gaussian 16 at Wed Apr  9 15:36:49 2025.
