 Gaussian 16, Revision C.01,

 ----------------------------------------------------------------------
 #t hf aug-cc-pvdz symm=none int=(grid=ultrafine) guess=(read,tcheck) s
 table=(opt,rrhf)
 ----------------------------------------------------------------------
 -----
 title
 -----
 Symbolic Z-matrix:
 Charge =  0 Multiplicity = 1

 SCF Done:  E(RHF) =  -322.604212359     A.U. after   16 cycles
 Normal termination of Gaussian 16 at Wed Apr  9 16:06:02 2025.
 Gaussian 16:  ES64L-G16RevC.01  3-Jul-2019

 ----------------------------------------------------------------------
 #t hf aug-cc-pvdz iop(5/13=1,5/36=2,99/5=2) pseudo=read geom=check gue
 ss=(read,tcheck) scf=(maxcycle=1)
 ----------------------------------------------------------------------
 -----
 title
 -----
 Structure from the checkpoint file:  "Grambow2020_wb97xd3_007756_reverse_mol1.chk"
 Charge =  0 Multiplicity = 1

                         Standard orientation:
 ---------------------------------------------------------------------
 Center     Atomic      Atomic             Coordinates (Angstroms)
 Number     Number       Type             X           Y           Z
 ---------------------------------------------------------------------
      1          6           0       -2.519183   -0.389276   -0.147485
      2          6           0       -1.080449   -0.066200    0.133370
      3          6           0        0.057523   -1.020466    0.036854
      4          6           0        1.255887   -0.275201   -0.026232
      5          7           0        2.482586   -0.592333   -0.071857
      6          8           0        0.819234    1.108023   -0.024285
      7          6           0       -0.491068    1.198070    0.024562
      8          1           0       -3.175406    0.423704    0.163907
      9          1           0       -2.655613   -0.559422   -1.215840
     10          1           0       -2.824374   -1.295544    0.375452
     11          1           0       -0.019731   -2.088163    0.141245
     12          1           0        3.088598    0.215843   -0.134466
     13          1           0       -0.746779   -0.277711    1.225576
     14          1           0       -0.934933    2.181881    0.014997
 ---------------------------------------------------------------------

 SCF Done:  E(RHF) =  -322.703147493     A.U. after    2 cycles

 The electronic state is 1-A.
 Alpha  occ. eigenvalues --  -20.66221 -15.55287 -11.36633 -11.34269 -11.29429
 Alpha  occ. eigenvalues --  -11.26921 -11.24135  -1.44507  -1.14904  -1.14038
 Alpha  occ. eigenvalues --   -0.99446  -0.96203  -0.82712  -0.79261  -0.73615
 Alpha  occ. eigenvalues --   -0.69476  -0.65156  -0.62226  -0.61238  -0.58473
 Alpha  occ. eigenvalues --   -0.57869  -0.54707  -0.50291  -0.44404  -0.40221
 Alpha  occ. eigenvalues --   -0.24603
 Alpha virt. eigenvalues --    0.02042   0.03423   0.04075   0.04409   0.05421
 Alpha virt. eigenvalues --    0.06253   0.06937   0.07023   0.10388   0.11077
 Alpha virt. eigenvalues --    0.11757   0.13042   0.13812   0.14244   0.14786

 Mulliken charges:
               1
     1  C    0.650166
     2  C   -1.031013
     3  C    0.147192
     4  C    0.472455
     5  N   -0.494930
     6  O   -0.574797
     7  C    0.930005
     8  H    0.006915
     9  H    0.078490
    10  H    0.023319
    11  H   -0.396215
    12  H   -0.051736
    13  H    0.558126
    14  H   -0.317978
 Sum of Mulliken charges =   0.00000

 Dipole moment (field-independent basis, Debye):
    X=             -5.8696    Y=              2.3832    Z=              0.7112  Tot=              6.3748

 Test job not archived.
 1\1\GINC-SE162\SP\RHF\Aug-CC-pVDZ\C5H7N1O1\OHZDE\09-Apr-2025\0\\#t hf
 aug-cc-pvdz iop(5/13=1,5/36=2,99/5=2) pseudo=read geom=check guess=(re
 ad,tcheck) scf=(maxcycle=1)\\title\\0,1\C,0,-2.01394904,-0.039551,-0.4
 5573541\C,0,-0.60321757,0.05304128,0.04872175\C,0,0.48535255,-0.921042
 98,-0.2360504\C,0,1.7210174,-0.3012472,0.05457412\N,0,2.92572879,-0.69
 54674,0.02801049\O,0,1.3620194,1.0465509,0.45274397\C,0,0.06185011,1.2
 3207673,0.40248393\H,0,-2.65780029,0.69196736,0.03300428\H,0,-2.032158
 97,0.1412579,-1.53087285\H,0,-2.42694105,-1.03245293,-0.27822958\H,0,0

 Normal termination of Gaussian 16 at Wed Apr  9 16:06:08 2025.
