 Gaussian 16, Revision C.01,

 ----------------------------------------------------------------------
 #t hf aug-cc-pvdz symm=none int=(grid=ultrafine) guess=(read,tcheck) s
 table=(opt,rrhf)
 ----------------------------------------------------------------------
 -----
 title
 -----
 Symbolic Z-matrix:
 Charge =  0 Multiplicity = 1

 SCF Done:  E(RHF) =  -286.678443164     A.U. after   17 cycles
 Normal termination of Gaussian 16 at Wed Apr  9 03:41:14 2025.
 Gaussian 16:  ES64L-G16RevC.01  3-Jul-2019

 ----------------------------------------------------------------------
 #t hf aug-cc-pvdz iop(5/13=1,5/36=2,99/5=2) pseudo=read geom=check gue
 ss=(read,tcheck) scf=(maxcycle=1)
 ----------------------------------------------------------------------
 -----
 title
 -----
 Structure from the checkpoint file:  "Grambow2020_wb97xd3_007561_reverse_mol1.chk"
 Charge =  0 Multiplicity = 1

                         Standard orientation:
 ---------------------------------------------------------------------
 Center     Atomic      Atomic             Coordinates (Angstroms)
 Number     Number       Type             X           Y           Z
 ---------------------------------------------------------------------
      1          6           0        1.150727   -0.616870    1.211069
      2          6           0        0.648860   -0.002597   -0.087772
      3          6           0       -0.434645   -1.117268   -0.767782
      4          6           0       -1.615118   -0.592694   -0.175719
      5          6           0       -1.938319    0.460639    0.397696
      6          6           0       -0.122188    1.254823    0.069807
      7          7           0        1.565525    0.562728   -0.926044
      8          1           0        0.334599   -0.990279    1.831509
      9          1           0        1.703048    0.131407    1.784341
     10          1           0        1.826501   -1.445843    0.990059
     11          1           0       -0.134214   -2.116595   -0.460239
     12          1           0       -0.412203   -1.021361   -1.852380
     13          1           0       -2.685503    1.087838    0.839953
     14          1           0       -0.407986    1.750108   -0.847924
     15          1           0        0.168455    1.920636    0.880020
     16          1           0        2.512722    0.428797   -0.566830
 ---------------------------------------------------------------------

 SCF Done:  E(RHF) =  -286.764660335     A.U. after    2 cycles

 The electronic state is 1-A.
 Alpha  occ. eigenvalues --  -15.58682 -11.30061 -11.29123 -11.27941 -11.26112
 Alpha  occ. eigenvalues --  -11.26033 -11.23162  -1.18474  -1.08646  -0.97462
 Alpha  occ. eigenvalues --   -0.95430  -0.92498  -0.75324  -0.73655  -0.66185
 Alpha  occ. eigenvalues --   -0.63140  -0.62371  -0.59145  -0.58796  -0.55564
 Alpha  occ. eigenvalues --   -0.52056  -0.50463  -0.42771  -0.39966  -0.37729
 Alpha  occ. eigenvalues --   -0.29271
 Alpha virt. eigenvalues --    0.02905   0.03780   0.04002   0.04523   0.05117
 Alpha virt. eigenvalues --    0.06315   0.06803   0.07164   0.07750   0.08371
 Alpha virt. eigenvalues --    0.10237   0.11582   0.12770   0.13740   0.14360

 Mulliken charges:
               1
     1  C    0.810269
     2  C   -0.922551
     3  C    0.437127
     4  C   -0.540749
     5  C    0.658730
     6  C    0.781259
     7  N   -0.548694
     8  H    0.003883
     9  H   -0.023543
    10  H   -0.019321
    11  H   -0.060014
    12  H    0.004886
    13  H   -0.262599
    14  H   -0.082880
    15  H   -0.218645
    16  H   -0.017162
 Sum of Mulliken charges =  -0.00000

 Dipole moment (field-independent basis, Debye):
    X=             -1.1078    Y=             -0.0260    Z=              2.1734  Tot=              2.4396

 Test job not archived.
 1\1\GINC-SE094\SP\RHF\Aug-CC-pVDZ\C6H9N1\OHZDE\09-Apr-2025\0\\#t hf au
 g-cc-pvdz iop(5/13=1,5/36=2,99/5=2) pseudo=read geom=check guess=(read
 ,tcheck) scf=(maxcycle=1)\\title\\0,1\C,0,-0.59940048,1.46754679,0.342
 43958\C,0,-0.55591006,-0.0417821,0.15210757\C,0,0.40062607,-0.33315925
 ,-1.21866732\C,0,1.63847608,-0.48003612,-0.53647428\C,0,1.99835318,-0.
 66055035,0.63854809\C,0,0.09071512,-0.79470267,1.25457647\N,0,-1.72767
 429,-0.73455194,0.25011965\H,0,0.39427881,1.91610485,0.29953608\H,0,-1
 .04150684,1.70486569,1.31292408\H,0,-1.21858439,1.91967505,-0.43531649

 Normal termination of Gaussian 16 at Wed Apr  9 03:41:20 2025.
