 Gaussian 16, Revision C.01,

 ----------------------------------------------------------------------
 #t hf aug-cc-pvdz symm=none int=(grid=ultrafine) guess=(read,tcheck) s
 table=(opt,rrhf)
 ----------------------------------------------------------------------
 -----
 title
 -----
 Symbolic Z-matrix:
 Charge =  0 Multiplicity = 1

 SCF Done:  E(RHF) =  -322.738484383     A.U. after   13 cycles
 Normal termination of Gaussian 16 at Wed Apr  9 03:34:23 2025.
 Gaussian 16:  ES64L-G16RevC.01  3-Jul-2019

 ----------------------------------------------------------------------
 #t hf aug-cc-pvdz iop(5/13=1,5/36=2,99/5=2) pseudo=read geom=check gue
 ss=(read,tcheck) scf=(maxcycle=1)
 ----------------------------------------------------------------------
 -----
 title
 -----
 Structure from the checkpoint file:  "Grambow2020_wb97xd3_007119_reverse_mol2.chk"
 Charge =  0 Multiplicity = 1

                         Standard orientation:
 ---------------------------------------------------------------------
 Center     Atomic      Atomic             Coordinates (Angstroms)
 Number     Number       Type             X           Y           Z
 ---------------------------------------------------------------------
      1          7           0        2.299117    0.063195   -0.157497
      2          6           0        1.050397    0.019554    0.005979
      3          8           0        0.379439   -1.154571   -0.048720
      4          6           0       -1.025260   -1.232070    0.178790
      5          6           0       -1.771400    0.012335   -0.174073
      6          6           0        0.270334    1.284449    0.259722
      7          6           0       -1.166607    1.186603   -0.147121
      8          1           0        2.672375   -0.872364   -0.303158
      9          1           0       -1.192142   -1.495306    1.230778
     10          1           0       -1.365782   -2.074599   -0.424477
     11          1           0       -2.818296   -0.089594   -0.434427
     12          1           0        0.334690    1.511476    1.330521
     13          1           0        0.792550    2.091152   -0.251514
     14          1           0       -1.697506    2.098205   -0.395257
 ---------------------------------------------------------------------

 SCF Done:  E(RHF) =  -322.837785188     A.U. after    2 cycles

 The electronic state is 1-A.
 Alpha  occ. eigenvalues --  -20.60851 -15.58864 -11.34961 -11.31412 -11.25846
 Alpha  occ. eigenvalues --  -11.25652 -11.25404  -1.39079  -1.16956  -1.10454
 Alpha  occ. eigenvalues --   -1.00665  -0.92663  -0.82802  -0.71468  -0.71218
 Alpha  occ. eigenvalues --   -0.69820  -0.68197  -0.62097  -0.59649  -0.58219
 Alpha  occ. eigenvalues --   -0.54662  -0.53103  -0.49136  -0.42848  -0.39126
 Alpha  occ. eigenvalues --   -0.37517
 Alpha virt. eigenvalues --    0.02905   0.04049   0.04497   0.05110   0.06336
 Alpha virt. eigenvalues --    0.06505   0.06898   0.09948   0.11105   0.11588
 Alpha virt. eigenvalues --    0.12734   0.13910   0.14402   0.14736   0.15068

 Mulliken charges:
               1
     1  N   -0.418279
     2  C    0.609253
     3  O   -0.640606
     4  C    0.858442
     5  C    0.027248
     6  C   -0.035200
     7  C    0.230135
     8  H    0.007605
     9  H    0.021609
    10  H   -0.126252
    11  H   -0.346322
    12  H    0.138404
    13  H    0.044647
    14  H   -0.370683
 Sum of Mulliken charges =  -0.00000

 Dipole moment (field-independent basis, Debye):
    X=             -3.5676    Y=             -0.1579    Z=              0.6032  Tot=              3.6217

 Test job not archived.
 1\1\GINC-SE036\SP\RHF\Aug-CC-pVDZ\C5H7N1O1\OHZDE\09-Apr-2025\0\\#t hf
 aug-cc-pvdz iop(5/13=1,5/36=2,99/5=2) pseudo=read geom=check guess=(re
 ad,tcheck) scf=(maxcycle=1)\\title\\0,1\N,0,1.61982997,-1.89806911,-1.
 06484541\C,0,0.85401514,-0.9151645,-0.87680756\O,0,1.34504395,0.340718
 57,-0.76107921\C,0,0.49358434,1.47125218,-0.59417567\C,0,-0.80228338,1
 .16619129,0.08217003\C,0,-0.63566792,-1.11962244,-0.76778493\C,0,-1.32
 62619,-0.0445305,0.01141405\H,0,2.58737436,-1.58889341,-1.12870588\H,0
 ,0.31674647,1.92061558,-1.57937713\H,0,1.07805841,2.18498132,-0.012177

 Normal termination of Gaussian 16 at Wed Apr  9 03:34:29 2025.
