 Gaussian 16, Revision C.01,

 ----------------------------------------------------------------------
 #t hf aug-cc-pvdz symm=none int=(grid=ultrafine) guess=(read,tcheck) s
 table=(opt,rrhf)
 ----------------------------------------------------------------------
 -----
 title
 -----
 Symbolic Z-matrix:
 Charge =  0 Multiplicity = 1

 SCF Done:  E(RHF) =  -286.673501983     A.U. after   17 cycles
 Normal termination of Gaussian 16 at Wed Apr  9 16:14:12 2025.
 Gaussian 16:  ES64L-G16RevC.01  3-Jul-2019

 ----------------------------------------------------------------------
 #t hf aug-cc-pvdz iop(5/13=1,5/36=2,99/5=2) pseudo=read geom=check gue
 ss=(read,tcheck) scf=(maxcycle=1)
 ----------------------------------------------------------------------
 -----
 title
 -----
 Structure from the checkpoint file:  "Grambow2020_wb97xd3_008002_reverse_mol1.chk"
 Charge =  0 Multiplicity = 1

                         Standard orientation:
 ---------------------------------------------------------------------
 Center     Atomic      Atomic             Coordinates (Angstroms)
 Number     Number       Type             X           Y           Z
 ---------------------------------------------------------------------
      1          6           0        3.488823    0.413749   -0.236643
      2          6           0        2.273491   -0.150912    0.104053
      3          6           0        1.029234   -0.211842    0.419818
      4          6           0       -0.184849   -0.614557   -0.310954
      5          6           0       -1.474920   -0.261248    0.386675
      6          6           0       -2.188976    0.995952    0.097704
      7          7           0       -2.673217   -0.274880   -0.440938
      8          1           0        3.574527    1.468459   -0.477167
      9          1           0        4.398011   -0.168829   -0.180458
     10          1           0        2.971901   -0.401107    1.012494
     11          1           0       -0.134373   -1.702404   -0.442973
     12          1           0       -0.193207   -0.200854   -1.329166
     13          1           0       -1.553405   -0.639454    1.402165
     14          1           0       -1.790277    1.680230   -0.643283
     15          1           0       -2.742589    1.467663    0.901694
     16          1           0       -3.474892   -0.606396    0.079346
 ---------------------------------------------------------------------

 SCF Done:  E(RHF) =  -286.759466895     A.U. after    2 cycles

 The electronic state is 1-A.
 Alpha  occ. eigenvalues --  -15.61689 -11.28768 -11.26390 -11.26054 -11.25848
 Alpha  occ. eigenvalues --  -11.24815 -11.24311  -1.23766  -1.10178  -1.02358
 Alpha  occ. eigenvalues --   -0.91492  -0.86997  -0.79676  -0.72221  -0.70339
 Alpha  occ. eigenvalues --   -0.64206  -0.61958  -0.61019  -0.57990  -0.54080
 Alpha  occ. eigenvalues --   -0.50696  -0.47159  -0.45828  -0.39795  -0.38023
 Alpha  occ. eigenvalues --   -0.29009
 Alpha virt. eigenvalues --    0.03151   0.03774   0.04293   0.05056   0.05638
 Alpha virt. eigenvalues --    0.05919   0.06912   0.07320   0.07624   0.08014
 Alpha virt. eigenvalues --    0.10546   0.11727   0.12716   0.13103   0.13899

 Mulliken charges:
               1
     1  C    0.590881
     2  C   -0.045366
     3  C   -0.252051
     4  C   -0.003909
     5  C    0.763181
     6  C    0.867382
     7  N   -0.596657
     8  H   -0.241850
     9  H   -0.314685
    10  H    0.109450
    11  H    0.102691
    12  H   -0.043644
    13  H   -0.356651
    14  H   -0.311928
    15  H   -0.278526
    16  H    0.011681
 Sum of Mulliken charges =  -0.00000

 Dipole moment (field-independent basis, Debye):
    X=              1.1439    Y=              0.2840    Z=              0.7061  Tot=              1.3740

 Test job not archived.
 1\1\GINC-SE043\SP\RHF\Aug-CC-pVDZ\C6H9N1\OHZDE\09-Apr-2025\0\\#t hf au
 g-cc-pvdz iop(5/13=1,5/36=2,99/5=2) pseudo=read geom=check guess=(read
 ,tcheck) scf=(maxcycle=1)\\title\\0,1\C,0,2.94113994,0.83077246,1.7205
 8393\C,0,1.78145296,0.12987438,1.44523571\C,0,0.57743796,-0.08248194,1
 .04919609\C,0,-0.00016637,-0.73445781,-0.13887279\C,0,-1.4812471,-0.50
 683382,-0.31318053\C,0,-1.99983265,0.59362379,-1.14624365\N,0,-2.01854
 903,-0.78379331,-1.63818898\H,0,3.07388768,1.85599744,1.39058147\H,0,3
 .70481636,0.39879649,2.35254268\H,0,1.87665877,0.08137453,2.61323456\H

 Normal termination of Gaussian 16 at Wed Apr  9 16:14:19 2025.
