 Gaussian 16, Revision C.01,

 ----------------------------------------------------------------------
 #t hf aug-cc-pvdz symm=none int=(grid=ultrafine) guess=(read,tcheck) s
 table=(opt,rrhf)
 ----------------------------------------------------------------------
 -----
 title
 -----
 Symbolic Z-matrix:
 Charge =  0 Multiplicity = 1

 SCF Done:  E(RHF) =  -286.605781666     A.U. after   17 cycles
 Normal termination of Gaussian 16 at Wed Apr  9 04:06:03 2025.
 Gaussian 16:  ES64L-G16RevC.01  3-Jul-2019

 ----------------------------------------------------------------------
 #t hf aug-cc-pvdz iop(5/13=1,5/36=2,99/5=2) pseudo=read geom=check gue
 ss=(read,tcheck) scf=(maxcycle=1)
 ----------------------------------------------------------------------
 -----
 title
 -----
 Structure from the checkpoint file:  "Grambow2020_wb97xd3_009349_forward_mol1.chk"
 Charge =  0 Multiplicity = 1

                         Standard orientation:
 ---------------------------------------------------------------------
 Center     Atomic      Atomic             Coordinates (Angstroms)
 Number     Number       Type             X           Y           Z
 ---------------------------------------------------------------------
      1          6           0        2.000044   -0.250901   -0.143112
      2          7           0        0.930918    0.115450    0.664321
      3          6           0        0.358768    1.067547   -0.274802
      4          6           0       -0.991423    0.508208   -0.743399
      5          6           0       -0.783904   -1.024185   -0.698835
      6          6           0       -0.511263   -0.747331    0.789293
      7          6           0       -1.380139    0.405530    0.679388
      8          1           0        2.961136   -0.468314    0.331811
      9          1           0        1.498729    0.930995   -0.947498
     10          1           0        1.827625   -0.821174   -1.059593
     11          1           0        0.454958    2.101930    0.061194
     12          1           0       -1.517448    1.048711   -1.523815
     13          1           0        0.002798   -1.485596   -1.301753
     14          1           0       -1.727828   -1.539973   -0.854662
     15          1           0       -0.450821   -1.468283    1.594619
     16          1           0       -1.718071    1.140341    1.398258
 ---------------------------------------------------------------------

 SCF Done:  E(RHF) =  -286.687856660     A.U. after    2 cycles

 The electronic state is 1-A.
 Alpha  occ. eigenvalues --  -15.62300 -11.29975 -11.29142 -11.27114 -11.25887
 Alpha  occ. eigenvalues --  -11.23978 -11.23072  -1.25394  -1.12387  -0.95219
 Alpha  occ. eigenvalues --   -0.91016  -0.86004  -0.77261  -0.73127  -0.70325
 Alpha  occ. eigenvalues --   -0.66496  -0.64885  -0.57703  -0.55026  -0.52737
 Alpha  occ. eigenvalues --   -0.49543  -0.48370  -0.47737  -0.41226  -0.36710
 Alpha  occ. eigenvalues --   -0.25304
 Alpha virt. eigenvalues --    0.03294   0.03491   0.04265   0.04404   0.05029
 Alpha virt. eigenvalues --    0.06368   0.06645   0.06883   0.07819   0.09143
 Alpha virt. eigenvalues --    0.11596   0.12422   0.12923   0.13390   0.13659

 Mulliken charges:
               1
     1  C    0.564782
     2  N   -0.880193
     3  C    0.264113
     4  C    0.567559
     5  C    0.646984
     6  C    0.754205
     7  C    0.204721
     8  H   -0.295872
     9  H    0.361163
    10  H   -0.177565
    11  H   -0.383711
    12  H   -0.342029
    13  H   -0.227527
    14  H   -0.270358
    15  H   -0.381737
    16  H   -0.404536
 Sum of Mulliken charges =   0.00000

 Dipole moment (field-independent basis, Debye):
    X=              0.5151    Y=             -0.3795    Z=             -1.2123  Tot=              1.3708

 Test job not archived.
 1\1\GINC-SE106\SP\RHF\Aug-CC-pVDZ\C6H9N1\OHZDE\09-Apr-2025\0\\#t hf au
 g-cc-pvdz iop(5/13=1,5/36=2,99/5=2) pseudo=read geom=check guess=(read
 ,tcheck) scf=(maxcycle=1)\\title\\0,1\C,0,1.92651172,0.17089769,0.2329
 422\N,0,0.93568555,-0.67964016,-0.24038595\C,0,0.11551517,-0.62990422,
 0.95988154\C,0,-1.19472749,0.08445527,0.60153383\C,0,-0.77243452,1.084
 48906,-0.50068204\C,0,-0.34261493,-0.20047554,-1.22843738\C,0,-1.36989
 652,-0.90093849,-0.48671156\H,0,2.96367483,-0.02771218,-0.05230248\H,0
 ,1.16212002,-0.03324344,1.52494153\H,0,1.71286362,1.23136483,0.3899162

 Normal termination of Gaussian 16 at Wed Apr  9 04:06:09 2025.
