 Gaussian 16, Revision C.01,

 ----------------------------------------------------------------------
 #t hf aug-cc-pvdz symm=none int=(grid=ultrafine) guess=(read,tcheck) s
 table=(opt,rrhf)
 ----------------------------------------------------------------------
 -----
 title
 -----
 Symbolic Z-matrix:
 Charge =  0 Multiplicity = 1

 SCF Done:  E(RHF) =  -375.620600730     A.U. after   15 cycles
 Normal termination of Gaussian 16 at Wed Apr  9 16:10:58 2025.
 Gaussian 16:  ES64L-G16RevC.01  3-Jul-2019

 ----------------------------------------------------------------------
 #t hf aug-cc-pvdz iop(5/13=1,5/36=2,99/5=2) pseudo=read geom=check gue
 ss=(read,tcheck) scf=(maxcycle=1)
 ----------------------------------------------------------------------
 -----
 title
 -----
 Structure from the checkpoint file:  "Grambow2020_wb97xd3_007868_reverse_mol1.chk"
 Charge =  0 Multiplicity = 1

                         Standard orientation:
 ---------------------------------------------------------------------
 Center     Atomic      Atomic             Coordinates (Angstroms)
 Number     Number       Type             X           Y           Z
 ---------------------------------------------------------------------
      1          7           0        0.960666   -0.713680    1.108483
      2          6           0        1.099127    0.080593   -0.194043
      3          8           0        2.046729   -0.057875   -0.906234
      4          6           0        0.218676    1.197138    0.070721
      5          8           0       -1.180453    0.995248    0.292093
      6          6           0       -1.824894   -0.081782   -0.121955
      7          7           0       -1.266405   -1.140464   -0.534820
      8          1           0        1.847181   -1.101339    1.407131
      9          1           0        0.233044   -1.419358    1.011822
     10          1           0        0.349623    2.074349   -0.552683
     11          1           0        0.678313    0.496318    1.356233
     12          1           0       -2.900542    0.075857   -0.024401
     13          1           0       -1.955114   -1.821494   -0.828957
 ---------------------------------------------------------------------

 SCF Done:  E(RHF) =  -375.737436196     A.U. after    2 cycles

 The electronic state is 1-A.
 Alpha  occ. eigenvalues --  -20.62462 -20.56519 -15.68328 -15.62092 -11.38338
 Alpha  occ. eigenvalues --  -11.37038 -11.26836  -1.40736  -1.37437  -1.20612
 Alpha  occ. eigenvalues --   -1.18364  -1.00293  -0.87234  -0.76128  -0.75554
 Alpha  occ. eigenvalues --   -0.72247  -0.71439  -0.68502  -0.65142  -0.60055
 Alpha  occ. eigenvalues --   -0.59287  -0.56651  -0.53633  -0.45735  -0.45324
 Alpha  occ. eigenvalues --   -0.42848  -0.32540
 Alpha virt. eigenvalues --    0.02762   0.03476   0.04516   0.05517   0.06711
 Alpha virt. eigenvalues --    0.06821   0.09859   0.10683   0.11069   0.13175
 Alpha virt. eigenvalues --    0.13457   0.14305   0.14332   0.15140   0.15709

 Mulliken charges:
               1
     1  N   -0.628813
     2  C    0.493159
     3  O   -0.460651
     4  C    0.424688
     5  O   -0.531242
     6  C    0.679784
     7  N   -0.306970
     8  H    0.059714
     9  H    0.188593
    10  H   -0.308097
    11  H    0.637959
    12  H   -0.249929
    13  H    0.001804
 Sum of Mulliken charges =  -0.00000

 Dipole moment (field-independent basis, Debye):
    X=             -2.8623    Y=             -2.2423    Z=              2.6851  Tot=              4.5199

 Test job not archived.
 1\1\GINC-SE168\SP\RHF\Aug-CC-pVDZ\C3H6N2O2\OHZDE\09-Apr-2025\0\\#t hf
 aug-cc-pvdz iop(5/13=1,5/36=2,99/5=2) pseudo=read geom=check guess=(re
 ad,tcheck) scf=(maxcycle=1)\\title\\0,1\N,0,-1.46119687,0.62471667,-0.
 05822892\C,0,-0.98376591,-0.78430753,0.30690773\O,0,-1.67302955,-1.740
 16635,0.11826092\C,0,0.03871549,-0.4826683,1.28441142\O,0,1.19932986,0
 .27378579,0.92653438\C,0,1.62863291,0.38429914,-0.31854404\N,0,0.96103
 284,0.05307392,-1.34215224\H,0,-2.46598094,0.66053216,-0.17866928\H,0,
 -0.95305234,0.96597546,-0.87191804\H,0,0.33990756,-1.29555811,1.935390

 Normal termination of Gaussian 16 at Wed Apr  9 16:11:02 2025.
