 Gaussian 16, Revision C.01,

 ----------------------------------------------------------------------
 #t hf aug-cc-pvdz symm=none int=(grid=ultrafine) guess=(read,tcheck) s
 table=(opt,rrhf)
 ----------------------------------------------------------------------
 -----
 title
 -----
 Symbolic Z-matrix:
 Charge =  0 Multiplicity = 1

 SCF Done:  E(RHF) =  -317.629465517     A.U. after   15 cycles
 Normal termination of Gaussian 16 at Wed Apr  9 16:16:47 2025.
 Gaussian 16:  ES64L-G16RevC.01  3-Jul-2019

 ----------------------------------------------------------------------
 #t hf aug-cc-pvdz iop(5/13=1,5/36=2,99/5=2) pseudo=read geom=check gue
 ss=(read,tcheck) scf=(maxcycle=1)
 ----------------------------------------------------------------------
 -----
 title
 -----
 Structure from the checkpoint file:  "Grambow2020_wb97xd3_008055_reverse_mol1.chk"
 Charge =  0 Multiplicity = 1

                         Standard orientation:
 ---------------------------------------------------------------------
 Center     Atomic      Atomic             Coordinates (Angstroms)
 Number     Number       Type             X           Y           Z
 ---------------------------------------------------------------------
      1          7           0        2.626920    0.223446   -0.626366
      2          6           0        1.785938   -0.307369   -0.032575
      3          6           0       -1.104065    1.085262   -0.127621
      4          6           0       -1.501067   -0.178044   -0.806707
      5          7           0       -0.954417   -1.220532    0.010440
      6          6           0       -0.060616   -0.685177    0.769556
      7          7           0       -0.293750    0.784076    0.806739
      8          1           0       -1.351741    2.108435   -0.378233
      9          1           0       -2.579585   -0.262166   -0.963351
     10          1           0       -1.033311   -0.135971   -1.810088
     11          1           0        0.324782   -1.146370    1.664943
     12          1           0        0.267440    1.439107    1.335130
 ---------------------------------------------------------------------

 SCF Done:  E(RHF) =  -317.721463925     A.U. after    2 cycles

 The electronic state is 1-A.
 Alpha  occ. eigenvalues --  -15.76988 -15.60518 -15.56293 -11.40525 -11.38715
 Alpha  occ. eigenvalues --  -11.31701 -11.18598  -1.37516  -1.19380  -1.11251
 Alpha  occ. eigenvalues --   -1.06338  -0.89572  -0.86324  -0.83128  -0.70237
 Alpha  occ. eigenvalues --   -0.68885  -0.63851  -0.60076  -0.58593  -0.53040
 Alpha  occ. eigenvalues --   -0.47499  -0.44043  -0.40100  -0.39936  -0.34408
 Alpha virt. eigenvalues --    0.00713   0.02575   0.03364   0.03734   0.05571
 Alpha virt. eigenvalues --    0.05748   0.08602   0.09151   0.10775   0.11223
 Alpha virt. eigenvalues --    0.11394   0.12565   0.13164   0.14013   0.14088

 Mulliken charges:
               1
     1  N   -0.315928
     2  C   -0.281420
     3  C    0.418272
     4  C    0.635748
     5  N   -0.769446
     6  C    1.048479
     7  N   -0.307457
     8  H   -0.209858
     9  H   -0.068676
    10  H    0.047859
    11  H   -0.161422
    12  H   -0.036150
 Sum of Mulliken charges =  -0.00000

 Dipole moment (field-independent basis, Debye):
    X=             -7.3829    Y=              5.0166    Z=              2.6157  Tot=              9.3013

 Test job not archived.
 1\1\GINC-SE229\SP\RHF\Aug-CC-pVDZ\C4H5N3\OHZDE\09-Apr-2025\0\\#t hf au
 g-cc-pvdz iop(5/13=1,5/36=2,99/5=2) pseudo=read geom=check guess=(read
 ,tcheck) scf=(maxcycle=1)\\title\\0,1\N,0,1.90396437,-0.39096972,2.306
 8563\C,0,0.91756656,0.0970427,1.9456533\C,0,0.30878535,-0.11086758,-1.
 19866359\C,0,-0.86204024,-0.90968869,-0.74505272\N,0,-1.44983713,-0.13
 347004,0.30628713\C,0,-0.56951378,0.7281716,0.68621613\N,0,0.45572463,
 0.85669776,-0.38467433\H,0,1.00065359,-0.30272453,-2.00831927\H,0,-1.5
 5675878,-1.15258803,-1.55324816\H,0,-0.44445788,-1.86926609,-0.3814928

 Normal termination of Gaussian 16 at Wed Apr  9 16:16:51 2025.
