 Gaussian 16, Revision C.01,

 ----------------------------------------------------------------------
 #t hf aug-cc-pvdz symm=none int=(grid=ultrafine) guess=(read,tcheck) s
 table=(opt,rrhf)
 ----------------------------------------------------------------------
 -----
 title
 -----
 Symbolic Z-matrix:
 Charge =  0 Multiplicity = 1

 SCF Done:  E(RHF) =  -307.671839760     A.U. after   17 cycles

 1\1\GINC-SE454\Stability\RHF\Aug-CC-pVDZ\C6H10O1\OHZDE\09-Apr-2025\0\\
 #t hf aug-cc-pvdz symm=none int=(grid=ultrafine) guess=(read,tcheck) s
 table=(opt,rrhf)\\title\\0,1\C,0,2.03501721,0.04427945,-0.21175502\C,0
 ,0.80410054,0.18113893,0.39866637\C,0,0.08946701,-0.89442411,0.8854058
 2\C,0,-1.39836153,-0.79324322,0.68350712\C,0,-1.07076767,-0.16505577,-
 0.63702864\C,0,-0.24110273,1.05357268,-0.2990529\O,0,-0.87960186,2.054
 77939,0.4661494\H,0,2.66251341,-0.81154858,0.01448559\H,0,2.53022906,0
 .90022399,-0.65377468\H,0,1.11078582,-0.54448739,-1.5396127\H,0,0.5645

 Normal termination of Gaussian 16 at Wed Apr  9 16:04:49 2025.
 Gaussian 16:  ES64L-G16RevC.01  3-Jul-2019

 ----------------------------------------------------------------------
 #t hf aug-cc-pvdz iop(5/13=1,5/36=2,99/5=2) pseudo=read geom=check gue
 ss=(read,tcheck) scf=(maxcycle=1)
 ----------------------------------------------------------------------
 -----
 title
 -----
 Structure from the checkpoint file:  "Grambow2020_wb97xd3_007734_reverse_mol1.chk"
 Charge =  0 Multiplicity = 1

                         Standard orientation:
 ---------------------------------------------------------------------
 Center     Atomic      Atomic             Coordinates (Angstroms)
 Number     Number       Type             X           Y           Z
 ---------------------------------------------------------------------
      1          6           0        2.136602   -0.297067   -0.046807
      2          6           0        0.824486   -0.102025   -0.429966
      3          6           0        0.287905    1.151715   -0.641319
      4          6           0       -1.136655    1.302615   -0.180352
      5          6           0       -0.746944    0.425050    0.970194
      6          6           0       -0.259558   -0.859959    0.338660
      7          8           0       -1.208816   -1.590391   -0.410345
      8          1           0        2.888423    0.449728   -0.280128
      9          1           0        2.501333   -1.289503    0.188348
     10          1           0        1.579489    0.240144    1.491077
     11          1           0        0.900408    2.012363   -0.892756
     12          1           0       -1.930825    0.928146   -0.835362
     13          1           0       -1.374871    2.327380    0.100903
     14          1           0        0.785301    0.576385    1.718978
     15          1           0       -1.200363    0.515311    1.950925
     16          1           0        0.163879   -1.552697    1.064021
     17          1           0       -1.277251   -1.206109   -1.285705
 ---------------------------------------------------------------------

 SCF Done:  E(RHF) =  -307.766654208     A.U. after    2 cycles

 The electronic state is 1-A.
 Alpha  occ. eigenvalues --  -20.57657 -11.30151 -11.28416 -11.28021 -11.25944
 Alpha  occ. eigenvalues --  -11.24552 -11.24337  -1.33388  -1.17004  -1.02565
 Alpha  occ. eigenvalues --   -0.95757  -0.88477  -0.80224  -0.76345  -0.69149
 Alpha  occ. eigenvalues --   -0.67630  -0.63624  -0.62252  -0.58823  -0.58580
 Alpha  occ. eigenvalues --   -0.55852  -0.54485  -0.51022  -0.49329  -0.44553
 Alpha  occ. eigenvalues --   -0.35617  -0.28673
 Alpha virt. eigenvalues --    0.03204   0.03800   0.04391   0.04734   0.06143
 Alpha virt. eigenvalues --    0.06226   0.06617   0.07258   0.08121   0.08486
 Alpha virt. eigenvalues --    0.10572   0.11283   0.11916   0.12692   0.13470

 Mulliken charges:
               1
     1  C    0.627812
     2  C   -0.450779
     3  C    0.354193
     4  C    0.710269
     5  C   -0.127343
     6  C    0.865450
     7  O   -0.628429
     8  H   -0.310912
     9  H   -0.280734
    10  H    0.036577
    11  H   -0.379186
    12  H   -0.138027
    13  H   -0.156114
    14  H    0.361102
    15  H   -0.340315
    16  H   -0.316008
    17  H    0.172446
 Sum of Mulliken charges =  -0.00000

 Dipole moment (field-independent basis, Debye):
    X=             -0.1434    Y=              2.1723    Z=             -0.6379  Tot=              2.2686

 Test job not archived.
 1\1\GINC-SE454\SP\RHF\Aug-CC-pVDZ\C6H10O1\OHZDE\09-Apr-2025\0\\#t hf a
 ug-cc-pvdz iop(5/13=1,5/36=2,99/5=2) pseudo=read geom=check guess=(rea
 d,tcheck) scf=(maxcycle=1)\\title\\0,1\C,0,2.03501721,0.04427945,-0.21
 175502\C,0,0.80410054,0.18113893,0.39866637\C,0,0.08946701,-0.89442411
 ,0.88540582\C,0,-1.39836153,-0.79324322,0.68350712\C,0,-1.07076767,-0.
 16505577,-0.63702864\C,0,-0.24110273,1.05357268,-0.2990529\O,0,-0.8796
 0186,2.05477939,0.4661494\H,0,2.66251341,-0.81154858,0.01448559\H,0,2.
 53022906,0.90022399,-0.65377468\H,0,1.11078582,-0.54448739,-1.5396127\

 Normal termination of Gaussian 16 at Wed Apr  9 16:04:56 2025.
