 Gaussian 16, Revision C.01,

 ----------------------------------------------------------------------
 #t hf aug-cc-pvdz symm=none int=(grid=ultrafine) guess=(read,tcheck) s
 table=(opt,rrhf)
 ----------------------------------------------------------------------
 -----
 title
 -----
 Symbolic Z-matrix:
 Charge =  0 Multiplicity = 1

 SCF Done:  E(RHF) =  -344.756960733     A.U. after   16 cycles

 1\1\GINC-SE226\Stability\RHF\Aug-CC-pVDZ\C5H10O2\OHZDE\09-Apr-2025\0\\
 #t hf aug-cc-pvdz symm=none int=(grid=ultrafine) guess=(read,tcheck) s
 table=(opt,rrhf)\\title\\0,1\C,0,2.12760665,0.92458458,-0.18250667\O,0
 ,0.72776181,0.98944465,-0.35275904\C,0,0.15757519,-0.2250836,-0.694622
 94\C,0,0.13473855,-1.37288749,0.67758048\O,0,-0.92959962,-2.11845039,0
 .58594104\C,0,-1.24448081,-0.29936707,-0.5994732\C,0,-2.02467056,0.691
 61417,0.15215703\H,0,2.40460942,0.29242606,0.66606101\H,0,2.61389849,0
 .53976457,-1.08670451\H,0,2.47158944,1.94046089,0.00186481\H,0,0.63003

 Normal termination of Gaussian 16 at Wed Apr  9 15:01:33 2025.
 Gaussian 16:  ES64L-G16RevC.01  3-Jul-2019

 ----------------------------------------------------------------------
 #t hf aug-cc-pvdz iop(5/13=1,5/36=2,99/5=2) pseudo=read geom=check gue
 ss=(read,tcheck) scf=(maxcycle=1)
 ----------------------------------------------------------------------
 -----
 title
 -----
 Structure from the checkpoint file:  "Grambow2020_wb97xd3_006661_forward_mol1.chk"
 Charge =  0 Multiplicity = 1

                         Standard orientation:
 ---------------------------------------------------------------------
 Center     Atomic      Atomic             Coordinates (Angstroms)
 Number     Number       Type             X           Y           Z
 ---------------------------------------------------------------------
      1          6           0       -2.474655   -0.164602   -0.160741
      2          8           0       -1.314902    0.625955   -0.009909
      3          6           0       -0.286197   -0.025335    0.649371
      4          6           0        0.471026   -1.292593   -0.361366
      5          8           0        1.738295   -1.364422   -0.068199
      6          6           0        0.978458    0.588246    0.582307
      7          6           0        1.284164    1.629398   -0.406750
      8          1           0       -2.296040   -1.028298   -0.807693
      9          1           0       -2.836389   -0.517505    0.812269
     10          1           0       -3.233732    0.469989   -0.613970
     11          1           0       -0.572067   -0.482507    1.598622
     12          1           0        0.162397   -0.788798   -1.303112
     13          1           0       -0.129761   -2.220344   -0.245878
     14          1           0        1.706743    0.346479    1.339251
     15          1           0        2.351265    1.811641   -0.495681
     16          1           0        0.854763    1.358363   -1.373765
     17          1           0        0.768898    2.548035   -0.102115
 ---------------------------------------------------------------------

 SCF Done:  E(RHF) =  -344.866803320     A.U. after    2 cycles

 The electronic state is 1-A.
 Alpha  occ. eigenvalues --  -20.59684 -20.45694 -11.36071 -11.30429 -11.30003
 Alpha  occ. eigenvalues --  -11.29830 -11.26877  -1.36960  -1.24100  -1.10874
 Alpha  occ. eigenvalues --   -0.99316  -0.92974  -0.85319  -0.78484  -0.72858
 Alpha  occ. eigenvalues --   -0.68817  -0.66532  -0.63468  -0.61757  -0.58541
 Alpha  occ. eigenvalues --   -0.57515  -0.56910  -0.54037  -0.53639  -0.51310
 Alpha  occ. eigenvalues --   -0.48012  -0.35935  -0.32612
 Alpha virt. eigenvalues --    0.02932   0.03708   0.04178   0.04983   0.05471
 Alpha virt. eigenvalues --    0.06136   0.06451   0.06622   0.08042   0.08661
 Alpha virt. eigenvalues --    0.08834   0.11569   0.12455   0.13127   0.14061

 Mulliken charges:
               1
     1  C    0.712953
     2  O   -0.736308
     3  C    0.803389
     4  C    0.659977
     5  O   -0.850996
     6  C    0.250916
     7  C    0.351021
     8  H   -0.106917
     9  H   -0.044590
    10  H   -0.239629
    11  H   -0.323553
    12  H   -0.081054
    13  H   -0.206463
    14  H   -0.380833
    15  H   -0.006549
    16  H    0.047106
    17  H    0.151530
 Sum of Mulliken charges =  -0.00000

 Dipole moment (field-independent basis, Debye):
    X=             -3.2984    Y=              3.6323    Z=              1.0675  Tot=              5.0212

 Test job not archived.
 1\1\GINC-SE226\SP\RHF\Aug-CC-pVDZ\C5H10O2\OHZDE\09-Apr-2025\0\\#t hf a
 ug-cc-pvdz iop(5/13=1,5/36=2,99/5=2) pseudo=read geom=check guess=(rea
 d,tcheck) scf=(maxcycle=1)\\title\\0,1\C,0,2.12760665,0.92458458,-0.18
 250667\O,0,0.72776181,0.98944465,-0.35275904\C,0,0.15757519,-0.2250836
 ,-0.69462294\C,0,0.13473855,-1.37288749,0.67758048\O,0,-0.92959962,-2.
 11845039,0.58594104\C,0,-1.24448081,-0.29936707,-0.5994732\C,0,-2.0246
 7056,0.69161417,0.15215703\H,0,2.40460942,0.29242606,0.66606101\H,0,2.
 61389849,0.53976457,-1.08670451\H,0,2.47158944,1.94046089,0.00186481\H

 Normal termination of Gaussian 16 at Wed Apr  9 15:01:39 2025.
