 Gaussian 16, Revision C.01,

 ----------------------------------------------------------------------
 #t hf aug-cc-pvdz symm=none int=(grid=ultrafine) guess=(read,tcheck) s
 table=(opt,rrhf)
 ----------------------------------------------------------------------
 -----
 title
 -----
 Symbolic Z-matrix:
 Charge =  0 Multiplicity = 1

 SCF Done:  E(RHF) =  -286.824956760     A.U. after   14 cycles
 Normal termination of Gaussian 16 at Wed Apr  9 16:34:14 2025.
 Gaussian 16:  ES64L-G16RevC.01  3-Jul-2019

 ----------------------------------------------------------------------
 #t hf aug-cc-pvdz iop(5/13=1,5/36=2,99/5=2) pseudo=read geom=check gue
 ss=(read,tcheck) scf=(maxcycle=1)
 ----------------------------------------------------------------------
 -----
 title
 -----
 Structure from the checkpoint file:  "Grambow2020_wb97xd3_008598_reverse_mol2.chk"
 Charge =  0 Multiplicity = 1

                         Standard orientation:
 ---------------------------------------------------------------------
 Center     Atomic      Atomic             Coordinates (Angstroms)
 Number     Number       Type             X           Y           Z
 ---------------------------------------------------------------------
      1          6           0        0.422336    1.584432    0.536456
      2          6           0        0.777303    0.703319   -0.617323
      3          6           0        1.434009   -0.615292   -0.421179
      4          6           0       -1.849262   -1.098273   -0.297577
      5          6           0       -1.524636    0.067679    0.248566
      6          6           0        1.318145   -1.425488    0.621197
      7          7           0       -0.608882    0.985476   -0.260518
      8          1           0        0.535743    2.659792    0.448555
      9          1           0        0.609330    1.176915    1.526303
     10          1           0        1.070651    1.200621   -1.535662
     11          1           0        2.063591   -0.925239   -1.249848
     12          1           0       -1.349890   -1.473724   -1.181170
     13          1           0       -2.636241   -1.699158    0.135900
     14          1           0       -2.041298    0.427581    1.134095
     15          1           0        1.847334   -2.369647    0.647934
     16          1           0        0.695579   -1.193732    1.476686
 ---------------------------------------------------------------------

 SCF Done:  E(RHF) =  -286.913348075     A.U. after    2 cycles

 The electronic state is 1-A.
 Alpha  occ. eigenvalues --  -15.63628 -11.28286 -11.27448 -11.27185 -11.24788
 Alpha  occ. eigenvalues --  -11.23806 -11.21525  -1.26814  -1.05972  -1.03580
 Alpha  occ. eigenvalues --   -0.90546  -0.87062  -0.79190  -0.72310  -0.70093
 Alpha  occ. eigenvalues --   -0.67047  -0.62576  -0.60961  -0.55875  -0.54100
 Alpha  occ. eigenvalues --   -0.52193  -0.49199  -0.46966  -0.45996  -0.36073
 Alpha  occ. eigenvalues --   -0.31705
 Alpha virt. eigenvalues --    0.03481   0.03911   0.04060   0.05145   0.06183
 Alpha virt. eigenvalues --    0.06530   0.06800   0.07159   0.08794   0.10465
 Alpha virt. eigenvalues --    0.11613   0.12472   0.12666   0.13628   0.13946

 Mulliken charges:
               1
     1  C    0.853394
     2  C    0.689295
     3  C    0.512087
     4  C    0.409284
     5  C    0.733800
     6  C    0.719322
     7  N   -0.772262
     8  H   -0.273104
     9  H   -0.335271
    10  H   -0.389913
    11  H   -0.432683
    12  H   -0.333139
    13  H   -0.317285
    14  H   -0.389810
    15  H   -0.359536
    16  H   -0.314177
 Sum of Mulliken charges =  -0.00000

 Dipole moment (field-independent basis, Debye):
    X=              1.2026    Y=              0.0002    Z=              0.7893  Tot=              1.4385

 Test job not archived.
 1\1\GINC-SE131\SP\RHF\Aug-CC-pVDZ\C6H9N1\OHZDE\09-Apr-2025\0\\#t hf au
 g-cc-pvdz iop(5/13=1,5/36=2,99/5=2) pseudo=read geom=check guess=(read
 ,tcheck) scf=(maxcycle=1)\\title\\0,1\C,0,1.59474538,0.73574359,-0.432
 45683\C,0,1.11279247,-0.1747651,0.65025413\C,0,-0.01839843,0.19757145,
 1.53921064\C,0,-1.29057593,-1.32588302,-1.12331952\C,0,-0.2376859,-0.5
 9055576,-1.46068253\C,0,-1.04910782,0.97774658,1.24705259\N,0,0.964519
 44,-0.50989663,-0.76188402\H,0,2.65657208,0.80882324,-0.64262416\H,0,1
 .028651,1.65218911,-0.57563336\H,0,1.86254319,-0.78863585,1.13784523\H

 Normal termination of Gaussian 16 at Wed Apr  9 16:34:20 2025.
