 Gaussian 16, Revision C.01,

 ----------------------------------------------------------------------
 #t hf aug-cc-pvdz symm=none int=(grid=ultrafine) guess=(read,tcheck) s
 table=(opt,rrhf)
 ----------------------------------------------------------------------
 -----
 title
 -----
 Symbolic Z-matrix:
 Charge =  0 Multiplicity = 1

 SCF Done:  E(RHF) =  -269.794915338     A.U. after   16 cycles

 1\1\GINC-SE457\Stability\RHF\Aug-CC-pVDZ\C5H10O1\OHZDE\09-Apr-2025\0\\
 #t hf aug-cc-pvdz symm=none int=(grid=ultrafine) guess=(read,tcheck) s
 table=(opt,rrhf)\\title\\0,1\O,0,2.69950991,-0.03179295,-0.02450268\C,
 0,1.44736445,-0.09828421,0.48715182\C,0,0.34454417,0.12869967,-0.34563
 511\C,0,-0.90018845,-0.727216,-0.04910891\C,0,-1.91544143,0.35642605,-
 0.42799076\C,0,-0.76085124,1.27275371,-0.08558986\H,0,3.34238803,-0.25
 210981,0.65121432\H,0,0.9176816,-2.06174499,0.27969216\H,0,1.35149727,
 -0.08718108,1.56811856\H,0,0.61808912,0.13306408,-1.4015764\H,0,-0.965

 Normal termination of Gaussian 16 at Wed Apr  9 03:21:13 2025.
 Gaussian 16:  ES64L-G16RevC.01  3-Jul-2019

 ----------------------------------------------------------------------
 #t hf aug-cc-pvdz iop(5/13=1,5/36=2,99/5=2) pseudo=read geom=check gue
 ss=(read,tcheck) scf=(maxcycle=1)
 ----------------------------------------------------------------------
 -----
 title
 -----
 Structure from the checkpoint file:  "Grambow2020_wb97xd3_006158_forward_mol1.chk"
 Charge =  0 Multiplicity = 1

                         Standard orientation:
 ---------------------------------------------------------------------
 Center     Atomic      Atomic             Coordinates (Angstroms)
 Number     Number       Type             X           Y           Z
 ---------------------------------------------------------------------
      1          8           0       -2.465284   -0.277818   -0.255806
      2          6           0       -1.307357    0.049865    0.365410
      3          6           0       -0.091025   -0.092708   -0.313911
      4          6           0        0.969230    0.981881   -0.012255
      5          6           0        2.171159    0.039358   -0.137109
      6          6           0        1.131417   -1.004496    0.208257
      7          1           0       -3.210188   -0.086042    0.315828
      8          1           0       -1.051593    2.034721   -0.051378
      9          1           0       -1.341678    0.181982    1.442058
     10          1           0       -0.231872   -0.265717   -1.381660
     11          1           0        0.871014    1.339213    1.019162
     12          1           0       -0.282390    2.180791   -0.303177
     13          1           0        2.556336   -0.048633   -1.153532
     14          1           0        2.988690    0.176717    0.565615
     15          1           0        1.052336   -1.191534    1.276359
     16          1           0        1.131075   -1.942345   -0.345189
 ---------------------------------------------------------------------

 SCF Done:  E(RHF) =  -269.881519881     A.U. after    2 cycles

 The electronic state is 1-A.
 Alpha  occ. eigenvalues --  -20.62455 -11.33767 -11.26821 -11.24194 -11.23207
 Alpha  occ. eigenvalues --  -11.22531  -1.38641  -1.14267  -0.99886  -0.87052
 Alpha  occ. eigenvalues --   -0.84760  -0.78297  -0.73974  -0.68264  -0.64045
 Alpha  occ. eigenvalues --   -0.60841  -0.59872  -0.54591  -0.53890  -0.51918
 Alpha  occ. eigenvalues --   -0.48432  -0.45620  -0.43991  -0.23953
 Alpha virt. eigenvalues --    0.02710   0.03919   0.04445   0.04979   0.06168
 Alpha virt. eigenvalues --    0.06811   0.07107   0.07208   0.08376   0.09244
 Alpha virt. eigenvalues --    0.09424   0.11854   0.12450   0.13611   0.14403

 Mulliken charges:
               1
     1  O   -0.557159
     2  C    0.918884
     3  C   -0.086179
     4  C    0.004416
     5  C    0.704483
     6  C    0.409776
     7  H    0.183966
     8  H   -0.164790
     9  H   -0.287125
    10  H   -0.335468
    11  H   -0.484078
    12  H    0.444793
    13  H   -0.231535
    14  H   -0.122726
    15  H   -0.268028
    16  H   -0.129230
 Sum of Mulliken charges =  -0.00000

 Dipole moment (field-independent basis, Debye):
    X=             -1.1130    Y=             -2.2013    Z=              2.3596  Tot=              3.4135

 Test job not archived.
 1\1\GINC-SE457\SP\RHF\Aug-CC-pVDZ\C5H10O1\OHZDE\09-Apr-2025\0\\#t hf a
 ug-cc-pvdz iop(5/13=1,5/36=2,99/5=2) pseudo=read geom=check guess=(rea
 d,tcheck) scf=(maxcycle=1)\\title\\0,1\O,0,2.69950991,-0.03179295,-0.0
 2450268\C,0,1.44736445,-0.09828421,0.48715182\C,0,0.34454417,0.1286996
 7,-0.34563511\C,0,-0.90018845,-0.727216,-0.04910891\C,0,-1.91544143,0.
 35642605,-0.42799076\C,0,-0.76085124,1.27275371,-0.08558986\H,0,3.3423
 8803,-0.25210981,0.65121432\H,0,0.9176816,-2.06174499,0.27969216\H,0,1
 .35149727,-0.08718108,1.56811856\H,0,0.61808912,0.13306408,-1.4015764\

 Normal termination of Gaussian 16 at Wed Apr  9 03:21:18 2025.
