 Gaussian 16, Revision C.01,

 ----------------------------------------------------------------------
 #t hf aug-cc-pvdz symm=none int=(grid=ultrafine) guess=(read,tcheck) s
 table=(opt,rrhf)
 ----------------------------------------------------------------------
 -----
 title
 -----
 Symbolic Z-matrix:
 Charge =  0 Multiplicity = 1

 SCF Done:  E(RHF) =  -323.914807105     A.U. after   14 cycles
 Normal termination of Gaussian 16 at Wed Apr  9 03:40:32 2025.
 Gaussian 16:  ES64L-G16RevC.01  3-Jul-2019

 ----------------------------------------------------------------------
 #t hf aug-cc-pvdz iop(5/13=1,5/36=2,99/5=2) pseudo=read geom=check gue
 ss=(read,tcheck) scf=(maxcycle=1)
 ----------------------------------------------------------------------
 -----
 title
 -----
 Structure from the checkpoint file:  "Grambow2020_wb97xd3_007533_forward_mol2.chk"
 Charge =  0 Multiplicity = 1

                         Standard orientation:
 ---------------------------------------------------------------------
 Center     Atomic      Atomic             Coordinates (Angstroms)
 Number     Number       Type             X           Y           Z
 ---------------------------------------------------------------------
      1          6           0       -2.837181   -0.440643    0.139965
      2          8           0       -1.653358    0.181415   -0.291685
      3          6           0       -0.501356   -0.497020    0.122946
      4          6           0        0.708908    0.287725   -0.383580
      5          6           0        0.785790    1.695242    0.209688
      6          6           0        1.927181   -0.473063   -0.093696
      7          7           0        2.875511   -1.069421    0.153943
      8          1           0       -3.670449    0.155768   -0.227496
      9          1           0       -2.885937   -0.490426    1.234979
     10          1           0       -2.923146   -1.458612   -0.260502
     11          1           0       -0.482893   -1.518291   -0.281641
     12          1           0       -0.463757   -0.572380    1.219925
     13          1           0        0.624618    0.357473   -1.472028
     14          1           0        1.635933    2.242790   -0.196237
     15          1           0       -0.129231    2.235061   -0.027741
     16          1           0        0.893093    1.649792    1.294681
 ---------------------------------------------------------------------

 SCF Done:  E(RHF) =  -324.017648364     A.U. after    2 cycles

 The electronic state is 1-A.
 Alpha  occ. eigenvalues --  -20.59173 -15.63584 -11.31251 -11.29769 -11.29422
 Alpha  occ. eigenvalues --  -11.28331 -11.24831  -1.36399  -1.19770  -1.09978
 Alpha  occ. eigenvalues --   -0.97718  -0.92110  -0.85854  -0.72505  -0.70525
 Alpha  occ. eigenvalues --   -0.67809  -0.64895  -0.61284  -0.58431  -0.56677
 Alpha  occ. eigenvalues --   -0.54155  -0.53600  -0.52643  -0.51180  -0.45921
 Alpha  occ. eigenvalues --   -0.45654  -0.45502
 Alpha virt. eigenvalues --    0.02962   0.04092   0.04350   0.04901   0.06195
 Alpha virt. eigenvalues --    0.06376   0.07062   0.07752   0.08390   0.10209
 Alpha virt. eigenvalues --    0.11365   0.12602   0.13139   0.13861   0.14717

 Mulliken charges:
               1
     1  C    0.716009
     2  O   -0.624753
     3  C    0.882610
     4  C   -0.143481
     5  C    0.698916
     6  C   -0.450889
     7  N   -0.169384
     8  H   -0.275508
     9  H   -0.065963
    10  H   -0.057159
    11  H   -0.206913
    12  H   -0.164679
    13  H   -0.009661
    14  H   -0.083718
    15  H   -0.021750
    16  H   -0.023677
 Sum of Mulliken charges =  -0.00000

 Dipole moment (field-independent basis, Debye):
    X=             -3.8422    Y=              1.0467    Z=              0.0378  Tot=              3.9824

 Test job not archived.
 1\1\GINC-SE424\SP\RHF\Aug-CC-pVDZ\C5H9N1O1\OHZDE\09-Apr-2025\0\\#t hf
 aug-cc-pvdz iop(5/13=1,5/36=2,99/5=2) pseudo=read geom=check guess=(re
 ad,tcheck) scf=(maxcycle=1)\\title\\0,1\C,0,2.49269025,0.388926,0.0502
 0372\O,0,1.1199426,0.6818285,0.11718918\C,0,0.32705253,-0.46278729,0.2
 6031005\C,0,-1.13444901,-0.01558862,0.29431704\C,0,-1.56997782,0.66577
 197,-1.003776\C,0,-1.98176423,-1.17361857,0.59103923\N,0,-2.63661757,-
 2.09065708,0.80668737\H,0,3.02168523,1.3338814,-0.06067481\H,0,2.72240
 663,-0.25464215,-0.80826167\H,0,2.84042372,-0.10949965,0.96381035\H,0,

 Normal termination of Gaussian 16 at Wed Apr  9 03:40:37 2025.
