 Gaussian 16, Revision C.01,

 ----------------------------------------------------------------------
 #t hf aug-cc-pvdz symm=none int=(grid=ultrafine) guess=(read,tcheck) s
 table=(opt,rrhf)
 ----------------------------------------------------------------------
 -----
 title
 -----
 Symbolic Z-matrix:
 Charge =  0 Multiplicity = 1

 SCF Done:  E(RHF) =  -231.741124448     A.U. after   14 cycles
 Normal termination of Gaussian 16 at Wed Apr  9 14:15:14 2025.
 Gaussian 16:  ES64L-G16RevC.01  3-Jul-2019

 ----------------------------------------------------------------------
 #t hf aug-cc-pvdz iop(5/13=1,5/36=2,99/5=2) pseudo=read geom=check gue
 ss=(read,tcheck) scf=(maxcycle=1)
 ----------------------------------------------------------------------
 -----
 title
 -----
 Structure from the checkpoint file:  "Grambow2020_b97d3_006869_reverse_mol2.chk"
 Charge =  0 Multiplicity = 1

                         Standard orientation:
 ---------------------------------------------------------------------
 Center     Atomic      Atomic             Coordinates (Angstroms)
 Number     Number       Type             X           Y           Z
 ---------------------------------------------------------------------
      1          6           0        0.746551    1.183605   -0.027829
      2          6           0       -0.668095    0.759711   -0.431978
      3          6           0       -0.667793   -0.758228   -0.433875
      4          6           0        0.746497   -1.183765   -0.028454
      5          6           0        1.576553    0.000069    0.373250
      6          6           0       -1.435785   -0.000943    0.621865
      7          1           0        0.797318    1.977823    0.737097
      8          1           0        1.318919    1.606425   -0.881806
      9          1           0       -1.223502    1.330375   -1.176232
     10          1           0       -1.220886   -1.327466   -1.181015
     11          1           0        0.793612   -1.973357    0.741832
     12          1           0        1.318485   -1.613686   -0.878543
     13          1           0       -1.048004   -0.002149    1.644333
     14          1           0       -2.523514   -0.000659    0.556462
 ---------------------------------------------------------------------

 SCF Done:  E(RHF) =  -231.806982176     A.U. after    2 cycles

 The electronic state is 1-A.
 Alpha  occ. eigenvalues --  -11.26818 -11.24529 -11.24475 -11.24316 -11.24310
 Alpha  occ. eigenvalues --  -11.24169  -1.17076  -1.02530  -0.96622  -0.82199
 Alpha  occ. eigenvalues --   -0.76976  -0.72519  -0.68458  -0.61375  -0.58092
 Alpha  occ. eigenvalues --   -0.56516  -0.53139  -0.51443  -0.48866  -0.41417
 Alpha  occ. eigenvalues --   -0.40653  -0.35004
 Alpha virt. eigenvalues --    0.03150   0.04339   0.04422   0.04992   0.06483
 Alpha virt. eigenvalues --    0.06727   0.06986   0.07240   0.08434   0.09621
 Alpha virt. eigenvalues --    0.11951   0.13041   0.14448   0.14660   0.14911

 Mulliken charges:
               1
     1  C    0.235880
     2  C    0.419233
     3  C    0.417566
     4  C    0.237264
     5  C   -0.614658
     6  C    0.733256
     7  H   -0.043931
     8  H    0.044481
     9  H   -0.359150
    10  H   -0.359000
    11  H   -0.041172
    12  H    0.039109
    13  H   -0.356603
    14  H   -0.352275
 Sum of Mulliken charges =  -0.00000

 Dipole moment (field-independent basis, Debye):
    X=             -2.0434    Y=              0.0005    Z=             -1.1759  Tot=              2.3576

 Test job not archived.
 1\1\GINC-SE207\SP\RHF\Aug-CC-pVDZ\C6H8\OHZDE\09-Apr-2025\0\\#t hf aug-
 cc-pvdz iop(5/13=1,5/36=2,99/5=2) pseudo=read geom=check guess=(read,t
 check) scf=(maxcycle=1)\\title\\0,1\C,0,-1.16781204,-0.33778777,0.7949
 4096\C,0,-0.52413113,0.88061008,0.12753786\C,0,0.89933661,0.47352559,-
 0.20736749\C,0,1.05146986,-0.97358262,0.27054195\C,0,-0.25865582,-1.53
 006715,0.74563855\C,0,-0.10999488,0.68069593,-1.31018602\H,0,-2.176067
 12,-0.59567081,0.42698831\H,0,-1.31812687,-0.18899236,1.88623568\H,0,-
 0.76338277,1.88752175,0.46949875\H,0,1.72938108,1.17393026,-0.11451198

 Normal termination of Gaussian 16 at Wed Apr  9 14:15:18 2025.
