 Gaussian 16, Revision C.01,

 ----------------------------------------------------------------------
 #t hf aug-cc-pvdz symm=none int=(grid=ultrafine) guess=(read,tcheck) s
 table=(opt,rrhf)
 ----------------------------------------------------------------------
 -----
 title
 -----
 Symbolic Z-matrix:
 Charge =  0 Multiplicity = 1

 SCF Done:  E(RHF) =  -333.572090632     A.U. after   19 cycles
 Normal termination of Gaussian 16 at Wed Apr  9 15:33:42 2025.
 Gaussian 16:  ES64L-G16RevC.01  3-Jul-2019

 ----------------------------------------------------------------------
 #t hf aug-cc-pvdz iop(5/13=1,5/36=2,99/5=2) pseudo=read geom=check gue
 ss=(read,tcheck) scf=(maxcycle=1)
 ----------------------------------------------------------------------
 -----
 title
 -----
 Structure from the checkpoint file:  "Grambow2020_wb97xd3_006998_forward_mol1.chk"
 Charge =  0 Multiplicity = 1

                         Standard orientation:
 ---------------------------------------------------------------------
 Center     Atomic      Atomic             Coordinates (Angstroms)
 Number     Number       Type             X           Y           Z
 ---------------------------------------------------------------------
      1          7           0       -2.328436    0.226801   -0.059047
      2          6           0       -1.057158   -0.084764   -0.288589
      3          6           0       -0.448320   -1.201543    0.185886
      4          7           0        0.898559   -1.249603   -0.032399
      5          6           0        1.862526   -0.546353   -0.089694
      6          7           0        1.379023    1.322355    0.135103
      7          7           0        0.273967    1.539638    0.100436
      8          1           0       -2.895822   -0.229645    0.640635
      9          1           0       -2.745568    1.014022   -0.521042
     10          1           0       -0.885104   -2.106345    0.602212
     11          1           0        2.822414   -0.556418   -0.576074
 ---------------------------------------------------------------------

 SCF Done:  E(RHF) =  -333.670795151     A.U. after    2 cycles

 The electronic state is 1-A.
 Alpha  occ. eigenvalues --  -15.74307 -15.71846 -15.70760 -15.63251 -11.34657
 Alpha  occ. eigenvalues --  -11.25609 -11.24156  -1.38614  -1.26977  -1.17812
 Alpha  occ. eigenvalues --   -1.01796  -0.85496  -0.80152  -0.73508  -0.71161
 Alpha  occ. eigenvalues --   -0.68931  -0.64143  -0.62700  -0.59154  -0.57917
 Alpha  occ. eigenvalues --   -0.52998  -0.48124  -0.46754  -0.30926  -0.27942
 Alpha virt. eigenvalues --    0.03128   0.03558   0.04720   0.06334   0.07515
 Alpha virt. eigenvalues --    0.08095   0.09218   0.10661   0.12121   0.12354
 Alpha virt. eigenvalues --    0.12923   0.14150   0.14771   0.15867   0.16069

 Mulliken charges:
               1
     1  N   -0.119088
     2  C    0.011190
     3  C    0.782602
     4  N   -0.096033
     5  C    0.286047
     6  N   -0.331534
     7  N   -0.026562
     8  H   -0.061002
     9  H    0.003665
    10  H   -0.305537
    11  H   -0.143747
 Sum of Mulliken charges =  -0.00000

 Dipole moment (field-independent basis, Debye):
    X=              0.4178    Y=             -0.5569    Z=              0.3672  Tot=              0.7871

 Test job not archived.
 1\1\GINC-SE454\SP\RHF\Aug-CC-pVDZ\C3H4N4\OHZDE\09-Apr-2025\0\\#t hf au
 g-cc-pvdz iop(5/13=1,5/36=2,99/5=2) pseudo=read geom=check guess=(read
 ,tcheck) scf=(maxcycle=1)\\title\\0,1\N,0,1.96932509,-0.05202321,-0.67
 89674\C,0,0.68367794,0.1832415,-0.4388156\C,0,0.21475678,0.77501901,0.
 68942117\N,0,-1.14560328,0.7772964,0.80542778\C,0,-2.10695395,0.114391
 97,0.55355922\N,0,-1.61106523,-1.49837293,-0.41052734\N,0,-0.54618554,
 -1.52985657,-0.77740893\H,0,2.68765234,0.00727148,0.02836159\H,0,2.259
 06065,-0.40047406,-1.57439495\H,0,0.74757186,1.34566036,1.44655403\H,0

 Normal termination of Gaussian 16 at Wed Apr  9 15:33:46 2025.
