 Gaussian 16, Revision C.01,

 ----------------------------------------------------------------------
 #t hf aug-cc-pvdz symm=none int=(grid=ultrafine) guess=(read,tcheck) s
 table=(opt,rrhf)
 ----------------------------------------------------------------------
 -----
 title
 -----
 Symbolic Z-matrix:
 Charge =  0 Multiplicity = 1

 SCF Done:  E(RHF) =  -270.021715289     A.U. after   12 cycles

 1\1\GINC-SE072\Stability\RHF\Aug-CC-pVDZ\C5H10O1\OHZDE\09-Apr-2025\0\\
 #t hf aug-cc-pvdz symm=none int=(grid=ultrafine) guess=(read,tcheck) s
 table=(opt,rrhf)\\title\\0,1\C,0,-2.12673782,-0.03463707,0.16450782\C,
 0,-0.85662348,-0.36986767,-0.58185952\O,0,-0.20654877,0.69422197,-1.30
 892472\C,0,0.50568338,0.07328736,-0.20766628\C,0,1.69152713,-0.7762800
 8,-0.63048275\C,0,0.76467127,0.96721394,0.99042737\H,0,-2.96403477,0.0
 6434261,-0.5413965\H,0,-2.04049736,0.90743141,0.71740907\H,0,-2.375233
 29,-0.83776259,0.87403572\H,0,-0.91320804,-1.30951835,-1.14837924\H,0,

 Normal termination of Gaussian 16 at Wed Apr  9 03:16:06 2025.
 Gaussian 16:  ES64L-G16RevC.01  3-Jul-2019

 ----------------------------------------------------------------------
 #t hf aug-cc-pvdz iop(5/13=1,5/36=2,99/5=2) pseudo=read geom=check gue
 ss=(read,tcheck) scf=(maxcycle=1)
 ----------------------------------------------------------------------
 -----
 title
 -----
 Structure from the checkpoint file:  "Grambow2020_b97d3_007066_forward_mol2.chk"
 Charge =  0 Multiplicity = 1

                         Standard orientation:
 ---------------------------------------------------------------------
 Center     Atomic      Atomic             Coordinates (Angstroms)
 Number     Number       Type             X           Y           Z
 ---------------------------------------------------------------------
      1          6           0        2.098117    0.106746   -0.366513
      2          6           0        0.782037   -0.612193   -0.182948
      3          8           0        0.163564   -0.554437    1.119997
      4          6           0       -0.537065    0.036347   -0.005036
      5          6           0       -1.784729   -0.718276   -0.430055
      6          6           0       -0.696880    1.544247    0.042975
      7          1           0        2.910341   -0.468075    0.101500
      8          1           0        2.087181    1.103719    0.087972
      9          1           0        2.329855    0.210344   -1.436912
     10          1           0        0.762972   -1.616972   -0.626957
     11          1           0       -1.604873   -1.800811   -0.428964
     12          1           0       -2.613450   -0.506399    0.261368
     13          1           0       -2.098385   -0.415157   -1.439787
     14          1           0       -0.937716    1.938023   -0.955331
     15          1           0        0.209112    2.039993    0.407132
     16          1           0       -1.522431    1.809606    0.719460
 ---------------------------------------------------------------------

 SCF Done:  E(RHF) =  -270.107247697     A.U. after    2 cycles

 The electronic state is 1-A.
 Alpha  occ. eigenvalues --  -20.57041 -11.29938 -11.29284 -11.23629 -11.23481
 Alpha  occ. eigenvalues --  -11.23388  -1.35653  -1.02967  -0.99985  -0.94289
 Alpha  occ. eigenvalues --   -0.84593  -0.75869  -0.67282  -0.63801  -0.60516
 Alpha  occ. eigenvalues --   -0.59113  -0.55914  -0.55366  -0.54348  -0.53595
 Alpha  occ. eigenvalues --   -0.50224  -0.49132  -0.44803  -0.41510
 Alpha virt. eigenvalues --    0.03402   0.04388   0.04567   0.05227   0.06162
 Alpha virt. eigenvalues --    0.06661   0.06901   0.07489   0.09228   0.09606
 Alpha virt. eigenvalues --    0.11662   0.12892   0.13776   0.14535   0.15160

 Mulliken charges:
               1
     1  C    0.199104
     2  C    0.369292
     3  O   -0.817554
     4  C   -0.728199
     5  C    0.460974
     6  C    0.503043
     7  H    0.088147
     8  H   -0.035948
     9  H    0.084463
    10  H   -0.371615
    11  H   -0.053156
    12  H    0.064189
    13  H    0.044959
    14  H    0.095342
    15  H   -0.016302
    16  H    0.113260
 Sum of Mulliken charges =   0.00000

 Dipole moment (field-independent basis, Debye):
    X=             -0.0818    Y=              0.7074    Z=             -2.3964  Tot=              2.5000

 Test job not archived.
 1\1\GINC-SE072\SP\RHF\Aug-CC-pVDZ\C5H10O1\OHZDE\09-Apr-2025\0\\#t hf a
 ug-cc-pvdz iop(5/13=1,5/36=2,99/5=2) pseudo=read geom=check guess=(rea
 d,tcheck) scf=(maxcycle=1)\\title\\0,1\C,0,-2.12673782,-0.03463707,0.1
 6450782\C,0,-0.85662348,-0.36986767,-0.58185952\O,0,-0.20654877,0.6942
 2197,-1.30892472\C,0,0.50568338,0.07328736,-0.20766628\C,0,1.69152713,
 -0.77628008,-0.63048275\C,0,0.76467127,0.96721394,0.99042737\H,0,-2.96
 403477,0.06434261,-0.5413965\H,0,-2.04049736,0.90743141,0.71740907\H,0
 ,-2.37523329,-0.83776259,0.87403572\H,0,-0.91320804,-1.30951835,-1.148

 Normal termination of Gaussian 16 at Wed Apr  9 03:16:11 2025.
