 Gaussian 16, Revision C.01,

 ----------------------------------------------------------------------
 #t hf aug-cc-pvdz symm=none int=(grid=ultrafine) guess=(read,tcheck) s
 table=(opt,rrhf)
 ----------------------------------------------------------------------
 -----
 title
 -----
 Symbolic Z-matrix:
 Charge =  0 Multiplicity = 1

 SCF Done:  E(RHF) =  -305.725885414     A.U. after   15 cycles
 Normal termination of Gaussian 16 at Wed Apr  9 14:18:17 2025.
 Gaussian 16:  ES64L-G16RevC.01  3-Jul-2019

 ----------------------------------------------------------------------
 #t hf aug-cc-pvdz iop(5/13=1,5/36=2,99/5=2) pseudo=read geom=check gue
 ss=(read,tcheck) scf=(maxcycle=1)
 ----------------------------------------------------------------------
 -----
 title
 -----
 Structure from the checkpoint file:  "Grambow2020_b97d3_007093_reverse_mol1.chk"
 Charge =  0 Multiplicity = 1

                         Standard orientation:
 ---------------------------------------------------------------------
 Center     Atomic      Atomic             Coordinates (Angstroms)
 Number     Number       Type             X           Y           Z
 ---------------------------------------------------------------------
      1          6           0        0.714940    1.833256   -0.005822
      2          6           0        0.903877   -0.370287    0.509001
      3          6           0        1.906099   -0.870472   -0.495835
      4          8           0       -0.302157   -0.874533    0.471818
      5          6           0       -1.419480    0.130460   -0.142623
      6          8           0       -2.531803   -0.226853   -0.251303
      7          1           0        1.780796    1.705040   -0.214906
      8          1           0        0.331798    2.533267   -0.766599
      9          1           0        0.582105    2.270369    0.990640
     10          1           0        1.269449   -0.053320    1.492739
     11          1           0        2.149883   -1.923215   -0.276616
     12          1           0        2.838363   -0.292776   -0.459909
     13          1           0        1.487630   -0.831037   -1.510244
     14          1           0       -0.400971    1.065020   -0.207549
 ---------------------------------------------------------------------

 SCF Done:  E(RHF) =  -305.824736792     A.U. after    2 cycles

 The electronic state is 1-A.
 Alpha  occ. eigenvalues --  -20.61045 -20.60687 -11.38024 -11.37851 -11.26562
 Alpha  occ. eigenvalues --  -11.23108  -1.41294  -1.36189  -1.03515  -0.94087
 Alpha  occ. eigenvalues --   -0.86976  -0.78503  -0.71632  -0.70181  -0.66631
 Alpha  occ. eigenvalues --   -0.61742  -0.59713  -0.58688  -0.56874  -0.55656
 Alpha  occ. eigenvalues --   -0.54704  -0.48018  -0.45866  -0.36540
 Alpha virt. eigenvalues --    0.02934   0.04227   0.04298   0.05216   0.06194
 Alpha virt. eigenvalues --    0.06934   0.07352   0.08591   0.09352   0.10493
 Alpha virt. eigenvalues --    0.11794   0.12528   0.13081   0.14419   0.14957

 Mulliken charges:
               1
     1  C    0.422986
     2  C    0.431425
     3  C    0.263983
     4  O   -0.709063
     5  C    0.334036
     6  O   -0.392886
     7  H   -0.218334
     8  H   -0.028701
     9  H   -0.046190
    10  H   -0.107332
    11  H    0.000787
    12  H   -0.057734
    13  H   -0.034502
    14  H    0.141526
 Sum of Mulliken charges =  -0.00000

 Dipole moment (field-independent basis, Debye):
    X=              4.5424    Y=              0.7224    Z=              0.0804  Tot=              4.6001

 Test job not archived.
 1\1\GINC-SE159\SP\RHF\Aug-CC-pVDZ\C4H8O2\OHZDE\09-Apr-2025\0\\#t hf au
 g-cc-pvdz iop(5/13=1,5/36=2,99/5=2) pseudo=read geom=check guess=(read
 ,tcheck) scf=(maxcycle=1)\\title\\0,1\C,0,0.31227771,1.52338403,0.1204
 218\C,0,-0.31707577,-0.51211262,-0.66507733\C,0,-1.5252361,-0.8409876,
 0.16950028\O,0,0.72473858,-1.29647983,-0.56732164\C,0,1.95918434,-0.65
 369857,0.26870312\O,0,2.93577405,-1.27975329,0.4449803\H,0,-0.77175569
 ,1.64071082,0.20591357\H,0,0.74946196,2.037554,0.99225531\H,0,0.666073
 06,2.00261269,-0.799806\H,0,-0.47354963,-0.02850158,-1.63641037\H,0,-1

 Normal termination of Gaussian 16 at Wed Apr  9 14:18:21 2025.
