 Gaussian 16, Revision C.01,

 ----------------------------------------------------------------------
 #t hf aug-cc-pvdz symm=none int=(grid=ultrafine) guess=(read,tcheck) s
 table=(opt,rrhf)
 ----------------------------------------------------------------------
 -----
 title
 -----
 Symbolic Z-matrix:
 Charge =  0 Multiplicity = 1

 SCF Done:  E(RHF) =  -338.665658954     A.U. after   15 cycles
 Normal termination of Gaussian 16 at Wed Apr  9 15:18:53 2025.
 Gaussian 16:  ES64L-G16RevC.01  3-Jul-2019

 ----------------------------------------------------------------------
 #t hf aug-cc-pvdz iop(5/13=1,5/36=2,99/5=2) pseudo=read geom=check gue
 ss=(read,tcheck) scf=(maxcycle=1)
 ----------------------------------------------------------------------
 -----
 title
 -----
 Structure from the checkpoint file:  "Grambow2020_wb97xd3_006841_reverse_mol1.chk"
 Charge =  0 Multiplicity = 1

                         Standard orientation:
 ---------------------------------------------------------------------
 Center     Atomic      Atomic             Coordinates (Angstroms)
 Number     Number       Type             X           Y           Z
 ---------------------------------------------------------------------
      1          7           0       -2.438542   -0.525503    0.090418
      2          6           0       -1.115830   -0.122206    0.007092
      3          6           0       -0.655252    1.197788    0.002137
      4          7           0        0.813769    1.188483   -0.090994
      5          6           0        1.120683   -0.108225   -0.044986
      6          8           0        2.425779   -0.449582    0.013692
      7          6           0        0.010301   -0.948250   -0.023178
      8          1           0       -3.110451    0.141999   -0.248320
      9          1           0       -2.623018   -1.453553   -0.249728
     10          1           0       -1.175846    2.098111   -0.285480
     11          1           0        0.201101    1.486382    0.933249
     12          1           0        2.497691   -1.402929    0.081986
     13          1           0        0.018290   -2.028853    0.016404
 ---------------------------------------------------------------------

 SCF Done:  E(RHF) =  -338.766565291     A.U. after    2 cycles

 The electronic state is 1-A.
 Alpha  occ. eigenvalues --  -20.60715 -15.64093 -15.63258 -11.33382 -11.29578
 Alpha  occ. eigenvalues --  -11.26101 -11.23148  -1.38037  -1.25660  -1.18513
 Alpha  occ. eigenvalues --   -1.01979  -0.96469  -0.81736  -0.78239  -0.74296
 Alpha  occ. eigenvalues --   -0.68728  -0.66278  -0.65937  -0.60643  -0.57637
 Alpha  occ. eigenvalues --   -0.56091  -0.53608  -0.49143  -0.44955  -0.34984
 Alpha  occ. eigenvalues --   -0.29601
 Alpha virt. eigenvalues --    0.02601   0.03236   0.04486   0.05947   0.06254
 Alpha virt. eigenvalues --    0.07704   0.10384   0.11237   0.12257   0.12639
 Alpha virt. eigenvalues --    0.13409   0.13662   0.14066   0.14902   0.15774

 Mulliken charges:
               1
     1  N   -0.376079
     2  C    0.064924
     3  C    0.679475
     4  N   -0.856164
     5  C    0.420453
     6  O   -0.515875
     7  C    0.873844
     8  H   -0.035120
     9  H   -0.033195
    10  H   -0.301557
    11  H    0.395835
    12  H    0.126876
    13  H   -0.443418
 Sum of Mulliken charges =  -0.00000

 Dipole moment (field-independent basis, Debye):
    X=             -2.8202    Y=             -2.6099    Z=             -0.2519  Tot=              3.8507

 Test job not archived.
 1\1\GINC-SE129\SP\RHF\Aug-CC-pVDZ\C4H6N2O1\OHZDE\09-Apr-2025\0\\#t hf
 aug-cc-pvdz iop(5/13=1,5/36=2,99/5=2) pseudo=read geom=check guess=(re
 ad,tcheck) scf=(maxcycle=1)\\title\\0,1\N,0,-2.06010941,0.51094332,-0.
 50910678\C,0,-0.79239799,0.07128945,-0.16447218\C,0,-0.36714281,-1.259
 51328,-0.11287632\N,0,1.04890871,-1.29101133,0.28785989\C,0,1.38192919
 ,-0.00179106,0.35692706\O,0,2.67586659,0.30774543,0.58748714\C,0,0.316
 57859,0.866701,0.13373336\H,0,-2.80036236,-0.1500473,-0.34514952\H,0,-
 2.29557106,1.43153799,-0.18036589\H,0,-0.95291363,-2.15529131,0.024150

 Normal termination of Gaussian 16 at Wed Apr  9 15:18:57 2025.
