 Gaussian 16, Revision C.01,

 ----------------------------------------------------------------------
 #t hf aug-cc-pvdz symm=none int=(grid=ultrafine) guess=(read,tcheck) s
 table=(opt,rrhf)
 ----------------------------------------------------------------------
 -----
 title
 -----
 Symbolic Z-matrix:
 Charge =  0 Multiplicity = 1

 SCF Done:  E(RHF) =  -309.026041609     A.U. after   12 cycles

 1\1\GINC-SE454\Stability\RHF\Aug-CC-pVDZ\C6H12O1\OHZDE\09-Apr-2025\0\\
 #t hf aug-cc-pvdz symm=none int=(grid=ultrafine) guess=(read,tcheck) s
 table=(opt,rrhf)\\title\\0,1\C,0,2.57833049,-0.87717428,-0.03744038\C,
 0,1.14858349,-0.43449367,-0.14783086\O,0,0.6644028,-0.08350142,1.11746
 134\C,0,0.69138342,0.3314972,-1.34785532\C,0,-2.25624919,1.6851787,1.0
 7148781\C,0,-2.74787651,0.45575194,1.07328656\C,0,0.23270494,-1.097142
 05,-1.12693673\H,0,3.19349677,-0.06899508,0.36229027\H,0,2.97210567,-1
 .16560044,-1.01256093\H,0,2.6557697,-1.73332817,0.6352105\H,0,-0.24566

 Normal termination of Gaussian 16 at Wed Apr  9 16:36:21 2025.
 Gaussian 16:  ES64L-G16RevC.01  3-Jul-2019

 ----------------------------------------------------------------------
 #t hf aug-cc-pvdz iop(5/13=1,5/36=2,99/5=2) pseudo=read geom=check gue
 ss=(read,tcheck) scf=(maxcycle=1)
 ----------------------------------------------------------------------
 -----
 title
 -----
 Structure from the checkpoint file:  "Grambow2020_wb97xd3_008675_reverse_mol2.chk"
 Charge =  0 Multiplicity = 1

                         Standard orientation:
 ---------------------------------------------------------------------
 Center     Atomic      Atomic             Coordinates (Angstroms)
 Number     Number       Type             X           Y           Z
 ---------------------------------------------------------------------
      1          6           0        2.575604   -0.725060   -0.014646
      2          6           0        1.193977   -0.139029   -0.013003
      3          8           0        0.246715   -1.163950   -0.117032
      4          6           0        0.889340    1.060512    0.826123
      5          6           0       -2.944902   -0.220401    0.647068
      6          6           0       -2.931702    0.084728   -0.641308
      7          6           0        0.935291    1.171336   -0.685766
      8          1           0        2.698255   -1.403908    0.831220
      9          1           0        3.330246    0.059001    0.055167
     10          1           0        2.743966   -1.287915   -0.934593
     11          1           0       -0.637479   -0.784618   -0.094493
     12          1           0        1.685209    1.512100    1.404936
     13          1           0       -0.087072    1.103756    1.293935
     14          1           0       -3.021604   -1.246613    0.988376
     15          1           0       -2.884007    0.545140    1.412360
     16          1           0       -2.860774    1.112163   -0.980254
     17          1           0       -2.998835   -0.679398   -1.407623
     18          1           0        1.762736    1.700669   -1.141353
     19          1           0       -0.010003    1.288700   -1.202224
 ---------------------------------------------------------------------

 SCF Done:  E(RHF) =  -309.126878920     A.U. after    2 cycles

 The electronic state is 1-A.
 Alpha  occ. eigenvalues --  -20.56158 -11.29061 -11.25640 -11.25465 -11.22794
 Alpha  occ. eigenvalues --  -11.22747 -11.22001  -1.32435  -1.11911  -1.04754
 Alpha  occ. eigenvalues --   -0.96466  -0.82741  -0.80626  -0.78363  -0.69576
 Alpha  occ. eigenvalues --   -0.66505  -0.65963  -0.60785  -0.59429  -0.57104
 Alpha  occ. eigenvalues --   -0.53933  -0.53882  -0.53772  -0.52171  -0.50428
 Alpha  occ. eigenvalues --   -0.41818  -0.39909  -0.38018
 Alpha virt. eigenvalues --    0.03533   0.04370   0.04569   0.04731   0.05823
 Alpha virt. eigenvalues --    0.05880   0.06676   0.06837   0.08280   0.08557
 Alpha virt. eigenvalues --    0.09347   0.09787   0.10268   0.12177   0.13360

 Mulliken charges:
               1
     1  C    0.332138
     2  C    0.107710
     3  O   -0.647164
     4  C    0.748565
     5  C    0.613538
     6  C    0.602461
     7  C    0.781834
     8  H    0.037613
     9  H   -0.047710
    10  H    0.037010
    11  H    0.124002
    12  H   -0.370261
    13  H   -0.363908
    14  H   -0.295810
    15  H   -0.323471
    16  H   -0.312465
    17  H   -0.297213
    18  H   -0.372800
    19  H   -0.354067
 Sum of Mulliken charges =  -0.00000

 Dipole moment (field-independent basis, Debye):
    X=             -0.8173    Y=              1.5565    Z=              0.1531  Tot=              1.7647

 Test job not archived.
 1\1\GINC-SE454\SP\RHF\Aug-CC-pVDZ\C6H12O1\OHZDE\09-Apr-2025\0\\#t hf a
 ug-cc-pvdz iop(5/13=1,5/36=2,99/5=2) pseudo=read geom=check guess=(rea
 d,tcheck) scf=(maxcycle=1)\\title\\0,1\C,0,2.57833049,-0.87717428,-0.0
 3744038\C,0,1.14858349,-0.43449367,-0.14783086\O,0,0.6644028,-0.083501
 42,1.11746134\C,0,0.69138342,0.3314972,-1.34785532\C,0,-2.25624919,1.6
 851787,1.07148781\C,0,-2.74787651,0.45575194,1.07328656\C,0,0.23270494
 ,-1.09714205,-1.12693673\H,0,3.19349677,-0.06899508,0.36229027\H,0,2.9
 7210567,-1.16560044,-1.01256093\H,0,2.6557697,-1.73332817,0.6352105\H,

 Normal termination of Gaussian 16 at Wed Apr  9 16:36:29 2025.
