 Gaussian 16, Revision C.01,

 ----------------------------------------------------------------------
 #t hf aug-cc-pvdz symm=none int=(grid=ultrafine) guess=(read,tcheck) s
 table=(opt,rrhf)
 ----------------------------------------------------------------------
 -----
 title
 -----
 Symbolic Z-matrix:
 Charge =  0 Multiplicity = 1

 SCF Done:  E(RHF) =  -324.864472535     A.U. after   15 cycles
 Normal termination of Gaussian 16 at Wed Apr  9 16:50:33 2025.
 Gaussian 16:  ES64L-G16RevC.01  3-Jul-2019

 ----------------------------------------------------------------------
 #t hf aug-cc-pvdz iop(5/13=1,5/36=2,99/5=2) pseudo=read geom=check gue
 ss=(read,tcheck) scf=(maxcycle=1)
 ----------------------------------------------------------------------
 -----
 title
 -----
 Structure from the checkpoint file:  "Grambow2020_wb97xd3_008958_forward_mol1.chk"
 Charge =  0 Multiplicity = 1

                         Standard orientation:
 ---------------------------------------------------------------------
 Center     Atomic      Atomic             Coordinates (Angstroms)
 Number     Number       Type             X           Y           Z
 ---------------------------------------------------------------------
      1          6           0        2.247197   -1.143995    0.090355
      2          6           0        1.709566    0.149456   -0.424094
      3          7           0        0.425690    0.439662   -0.322871
      4          6           0       -0.276944    1.567371   -0.057786
      5          6           0       -0.540589    0.353368    0.750802
      6          6           0       -1.679767   -0.625036    0.561676
      7          8           0       -2.230131   -0.606680   -0.730692
      8          1           0        3.279266   -1.011837    0.416080
      9          1           0        2.245499   -1.921111   -0.680764
     10          1           0        1.662501   -1.501820    0.938324
     11          1           0        1.894028    1.760050    0.729749
     12          1           0        2.240883    0.656508   -1.223329
     13          1           0        1.124858    2.141984    0.655297
     14          1           0       -0.891366    2.139277   -0.735400
     15          1           0       -0.120344    0.357861    1.762131
     16          1           0       -1.337333   -1.635152    0.830632
     17          1           0       -2.483723   -0.360619    1.251507
     18          1           0       -1.509824   -0.656318   -1.364306
 ---------------------------------------------------------------------

 SCF Done:  E(RHF) =  -324.967850383     A.U. after    2 cycles

 The electronic state is 1-A.
 Alpha  occ. eigenvalues --  -20.57388 -15.68909 -11.31910 -11.29320 -11.28846
 Alpha  occ. eigenvalues --  -11.25744 -11.25138  -1.33675  -1.30444  -1.08298
 Alpha  occ. eigenvalues --   -0.98477  -0.93416  -0.81780  -0.76803  -0.72059
 Alpha  occ. eigenvalues --   -0.69561  -0.67484  -0.63836  -0.61291  -0.60218
 Alpha  occ. eigenvalues --   -0.57500  -0.56023  -0.52490  -0.50037  -0.47566
 Alpha  occ. eigenvalues --   -0.46081  -0.41600  -0.27981
 Alpha virt. eigenvalues --    0.03020   0.03741   0.04364   0.04556   0.06368
 Alpha virt. eigenvalues --    0.06588   0.06932   0.07185   0.08249   0.09314
 Alpha virt. eigenvalues --    0.09448   0.10367   0.11961   0.12638   0.13028

 Mulliken charges:
               1
     1  C    0.254719
     2  C    0.227757
     3  N   -0.192288
     4  C    0.239973
     5  C    0.307109
     6  C    0.841283
     7  O   -0.538599
     8  H   -0.018849
     9  H    0.022243
    10  H   -0.161010
    11  H   -0.175360
    12  H   -0.403284
    13  H    0.384179
    14  H   -0.417859
    15  H   -0.426852
    16  H   -0.042891
    17  H   -0.058780
    18  H    0.158510
 Sum of Mulliken charges =  -0.00000

 Dipole moment (field-independent basis, Debye):
    X=              1.9143    Y=             -2.2635    Z=             -0.3372  Tot=              2.9836

 Test job not archived.
 1\1\GINC-SE162\SP\RHF\Aug-CC-pVDZ\C5H11N1O1\OHZDE\09-Apr-2025\0\\#t hf
  aug-cc-pvdz iop(5/13=1,5/36=2,99/5=2) pseudo=read geom=check guess=(r
 ead,tcheck) scf=(maxcycle=1)\\title\\0,1\C,0,-1.9750301,-0.60172723,-0
 .89406322\C,0,-1.36008885,-0.47074182,0.45923304\N,0,-0.0722494,-0.215
 93285,0.59831741\C,0,0.66126334,0.54308995,1.44774961\C,0,0.83428607,0
 .73244853,-0.01215913\C,0,1.94093817,0.15796137,-0.87009473\O,0,2.5561
 4879,-0.97519663,-0.31249181\H,0,-3.01601914,-0.27940229,-0.85975784\H
 ,0,-1.96591757,-1.63806912,-1.24683592\H,0,-1.44889317,0.01329828,-1.6

 Normal termination of Gaussian 16 at Wed Apr  9 16:50:40 2025.
