 Gaussian 16, Revision C.01,

 ----------------------------------------------------------------------
 #t hf aug-cc-pvdz symm=none int=(grid=ultrafine) guess=(read,tcheck) s
 table=(opt,rrhf)
 ----------------------------------------------------------------------
 -----
 title
 -----
 Symbolic Z-matrix:
 Charge =  0 Multiplicity = 1

 SCF Done:  E(RHF) =  -269.887780620     A.U. after   15 cycles

 1\1\GINC-SE054\Stability\RHF\Aug-CC-pVDZ\C5H10O1\OHZDE\09-Apr-2025\0\\
 #t hf aug-cc-pvdz symm=none int=(grid=ultrafine) guess=(read,tcheck) s
 table=(opt,rrhf)\\title\\0,1\C,0,2.45999117,-0.29081014,-0.19085795\C,
 0,1.22087283,0.41044024,-0.71395405\C,0,-0.16090687,0.34571353,0.61713
 449\O,0,0.25172348,0.31626426,1.75933985\C,0,-1.34637767,0.0942504,-0.
 09508823\C,0,-2.67273753,-0.21267689,0.54908481\H,0,3.36686589,0.08760
 779,-0.68368301\H,0,2.55190368,-0.11552353,0.88847063\H,0,2.40694251,-
 1.37565853,-0.3602282\H,0,0.97667565,0.15951872,-1.76158309\H,0,1.2952

 Normal termination of Gaussian 16 at Wed Apr  9 13:54:04 2025.
 Gaussian 16:  ES64L-G16RevC.01  3-Jul-2019

 ----------------------------------------------------------------------
 #t hf aug-cc-pvdz iop(5/13=1,5/36=2,99/5=2) pseudo=read geom=check gue
 ss=(read,tcheck) scf=(maxcycle=1)
 ----------------------------------------------------------------------
 -----
 title
 -----
 Structure from the checkpoint file:  "Grambow2020_b97d3_006745_reverse_mol1.chk"
 Charge =  0 Multiplicity = 1

                         Standard orientation:
 ---------------------------------------------------------------------
 Center     Atomic      Atomic             Coordinates (Angstroms)
 Number     Number       Type             X           Y           Z
 ---------------------------------------------------------------------
      1          6           0        2.512198   -0.058906    0.404898
      2          6           0        1.389189   -0.747568   -0.347028
      3          6           0       -0.198038    0.328094   -0.252349
      4          8           0        0.015619    1.520511   -0.161485
      5          6           0       -1.249912   -0.584318   -0.060248
      6          6           0       -2.670154   -0.187539    0.246137
      7          1           0        3.494508   -0.373541    0.024673
      8          1           0        2.423294    1.027801    0.281256
      9          1           0        2.472954   -0.287556    1.479410
     10          1           0        1.321578   -1.832302   -0.149799
     11          1           0        1.469856   -0.633179   -1.434560
     12          1           0        0.199716   -0.680858    0.556517
     13          1           0       -1.074599   -1.610221   -0.389021
     14          1           0       -3.285912   -0.144920   -0.667849
     15          1           0       -3.135355   -0.925424    0.916076
     16          1           0       -2.710686    0.797536    0.726723
 ---------------------------------------------------------------------

 SCF Done:  E(RHF) =  -269.972935693     A.U. after    2 cycles

 The electronic state is 1-A.
 Alpha  occ. eigenvalues --  -20.53973 -11.36909 -11.27851 -11.26939 -11.24396
 Alpha  occ. eigenvalues --  -11.23787  -1.33574  -1.08412  -1.02938  -0.94123
 Alpha  occ. eigenvalues --   -0.84335  -0.72565  -0.67304  -0.65664  -0.62946
 Alpha  occ. eigenvalues --   -0.59526  -0.57782  -0.55255  -0.54240  -0.53013
 Alpha  occ. eigenvalues --   -0.51916  -0.50671  -0.41361  -0.32837
 Alpha virt. eigenvalues --    0.02811   0.04034   0.04555   0.04916   0.06291
 Alpha virt. eigenvalues --    0.06435   0.06706   0.07601   0.08557   0.09217
 Alpha virt. eigenvalues --    0.11851   0.12503   0.13576   0.13824   0.14636

 Mulliken charges:
               1
     1  C    0.381818
     2  C   -0.192595
     3  C   -0.377181
     4  O   -0.545549
     5  C    0.449280
     6  C    0.175108
     7  H   -0.032483
     8  H   -0.021869
     9  H   -0.062159
    10  H   -0.193428
    11  H   -0.069498
    12  H    0.737315
    13  H   -0.317396
    14  H    0.065062
    15  H    0.034363
    16  H   -0.030788
 Sum of Mulliken charges =  -0.00000

 Dipole moment (field-independent basis, Debye):
    X=              0.0416    Y=             -4.1272    Z=              0.1180  Tot=              4.1291

 Test job not archived.
 1\1\GINC-SE054\SP\RHF\Aug-CC-pVDZ\C5H10O1\OHZDE\09-Apr-2025\0\\#t hf a
 ug-cc-pvdz iop(5/13=1,5/36=2,99/5=2) pseudo=read geom=check guess=(rea
 d,tcheck) scf=(maxcycle=1)\\title\\0,1\C,0,2.45999117,-0.29081014,-0.1
 9085795\C,0,1.22087283,0.41044024,-0.71395405\C,0,-0.16090687,0.345713
 53,0.61713449\O,0,0.25172348,0.31626426,1.75933985\C,0,-1.34637767,0.0
 942504,-0.09508823\C,0,-2.67273753,-0.21267689,0.54908481\H,0,3.366865
 89,0.08760779,-0.68368301\H,0,2.55190368,-0.11552353,0.88847063\H,0,2.
 40694251,-1.37565853,-0.3602282\H,0,0.97667565,0.15951872,-1.76158309\

 Normal termination of Gaussian 16 at Wed Apr  9 13:54:10 2025.
