 Gaussian 16, Revision C.01,

 ----------------------------------------------------------------------
 #t hf aug-cc-pvdz symm=none int=(grid=ultrafine) guess=(read,tcheck) s
 table=(opt,rrhf)
 ----------------------------------------------------------------------
 -----
 title
 -----
 Symbolic Z-matrix:
 Charge =  0 Multiplicity = 1

 SCF Done:  E(RHF) =  -353.419709760     A.U. after   17 cycles
 Normal termination of Gaussian 16 at Wed Apr  9 16:06:45 2025.
 Gaussian 16:  ES64L-G16RevC.01  3-Jul-2019

 ----------------------------------------------------------------------
 #t hf aug-cc-pvdz iop(5/13=1,5/36=2,99/5=2) pseudo=read geom=check gue
 ss=(read,tcheck) scf=(maxcycle=1)
 ----------------------------------------------------------------------
 -----
 title
 -----
 Structure from the checkpoint file:  "Grambow2020_wb97xd3_007767_reverse_mol1.chk"
 Charge =  0 Multiplicity = 1

                         Standard orientation:
 ---------------------------------------------------------------------
 Center     Atomic      Atomic             Coordinates (Angstroms)
 Number     Number       Type             X           Y           Z
 ---------------------------------------------------------------------
      1          8           0        2.461665   -0.432648    0.072072
      2          6           0        1.650469    0.432608   -0.080337
      3          7           0        0.323416    0.159240   -0.436037
      4          6           0       -0.407836   -0.746020    0.230686
      5          7           0       -1.721165   -0.916912   -0.213613
      6          6           0       -1.885678    0.358772    0.003637
      7          7           0       -0.718821    1.050097    0.269967
      8          1           0        1.851391    1.511375   -0.024353
      9          1           0       -0.031874   -1.247149    1.123396
     10          1           0       -2.838583    0.877827    0.058244
 ---------------------------------------------------------------------

 SCF Done:  E(RHF) =  -353.519952744     A.U. after    2 cycles

 The electronic state is 1-A.
 Alpha  occ. eigenvalues --  -20.60195 -15.72200 -15.68032 -15.64187 -11.44021
 Alpha  occ. eigenvalues --  -11.40498 -11.37685  -1.42739  -1.39078  -1.22350
 Alpha  occ. eigenvalues --   -1.08503  -0.96429  -0.84064  -0.82569  -0.74593
 Alpha  occ. eigenvalues --   -0.71598  -0.69203  -0.64448  -0.60180  -0.56527
 Alpha  occ. eigenvalues --   -0.54576  -0.50962  -0.46046  -0.44840  -0.35519
 Alpha virt. eigenvalues --    0.02961   0.03610   0.04020   0.06073   0.06807
 Alpha virt. eigenvalues --    0.09524   0.09777   0.10236   0.11105   0.12280
 Alpha virt. eigenvalues --    0.13347   0.13888   0.15010   0.15362   0.15972

 Mulliken charges:
               1
     1  O   -0.434562
     2  C    0.804188
     3  N   -0.491514
     4  C    1.161716
     5  N   -0.633917
     6  C    0.821947
     7  N   -0.741466
     8  H   -0.140162
     9  H   -0.223976
    10  H   -0.122255
 Sum of Mulliken charges =  -0.00000

 Dipole moment (field-independent basis, Debye):
    X=             -1.2752    Y=              1.3720    Z=              1.0653  Tot=              2.1548

 Test job not archived.
 1\1\GINC-SE009\SP\RHF\Aug-CC-pVDZ\C3H3N3O1\OHZDE\09-Apr-2025\0\\#t hf
 aug-cc-pvdz iop(5/13=1,5/36=2,99/5=2) pseudo=read geom=check guess=(re
 ad,tcheck) scf=(maxcycle=1)\\title\\0,1\O,0,2.55175314,0.61115278,0.33
 89339\C,0,1.75829431,-0.28281267,0.37335214\N,0,0.39068986,-0.06123034
 ,0.58043634\C,0,-0.28960666,0.84107887,-0.14190677\N,0,-1.65026344,0.9
 5800119,0.15199716\C,0,-1.74534861,-0.31491383,-0.11684729\N,0,-0.5328
 4216,-0.96169827,-0.26488729\H,0,2.00083792,-1.35270441,0.31214628\H,0
 ,0.16900655,1.38047134,-0.97144719\H,0,-2.66751992,-0.86103866,-0.2951

 Normal termination of Gaussian 16 at Wed Apr  9 16:06:49 2025.
