 Gaussian 16, Revision C.01,

 ----------------------------------------------------------------------
 #t hf aug-cc-pvdz symm=none int=(grid=ultrafine) guess=(read,tcheck) s
 table=(opt,rrhf)
 ----------------------------------------------------------------------
 -----
 title
 -----
 Symbolic Z-matrix:
 Charge =  0 Multiplicity = 1

 SCF Done:  E(RHF) =  -323.674281053     A.U. after   16 cycles
 Normal termination of Gaussian 16 at Wed Apr  9 03:52:51 2025.
 Gaussian 16:  ES64L-G16RevC.01  3-Jul-2019

 ----------------------------------------------------------------------
 #t hf aug-cc-pvdz iop(5/13=1,5/36=2,99/5=2) pseudo=read geom=check gue
 ss=(read,tcheck) scf=(maxcycle=1)
 ----------------------------------------------------------------------
 -----
 title
 -----
 Structure from the checkpoint file:  "Grambow2020_wb97xd3_008336_reverse_mol1.chk"
 Charge =  0 Multiplicity = 1

                         Standard orientation:
 ---------------------------------------------------------------------
 Center     Atomic      Atomic             Coordinates (Angstroms)
 Number     Number       Type             X           Y           Z
 ---------------------------------------------------------------------
      1          7           0        2.366508   -0.460780    0.060515
      2          6           0        1.124865   -0.257449   -0.023086
      3          6           0        0.060904   -1.164293   -0.237415
      4          6           0       -1.270147   -1.070071    0.459831
      5          6           0       -1.871041    0.079930   -0.355978
      6          6           0       -0.517402    1.468558    0.222953
      7          8           0        0.703660    1.154026   -0.105933
      8          1           0        2.890310    0.405715   -0.028233
      9          1           0       -0.878521    0.137906   -1.062908
     10          1           0        0.397417   -2.124199   -0.606277
     11          1           0       -1.229308   -0.856111    1.533732
     12          1           0       -1.837610   -1.993349    0.348697
     13          1           0       -2.391727   -0.378027   -1.207099
     14          1           0       -2.599938    0.794459    0.044855
     15          1           0       -0.828809    1.289588    1.251431
     16          1           0       -0.879717    2.377219   -0.248173
 ---------------------------------------------------------------------

 SCF Done:  E(RHF) =  -323.773554543     A.U. after    2 cycles

 The electronic state is 1-A.
 Alpha  occ. eigenvalues --  -20.63891 -15.57130 -11.40038 -11.34013 -11.27679
 Alpha  occ. eigenvalues --  -11.24982 -11.20286  -1.42444  -1.16347  -1.09475
 Alpha  occ. eigenvalues --   -0.98080  -0.91402  -0.86334  -0.78695  -0.72757
 Alpha  occ. eigenvalues --   -0.70204  -0.68301  -0.64391  -0.60729  -0.58524
 Alpha  occ. eigenvalues --   -0.55775  -0.52637  -0.49550  -0.46514  -0.43420
 Alpha  occ. eigenvalues --   -0.40195  -0.26079
 Alpha virt. eigenvalues --    0.02071   0.03380   0.03872   0.04775   0.05950
 Alpha virt. eigenvalues --    0.06494   0.06792   0.07085   0.07806   0.08987
 Alpha virt. eigenvalues --    0.11528   0.11880   0.12817   0.13688   0.14053

 Mulliken charges:
               1
     1  N   -0.417856
     2  C    0.414472
     3  C    0.418691
     4  C    0.451879
     5  C   -0.177868
     6  C    0.758682
     7  O   -0.660438
     8  H   -0.023600
     9  H    0.607870
    10  H   -0.390263
    11  H   -0.234136
    12  H   -0.183318
    13  H   -0.134812
    14  H   -0.066993
    15  H   -0.066527
    16  H   -0.295782
 Sum of Mulliken charges =  -0.00000

 Dipole moment (field-independent basis, Debye):
    X=             -5.2374    Y=              3.4348    Z=              0.4607  Tot=              6.2802

 Test job not archived.
 1\1\GINC-SE126\SP\RHF\Aug-CC-pVDZ\C5H9N1O1\OHZDE\09-Apr-2025\0\\#t hf
 aug-cc-pvdz iop(5/13=1,5/36=2,99/5=2) pseudo=read geom=check guess=(re
 ad,tcheck) scf=(maxcycle=1)\\title\\0,1\N,0,2.72692942,0.58038902,0.38
 308969\C,0,1.51347348,0.32911132,0.14986184\C,0,0.84988213,-0.90907467
 ,-0.01402136\C,0,-0.52424066,-1.19854259,0.52886154\C,0,-1.34502316,-0
 .43556074,-0.5167452\C,0,-0.62237346,1.39521238,-0.04575138\O,0,0.6682
 0177,1.48610593,-0.20145089\H,0,2.9436212,1.5572376,0.20456979\H,0,-0.
 33546811,-0.1230113,-1.12610502\H,0,1.53304368,-1.72990969,-0.18791931

 Normal termination of Gaussian 16 at Wed Apr  9 03:52:57 2025.
