 Gaussian 16, Revision C.01,

 ----------------------------------------------------------------------
 #t hf aug-cc-pvdz symm=none int=(grid=ultrafine) guess=(read,tcheck) s
 table=(opt,rrhf)
 ----------------------------------------------------------------------
 -----
 title
 -----
 Symbolic Z-matrix:
 Charge =  0 Multiplicity = 1

 SCF Done:  E(RHF) =  -322.483172898     A.U. after   16 cycles
 Normal termination of Gaussian 16 at Wed Apr  9 14:55:11 2025.
 Gaussian 16:  ES64L-G16RevC.01  3-Jul-2019

 ----------------------------------------------------------------------
 #t hf aug-cc-pvdz iop(5/13=1,5/36=2,99/5=2) pseudo=read geom=check gue
 ss=(read,tcheck) scf=(maxcycle=1)
 ----------------------------------------------------------------------
 -----
 title
 -----
 Structure from the checkpoint file:  "Grambow2020_wb97xd3_006646_forward_mol1.chk"
 Charge =  0 Multiplicity = 1

                         Standard orientation:
 ---------------------------------------------------------------------
 Center     Atomic      Atomic             Coordinates (Angstroms)
 Number     Number       Type             X           Y           Z
 ---------------------------------------------------------------------
      1          6           0        2.363191    0.501218    0.080648
      2          7           0        1.579931   -0.596808   -0.165080
      3          6           0        0.380640   -0.054440   -0.206285
      4          6           0       -0.645764    0.386113    0.816290
      5          6           0       -1.478521    0.993788   -0.328164
      6          6           0       -0.992331   -0.397187   -0.780370
      7          8           0       -1.342727   -0.903609    0.570024
      8          1           0        3.121687    0.465154    0.855333
      9          1           0        2.380284    1.286809   -0.654242
     10          1           0        1.854046   -1.559109   -0.338562
     11          1           0       -0.517380    0.713514    1.844845
     12          1           0       -1.077545    1.868625   -0.838246
     13          1           0       -2.547197    1.047928   -0.128104
     14          1           0       -1.294892   -0.993348   -1.638377
 ---------------------------------------------------------------------

 SCF Done:  E(RHF) =  -322.580199516     A.U. after    2 cycles

 The electronic state is 1-A.
 Alpha  occ. eigenvalues --  -20.57264 -15.68421 -11.31581 -11.31315 -11.30395
 Alpha  occ. eigenvalues --  -11.25661 -11.25021  -1.37412  -1.24979  -1.06213
 Alpha  occ. eigenvalues --   -0.91995  -0.89944  -0.86180  -0.78661  -0.71904
 Alpha  occ. eigenvalues --   -0.67770  -0.64557  -0.62494  -0.57431  -0.56874
 Alpha  occ. eigenvalues --   -0.52260  -0.51681  -0.47831  -0.44482  -0.39504
 Alpha  occ. eigenvalues --   -0.26661
 Alpha virt. eigenvalues --    0.03246   0.03955   0.04107   0.04759   0.06116
 Alpha virt. eigenvalues --    0.06496   0.07351   0.08250   0.10318   0.10707
 Alpha virt. eigenvalues --    0.12519   0.12893   0.13427   0.14308   0.14389

 Mulliken charges:
               1
     1  C    0.964507
     2  N   -0.208077
     3  C   -0.527190
     4  C    0.831417
     5  C    0.525315
     6  C    0.774585
     7  O   -0.812397
     8  H   -0.327144
     9  H   -0.229496
    10  H   -0.039187
    11  H   -0.306526
    12  H   -0.160870
    13  H   -0.158840
    14  H   -0.326098
 Sum of Mulliken charges =  -0.00000

 Dipole moment (field-independent basis, Debye):
    X=              0.6586    Y=              0.2132    Z=             -1.3315  Tot=              1.5007

 Test job not archived.
 1\1\GINC-SE114\SP\RHF\Aug-CC-pVDZ\C5H7N1O1\OHZDE\09-Apr-2025\0\\#t hf
 aug-cc-pvdz iop(5/13=1,5/36=2,99/5=2) pseudo=read geom=check guess=(re
 ad,tcheck) scf=(maxcycle=1)\\title\\0,1\C,0,-1.98729725,-1.047848,0.26
 690061\N,0,-1.63910263,0.2532931,0.01129864\C,0,-0.33250932,0.15050408
 ,-0.11679435\C,0,0.84699809,0.07379616,0.82984706\C,0,1.75930555,-0.20
 336007,-0.37986665\C,0,0.80311761,0.94472246,-0.75840748\O,0,1.0493483
 8,1.52597258,0.58484361\H,0,-2.66090314,-1.27932586,1.08508629\H,0,-1.
 78595064,-1.7849703,-0.49047539\H,0,-2.2330506,1.0672324,-0.11514261\H

 Normal termination of Gaussian 16 at Wed Apr  9 14:55:15 2025.
