 Gaussian 16, Revision C.01,

 ----------------------------------------------------------------------
 #t hf aug-cc-pvdz symm=none int=(grid=ultrafine) guess=(read,tcheck) s
 table=(opt,rrhf)
 ----------------------------------------------------------------------
 -----
 title
 -----
 Symbolic Z-matrix:
 Charge =  0 Multiplicity = 1

 SCF Done:  E(RHF) =  -302.817144476     A.U. after   15 cycles
 Normal termination of Gaussian 16 at Wed Apr  9 04:05:50 2025.
 Gaussian 16:  ES64L-G16RevC.01  3-Jul-2019

 ----------------------------------------------------------------------
 #t hf aug-cc-pvdz iop(5/13=1,5/36=2,99/5=2) pseudo=read geom=check gue
 ss=(read,tcheck) scf=(maxcycle=1)
 ----------------------------------------------------------------------
 -----
 title
 -----
 Structure from the checkpoint file:  "Grambow2020_wb97xd3_009336_reverse_mol2.chk"
 Charge =  0 Multiplicity = 1

                         Standard orientation:
 ---------------------------------------------------------------------
 Center     Atomic      Atomic             Coordinates (Angstroms)
 Number     Number       Type             X           Y           Z
 ---------------------------------------------------------------------
      1          6           0        2.428168   -0.493092   -0.000418
      2          7           0        1.200893   -0.059080    0.000357
      3          6           0        0.029512   -0.978193   -0.000013
      4          6           0       -1.112189   -0.009350   -0.002383
      5          6           0       -2.545134   -0.407754    0.000662
      6          6           0       -0.542703    1.201437   -0.000694
      7          7           0        0.844103    1.209224    0.001023
      8          1           0        0.075348   -1.611875    0.888394
      9          1           0        2.598681   -1.556890   -0.001647
     10          1           0        3.225129    0.232034    0.001848
     11          1           0        0.077249   -1.615374   -0.885664
     12          1           0       -3.185629    0.474499    0.005510
     13          1           0       -2.800622   -1.007939    0.880042
     14          1           0       -2.807645   -1.003654   -0.879519
     15          1           0       -1.043408    2.159906   -0.001546
 ---------------------------------------------------------------------

 SCF Done:  E(RHF) =  -302.907960976     A.U. after    2 cycles

 The electronic state is 1-A.
 Alpha  occ. eigenvalues --  -15.76695 -15.60576 -11.29551 -11.28005 -11.25721
 Alpha  occ. eigenvalues --  -11.23478 -11.21813  -1.34751  -1.12415  -1.06101
 Alpha  occ. eigenvalues --   -0.97268  -0.90811  -0.79049  -0.76890  -0.70795
 Alpha  occ. eigenvalues --   -0.67029  -0.62906  -0.60122  -0.57504  -0.56806
 Alpha  occ. eigenvalues --   -0.54567  -0.53084  -0.50041  -0.42515  -0.40410
 Alpha  occ. eigenvalues --   -0.24432
 Alpha virt. eigenvalues --    0.02792   0.03756   0.04153   0.04739   0.05916
 Alpha virt. eigenvalues --    0.06524   0.07067   0.08529   0.08848   0.10251
 Alpha virt. eigenvalues --    0.11806   0.12998   0.13654   0.14069   0.14569

 Mulliken charges:
               1
     1  C    0.599103
     2  N    0.134603
     3  C    0.673404
     4  C   -0.814999
     5  C    0.339641
     6  C    1.143519
     7  N   -0.916105
     8  H   -0.091477
     9  H   -0.340350
    10  H   -0.298654
    11  H   -0.092053
    12  H   -0.077250
    13  H    0.043524
    14  H    0.043319
    15  H   -0.346225
 Sum of Mulliken charges =  -0.00000

 Dipole moment (field-independent basis, Debye):
    X=             -0.3576    Y=             -3.0571    Z=              0.0042  Tot=              3.0780

 Test job not archived.
 1\1\GINC-SE184\SP\RHF\Aug-CC-pVDZ\C5H8N2\OHZDE\09-Apr-2025\0\\#t hf au
 g-cc-pvdz iop(5/13=1,5/36=2,99/5=2) pseudo=read geom=check guess=(read
 ,tcheck) scf=(maxcycle=1)\\title\\0,1\C,0,-2.66007913,-0.21868327,0.01
 833927\N,0,-1.42159467,0.16342447,0.139669\C,0,-0.280392,-0.66585185,-
 0.33662984\C,0,0.88923729,0.1940476,0.03036315\C,0,2.30737802,-0.16905
 216,-0.23250814\C,0,0.35779989,1.28169253,0.60038735\N,0,-1.026506,1.2
 9702254,0.68258072\H,0,-0.38946411,-0.83672408,-1.40986123\H,0,-2.8629
 0065,-1.17050035,-0.44388267\H,0,-3.43354331,0.43575001,0.38498535\H,0

 Normal termination of Gaussian 16 at Wed Apr  9 04:05:55 2025.
