 Gaussian 16, Revision C.01,

 ----------------------------------------------------------------------
 #t hf aug-cc-pvdz symm=none int=(grid=ultrafine) guess=(read,tcheck) s
 table=(opt,rrhf)
 ----------------------------------------------------------------------
 -----
 title
 -----
 Symbolic Z-matrix:
 Charge =  0 Multiplicity = 1

 SCF Done:  E(RHF) =  -323.842097020     A.U. after   15 cycles
 Normal termination of Gaussian 16 at Wed Apr  9 15:33:01 2025.
 Gaussian 16:  ES64L-G16RevC.01  3-Jul-2019

 ----------------------------------------------------------------------
 #t hf aug-cc-pvdz iop(5/13=1,5/36=2,99/5=2) pseudo=read geom=check gue
 ss=(read,tcheck) scf=(maxcycle=1)
 ----------------------------------------------------------------------
 -----
 title
 -----
 Structure from the checkpoint file:  "Grambow2020_wb97xd3_006967_reverse_mol2.chk"
 Charge =  0 Multiplicity = 1

                         Standard orientation:
 ---------------------------------------------------------------------
 Center     Atomic      Atomic             Coordinates (Angstroms)
 Number     Number       Type             X           Y           Z
 ---------------------------------------------------------------------
      1          6           0       -3.084153    0.702096   -0.553368
      2          6           0       -3.156481    0.380994    0.730674
      3          6           0        0.372943   -0.532357   -0.050035
      4          8           0       -0.600102   -1.437278   -0.163865
      5          6           0        1.664627   -0.868957   -0.053780
      6          6           0        2.659289    0.139595    0.069624
      7          7           0        3.462578    0.957390    0.168449
      8          1           0       -3.669319    0.182890   -1.303988
      9          1           0       -2.452270    1.511539   -0.902708
     10          1           0        0.537539    3.177696   -0.500164
     11          1           0       -3.802668   -0.415629    1.082088
     12          1           0       -2.584479    0.912155    1.483625
     13          1           0        0.067824    0.506699    0.044196
     14          1           0       -1.457477   -0.990424   -0.134476
     15          1           0        1.205706    2.882610   -0.346858
     16          1           0        1.980552   -1.899260   -0.148627
 ---------------------------------------------------------------------

 SCF Done:  E(RHF) =  -323.949708992     A.U. after    2 cycles

 The electronic state is 1-A.
 Alpha  occ. eigenvalues --  -20.63198 -15.62612 -11.35354 -11.28241 -11.27946
 Alpha  occ. eigenvalues --  -11.27771 -11.27016  -1.40450  -1.18758  -1.07769
 Alpha  occ. eigenvalues --   -1.07014  -0.87720  -0.82855  -0.79610  -0.70929
 Alpha  occ. eigenvalues --   -0.68403  -0.66357  -0.63009  -0.62942  -0.59718
 Alpha  occ. eigenvalues --   -0.56992  -0.54289  -0.53752  -0.50453  -0.45858
 Alpha  occ. eigenvalues --   -0.42482  -0.36365
 Alpha virt. eigenvalues --    0.02751   0.03929   0.04323   0.04509   0.06196
 Alpha virt. eigenvalues --    0.06851   0.07494   0.08324   0.08633   0.09809
 Alpha virt. eigenvalues --    0.10091   0.10844   0.11460   0.12637   0.13230

 Mulliken charges:
               1
     1  C    0.584536
     2  C    0.599677
     3  C    0.695009
     4  O   -0.526284
     5  C    1.329203
     6  C   -0.761458
     7  N   -0.127277
     8  H   -0.287209
     9  H   -0.318943
    10  H   -0.069429
    11  H   -0.284066
    12  H   -0.293700
    13  H   -0.503863
    14  H    0.252990
    15  H    0.089320
    16  H   -0.378506
 Sum of Mulliken charges =  -0.00000

 Dipole moment (field-independent basis, Debye):
    X=             -5.7870    Y=             -0.8852    Z=             -0.1670  Tot=              5.8567

 Test job not archived.
 1\1\GINC-SE454\SP\RHF\Aug-CC-pVDZ\C5H9N1O1\OHZDE\09-Apr-2025\0\\#t hf
 aug-cc-pvdz iop(5/13=1,5/36=2,99/5=2) pseudo=read geom=check guess=(re
 ad,tcheck) scf=(maxcycle=1)\\title\\0,1\C,0,2.57925633,-0.32011942,-0.
 15852238\C,0,2.50353807,0.98839925,-0.35637815\C,0,-1.07772607,-0.0022
 0647,-0.66264704\O,0,-0.29492697,0.04412167,-1.74141189\C,0,-2.4072315
 7,-0.08460681,-0.74858679\C,0,-3.19156086,-0.13218356,0.43645412\N,0,-
 3.82428829,-0.17172027,1.39662131\H,0,3.0993939,-0.97164758,-0.8516260
 7\H,0,2.14186211,-0.7895585,0.71602057\H,0,-0.48455421,-0.78325321,2.9

 Normal termination of Gaussian 16 at Wed Apr  9 15:33:05 2025.
