 Gaussian 16, Revision C.01,

 ----------------------------------------------------------------------
 #t hf aug-cc-pvdz symm=none int=(grid=ultrafine) guess=(read,tcheck) s
 table=(opt,rrhf)
 ----------------------------------------------------------------------
 -----
 title
 -----
 Symbolic Z-matrix:
 Charge =  0 Multiplicity = 1

 SCF Done:  E(RHF) =  -184.501102258     A.U. after   12 cycles
 Normal termination of Gaussian 16 at Wed Apr  9 14:12:51 2025.
 Gaussian 16:  ES64L-G16RevC.01  3-Jul-2019

 ----------------------------------------------------------------------
 #t hf aug-cc-pvdz iop(5/13=1,5/36=2,99/5=2) pseudo=read geom=check gue
 ss=(read,tcheck) scf=(maxcycle=1)
 ----------------------------------------------------------------------
 -----
 title
 -----
 Structure from the checkpoint file:  "Grambow2020_b97d3_006822_reverse_mol2.chk"
 Charge =  0 Multiplicity = 1

                         Standard orientation:
 ---------------------------------------------------------------------
 Center     Atomic      Atomic             Coordinates (Angstroms)
 Number     Number       Type             X           Y           Z
 ---------------------------------------------------------------------
      1          7           0        0.637110    0.000678   -0.000022
      2          6           0        1.836467   -0.000259    0.000025
      3          6           0       -1.836471    0.000305    0.000024
      4          7           0       -0.637107   -0.000717   -0.000020
 ---------------------------------------------------------------------

 SCF Done:  E(RHF) =  -184.557903536     A.U. after    2 cycles

 The electronic state is 1-A.
 Alpha  occ. eigenvalues --  -15.76879 -15.76801 -11.36887 -11.36886  -1.38534
 Alpha  occ. eigenvalues --   -1.22226  -1.03206  -0.67633  -0.67633  -0.54614
 Alpha  occ. eigenvalues --   -0.52613  -0.47151  -0.47151
 Alpha virt. eigenvalues --    0.04840   0.04840   0.06698   0.08658   0.10511
 Alpha virt. eigenvalues --    0.10511   0.11017   0.12139   0.12139   0.13174
 Alpha virt. eigenvalues --    0.22005   0.22006   0.24459   0.24459   0.25724

 Mulliken charges:
               1
     1  N    0.292938
     2  C   -0.292942
     3  C   -0.292922
     4  N    0.292926
 Sum of Mulliken charges =  -0.00000

 Dipole moment (field-independent basis, Debye):
    X=             -0.0000    Y=             -0.0000    Z=             -0.0000  Tot=              0.0001

 Test job not archived.
 1\1\GINC-SE056\SP\RHF\Aug-CC-pVDZ\C2N2\OHZDE\09-Apr-2025\0\\#t hf aug-
 cc-pvdz iop(5/13=1,5/36=2,99/5=2) pseudo=read geom=check guess=(read,t
 check) scf=(maxcycle=1)\\title\\0,1\N,0,-0.61461331,-0.00473397,-0.017
 31835\C,0,-1.77637403,-0.30080133,-0.05071159\C,0,1.78197137,0.6036873
 1,0.05202318\N,0,0.62021597,0.307561,0.01873977\\Version=ES64L-G16RevC
 .01\State=1-A\HF=-184.5579035\RMSD=1.859e-02\Dipole=0.0000153,-0.00000
 31,0.0000132\Quadrupole=-3.8803609,1.7488152,2.1315457,-1.5274926,-0.1
 742176,-0.0442283\PG=C01 [X(C2N2)]\\@

 Normal termination of Gaussian 16 at Wed Apr  9 14:12:53 2025.
