 Gaussian 16, Revision C.01,

 ----------------------------------------------------------------------
 #t hf aug-cc-pvdz symm=none int=(grid=ultrafine) guess=(read,tcheck) s
 table=(opt,rrhf)
 ----------------------------------------------------------------------
 -----
 title
 -----
 Symbolic Z-matrix:
 Charge =  0 Multiplicity = 1

 SCF Done:  E(RHF) =  -308.818349277     A.U. after   15 cycles

 1\1\GINC-SE113\Stability\RHF\Aug-CC-pVDZ\C6H12O1\OHZDE\09-Apr-2025\0\\
 #t hf aug-cc-pvdz symm=none int=(grid=ultrafine) guess=(read,tcheck) s
 table=(opt,rrhf)\\title\\0,1\C,0,1.70878267,0.23186127,-1.40630031\C,0
 ,1.10750841,0.2773192,-0.02293863\O,0,0.82444404,1.62974729,0.38688863
 \C,0,-0.56770499,1.53686326,0.35596268\C,0,-0.32837127,-0.22525193,0.1
 1244343\C,0,-0.84745213,-0.22617293,1.46336405\C,0,-0.90385582,-1.1381
 8191,-0.77754701\H,0,2.6479333,0.78626558,-1.41122496\H,0,1.91506175,-
 0.79864231,-1.69976851\H,0,1.03897737,0.67895185,-2.1428886\H,0,1.7894

 Normal termination of Gaussian 16 at Wed Apr  9 14:34:02 2025.
 Gaussian 16:  ES64L-G16RevC.01  3-Jul-2019

 ----------------------------------------------------------------------
 #t hf aug-cc-pvdz iop(5/13=1,5/36=2,99/5=2) pseudo=read geom=check gue
 ss=(read,tcheck) scf=(maxcycle=1)
 ----------------------------------------------------------------------
 -----
 title
 -----
 Structure from the checkpoint file:  "Grambow2020_wb97xd3_006574_reverse_mol1.chk"
 Charge =  0 Multiplicity = 1

                         Standard orientation:
 ---------------------------------------------------------------------
 Center     Atomic      Atomic             Coordinates (Angstroms)
 Number     Number       Type             X           Y           Z
 ---------------------------------------------------------------------
      1          6           0        1.965416    0.825432   -0.056452
      2          6           0        0.811005   -0.002861   -0.564934
      3          8           0        0.861726   -1.350237   -0.055864
      4          6           0       -0.251882   -1.265786    0.781041
      5          6           0       -0.566285    0.323662    0.008748
      6          6           0       -1.656092   -0.447472   -0.549917
      7          6           0       -0.895064    1.576771    0.536316
      8          1           0        2.904230    0.378677   -0.385738
      9          1           0        1.909885    1.841325   -0.450774
     10          1           0        1.967889    0.872056    1.033920
     11          1           0        0.819278   -0.028044   -1.661103
     12          1           0       -0.036119   -0.972117    1.809475
     13          1           0       -0.847816   -2.177481    0.767430
     14          1           0       -2.219042    0.973632   -1.323458
     15          1           0       -2.567076   -0.543705    0.027514
     16          1           0       -1.481068   -1.196748   -1.311834
     17          1           0       -1.837031    1.659851   -0.920841
     18          1           0       -0.112070    2.248442    0.870160
     19          1           0       -1.837456    1.687522    1.063352
 ---------------------------------------------------------------------

 SCF Done:  E(RHF) =  -308.917367807     A.U. after    2 cycles

 The electronic state is 1-A.
 Alpha  occ. eigenvalues --  -20.58641 -11.33446 -11.30463 -11.29530 -11.26944
 Alpha  occ. eigenvalues --  -11.23048 -11.20105  -1.37405  -1.10351  -1.02792
 Alpha  occ. eigenvalues --   -0.92542  -0.90877  -0.86081  -0.73881  -0.70332
 Alpha  occ. eigenvalues --   -0.68487  -0.64952  -0.61713  -0.61174  -0.58282
 Alpha  occ. eigenvalues --   -0.56676  -0.55070  -0.53156  -0.52328  -0.47672
 Alpha  occ. eigenvalues --   -0.46395  -0.37772  -0.28122
 Alpha virt. eigenvalues --    0.03236   0.04164   0.04285   0.04948   0.05998
 Alpha virt. eigenvalues --    0.06191   0.06484   0.07142   0.07867   0.09201
 Alpha virt. eigenvalues --    0.09562   0.09950   0.10524   0.11344   0.12922

 Mulliken charges:
               1
     1  C    0.433897
     2  C    0.517670
     3  O   -0.763828
     4  C    0.988870
     5  C   -1.445991
     6  C    0.555145
     7  C    0.984340
     8  H   -0.038171
     9  H    0.088129
    10  H    0.013934
    11  H   -0.230680
    12  H   -0.164879
    13  H   -0.250113
    14  H   -0.004551
    15  H   -0.172380
    16  H   -0.211861
    17  H    0.370844
    18  H   -0.378142
    19  H   -0.292233
 Sum of Mulliken charges =  -0.00000

 Dipole moment (field-independent basis, Debye):
    X=             -0.3577    Y=             -1.4062    Z=              0.7605  Tot=              1.6382

 Test job not archived.
 1\1\GINC-SE113\SP\RHF\Aug-CC-pVDZ\C6H12O1\OHZDE\09-Apr-2025\0\\#t hf a
 ug-cc-pvdz iop(5/13=1,5/36=2,99/5=2) pseudo=read geom=check guess=(rea
 d,tcheck) scf=(maxcycle=1)\\title\\0,1\C,0,1.70878267,0.23186127,-1.40
 630031\C,0,1.10750841,0.2773192,-0.02293863\O,0,0.82444404,1.62974729,
 0.38688863\C,0,-0.56770499,1.53686326,0.35596268\C,0,-0.32837127,-0.22
 525193,0.11244343\C,0,-0.84745213,-0.22617293,1.46336405\C,0,-0.903855
 82,-1.13818191,-0.77754701\H,0,2.6479333,0.78626558,-1.41122496\H,0,1.
 91506175,-0.79864231,-1.69976851\H,0,1.03897737,0.67895185,-2.1428886\

 Normal termination of Gaussian 16 at Wed Apr  9 14:34:10 2025.
