 Gaussian 16, Revision C.01,

 ----------------------------------------------------------------------
 #t hf aug-cc-pvdz symm=none int=(grid=ultrafine) guess=(read,tcheck) s
 table=(opt,rrhf)
 ----------------------------------------------------------------------
 -----
 title
 -----
 Symbolic Z-matrix:
 Charge =  0 Multiplicity = 1

 SCF Done:  E(RHF) =  -338.427467738     A.U. after   17 cycles
 Normal termination of Gaussian 16 at Wed Apr  9 16:33:01 2025.
 Gaussian 16:  ES64L-G16RevC.01  3-Jul-2019

 ----------------------------------------------------------------------
 #t hf aug-cc-pvdz iop(5/13=1,5/36=2,99/5=2) pseudo=read geom=check gue
 ss=(read,tcheck) scf=(maxcycle=1)
 ----------------------------------------------------------------------
 -----
 title
 -----
 Structure from the checkpoint file:  "Grambow2020_wb97xd3_008552_reverse_mol1.chk"
 Charge =  0 Multiplicity = 1

                         Standard orientation:
 ---------------------------------------------------------------------
 Center     Atomic      Atomic             Coordinates (Angstroms)
 Number     Number       Type             X           Y           Z
 ---------------------------------------------------------------------
      1          6           0       -1.800895   -0.467380   -0.359778
      2          6           0       -0.935765    0.457191    0.272831
      3          7           0       -0.304591    1.359999   -0.440392
      4          8           0        1.105303    1.081910   -0.062830
      5          6           0        1.000853   -0.183356    0.449217
      6          7           0        0.976997   -1.194892   -0.589253
      7          6           0       -0.096693   -0.309396    1.246527
      8          1           0       -2.086225   -0.233470   -1.381230
      9          1           0       -0.260176   -1.189266   -0.809749
     10          1           0       -2.511439   -1.044277    0.223904
     11          1           0        1.189185   -2.130762   -0.256111
     12          1           0        1.557517   -0.957219   -1.391882
     13          1           0       -0.443129   -1.238386    1.672444
 ---------------------------------------------------------------------

 SCF Done:  E(RHF) =  -338.526115998     A.U. after    2 cycles

 The electronic state is 1-A.
 Alpha  occ. eigenvalues --  -20.59659 -15.76271 -15.63209 -11.35819 -11.31014
 Alpha  occ. eigenvalues --  -11.26757 -11.23856  -1.40120  -1.26148  -1.14462
 Alpha  occ. eigenvalues --   -1.04468  -0.94091  -0.82311  -0.78369  -0.74473
 Alpha  occ. eigenvalues --   -0.71631  -0.69551  -0.63829  -0.60531  -0.58787
 Alpha  occ. eigenvalues --   -0.54223  -0.51593  -0.46390  -0.41028  -0.33294
 Alpha  occ. eigenvalues --   -0.29893
 Alpha virt. eigenvalues --    0.01067   0.03177   0.04204   0.04271   0.05371
 Alpha virt. eigenvalues --    0.06790   0.07113   0.09384   0.10066   0.11145
 Alpha virt. eigenvalues --    0.12147   0.13120   0.13477   0.14463   0.14908

 Mulliken charges:
               1
     1  C    0.345414
     2  C    0.297194
     3  N   -0.463250
     4  O   -0.725726
     5  C    0.689664
     6  N   -0.519983
     7  C    0.302775
     8  H   -0.221499
     9  H    0.591415
    10  H   -0.292941
    11  H    0.163242
    12  H    0.111015
    13  H   -0.277321
 Sum of Mulliken charges =  -0.00000

 Dipole moment (field-independent basis, Debye):
    X=              1.4590    Y=             -7.0435    Z=             -0.8580  Tot=              7.2440

 Test job not archived.
 1\1\GINC-SE100\SP\RHF\Aug-CC-pVDZ\C4H6N2O1\OHZDE\09-Apr-2025\0\\#t hf
 aug-cc-pvdz iop(5/13=1,5/36=2,99/5=2) pseudo=read geom=check guess=(re
 ad,tcheck) scf=(maxcycle=1)\\title\\0,1\C,0,-1.58683732,0.03879541,0.3
 0111031\C,0,-0.79423486,0.18230211,-0.86278999\N,0,-0.4234089,-0.87897
 165,-1.53978019\O,0,1.05249104,-0.70759169,-1.54586519\C,0,1.22355487,
 0.17767768,-0.51579978\N,0,1.20701046,-0.47661155,0.77796348\C,0,0.287
 75656,1.16733001,-0.54847141\H,0,-2.05145614,-0.93202374,0.44646977\H,
 0,-0.03453405,-0.45053878,0.97067269\H,0,-2.10519004,0.89429411,0.7227

 Normal termination of Gaussian 16 at Wed Apr  9 16:33:05 2025.
