 Gaussian 16, Revision C.01,

 ----------------------------------------------------------------------
 #t hf aug-cc-pvdz symm=none int=(grid=ultrafine) guess=(read,tcheck) s
 table=(opt,rrhf)
 ----------------------------------------------------------------------
 -----
 title
 -----
 Symbolic Z-matrix:
 Charge =  0 Multiplicity = 1

 SCF Done:  E(RHF) =  -306.468761000     A.U. after   17 cycles
 Normal termination of Gaussian 16 at Wed Apr  9 16:22:16 2025.
 Gaussian 16:  ES64L-G16RevC.01  3-Jul-2019

 ----------------------------------------------------------------------
 #t hf aug-cc-pvdz iop(5/13=1,5/36=2,99/5=2) pseudo=read geom=check gue
 ss=(read,tcheck) scf=(maxcycle=1)
 ----------------------------------------------------------------------
 -----
 title
 -----
 Structure from the checkpoint file:  "Grambow2020_wb97xd3_008159_forward_mol1.chk"
 Charge =  0 Multiplicity = 1

                         Standard orientation:
 ---------------------------------------------------------------------
 Center     Atomic      Atomic             Coordinates (Angstroms)
 Number     Number       Type             X           Y           Z
 ---------------------------------------------------------------------
      1          8           0        2.285010   -0.100277   -0.229357
      2          6           0        1.210039    0.487871    0.276217
      3          6           0       -0.545096    1.279377   -0.445352
      4          6           0       -1.136598    0.413709    0.663912
      5          6           0       -1.719851   -0.667999   -0.261593
      6          6           0       -0.267142   -0.781805   -0.587516
      7          6           0        0.176246   -0.432879    0.802684
      8          1           0        2.230666   -1.073928   -0.201613
      9          1           0       -1.143916    1.313672   -1.356363
     10          1           0       -0.145429    2.257778   -0.217754
     11          1           0       -1.671568    0.843719    1.510284
     12          1           0       -2.101871   -1.548316    0.262467
     13          1           0       -2.421837   -0.332111   -1.028519
     14          1           0        0.279586   -1.265281   -1.390238
     15          1           0        0.388694   -1.182960    1.566475
 ---------------------------------------------------------------------

 SCF Done:  E(RHF) =  -306.558867838     A.U. after    2 cycles

 The electronic state is 1-A.
 Alpha  occ. eigenvalues --  -20.60960 -11.29099 -11.28557 -11.26983 -11.26031
 Alpha  occ. eigenvalues --  -11.25126 -11.24840  -1.37623  -1.20276  -0.97242
 Alpha  occ. eigenvalues --   -0.93597  -0.85041  -0.83034  -0.74777  -0.69725
 Alpha  occ. eigenvalues --   -0.68987  -0.64350  -0.61591  -0.58937  -0.53701
 Alpha  occ. eigenvalues --   -0.50443  -0.50043  -0.46982  -0.46407  -0.36342
 Alpha  occ. eigenvalues --   -0.29004
 Alpha virt. eigenvalues --    0.03012   0.03781   0.04253   0.04668   0.06081
 Alpha virt. eigenvalues --    0.06600   0.07002   0.07924   0.08922   0.10284
 Alpha virt. eigenvalues --    0.12086   0.12910   0.13020   0.13634   0.13889

 Mulliken charges:
               1
     1  O   -0.444766
     2  C    0.023983
     3  C    0.619454
     4  C    0.440702
     5  C    0.667722
     6  C    0.355900
     7  C    0.392329
     8  H    0.153449
     9  H   -0.297089
    10  H   -0.299308
    11  H   -0.346194
    12  H   -0.175060
    13  H   -0.229357
    14  H   -0.557123
    15  H   -0.304641
 Sum of Mulliken charges =  -0.00000

 Dipole moment (field-independent basis, Debye):
    X=             -2.1047    Y=             -2.3974    Z=              0.1812  Tot=              3.1953

 Test job not archived.
 1\1\GINC-SE129\SP\RHF\Aug-CC-pVDZ\C6H8O1\OHZDE\09-Apr-2025\0\\#t hf au
 g-cc-pvdz iop(5/13=1,5/36=2,99/5=2) pseudo=read geom=check guess=(read
 ,tcheck) scf=(maxcycle=1)\\title\\0,1\O,0,2.29470821,1.01838997,-0.654
 60894\C,0,1.47720698,-0.02402967,-0.70084567\C,0,0.43625986,-1.1741046
 4,0.64874607\C,0,-0.70511116,-0.89532968,-0.3255625\C,0,-1.45031748,0.
 10696233,0.57272133\C,0,-0.14570331,0.81194451,0.39801169\C,0,0.061773
 64,0.29717791,-0.99589229\H,0,1.83448656,1.86573092,-0.80268961\H,0,0.
 13931325,-1.1828085,1.69824661\H,0,1.1415137,-1.96855407,0.44806968\H,

 Normal termination of Gaussian 16 at Wed Apr  9 16:22:21 2025.
