 Gaussian 16, Revision C.01,

 ----------------------------------------------------------------------
 #t hf aug-cc-pvdz symm=none int=(grid=ultrafine) guess=(read,tcheck) s
 table=(opt,rrhf)
 ----------------------------------------------------------------------
 -----
 title
 -----
 Symbolic Z-matrix:
 Charge =  0 Multiplicity = 1

 SCF Done:  E(RHF) =  -322.602248480     A.U. after   16 cycles
 Normal termination of Gaussian 16 at Wed Apr  9 15:35:04 2025.
 Gaussian 16:  ES64L-G16RevC.01  3-Jul-2019

 ----------------------------------------------------------------------
 #t hf aug-cc-pvdz iop(5/13=1,5/36=2,99/5=2) pseudo=read geom=check gue
 ss=(read,tcheck) scf=(maxcycle=1)
 ----------------------------------------------------------------------
 -----
 title
 -----
 Structure from the checkpoint file:  "Grambow2020_wb97xd3_007015_forward_mol1.chk"
 Charge =  0 Multiplicity = 1

                         Standard orientation:
 ---------------------------------------------------------------------
 Center     Atomic      Atomic             Coordinates (Angstroms)
 Number     Number       Type             X           Y           Z
 ---------------------------------------------------------------------
      1          6           0       -2.130076   -0.460012    0.076037
      2          6           0       -0.640355   -0.421418    0.127170
      3          6           0        0.273114   -1.389289   -0.301055
      4          6           0        1.540731   -0.830268   -0.170888
      5          7           0        1.524844    0.436282    0.281348
      6          6           0        0.152580    0.856737   -0.029957
      7          8           0       -0.199611    1.946753   -0.327110
      8          1           0       -2.507334   -1.467321    0.248609
      9          1           0       -2.467638   -0.126830   -0.908119
     10          1           0       -2.566716    0.212665    0.813384
     11          1           0       -0.078337   -0.187887    1.554157
     12          1           0        0.049620   -2.418151   -0.541409
     13          1           0        2.481700   -1.359528   -0.248871
     14          1           0        0.835726    0.184555    1.521853
 ---------------------------------------------------------------------

 SCF Done:  E(RHF) =  -322.699104906     A.U. after    2 cycles

 The electronic state is 1-A.
 Alpha  occ. eigenvalues --  -20.58971 -15.65715 -11.38666 -11.31301 -11.30637
 Alpha  occ. eigenvalues --  -11.26485 -11.26167  -1.39891  -1.26245  -1.08908
 Alpha  occ. eigenvalues --   -0.99325  -0.93558  -0.79064  -0.75154  -0.71400
 Alpha  occ. eigenvalues --   -0.70670  -0.63945  -0.63564  -0.59668  -0.58145
 Alpha  occ. eigenvalues --   -0.56078  -0.53974  -0.50372  -0.43116  -0.40509
 Alpha  occ. eigenvalues --   -0.37983
 Alpha virt. eigenvalues --    0.02509   0.03332   0.03539   0.05028   0.06054
 Alpha virt. eigenvalues --    0.06864   0.08071   0.08569   0.08975   0.11207
 Alpha virt. eigenvalues --    0.12133   0.12316   0.12831   0.13488   0.14073

 Mulliken charges:
               1
     1  C    0.681121
     2  C   -0.982625
     3  C    0.684202
     4  C    0.581280
     5  N   -0.826270
     6  C    0.191381
     7  O   -0.428077
     8  H   -0.004361
     9  H    0.144019
    10  H    0.010888
    11  H    0.193545
    12  H   -0.346112
    13  H   -0.243659
    14  H    0.344669
 Sum of Mulliken charges =  -0.00000

 Dipole moment (field-independent basis, Debye):
    X=             -1.3793    Y=             -4.5890    Z=              0.2538  Tot=              4.7985

 Test job not archived.
 1\1\GINC-SE174\SP\RHF\Aug-CC-pVDZ\C5H7N1O1\OHZDE\09-Apr-2025\0\\#t hf
 aug-cc-pvdz iop(5/13=1,5/36=2,99/5=2) pseudo=read geom=check guess=(re
 ad,tcheck) scf=(maxcycle=1)\\title\\0,1\C,0,-1.86184385,0.22374417,0.0
 0932732\C,0,-0.37649846,0.09519156,-0.01510779\C,0,0.58367337,0.964640
 59,0.51091936\C,0,1.81740185,0.33906769,0.35967031\N,0,1.73507127,-0.8
 8232926,-0.19740165\C,0,0.33215568,-1.23922688,0.05009117\O,0,-0.09374
 564,-2.32551913,0.24770603\H,0,-2.17200045,1.2637222,-0.08567098\H,0,-
 2.24391401,-0.16737789,0.95514304\H,0,-2.3203125,-0.35683674,-0.790398

 Normal termination of Gaussian 16 at Wed Apr  9 15:35:11 2025.
