 Gaussian 16, Revision C.01,

 ----------------------------------------------------------------------
 #t hf aug-cc-pvdz symm=none int=(grid=ultrafine) guess=(read,tcheck) s
 table=(opt,rrhf)
 ----------------------------------------------------------------------
 -----
 title
 -----
 Symbolic Z-matrix:
 Charge =  0 Multiplicity = 1

 SCF Done:  E(RHF) =  -283.636320505     A.U. after   15 cycles
 Normal termination of Gaussian 16 at Wed Apr  9 03:09:46 2025.
 Gaussian 16:  ES64L-G16RevC.01  3-Jul-2019

 ----------------------------------------------------------------------
 #t hf aug-cc-pvdz iop(5/13=1,5/36=2,99/5=2) pseudo=read geom=check gue
 ss=(read,tcheck) scf=(maxcycle=1)
 ----------------------------------------------------------------------
 -----
 title
 -----
 Structure from the checkpoint file:  "Grambow2020_b97d3_006722_reverse_mol2.chk"
 Charge =  0 Multiplicity = 1

                         Standard orientation:
 ---------------------------------------------------------------------
 Center     Atomic      Atomic             Coordinates (Angstroms)
 Number     Number       Type             X           Y           Z
 ---------------------------------------------------------------------
      1          6           0        0.472276    1.142455   -0.034434
      2          6           0        1.547778    0.094419    0.169244
      3          8           0        1.425589   -1.092533   -0.077974
      4          6           0       -1.244477   -0.795407   -0.293963
      5          7           0       -1.669781   -0.160558    0.715812
      6          6           0       -0.901663    0.610632   -0.391601
      7          1           0        0.429113    1.770204    0.874029
      8          1           0        0.846075    1.815502   -0.827573
      9          1           0        2.512698    0.497731    0.565485
     10          1           0       -1.230003   -1.807962   -0.690931
     11          1           0       -1.517602    1.276096   -1.003383
 ---------------------------------------------------------------------

 SCF Done:  E(RHF) =  -283.719395870     A.U. after    2 cycles

 The electronic state is 1-A.
 Alpha  occ. eigenvalues --  -20.58567 -15.65284 -11.36170 -11.31052 -11.29446
 Alpha  occ. eigenvalues --  -11.26839  -1.36540  -1.27400  -1.04285  -0.87167
 Alpha  occ. eigenvalues --   -0.79510  -0.77906  -0.70387  -0.66161  -0.63575
 Alpha  occ. eigenvalues --   -0.61130  -0.59212  -0.53830  -0.50913  -0.46305
 Alpha  occ. eigenvalues --   -0.40821  -0.39583
 Alpha virt. eigenvalues --    0.02977   0.03972   0.04459   0.05344   0.06491
 Alpha virt. eigenvalues --    0.08948   0.09592   0.10022   0.11308   0.12908
 Alpha virt. eigenvalues --    0.13180   0.14120   0.14623   0.15146   0.15543

 Mulliken charges:
               1
     1  C   -0.189890
     2  C    0.558475
     3  O   -0.438090
     4  C    0.561502
     5  N   -0.645208
     6  C    0.652805
     7  H    0.040182
     8  H    0.051685
     9  H   -0.134037
    10  H   -0.164448
    11  H   -0.292977
 Sum of Mulliken charges =  -0.00000

 Dipole moment (field-independent basis, Debye):
    X=              1.0937    Y=              2.4955    Z=             -1.5496  Tot=              3.1345

 Test job not archived.
 1\1\GINC-SE083\SP\RHF\Aug-CC-pVDZ\C4H5N1O1\OHZDE\09-Apr-2025\0\\#t hf
 aug-cc-pvdz iop(5/13=1,5/36=2,99/5=2) pseudo=read geom=check guess=(re
 ad,tcheck) scf=(maxcycle=1)\\title\\0,1\C,0,-0.92873913,-0.09809884,-0
 .05422329\C,0,-0.37608596,-0.28765138,-1.45251263\O,0,0.79800356,-0.46
 926799,-1.72349491\C,0,1.51150101,0.28259193,0.7644392\N,0,0.93488111,
 1.37470791,1.04435786\C,0,0.10511087,0.06223621,1.04284546\H,0,-1.6214
 0071,0.76276821,-0.07331018\H,0,-1.57120991,-0.97560126,0.14328294\H,0
 ,-1.15029891,-0.2646121,-2.25923519\H,0,2.49693653,-0.08856048,0.49199

 Normal termination of Gaussian 16 at Wed Apr  9 03:09:52 2025.
