 Gaussian 16, Revision C.01,

 ----------------------------------------------------------------------
 #t hf aug-cc-pvdz symm=none int=(grid=ultrafine) guess=(read,tcheck) s
 table=(opt,rrhf)
 ----------------------------------------------------------------------
 -----
 title
 -----
 Symbolic Z-matrix:
 Charge =  0 Multiplicity = 1

 SCF Done:  E(RHF) =  -338.661487570     A.U. after   15 cycles
 Normal termination of Gaussian 16 at Wed Apr  9 03:59:37 2025.
 Gaussian 16:  ES64L-G16RevC.01  3-Jul-2019

 ----------------------------------------------------------------------
 #t hf aug-cc-pvdz iop(5/13=1,5/36=2,99/5=2) pseudo=read geom=check gue
 ss=(read,tcheck) scf=(maxcycle=1)
 ----------------------------------------------------------------------
 -----
 title
 -----
 Structure from the checkpoint file:  "Grambow2020_wb97xd3_008802_reverse_mol2.chk"
 Charge =  0 Multiplicity = 1

                         Standard orientation:
 ---------------------------------------------------------------------
 Center     Atomic      Atomic             Coordinates (Angstroms)
 Number     Number       Type             X           Y           Z
 ---------------------------------------------------------------------
      1          7           0        1.949767   -0.623189    0.088804
      2          6           0        0.616631   -0.575546    0.051785
      3          6           0       -0.062769    0.746423    0.385281
      4          8           0        0.350578    1.781109   -0.466451
      5          7           0       -1.451312    0.365261    0.252255
      6          6           0       -1.461151   -0.950939   -0.142962
      7          6           0       -0.253269   -1.628648   -0.207686
      8          1           0        2.498049    0.218122    0.055228
      9          1           0        2.382894   -1.495101   -0.164191
     10          1           0        0.203294    2.625619   -0.037245
     11          1           0       -2.122266    1.030249   -0.093858
     12          1           0       -2.439959   -1.369976   -0.366344
     13          1           0        0.147526    0.999977    1.432087
 ---------------------------------------------------------------------

 SCF Done:  E(RHF) =  -338.762479074     A.U. after    2 cycles

 The electronic state is 1-A.
 Alpha  occ. eigenvalues --  -20.61384 -15.65666 -15.64719 -11.35204 -11.31129
 Alpha  occ. eigenvalues --  -11.30174 -11.14907  -1.37729  -1.24824  -1.20610
 Alpha  occ. eigenvalues --   -1.00927  -0.96997  -0.81941  -0.78493  -0.76079
 Alpha  occ. eigenvalues --   -0.73408  -0.70324  -0.64386  -0.61176  -0.57947
 Alpha  occ. eigenvalues --   -0.54368  -0.52219  -0.49281  -0.46652  -0.30218
 Alpha  occ. eigenvalues --   -0.29424
 Alpha virt. eigenvalues --    0.01931   0.03421   0.04376   0.04813   0.06455
 Alpha virt. eigenvalues --    0.07120   0.08244   0.10639   0.11672   0.11823
 Alpha virt. eigenvalues --    0.13040   0.13796   0.14186   0.14973   0.16529

 Mulliken charges:
               1
     1  N   -0.321550
     2  C    0.521115
     3  C    1.109506
     4  O   -0.622510
     5  N   -0.451099
     6  C    0.792935
     7  C   -0.701554
     8  H   -0.023512
     9  H   -0.009961
    10  H    0.184707
    11  H   -0.062347
    12  H   -0.294932
    13  H   -0.120798
 Sum of Mulliken charges =  -0.00000

 Dipole moment (field-independent basis, Debye):
    X=              0.4148    Y=              5.6975    Z=              1.5117  Tot=              5.9092

 Test job not archived.
 1\1\GINC-SE184\SP\RHF\Aug-CC-pVDZ\C4H6N2O1\OHZDE\09-Apr-2025\0\\#t hf
 aug-cc-pvdz iop(5/13=1,5/36=2,99/5=2) pseudo=read geom=check guess=(re
 ad,tcheck) scf=(maxcycle=1)\\title\\0,1\N,0,-1.64173835,1.22518159,0.0
 3361801\C,0,-0.37793974,0.79658154,0.0365324\C,0,-0.12532584,-0.688383
 6,0.26340107\O,0,-0.76525736,-1.48475213,-0.69741235\N,0,1.31960231,-0
 .7162126,0.21400191\C,0,1.72830387,0.56867381,-0.05190067\C,0,0.770239
 54,1.57018966,-0.09110202\H,0,-2.40434199,0.58459249,-0.09914634\H,0,-
 1.79205626,2.20299398,-0.14838017\H,0,-0.89104688,-2.3682034,-0.346985

 Normal termination of Gaussian 16 at Wed Apr  9 03:59:41 2025.
