 Gaussian 16, Revision C.01,

 ----------------------------------------------------------------------
 #t hf aug-cc-pvdz symm=none int=(grid=ultrafine) guess=(read,tcheck) s
 table=(opt,rrhf)
 ----------------------------------------------------------------------
 -----
 title
 -----
 Symbolic Z-matrix:
 Charge =  0 Multiplicity = 1

 SCF Done:  E(RHF) =  -232.788974385     A.U. after   15 cycles
 Normal termination of Gaussian 16 at Wed Apr  9 14:17:26 2025.
 Gaussian 16:  ES64L-G16RevC.01  3-Jul-2019

 ----------------------------------------------------------------------
 #t hf aug-cc-pvdz iop(5/13=1,5/36=2,99/5=2) pseudo=read geom=check gue
 ss=(read,tcheck) scf=(maxcycle=1)
 ----------------------------------------------------------------------
 -----
 title
 -----
 Structure from the checkpoint file:  "Grambow2020_b97d3_006949_forward_mol1.chk"
 Charge =  0 Multiplicity = 1

                         Standard orientation:
 ---------------------------------------------------------------------
 Center     Atomic      Atomic             Coordinates (Angstroms)
 Number     Number       Type             X           Y           Z
 ---------------------------------------------------------------------
      1          6           0       -2.100394    0.100640   -0.337077
      2          6           0       -0.871393   -0.144188    0.509737
      3          6           0        0.389304    1.379644    0.070137
      4          6           0        1.799527    0.652947   -0.155365
      5          6           0        1.532917   -0.678057   -0.199495
      6          6           0        0.092054   -1.247879    0.115632
      7          1           0       -2.862960   -0.676678   -0.170110
      8          1           0       -1.846196    0.092162   -1.407432
      9          1           0       -2.557474    1.072854   -0.103159
     10          1           0       -1.062021   -0.072251    1.585808
     11          1           0       -0.038737    1.461686   -0.926243
     12          1           0        0.330937    2.312061    0.638364
     13          1           0        0.789709    0.603059    0.811596
     14          1           0        2.271463   -1.409114   -0.535415
     15          1           0       -0.255239   -1.740357   -0.806203
     16          1           0        0.178425   -2.022055    0.891379
 ---------------------------------------------------------------------

 SCF Done:  E(RHF) =  -232.857176057     A.U. after    2 cycles

 The electronic state is 1-A.
 Alpha  occ. eigenvalues --  -11.29643 -11.28533 -11.25558 -11.25413 -11.23963
 Alpha  occ. eigenvalues --  -11.21798  -1.13317  -1.03394  -0.96962  -0.89881
 Alpha  occ. eigenvalues --   -0.79483  -0.71606  -0.66995  -0.62615  -0.61026
 Alpha  occ. eigenvalues --   -0.58124  -0.56759  -0.53932  -0.52104  -0.50023
 Alpha  occ. eigenvalues --   -0.45121  -0.34091  -0.29658
 Alpha virt. eigenvalues --    0.02785   0.04093   0.04196   0.04729   0.06215
 Alpha virt. eigenvalues --    0.06351   0.06709   0.07359   0.07531   0.09429
 Alpha virt. eigenvalues --    0.10637   0.11769   0.12751   0.13724   0.14621

 Mulliken charges:
               1
     1  C    0.457592
     2  C   -0.145422
     3  C    0.223532
     4  C   -0.891480
     5  C    0.321272
     6  C    0.060673
     7  H   -0.025376
     8  H   -0.046522
     9  H   -0.034186
    10  H   -0.333585
    11  H   -0.134054
    12  H   -0.192038
    13  H    1.162592
    14  H   -0.328757
    15  H   -0.054402
    16  H   -0.039840
 Sum of Mulliken charges =  -0.00000

 Dipole moment (field-independent basis, Debye):
    X=             -4.4535    Y=             -1.0832    Z=              0.6500  Tot=              4.6292

 Test job not archived.
 1\1\GINC-SE016\SP\RHF\Aug-CC-pVDZ\C6H10\OHZDE\09-Apr-2025\0\\#t hf aug
 -cc-pvdz iop(5/13=1,5/36=2,99/5=2) pseudo=read geom=check guess=(read,
 tcheck) scf=(maxcycle=1)\\title\\0,1\C,0,1.870598,-0.15080103,-0.10833
 803\C,0,0.52793554,-0.21409033,0.58500773\C,0,-0.69661319,-1.17196231,
 -0.71408039\C,0,-2.02288059,-0.27271004,-0.71940731\C,0,-1.70485058,0.
 86883432,-0.0558311\C,0,-0.31650678,1.04267461,0.68062604\H,0,2.622483
 48,0.35226624,0.52031163\H,0,1.79768863,0.40997427,-1.05203511\H,0,2.2
 4727622,-1.15773716,-0.3386263\H,0,0.53496116,-0.82526524,1.49377586\H

 Normal termination of Gaussian 16 at Wed Apr  9 14:17:31 2025.
