 Gaussian 16, Revision C.01,

 ----------------------------------------------------------------------
 #t hf aug-cc-pvdz symm=none int=(grid=ultrafine) guess=(read,tcheck) s
 table=(opt,rrhf)
 ----------------------------------------------------------------------
 -----
 title
 -----
 Symbolic Z-matrix:
 Charge =  0 Multiplicity = 1

 SCF Done:  E(RHF) =  -323.793234498     A.U. after   16 cycles
 Normal termination of Gaussian 16 at Wed Apr  9 16:49:40 2025.
 Gaussian 16:  ES64L-G16RevC.01  3-Jul-2019

 ----------------------------------------------------------------------
 #t hf aug-cc-pvdz iop(5/13=1,5/36=2,99/5=2) pseudo=read geom=check gue
 ss=(read,tcheck) scf=(maxcycle=1)
 ----------------------------------------------------------------------
 -----
 title
 -----
 Structure from the checkpoint file:  "Grambow2020_wb97xd3_008936_reverse_mol1.chk"
 Charge =  0 Multiplicity = 1

                         Standard orientation:
 ---------------------------------------------------------------------
 Center     Atomic      Atomic             Coordinates (Angstroms)
 Number     Number       Type             X           Y           Z
 ---------------------------------------------------------------------
      1          6           0        2.392032   -0.223906    0.356817
      2          6           0        1.253258   -0.140977   -0.584920
      3          6           0       -0.351369   -1.549599   -0.076837
      4          7           0       -0.928627   -0.256074    0.011331
      5          6           0       -2.317608    0.049758    0.209312
      6          6           0        0.085344    0.642486   -0.166604
      7          8           0        0.046232    1.851134   -0.050495
      8          1           0        2.141506   -0.377281    1.413070
      9          1           0        2.814806    0.787649    0.286373
     10          1           0        3.168511   -0.918476    0.039117
     11          1           0        0.608029   -1.361251   -0.807691
     12          1           0       -0.932062   -2.263308   -0.667796
     13          1           0       -0.010268   -1.989018    0.862169
     14          1           0       -2.418970    1.133985    0.173478
     15          1           0       -2.933934   -0.391598   -0.579651
     16          1           0       -2.677032   -0.303826    1.178962
 ---------------------------------------------------------------------

 SCF Done:  E(RHF) =  -323.893126142     A.U. after    2 cycles

 The electronic state is 1-A.
 Alpha  occ. eigenvalues --  -20.52709 -15.65663 -11.35544 -11.31845 -11.28213
 Alpha  occ. eigenvalues --  -11.27912 -11.25204  -1.34530  -1.24624  -1.06547
 Alpha  occ. eigenvalues --   -0.99370  -0.94040  -0.85678  -0.72443  -0.69066
 Alpha  occ. eigenvalues --   -0.67756  -0.66490  -0.60921  -0.59431  -0.58960
 Alpha  occ. eigenvalues --   -0.57979  -0.55574  -0.54402  -0.52890  -0.44134
 Alpha  occ. eigenvalues --   -0.38538  -0.34300
 Alpha virt. eigenvalues --    0.02640   0.03723   0.04061   0.04926   0.06475
 Alpha virt. eigenvalues --    0.06597   0.07129   0.07734   0.08421   0.09217
 Alpha virt. eigenvalues --    0.10008   0.12397   0.12707   0.13125   0.14371

 Mulliken charges:
               1
     1  C    0.572323
     2  C   -0.828446
     3  C    0.628633
     4  N   -0.444407
     5  C    0.743618
     6  C    0.529200
     7  O   -0.527614
     8  H   -0.078590
     9  H    0.099704
    10  H   -0.055668
    11  H    0.236040
    12  H   -0.266811
    13  H   -0.158370
    14  H   -0.219462
    15  H   -0.118609
    16  H   -0.111540
 Sum of Mulliken charges =  -0.00000

 Dipole moment (field-independent basis, Debye):
    X=             -1.0005    Y=             -4.8908    Z=              1.3299  Tot=              5.1662

 Test job not archived.
 1\1\GINC-SE026\SP\RHF\Aug-CC-pVDZ\C5H9N1O1\OHZDE\09-Apr-2025\0\\#t hf
 aug-cc-pvdz iop(5/13=1,5/36=2,99/5=2) pseudo=read geom=check guess=(re
 ad,tcheck) scf=(maxcycle=1)\\title\\0,1\C,0,2.37596187,-0.19443325,0.3
 1536189\C,0,1.25836495,0.73347654,0.03161427\C,0,-0.26931895,-0.172968
 58,-1.25746692\N,0,-0.92672565,0.14215035,-0.03979602\C,0,-2.33637543,
 0.05464374,0.21948535\C,0,0.03449773,0.58127213,0.82647858\O,0,-0.0814
 5139,0.84096466,2.00756052\H,0,2.10873259,-1.24558672,0.47543052\H,0,2
 .73765709,0.18007459,1.28276267\H,0,3.20127284,-0.1087309,-0.39018615\

 Normal termination of Gaussian 16 at Wed Apr  9 16:49:46 2025.
