 Gaussian 16, Revision C.01,

 ----------------------------------------------------------------------
 #t hf aug-cc-pvdz symm=none int=(grid=ultrafine) guess=(read,tcheck) s
 table=(opt,rrhf)
 ----------------------------------------------------------------------
 -----
 title
 -----
 Symbolic Z-matrix:
 Charge =  0 Multiplicity = 1

 SCF Done:  E(RHF) =  -307.734385179     A.U. after   15 cycles

 1\1\GINC-SE138\Stability\RHF\Aug-CC-pVDZ\C6H10O1\OHZDE\09-Apr-2025\0\\
 #t hf aug-cc-pvdz symm=none int=(grid=ultrafine) guess=(read,tcheck) s
 table=(opt,rrhf)\\title\\0,1\C,0,1.72856708,-0.56598453,-0.38683484\C,
 0,0.81068922,0.25774546,0.50805359\C,0,0.04817558,1.38703994,-0.200373
 58\C,0,-1.35353845,0.84532808,-0.02070028\O,0,-1.65115078,-0.27547753,
 -0.80116888\C,0,-1.11764029,-1.309849,0.03028936\C,0,-0.36975758,-0.54
 078352,1.11518228\H,0,2.08990421,-1.45936908,0.12783517\H,0,2.60012453
 ,0.02732292,-0.66989851\H,0,1.2308856,-0.87945671,-1.30659868\H,0,1.41

 Normal termination of Gaussian 16 at Wed Apr  9 16:31:18 2025.
 Gaussian 16:  ES64L-G16RevC.01  3-Jul-2019

 ----------------------------------------------------------------------
 #t hf aug-cc-pvdz iop(5/13=1,5/36=2,99/5=2) pseudo=read geom=check gue
 ss=(read,tcheck) scf=(maxcycle=1)
 ----------------------------------------------------------------------
 -----
 title
 -----
 Structure from the checkpoint file:  "Grambow2020_wb97xd3_008492_reverse_mol1.chk"
 Charge =  0 Multiplicity = 1

                         Standard orientation:
 ---------------------------------------------------------------------
 Center     Atomic      Atomic             Coordinates (Angstroms)
 Number     Number       Type             X           Y           Z
 ---------------------------------------------------------------------
      1          6           0        1.940604   -0.561427   -0.470409
      2          6           0        1.074618    0.260806    0.476089
      3          6           0        0.298826    1.411812   -0.181128
      4          6           0       -1.101608    0.887067    0.051173
      5          8           0       -1.449253   -0.216911   -0.732591
      6          6           0       -0.895492   -1.271751    0.058953
      7          6           0       -0.090032   -0.530596    1.121830
      8          1           0        2.310715   -1.467862    0.014338
      9          1           0        2.807715    0.023994   -0.782101
     10          1           0        1.398952   -0.853229   -1.372286
     11          1           0        1.720162    0.639341    1.270992
     12          1           0        0.443184    2.356418    0.347036
     13          1           0        0.493049    1.581015   -1.243734
     14          1           0       -1.919904    1.611695    0.099572
     15          1           0       -0.274378   -1.950318   -0.533221
     16          1           0       -1.722840   -1.848900    0.482620
     17          1           0       -1.024133    0.467669    1.238463
 ---------------------------------------------------------------------

 SCF Done:  E(RHF) =  -307.826302744     A.U. after    2 cycles

 The electronic state is 1-A.
 Alpha  occ. eigenvalues --  -20.58666 -11.34012 -11.29075 -11.25410 -11.24608
 Alpha  occ. eigenvalues --  -11.24334 -11.23096  -1.37252  -1.11221  -1.00857
 Alpha  occ. eigenvalues --   -0.96876  -0.88148  -0.84196  -0.73079  -0.69549
 Alpha  occ. eigenvalues --   -0.66197  -0.64388  -0.60547  -0.59032  -0.57250
 Alpha  occ. eigenvalues --   -0.56685  -0.51828  -0.50538  -0.49373  -0.46689
 Alpha  occ. eigenvalues --   -0.43117  -0.31600
 Alpha virt. eigenvalues --    0.03271   0.04039   0.04489   0.04934   0.06037
 Alpha virt. eigenvalues --    0.06386   0.06935   0.07092   0.07728   0.09211
 Alpha virt. eigenvalues --    0.10026   0.11437   0.13155   0.13564   0.14033

 Mulliken charges:
               1
     1  C    0.620582
     2  C   -0.226374
     3  C    0.533561
     4  C    0.421839
     5  O   -0.734240
     6  C    1.095912
     7  C   -0.891174
     8  H   -0.058469
     9  H   -0.077141
    10  H   -0.068411
    11  H   -0.218304
    12  H   -0.065671
    13  H   -0.181586
    14  H   -0.271862
    15  H   -0.180961
    16  H   -0.199372
    17  H    0.501670
 Sum of Mulliken charges =   0.00000

 Dipole moment (field-independent basis, Debye):
    X=              0.6566    Y=              1.5227    Z=             -0.8267  Tot=              1.8529

 Test job not archived.
 1\1\GINC-SE138\SP\RHF\Aug-CC-pVDZ\C6H10O1\OHZDE\09-Apr-2025\0\\#t hf a
 ug-cc-pvdz iop(5/13=1,5/36=2,99/5=2) pseudo=read geom=check guess=(rea
 d,tcheck) scf=(maxcycle=1)\\title\\0,1\C,0,1.72856708,-0.56598453,-0.3
 8683484\C,0,0.81068922,0.25774546,0.50805359\C,0,0.04817558,1.38703994
 ,-0.20037358\C,0,-1.35353845,0.84532808,-0.02070028\O,0,-1.65115078,-0
 .27547753,-0.80116888\C,0,-1.11764029,-1.309849,0.03028936\C,0,-0.3697
 5758,-0.54078352,1.11518228\H,0,2.08990421,-1.45936908,0.12783517\H,0,
 2.60012453,0.02732292,-0.66989851\H,0,1.2308856,-0.87945671,-1.3065986

 Normal termination of Gaussian 16 at Wed Apr  9 16:31:24 2025.
