 Gaussian 16, Revision C.01,

 ----------------------------------------------------------------------
 #t hf aug-cc-pvdz symm=none int=(grid=ultrafine) guess=(read,tcheck) s
 table=(opt,rrhf)
 ----------------------------------------------------------------------
 -----
 title
 -----
 Symbolic Z-matrix:
 Charge =  0 Multiplicity = 1

 SCF Done:  E(RHF) =  -306.761764350     A.U. after   15 cycles
 Normal termination of Gaussian 16 at Wed Apr  9 03:58:47 2025.
 Gaussian 16:  ES64L-G16RevC.01  3-Jul-2019

 ----------------------------------------------------------------------
 #t hf aug-cc-pvdz iop(5/13=1,5/36=2,99/5=2) pseudo=read geom=check gue
 ss=(read,tcheck) scf=(maxcycle=1)
 ----------------------------------------------------------------------
 -----
 title
 -----
 Structure from the checkpoint file:  "Grambow2020_wb97xd3_008774_forward_mol2.chk"
 Charge =  0 Multiplicity = 1

                         Standard orientation:
 ---------------------------------------------------------------------
 Center     Atomic      Atomic             Coordinates (Angstroms)
 Number     Number       Type             X           Y           Z
 ---------------------------------------------------------------------
      1          8           0       -2.341259    0.002399   -0.086341
      2          6           0       -1.136389    0.021640    0.018344
      3          6           0       -0.328869   -1.233068    0.276974
      4          6           0        1.062710   -1.159321   -0.341919
      5          6           0        1.806726    0.086656    0.126311
      6          6           0        0.956085    1.316281    0.026389
      7          6           0       -0.373501    1.287773   -0.049268
      8          1           0       -0.249485   -1.334311    1.366475
      9          1           0       -0.901460   -2.088106   -0.082433
     10          1           0        1.635136   -2.057356   -0.101663
     11          1           0        0.968594   -1.127083   -1.431855
     12          1           0        2.129076   -0.030186    1.169041
     13          1           0        2.722693    0.229435   -0.452270
     14          1           0        1.466679    2.275113    0.021677
     15          1           0       -0.961737    2.193541   -0.139223
 ---------------------------------------------------------------------

 SCF Done:  E(RHF) =  -306.855155836     A.U. after    2 cycles

 The electronic state is 1-A.
 Alpha  occ. eigenvalues --  -20.55265 -11.33497 -11.27355 -11.25621 -11.24973
 Alpha  occ. eigenvalues --  -11.24493 -11.24449  -1.34709  -1.13026  -1.03169
 Alpha  occ. eigenvalues --   -0.98865  -0.85619  -0.82318  -0.71215  -0.68974
 Alpha  occ. eigenvalues --   -0.64533  -0.64010  -0.60068  -0.59018  -0.57944
 Alpha  occ. eigenvalues --   -0.54544  -0.51439  -0.49289  -0.48804  -0.41534
 Alpha  occ. eigenvalues --   -0.38319
 Alpha virt. eigenvalues --    0.02867   0.03847   0.04368   0.04738   0.06180
 Alpha virt. eigenvalues --    0.06473   0.06966   0.07593   0.08449   0.11045
 Alpha virt. eigenvalues --    0.12297   0.13306   0.13755   0.14030   0.14279

 Mulliken charges:
               1
     1  O   -0.523505
     2  C   -0.170679
     3  C    0.328964
     4  C    0.415362
     5  C    0.249507
     6  C    0.005876
     7  C    0.676080
     8  H    0.023847
     9  H   -0.039156
    10  H   -0.019899
    11  H   -0.153874
    12  H    0.034386
    13  H   -0.000211
    14  H   -0.401682
    15  H   -0.425017
 Sum of Mulliken charges =  -0.00000

 Dipole moment (field-independent basis, Debye):
    X=              4.6516    Y=             -0.0626    Z=              0.3970  Tot=              4.6690

 Test job not archived.
 1\1\GINC-SE072\SP\RHF\Aug-CC-pVDZ\C6H8O1\OHZDE\09-Apr-2025\0\\#t hf au
 g-cc-pvdz iop(5/13=1,5/36=2,99/5=2) pseudo=read geom=check guess=(read
 ,tcheck) scf=(maxcycle=1)\\title\\0,1\O,0,0.68478768,-2.60526413,0.670
 16695\C,0,0.45727749,-1.46858549,0.32485293\C,0,-0.91398417,-1.0260407
 9,-0.14104873\C,0,-1.18798534,0.43781164,0.18609009\C,0,-0.09317693,1.
 33985208,-0.37335114\C,0,1.27595745,0.82053372,-0.05502358\C,0,1.52324
 061,-0.44294759,0.28673755\H,0,-0.9389337,-1.17823332,-1.22722485\H,0,
 -1.65532348,-1.69717641,0.29267463\H,0,-2.16369132,0.73885723,-0.20021

 Normal termination of Gaussian 16 at Wed Apr  9 03:58:52 2025.
