 Gaussian 16, Revision C.01,

 ----------------------------------------------------------------------
 #t hf aug-cc-pvdz symm=none int=(grid=ultrafine) guess=(read,tcheck) s
 table=(opt,rrhf)
 ----------------------------------------------------------------------
 -----
 title
 -----
 Symbolic Z-matrix:
 Charge =  0 Multiplicity = 1

 SCF Done:  E(RHF) =  -302.843679521     A.U. after   14 cycles
 Normal termination of Gaussian 16 at Wed Apr  9 16:47:11 2025.
 Gaussian 16:  ES64L-G16RevC.01  3-Jul-2019

 ----------------------------------------------------------------------
 #t hf aug-cc-pvdz iop(5/13=1,5/36=2,99/5=2) pseudo=read geom=check gue
 ss=(read,tcheck) scf=(maxcycle=1)
 ----------------------------------------------------------------------
 -----
 title
 -----
 Structure from the checkpoint file:  "Grambow2020_wb97xd3_008882_reverse_mol2.chk"
 Charge =  0 Multiplicity = 1

                         Standard orientation:
 ---------------------------------------------------------------------
 Center     Atomic      Atomic             Coordinates (Angstroms)
 Number     Number       Type             X           Y           Z
 ---------------------------------------------------------------------
      1          6           0       -2.878686   -0.388733   -0.016943
      2          7           0       -1.453987   -0.486711    0.180113
      3          6           0        2.133234   -1.667667   -0.027273
      4          6           0        1.432244   -0.575836    0.014957
      5          6           0        0.728125    0.528869   -0.008844
      6          7           0        1.295833    1.824679   -0.026273
      7          6           0       -0.746221    0.506077   -0.132472
      8          1           0       -3.385243   -0.576282    0.932115
      9          1           0       -3.202585    0.585181   -0.409238
     10          1           0       -3.198058   -1.171432   -0.708487
     11          1           0        2.506118   -2.066171   -0.966008
     12          1           0        2.357251   -2.228202    0.874868
     13          1           0        2.299666    1.805101    0.067511
     14          1           0        0.899264    2.430887    0.678318
     15          1           0       -1.181511    1.438888   -0.522513
 ---------------------------------------------------------------------

 SCF Done:  E(RHF) =  -302.936814471     A.U. after    2 cycles

 The electronic state is 1-A.
 Alpha  occ. eigenvalues --  -15.63237 -15.62396 -11.29072 -11.28824 -11.25775
 Alpha  occ. eigenvalues --  -11.25239 -11.24647  -1.21637  -1.17791  -1.04530
 Alpha  occ. eigenvalues --   -0.97874  -0.91114  -0.81810  -0.69965  -0.68181
 Alpha  occ. eigenvalues --   -0.66549  -0.62505  -0.61545  -0.60662  -0.59219
 Alpha  occ. eigenvalues --   -0.53650  -0.50161  -0.42068  -0.40390  -0.38195
 Alpha  occ. eigenvalues --   -0.31960
 Alpha virt. eigenvalues --    0.03292   0.03841   0.04224   0.04954   0.06178
 Alpha virt. eigenvalues --    0.06788   0.06952   0.08160   0.09855   0.10405
 Alpha virt. eigenvalues --    0.11051   0.12135   0.12933   0.14122   0.14418

 Mulliken charges:
               1
     1  C    0.685928
     2  N   -0.542513
     3  C    0.746862
     4  C   -0.250935
     5  C    0.655497
     6  N   -0.520932
     7  C    0.468230
     8  H   -0.148092
     9  H   -0.083805
    10  H   -0.138636
    11  H   -0.224628
    12  H   -0.224881
    13  H    0.021191
    14  H   -0.019364
    15  H   -0.423921
 Sum of Mulliken charges =  -0.00000

 Dipole moment (field-independent basis, Debye):
    X=              0.0133    Y=              1.4176    Z=              0.4525  Tot=              1.4882

 Test job not archived.
 1\1\GINC-SE097\SP\RHF\Aug-CC-pVDZ\C5H8N2\OHZDE\09-Apr-2025\0\\#t hf au
 g-cc-pvdz iop(5/13=1,5/36=2,99/5=2) pseudo=read geom=check guess=(read
 ,tcheck) scf=(maxcycle=1)\\title\\0,1\C,0,2.54462789,1.01496703,-0.185
 21987\N,0,1.35740885,0.19882474,-0.23640812\C,0,-1.15651847,-2.5413152
 6,0.45469277\C,0,-1.09566977,-1.26942158,0.20200931\C,0,-1.03775864,0.
 02573914,0.01245846\N,0,-2.17689784,0.85817877,-0.09301988\C,0,0.25194
 816,0.751043,0.0029281\H,0,3.06577265,0.94952812,-1.14261838\H,0,2.343
 01319,2.0711064,0.04113375\H,0,3.22066806,0.61449397,0.57335895\H,0,-1

 Normal termination of Gaussian 16 at Wed Apr  9 16:47:17 2025.
