 Gaussian 16, Revision C.01,

 ----------------------------------------------------------------------
 #t hf aug-cc-pvdz symm=none int=(grid=ultrafine) guess=(read,tcheck) s
 table=(opt,rrhf)
 ----------------------------------------------------------------------
 -----
 title
 -----
 Symbolic Z-matrix:
 Charge =  0 Multiplicity = 1

 SCF Done:  E(RHF) =  -284.839844163     A.U. after   14 cycles
 Normal termination of Gaussian 16 at Wed Apr  9 03:05:25 2025.
 Gaussian 16:  ES64L-G16RevC.01  3-Jul-2019

 ----------------------------------------------------------------------
 #t hf aug-cc-pvdz iop(5/13=1,5/36=2,99/5=2) pseudo=read geom=check gue
 ss=(read,tcheck) scf=(maxcycle=1)
 ----------------------------------------------------------------------
 -----
 title
 -----
 Structure from the checkpoint file:  "Grambow2020_b97d3_006550_reverse_mol2.chk"
 Charge =  0 Multiplicity = 1

                         Standard orientation:
 ---------------------------------------------------------------------
 Center     Atomic      Atomic             Coordinates (Angstroms)
 Number     Number       Type             X           Y           Z
 ---------------------------------------------------------------------
      1          8           0        2.805045   -0.420078   -0.183106
      2          6           0        1.550483   -0.229860    0.325630
      3          6           0       -2.550325   -0.730200   -0.095231
      4          7           0       -1.825043    0.254620   -0.448654
      5          6           0       -0.772772    0.683361    0.479654
      6          6           0        0.578101    0.553801   -0.172109
      7          1           0        2.886980    0.108176   -1.001404
      8          1           0        1.422392   -0.813953    1.237667
      9          1           0       -2.442594   -1.273486    0.863087
     10          1           0       -3.337262   -1.080464   -0.774070
     11          1           0       -0.785398    0.121564    1.435028
     12          1           0       -0.975917    1.741600    0.716507
     13          1           0        0.733811    1.112237   -1.099057
 ---------------------------------------------------------------------

 SCF Done:  E(RHF) =  -284.927615485     A.U. after    2 cycles

 The electronic state is 1-A.
 Alpha  occ. eigenvalues --  -20.60700 -15.63537 -11.31119 -11.29081 -11.27591
 Alpha  occ. eigenvalues --  -11.23693  -1.36082  -1.19848  -1.04782  -0.93433
 Alpha  occ. eigenvalues --   -0.82834  -0.78738  -0.70162  -0.66902  -0.64426
 Alpha  occ. eigenvalues --   -0.62319  -0.59575  -0.57456  -0.55238  -0.51483
 Alpha  occ. eigenvalues --   -0.42168  -0.40892  -0.34689
 Alpha virt. eigenvalues --    0.03504   0.03832   0.04569   0.04760   0.06530
 Alpha virt. eigenvalues --    0.07181   0.07962   0.09667   0.11036   0.12501
 Alpha virt. eigenvalues --    0.12703   0.13288   0.14196   0.15077   0.15662

 Mulliken charges:
               1
     1  O   -0.486259
     2  C    0.507411
     3  C    0.539577
     4  N   -0.498123
     5  C    0.372014
     6  C    0.709531
     7  H    0.151662
     8  H   -0.298854
     9  H   -0.177362
    10  H   -0.238120
    11  H   -0.097584
    12  H   -0.026435
    13  H   -0.457459
 Sum of Mulliken charges =   0.00000

 Dipole moment (field-independent basis, Debye):
    X=             -0.6836    Y=             -0.1884    Z=              0.6134  Tot=              0.9376

 Test job not archived.
 1\1\GINC-SE051\SP\RHF\Aug-CC-pVDZ\C4H7N1O1\OHZDE\09-Apr-2025\0\\#t hf
 aug-cc-pvdz iop(5/13=1,5/36=2,99/5=2) pseudo=read geom=check guess=(re
 ad,tcheck) scf=(maxcycle=1)\\title\\0,1\O,0,-2.19014664,-2.0867997,0.1
 9957602\C,0,-1.16405191,-1.23212102,0.4921093\C,0,0.81898803,2.3239904
 4,-0.32380274\N,0,1.04169969,1.15998032,-0.78887513\C,0,0.96527773,0.0
 3412725,0.14892248\C,0,-0.10840579,-0.92868583,-0.28308886\H,0,-2.0426
 4609,-2.44675391,-0.69711456\H,0,-1.302777,-0.8048027,1.48585853\H,0,0
 .58086167,2.53864273,0.73561158\H,0,0.85749442,3.18360018,-1.00377831\

 Normal termination of Gaussian 16 at Wed Apr  9 03:05:29 2025.
