 Gaussian 16, Revision C.01,

 ----------------------------------------------------------------------
 #t hf aug-cc-pvdz symm=none int=(grid=ultrafine) guess=(read,tcheck) s
 table=(opt,rrhf)
 ----------------------------------------------------------------------
 -----
 title
 -----
 Symbolic Z-matrix:
 Charge =  0 Multiplicity = 1

 SCF Done:  E(RHF) =  -307.034134178     A.U. after   12 cycles

 1\1\GINC-SE344\Stability\RHF\Aug-CC-pVDZ\C4H10O2\OHZDE\09-Apr-2025\0\\
 #t hf aug-cc-pvdz symm=none int=(grid=ultrafine) guess=(read,tcheck) s
 table=(opt,rrhf)\\title\\0,1\C,0,0.82692491,-1.64494147,-0.09048498\O,
 0,1.62996773,1.71298778,0.26481224\C,0,0.42573399,1.38248259,-0.407007
 9\C,0,-0.4057426,0.39248711,0.42305149\C,0,-1.66643616,-0.08181329,-0.
 2980632\O,0,0.45081856,-0.6768106,0.88642677\H,0,-0.03216603,-2.244648
 52,-0.43169664\H,0,1.31622432,-1.19822848,-0.97195987\H,0,1.54215803,-
 2.31055767,0.40760753\H,0,0.62108704,0.95392372,-1.41078939\H,0,-0.147

 Normal termination of Gaussian 16 at Wed Apr  9 03:05:56 2025.
 Gaussian 16:  ES64L-G16RevC.01  3-Jul-2019

 ----------------------------------------------------------------------
 #t hf aug-cc-pvdz iop(5/13=1,5/36=2,99/5=2) pseudo=read geom=check gue
 ss=(read,tcheck) scf=(maxcycle=1)
 ----------------------------------------------------------------------
 -----
 title
 -----
 Structure from the checkpoint file:  "Grambow2020_b97d3_006568_reverse_mol2.chk"
 Charge =  0 Multiplicity = 1

                         Standard orientation:
 ---------------------------------------------------------------------
 Center     Atomic      Atomic             Coordinates (Angstroms)
 Number     Number       Type             X           Y           Z
 ---------------------------------------------------------------------
      1          6           0        1.210223   -1.411157    0.414462
      2          8           0       -2.083223   -0.418194   -0.048184
      3          6           0       -1.159232    0.541163    0.438261
      4          6           0        0.098768    0.579813   -0.442865
      5          6           0        1.176069    1.521245    0.093274
      6          8           0        0.555835   -0.771864   -0.679234
      7          1           0        2.176926   -0.938902    0.652306
      8          1           0        0.595242   -1.433618    1.329480
      9          1           0        1.395175   -2.442634    0.091126
     10          1           0       -0.871066    0.336128    1.489129
     11          1           0       -1.649422    1.525427    0.421034
     12          1           0       -0.201454    0.905109   -1.448963
     13          1           0        2.084818    1.460912   -0.520064
     14          1           0        1.440612    1.295768    1.135635
     15          1           0        0.808392    2.556403    0.060577
     16          1           0       -1.515074   -1.130513   -0.409711
 ---------------------------------------------------------------------

 SCF Done:  E(RHF) =  -307.132692239     A.U. after    2 cycles

 The electronic state is 1-A.
 Alpha  occ. eigenvalues --  -20.58172 -20.56470 -11.29909 -11.29205 -11.28670
 Alpha  occ. eigenvalues --  -11.24174  -1.34208  -1.30492  -1.04466  -0.94218
 Alpha  occ. eigenvalues --   -0.91833  -0.79949  -0.71189  -0.68835  -0.65046
 Alpha  occ. eigenvalues --   -0.62503  -0.60679  -0.59534  -0.57281  -0.55775
 Alpha  occ. eigenvalues --   -0.51923  -0.50584  -0.48066  -0.46426  -0.43261
 Alpha virt. eigenvalues --    0.03255   0.04290   0.04649   0.04957   0.06320
 Alpha virt. eigenvalues --    0.06652   0.07000   0.07530   0.08211   0.09771
 Alpha virt. eigenvalues --    0.11799   0.13362   0.13984   0.15212   0.15343

 Mulliken charges:
               1
     1  C    0.828784
     2  O   -0.573765
     3  C    1.013654
     4  C   -0.311808
     5  C    0.574695
     6  O   -0.822690
     7  H   -0.095535
     8  H   -0.101208
     9  H   -0.195683
    10  H   -0.095396
    11  H   -0.123032
    12  H   -0.231673
    13  H   -0.016578
    14  H   -0.011769
    15  H   -0.053949
    16  H    0.215953
 Sum of Mulliken charges =  -0.00000

 Dipole moment (field-independent basis, Debye):
    X=              2.5056    Y=              0.8780    Z=              1.2365  Tot=              2.9288

 Test job not archived.
 1\1\GINC-SE344\SP\RHF\Aug-CC-pVDZ\C4H10O2\OHZDE\09-Apr-2025\0\\#t hf a
 ug-cc-pvdz iop(5/13=1,5/36=2,99/5=2) pseudo=read geom=check guess=(rea
 d,tcheck) scf=(maxcycle=1)\\title\\0,1\C,0,0.82692491,-1.64494147,-0.0
 9048498\O,0,1.62996773,1.71298778,0.26481224\C,0,0.42573399,1.38248259
 ,-0.4070079\C,0,-0.4057426,0.39248711,0.42305149\C,0,-1.66643616,-0.08
 181329,-0.2980632\O,0,0.45081856,-0.6768106,0.88642677\H,0,-0.03216603
 ,-2.24464852,-0.43169664\H,0,1.31622432,-1.19822848,-0.97195987\H,0,1.
 54215803,-2.31055767,0.40760753\H,0,0.62108704,0.95392372,-1.41078939\

 Normal termination of Gaussian 16 at Wed Apr  9 03:06:01 2025.
