 Gaussian 16, Revision C.01,

 ----------------------------------------------------------------------
 #t hf aug-cc-pvdz symm=none int=(grid=ultrafine) guess=(read,tcheck) s
 table=(opt,rrhf)
 ----------------------------------------------------------------------
 -----
 title
 -----
 Symbolic Z-matrix:
 Charge =  0 Multiplicity = 1

 SCF Done:  E(RHF) =  -323.741458467     A.U. after   16 cycles
 Normal termination of Gaussian 16 at Wed Apr  9 15:34:09 2025.
 Gaussian 16:  ES64L-G16RevC.01  3-Jul-2019

 ----------------------------------------------------------------------
 #t hf aug-cc-pvdz iop(5/13=1,5/36=2,99/5=2) pseudo=read geom=check gue
 ss=(read,tcheck) scf=(maxcycle=1)
 ----------------------------------------------------------------------
 -----
 title
 -----
 Structure from the checkpoint file:  "Grambow2020_wb97xd3_006971_forward_mol1.chk"
 Charge =  0 Multiplicity = 1

                         Standard orientation:
 ---------------------------------------------------------------------
 Center     Atomic      Atomic             Coordinates (Angstroms)
 Number     Number       Type             X           Y           Z
 ---------------------------------------------------------------------
      1          6           0        2.432043   -0.878804   -0.062920
      2          6           0        0.927913   -0.818218    0.165894
      3          6           0        0.413121    0.595156    0.419579
      4          8           0        0.680939    1.461642   -0.687352
      5          6           0       -1.055727    0.652729    0.695447
      6          6           0       -1.931560   -0.247308    0.133934
      7          7           0       -2.685811   -0.943790   -0.488606
      8          1           0        2.978649   -0.427262    0.769822
      9          1           0        2.770191   -1.911330   -0.156048
     10          1           0        2.723842   -0.365157   -0.982141
     11          1           0        0.659419   -1.435219    1.027851
     12          1           0        0.405566   -1.236310   -0.699967
     13          1           0        0.919357    0.997074    1.308725
     14          1           0        1.631370    1.571319   -0.770832
     15          1           0       -1.961750    0.375819   -0.858298
     16          1           0       -1.488226    1.523127    1.168327
 ---------------------------------------------------------------------

 SCF Done:  E(RHF) =  -323.839487209     A.U. after    2 cycles

 The electronic state is 1-A.
 Alpha  occ. eigenvalues --  -20.57889 -15.67365 -11.33576 -11.31146 -11.26288
 Alpha  occ. eigenvalues --  -11.24099 -11.23807  -1.33277  -1.24579  -1.07797
 Alpha  occ. eigenvalues --   -1.02174  -0.91311  -0.83013  -0.72866  -0.70369
 Alpha  occ. eigenvalues --   -0.65415  -0.64324  -0.62559  -0.60145  -0.57144
 Alpha  occ. eigenvalues --   -0.55366  -0.53301  -0.51697  -0.49708  -0.47448
 Alpha  occ. eigenvalues --   -0.45468  -0.30392
 Alpha virt. eigenvalues --    0.02993   0.03863   0.04552   0.04609   0.06182
 Alpha virt. eigenvalues --    0.06485   0.07055   0.07533   0.08928   0.09343
 Alpha virt. eigenvalues --    0.10344   0.12093   0.13180   0.13610   0.14096

 Mulliken charges:
               1
     1  C    0.498939
     2  C    0.010082
     3  C    0.341897
     4  O   -0.612503
     5  C    0.986344
     6  C   -0.354082
     7  N   -0.377472
     8  H   -0.045648
     9  H   -0.061067
    10  H   -0.061628
    11  H   -0.079397
    12  H   -0.128602
    13  H   -0.160278
    14  H    0.139920
    15  H    0.199973
    16  H   -0.296478
 Sum of Mulliken charges =   0.00000

 Dipole moment (field-independent basis, Debye):
    X=              2.7294    Y=              0.8823    Z=              0.9582  Tot=              3.0243

 Test job not archived.
 1\1\GINC-SE043\SP\RHF\Aug-CC-pVDZ\C5H9N1O1\OHZDE\09-Apr-2025\0\\#t hf
 aug-cc-pvdz iop(5/13=1,5/36=2,99/5=2) pseudo=read geom=check guess=(re
 ad,tcheck) scf=(maxcycle=1)\\title\\0,1\C,0,2.1406373,-0.03334729,-0.0
 0302495\C,0,0.7296537,0.47287979,0.26398321\C,0,-0.31054536,-0.1117586
 1,-0.686374\O,0,-0.37541532,-1.53779378,-0.58619491\C,0,-1.6893575,0.4
 2185229,-0.46039197\C,0,-2.11953425,0.80468956,0.78894017\N,0,-2.51702
 887,0.98298275,1.90775561\H,0,2.43845731,0.1496822,-1.03933103\H,0,2.8
 6300291,0.47054825,0.63994074\H,0,2.23206982,-1.10401849,0.19509095\H,

 Normal termination of Gaussian 16 at Wed Apr  9 15:34:15 2025.
