 Gaussian 16, Revision C.01,

 ----------------------------------------------------------------------
 #t hf aug-cc-pvdz symm=none int=(grid=ultrafine) guess=(read,tcheck) s
 table=(opt,rrhf)
 ----------------------------------------------------------------------
 -----
 title
 -----
 Symbolic Z-matrix:
 Charge =  0 Multiplicity = 1

 SCF Done:  E(RHF) =  -323.852640051     A.U. after   13 cycles
 Normal termination of Gaussian 16 at Wed Apr  9 16:20:05 2025.
 Gaussian 16:  ES64L-G16RevC.01  3-Jul-2019

 ----------------------------------------------------------------------
 #t hf aug-cc-pvdz iop(5/13=1,5/36=2,99/5=2) pseudo=read geom=check gue
 ss=(read,tcheck) scf=(maxcycle=1)
 ----------------------------------------------------------------------
 -----
 title
 -----
 Structure from the checkpoint file:  "Grambow2020_wb97xd3_008095_reverse_mol2.chk"
 Charge =  0 Multiplicity = 1

                         Standard orientation:
 ---------------------------------------------------------------------
 Center     Atomic      Atomic             Coordinates (Angstroms)
 Number     Number       Type             X           Y           Z
 ---------------------------------------------------------------------
      1          6           0       -3.202230    0.038684    0.017085
      2          6           0       -1.698575   -0.108965   -0.007153
      3          7           0       -0.986196    1.043675   -0.016713
      4          8           0       -1.167753   -1.202715   -0.009479
      5          6           0        2.043123   -0.589351   -0.007929
      6          6           0        3.317171   -0.439292    0.010278
      7          6           0        2.536273    0.839156    0.007111
      8          1           0       -3.622755   -0.572602   -0.780164
      9          1           0       -3.571904   -0.355804    0.963955
     10          1           0       -3.541951    1.067906   -0.096774
     11          1           0        0.020520    0.996855   -0.018134
     12          1           0        1.154219   -1.201828   -0.021625
     13          1           0       -1.432130    1.940112   -0.011763
     14          1           0        4.303973   -0.865734    0.021282
     15          1           0        2.468362    1.427498    0.923108
     16          1           0        2.492492    1.438194   -0.903419
 ---------------------------------------------------------------------

 SCF Done:  E(RHF) =  -323.958115144     A.U. after    2 cycles

 The electronic state is 1-A.
 Alpha  occ. eigenvalues --  -20.53264 -15.64934 -11.36806 -11.24949 -11.24941
 Alpha  occ. eigenvalues --  -11.24776 -11.24635  -1.34953  -1.18168  -1.15133
 Alpha  occ. eigenvalues --   -1.00126  -0.82378  -0.80234  -0.76298  -0.72744
 Alpha  occ. eigenvalues --   -0.68498  -0.67283  -0.62299  -0.60036  -0.59927
 Alpha  occ. eigenvalues --   -0.56616  -0.53226  -0.49839  -0.44239  -0.42036
 Alpha  occ. eigenvalues --   -0.41984  -0.35945
 Alpha virt. eigenvalues --    0.02863   0.04004   0.04436   0.05133   0.05737
 Alpha virt. eigenvalues --    0.06610   0.06676   0.07909   0.10254   0.10511
 Alpha virt. eigenvalues --    0.10909   0.12709   0.13310   0.13657   0.14409

 Mulliken charges:
               1
     1  C    0.435295
     2  C    0.304498
     3  N   -0.044568
     4  O   -0.559659
     5  C    0.349881
     6  C    0.220312
     7  C    0.533512
     8  H    0.025586
     9  H    0.045480
    10  H   -0.120248
    11  H    0.012409
    12  H   -0.369663
    13  H   -0.017550
    14  H   -0.306642
    15  H   -0.254846
    16  H   -0.253797
 Sum of Mulliken charges =  -0.00000

 Dipole moment (field-independent basis, Debye):
    X=             -1.3734    Y=              3.4361    Z=              0.0363  Tot=              3.7006

 Test job not archived.
 1\1\GINC-SE041\SP\RHF\Aug-CC-pVDZ\C5H9N1O1\OHZDE\09-Apr-2025\0\\#t hf
 aug-cc-pvdz iop(5/13=1,5/36=2,99/5=2) pseudo=read geom=check guess=(re
 ad,tcheck) scf=(maxcycle=1)\\title\\0,1\C,0,3.16174435,-0.19962151,0.0
 3822819\C,0,1.66012176,-0.2502677,0.19925769\N,0,0.94907449,0.61612755
 ,-0.56227118\O,0,1.12939714,-1.0321213,0.96417628\C,0,-2.07887891,-0.4
 9939327,0.63386067\C,0,-3.35261434,-0.3680997,0.55381656\C,0,-2.571722
 35,0.54548918,-0.34050112\H,0,3.6127877,-0.11178258,1.02563069\H,0,3.4
 9410688,-1.14457954,-0.39239084\H,0,3.5060176,0.61973722,-0.59248478\H

 Normal termination of Gaussian 16 at Wed Apr  9 16:20:10 2025.
