 Gaussian 16, Revision C.01,

 ----------------------------------------------------------------------
 #t hf aug-cc-pvdz symm=none int=(grid=ultrafine) guess=(read,tcheck) s
 table=(opt,rrhf)
 ----------------------------------------------------------------------
 -----
 title
 -----
 Symbolic Z-matrix:
 Charge =  0 Multiplicity = 1

 SCF Done:  E(RHF) =  -338.653029256     A.U. after   15 cycles
 Normal termination of Gaussian 16 at Wed Apr  9 16:29:01 2025.
 Gaussian 16:  ES64L-G16RevC.01  3-Jul-2019

 ----------------------------------------------------------------------
 #t hf aug-cc-pvdz iop(5/13=1,5/36=2,99/5=2) pseudo=read geom=check gue
 ss=(read,tcheck) scf=(maxcycle=1)
 ----------------------------------------------------------------------
 -----
 title
 -----
 Structure from the checkpoint file:  "Grambow2020_wb97xd3_008473_reverse_mol2.chk"
 Charge =  0 Multiplicity = 1

                         Standard orientation:
 ---------------------------------------------------------------------
 Center     Atomic      Atomic             Coordinates (Angstroms)
 Number     Number       Type             X           Y           Z
 ---------------------------------------------------------------------
      1          7           0       -1.690919   -1.081731    0.035690
      2          6           0       -0.444644   -0.621029    0.069113
      3          6           0       -0.066414    0.817512    0.367050
      4          8           0       -0.946501    1.710681   -0.272969
      5          6           0        1.406296    0.949081    0.084138
      6          6           0        1.801396   -0.308659   -0.095924
      7          7           0        0.661393   -1.278062   -0.090827
      8          1           0       -1.914248   -2.026043   -0.221459
      9          1           0       -2.427174   -0.397159    0.007194
     10          1           0       -0.369440    2.367352   -0.675500
     11          1           0       -0.177744    0.897702    1.463912
     12          1           0        2.766162   -0.762376   -0.276333
     13          1           0        0.721331   -2.267797   -0.274370
 ---------------------------------------------------------------------

 SCF Done:  E(RHF) =  -338.754715978     A.U. after    2 cycles

 The electronic state is 1-A.
 Alpha  occ. eigenvalues --  -20.57621 -15.70065 -15.69344 -11.38338 -11.29831
 Alpha  occ. eigenvalues --  -11.23242 -11.15906  -1.34318  -1.30449  -1.21431
 Alpha  occ. eigenvalues --   -1.02495  -0.95227  -0.82725  -0.80320  -0.77426
 Alpha  occ. eigenvalues --   -0.72758  -0.67734  -0.64997  -0.61849  -0.59012
 Alpha  occ. eigenvalues --   -0.57783  -0.50183  -0.47509  -0.45544  -0.30777
 Alpha  occ. eigenvalues --   -0.29305
 Alpha virt. eigenvalues --    0.01087   0.02976   0.04703   0.05307   0.06567
 Alpha virt. eigenvalues --    0.07287   0.09839   0.10618   0.11502   0.12341
 Alpha virt. eigenvalues --    0.12867   0.13554   0.14018   0.14597   0.15999

 Mulliken charges:
               1
     1  N   -0.206754
     2  C    0.623914
     3  C    0.535287
     4  O   -0.676377
     5  C   -0.602751
     6  C    0.921318
     7  N   -0.387159
     8  H   -0.068785
     9  H    0.031356
    10  H    0.208947
    11  H    0.080879
    12  H   -0.335073
    13  H   -0.124802
 Sum of Mulliken charges =  -0.00000

 Dipole moment (field-independent basis, Debye):
    X=             -4.8587    Y=             -6.4461    Z=             -0.5641  Tot=              8.0919

 Test job not archived.
 1\1\GINC-SE087\SP\RHF\Aug-CC-pVDZ\C4H6N2O1\OHZDE\09-Apr-2025\0\\#t hf
 aug-cc-pvdz iop(5/13=1,5/36=2,99/5=2) pseudo=read geom=check guess=(re
 ad,tcheck) scf=(maxcycle=1)\\title\\0,1\N,0,1.80214291,0.56266846,0.14
 423916\C,0,0.48831155,0.37629186,0.0688887\C,0,-0.22048449,-0.9138602,
 0.4354105\O,0,0.50228856,-2.03140766,-0.02351845\C,0,-1.6520856,-0.765
 87223,-0.00600091\C,0,-1.74512121,0.52089841,-0.33157848\N,0,-0.427716
 54,1.22814936,-0.27143857\H,0,2.24915107,1.40837095,-0.16022254\H,0,2.
 37128088,-0.25883735,0.2570767\H,0,-0.16187828,-2.59226705,-0.43651584

 Normal termination of Gaussian 16 at Wed Apr  9 16:29:05 2025.
