 Gaussian 16, Revision C.01,

 ----------------------------------------------------------------------
 #t hf aug-cc-pvdz symm=none int=(grid=ultrafine) guess=(read,tcheck) s
 table=(opt,rrhf)
 ----------------------------------------------------------------------
 -----
 title
 -----
 Symbolic Z-matrix:
 Charge =  0 Multiplicity = 1

 SCF Done:  E(RHF) =  -345.886005887     A.U. after   16 cycles

 1\1\GINC-SE087\Stability\RHF\Aug-CC-pVDZ\C5H12O2\OHZDE\09-Apr-2025\0\\
 #t hf aug-cc-pvdz symm=none int=(grid=ultrafine) guess=(read,tcheck) s
 table=(opt,rrhf)\\title\\0,1\C,0,-2.15003601,0.36266976,1.6815602\O,0,
 -0.31692522,-0.77299494,0.69331611\C,0,-0.16554913,0.07493149,-0.33312
 569\C,0,-0.49028856,1.46456245,0.12606114\C,0,1.31004299,0.11410508,-0
 .84632867\C,0,1.73351997,-1.28665702,-1.28106323\O,0,1.75649672,-2.188
 2272,-0.21282727\H,0,-2.80206308,1.21815154,1.85288999\H,0,-1.50604635
 ,0.10627477,2.50717789\H,0,-2.62242823,-0.47990895,1.20080997\H,0,-0.7

 Normal termination of Gaussian 16 at Wed Apr  9 16:15:31 2025.
 Gaussian 16:  ES64L-G16RevC.01  3-Jul-2019

 ----------------------------------------------------------------------
 #t hf aug-cc-pvdz iop(5/13=1,5/36=2,99/5=2) pseudo=read geom=check gue
 ss=(read,tcheck) scf=(maxcycle=1)
 ----------------------------------------------------------------------
 -----
 title
 -----
 Structure from the checkpoint file:  "Grambow2020_wb97xd3_008010_reverse_mol1.chk"
 Charge =  0 Multiplicity = 1

                         Standard orientation:
 ---------------------------------------------------------------------
 Center     Atomic      Atomic             Coordinates (Angstroms)
 Number     Number       Type             X           Y           Z
 ---------------------------------------------------------------------
      1          6           0        2.843029   -0.809987    0.047297
      2          8           0        0.473136   -0.860738   -0.040383
      3          6           0        0.292495    0.405859    0.357834
      4          6           0        1.402989    1.254210   -0.184832
      5          6           0       -1.036414    1.010166   -0.199930
      6          6           0       -2.215583    0.160400    0.266889
      7          8           0       -2.172893   -1.136191   -0.254180
      8          1           0        3.817325   -0.323868    0.075186
      9          1           0        2.611314   -1.316632   -0.875592
     10          1           0        2.582926   -1.358465    0.939335
     11          1           0        0.257330    0.530022    1.460550
     12          1           0        1.459584    1.274115   -1.272505
     13          1           0        2.279293    0.421294    0.088413
     14          1           0        1.649701    2.210141    0.281119
     15          1           0       -0.999590    0.999547   -1.292538
     16          1           0       -1.163050    2.041713    0.140709
     17          1           0       -2.236186    0.151643    1.368321
     18          1           0       -3.146518    0.625871   -0.070904
     19          1           0       -1.233173   -1.403845   -0.209149
 ---------------------------------------------------------------------

 SCF Done:  E(RHF) =  -345.995155048     A.U. after    2 cycles

 The electronic state is 1-A.
 Alpha  occ. eigenvalues --  -20.50849 -20.45458 -11.35419 -11.31887 -11.27017
 Alpha  occ. eigenvalues --  -11.25276 -11.21808  -1.27529  -1.22721  -1.04113
 Alpha  occ. eigenvalues --   -1.00770  -0.96123  -0.83498  -0.77281  -0.68108
 Alpha  occ. eigenvalues --   -0.66320  -0.64947  -0.63377  -0.63069  -0.60187
 Alpha  occ. eigenvalues --   -0.57190  -0.56347  -0.52761  -0.50401  -0.49276
 Alpha  occ. eigenvalues --   -0.45395  -0.40664  -0.37217  -0.35201
 Alpha virt. eigenvalues --   -0.00466   0.02089   0.04136   0.04507   0.04737
 Alpha virt. eigenvalues --    0.05856   0.06376   0.06619   0.07315   0.07792
 Alpha virt. eigenvalues --    0.08686   0.09605   0.10536   0.11883   0.13700

 Mulliken charges:
               1
     1  C    0.520032
     2  O   -1.084556
     3  C    0.493003
     4  C    0.260480
     5  C    0.116276
     6  C    0.988701
     7  O   -0.575289
     8  H    0.017032
     9  H    0.079502
    10  H    0.091794
    11  H   -0.240382
    12  H    0.125424
    13  H   -0.502490
    14  H    0.026752
    15  H   -0.132896
    16  H   -0.145592
    17  H   -0.155279
    18  H   -0.126688
    19  H    0.244177
 Sum of Mulliken charges =   0.00000

 Dipole moment (field-independent basis, Debye):
    X=              7.3416    Y=              4.1572    Z=              0.6179  Tot=              8.4595

 Test job not archived.
 1\1\GINC-SE087\SP\RHF\Aug-CC-pVDZ\C5H12O2\OHZDE\09-Apr-2025\0\\#t hf a
 ug-cc-pvdz iop(5/13=1,5/36=2,99/5=2) pseudo=read geom=check guess=(rea
 d,tcheck) scf=(maxcycle=1)\\title\\0,1\C,0,-2.15003601,0.36266976,1.68
 15602\O,0,-0.31692522,-0.77299494,0.69331611\C,0,-0.16554913,0.0749314
 9,-0.33312569\C,0,-0.49028856,1.46456245,0.12606114\C,0,1.31004299,0.1
 1410508,-0.84632867\C,0,1.73351997,-1.28665702,-1.28106323\O,0,1.75649
 672,-2.1882272,-0.21282727\H,0,-2.80206308,1.21815154,1.85288999\H,0,-
 1.50604635,0.10627477,2.50717789\H,0,-2.62242823,-0.47990895,1.2008099

 Normal termination of Gaussian 16 at Wed Apr  9 16:15:56 2025.
