 Gaussian 16, Revision C.01,

 ----------------------------------------------------------------------
 #t hf aug-cc-pvdz symm=none int=(grid=ultrafine) guess=(read,tcheck) s
 table=(opt,rrhf)
 ----------------------------------------------------------------------
 -----
 title
 -----
 Symbolic Z-matrix:
 Charge =  0 Multiplicity = 1

 SCF Done:  E(RHF) =  -308.995097191     A.U. after   13 cycles

 1\1\GINC-SE168\Stability\RHF\Aug-CC-pVDZ\C6H12O1\OHZDE\09-Apr-2025\0\\
 #t hf aug-cc-pvdz symm=none int=(grid=ultrafine) guess=(read,tcheck) s
 table=(opt,rrhf)\\title\\0,1\C,0,-1.43542809,-0.85724028,-0.6845129\C,
 0,-0.93649505,-0.25711899,0.59468897\C,0,-1.50646467,0.79005363,1.1783
 442\C,0,0.23597214,-0.91855176,1.25085378\O,0,0.97237837,-1.86799945,0
 .49532861\C,0,1.62654397,-0.66203567,0.86010141\C,0,2.0130648,0.285515
 56,-0.23514699\H,0,-2.31140711,-0.32305253,-1.05106393\H,0,-0.66382162
 ,-0.8433986,-1.4567396\H,0,-1.69653678,-1.90738709,-0.53477371\H,0,-0.

 Normal termination of Gaussian 16 at Wed Apr  9 16:02:21 2025.
 Gaussian 16:  ES64L-G16RevC.01  3-Jul-2019

 ----------------------------------------------------------------------
 #t hf aug-cc-pvdz iop(5/13=1,5/36=2,99/5=2) pseudo=read geom=check gue
 ss=(read,tcheck) scf=(maxcycle=1)
 ----------------------------------------------------------------------
 -----
 title
 -----
 Structure from the checkpoint file:  "Grambow2020_wb97xd3_007703_reverse_mol2.chk"
 Charge =  0 Multiplicity = 1

                         Standard orientation:
 ---------------------------------------------------------------------
 Center     Atomic      Atomic             Coordinates (Angstroms)
 Number     Number       Type             X           Y           Z
 ---------------------------------------------------------------------
      1          6           0        1.454214   -0.341046    1.239738
      2          6           0        1.029617   -0.301984   -0.196795
      3          6           0        1.809818    0.142270   -1.174555
      4          6           0       -0.329100   -0.839466   -0.525015
      5          8           0       -1.227984   -1.074802    0.547919
      6          6           0       -1.560410   -0.054880   -0.381916
      7          6           0       -1.582443    1.361457    0.108313
      8          1           0        2.469691    0.035826    1.357329
      9          1           0        0.783249    0.248069    1.867951
     10          1           0        1.408237   -1.363540    1.621578
     11          1           0        1.791199    3.297400    0.795546
     12          1           0        1.478785    0.142303   -2.207479
     13          1           0        2.808343    0.513543   -0.977359
     14          1           0        1.657110    2.698231    0.371753
     15          1           0       -0.330708   -1.626075   -1.277852
     16          1           0       -2.388393   -0.326899   -1.035463
     17          1           0       -0.719901    1.585703    0.734173
     18          1           0       -2.488618    1.546606    0.687856
     19          1           0       -1.575300    2.049144   -0.740009
 ---------------------------------------------------------------------

 SCF Done:  E(RHF) =  -309.097695651     A.U. after    2 cycles

 The electronic state is 1-A.
 Alpha  occ. eigenvalues --  -20.58212 -11.29803 -11.29606 -11.25531 -11.23409
 Alpha  occ. eigenvalues --  -11.23040 -11.22952  -1.38469  -1.08351  -1.00845
 Alpha  occ. eigenvalues --   -0.94046  -0.90382  -0.83034  -0.73419  -0.70740
 Alpha  occ. eigenvalues --   -0.65836  -0.61686  -0.59713  -0.58865  -0.57931
 Alpha  occ. eigenvalues --   -0.57090  -0.55655  -0.52806  -0.52242  -0.49575
 Alpha  occ. eigenvalues --   -0.46081  -0.44944  -0.35491
 Alpha virt. eigenvalues --    0.03463   0.04379   0.04431   0.04800   0.05928
 Alpha virt. eigenvalues --    0.06261   0.06399   0.06764   0.08007   0.08954
 Alpha virt. eigenvalues --    0.09493   0.10745   0.12168   0.12581   0.13571

 Mulliken charges:
               1
     1  C    0.514241
     2  C   -0.560780
     3  C    1.134686
     4  C    0.911025
     5  O   -0.815048
     6  C   -0.104535
     7  C    0.452333
     8  H   -0.145286
     9  H    0.026222
    10  H    0.035326
    11  H    0.055558
    12  H   -0.440543
    13  H   -0.417448
    14  H   -0.030535
    15  H   -0.338418
    16  H   -0.318574
    17  H   -0.070801
    18  H    0.039800
    19  H    0.072779
 Sum of Mulliken charges =  -0.00000

 Dipole moment (field-independent basis, Debye):
    X=              0.2703    Y=              1.2000    Z=             -1.3381  Tot=              1.8176

 Test job not archived.
 1\1\GINC-SE168\SP\RHF\Aug-CC-pVDZ\C6H12O1\OHZDE\09-Apr-2025\0\\#t hf a
 ug-cc-pvdz iop(5/13=1,5/36=2,99/5=2) pseudo=read geom=check guess=(rea
 d,tcheck) scf=(maxcycle=1)\\title\\0,1\C,0,-1.43542809,-0.85724028,-0.
 6845129\C,0,-0.93649505,-0.25711899,0.59468897\C,0,-1.50646467,0.79005
 363,1.1783442\C,0,0.23597214,-0.91855176,1.25085378\O,0,0.97237837,-1.
 86799945,0.49532861\C,0,1.62654397,-0.66203567,0.86010141\C,0,2.013064
 8,0.28551556,-0.23514699\H,0,-2.31140711,-0.32305253,-1.05106393\H,0,-
 0.66382162,-0.8433986,-1.4567396\H,0,-1.69653678,-1.90738709,-0.534773

 Normal termination of Gaussian 16 at Wed Apr  9 16:02:29 2025.
