 Gaussian 16, Revision C.01,

 ----------------------------------------------------------------------
 #t hf aug-cc-pvdz symm=none int=(grid=ultrafine) guess=(read,tcheck) s
 table=(opt,rrhf)
 ----------------------------------------------------------------------
 -----
 title
 -----
 Symbolic Z-matrix:
 Charge =  0 Multiplicity = 1

 SCF Done:  E(RHF) =  -307.041955408     A.U. after   12 cycles

 1\1\GINC-SE228\Stability\RHF\Aug-CC-pVDZ\C4H10O2\OHZDE\09-Apr-2025\0\\
 #t hf aug-cc-pvdz symm=none int=(grid=ultrafine) guess=(read,tcheck) s
 table=(opt,rrhf)\\title\\0,1\C,0,2.47195711,-0.58395468,-0.54276867\O,
 0,1.37548129,-0.23625398,0.28577142\C,0,0.2264264,0.17091336,-0.456092
 57\C,0,-0.91752923,0.31250542,0.54831608\C,0,-2.23700022,0.64837278,-0
 .13750975\O,0,-1.08523362,-0.9159691,1.25530833\H,0,2.21919681,-1.4138
 5473,-1.22798319\H,0,2.8126445,0.2752844,-1.14850645\H,0,3.28720992,-0
 .89937817,0.11984139\H,0,-0.03524472,-0.59768866,-1.20785131\H,0,0.417

 Normal termination of Gaussian 16 at Wed Apr  9 03:05:56 2025.
 Gaussian 16:  ES64L-G16RevC.01  3-Jul-2019

 ----------------------------------------------------------------------
 #t hf aug-cc-pvdz iop(5/13=1,5/36=2,99/5=2) pseudo=read geom=check gue
 ss=(read,tcheck) scf=(maxcycle=1)
 ----------------------------------------------------------------------
 -----
 title
 -----
 Structure from the checkpoint file:  "Grambow2020_b97d3_006568_forward_mol2.chk"
 Charge =  0 Multiplicity = 1

                         Standard orientation:
 ---------------------------------------------------------------------
 Center     Atomic      Atomic             Coordinates (Angstroms)
 Number     Number       Type             X           Y           Z
 ---------------------------------------------------------------------
      1          6           0        2.599230   -0.160553    0.157110
      2          8           0        1.333072    0.248902   -0.331586
      3          6           0        0.275319   -0.620619    0.070368
      4          6           0       -1.031040    0.052561   -0.351263
      5          6           0       -2.251168   -0.734085    0.114188
      6          8           0       -1.100259    1.358197    0.221132
      7          1           0        2.617019   -0.201588    1.261710
      8          1           0        2.883328   -1.155052   -0.232169
      9          1           0        3.330937    0.580293   -0.187757
     10          1           0        0.285182   -0.752023    1.169003
     11          1           0        0.384112   -1.614671   -0.402038
     12          1           0       -1.034528    0.115505   -1.457401
     13          1           0       -3.169405   -0.209874   -0.179485
     14          1           0       -2.247419   -0.833697    1.208501
     15          1           0       -2.262908   -1.736818   -0.335148
     16          1           0       -0.202874    1.727308    0.095998
 ---------------------------------------------------------------------

 SCF Done:  E(RHF) =  -307.141141051     A.U. after    2 cycles

 The electronic state is 1-A.
 Alpha  occ. eigenvalues --  -20.58413 -20.56179 -11.29411 -11.29241 -11.28987
 Alpha  occ. eigenvalues --  -11.22804  -1.34723  -1.30564  -1.03598  -0.96170
 Alpha  occ. eigenvalues --   -0.88365  -0.80379  -0.70672  -0.69135  -0.67009
 Alpha  occ. eigenvalues --   -0.64348  -0.59675  -0.57421  -0.54881  -0.53797
 Alpha  occ. eigenvalues --   -0.52701  -0.50905  -0.48435  -0.45084  -0.44286
 Alpha virt. eigenvalues --    0.03316   0.04387   0.04813   0.04985   0.06319
 Alpha virt. eigenvalues --    0.06510   0.07007   0.07799   0.09098   0.09516
 Alpha virt. eigenvalues --    0.11443   0.12762   0.14430   0.15101   0.15839

 Mulliken charges:
               1
     1  C    0.661399
     2  O   -0.694962
     3  C    0.717686
     4  C    0.135060
     5  C    0.395534
     6  O   -0.623577
     7  H   -0.075907
     8  H   -0.052394
     9  H   -0.241434
    10  H   -0.109103
    11  H   -0.161536
    12  H   -0.143851
    13  H   -0.024047
    14  H    0.011877
    15  H    0.008421
    16  H    0.196833
 Sum of Mulliken charges =  -0.00000

 Dipole moment (field-independent basis, Debye):
    X=              1.8126    Y=             -2.2002    Z=              0.0836  Tot=              2.8519

 Test job not archived.
 1\1\GINC-SE228\SP\RHF\Aug-CC-pVDZ\C4H10O2\OHZDE\09-Apr-2025\0\\#t hf a
 ug-cc-pvdz iop(5/13=1,5/36=2,99/5=2) pseudo=read geom=check guess=(rea
 d,tcheck) scf=(maxcycle=1)\\title\\0,1\C,0,2.47195711,-0.58395468,-0.5
 4276867\O,0,1.37548129,-0.23625398,0.28577142\C,0,0.2264264,0.17091336
 ,-0.45609257\C,0,-0.91752923,0.31250542,0.54831608\C,0,-2.23700022,0.6
 4837278,-0.13750975\O,0,-1.08523362,-0.9159691,1.25530833\H,0,2.219196
 81,-1.41385473,-1.22798319\H,0,2.8126445,0.2752844,-1.14850645\H,0,3.2
 8720992,-0.89937817,0.11984139\H,0,-0.03524472,-0.59768866,-1.20785131

 Normal termination of Gaussian 16 at Wed Apr  9 03:06:01 2025.
