 Gaussian 16, Revision C.01,

 ----------------------------------------------------------------------
 #t hf aug-cc-pvdz symm=none int=(grid=ultrafine) guess=(read,tcheck) s
 table=(opt,rrhf)
 ----------------------------------------------------------------------
 -----
 title
 -----
 Symbolic Z-matrix:
 Charge =  0 Multiplicity = 1

 SCF Done:  E(RHF) =  -342.366446283     A.U. after   15 cycles
 Normal termination of Gaussian 16 at Wed Apr  9 16:50:12 2025.
 Gaussian 16:  ES64L-G16RevC.01  3-Jul-2019

 ----------------------------------------------------------------------
 #t hf aug-cc-pvdz iop(5/13=1,5/36=2,99/5=2) pseudo=read geom=check gue
 ss=(read,tcheck) scf=(maxcycle=1)
 ----------------------------------------------------------------------
 -----
 title
 -----
 Structure from the checkpoint file:  "Grambow2020_wb97xd3_008952_reverse_mol1.chk"
 Charge =  0 Multiplicity = 1

                         Standard orientation:
 ---------------------------------------------------------------------
 Center     Atomic      Atomic             Coordinates (Angstroms)
 Number     Number       Type             X           Y           Z
 ---------------------------------------------------------------------
      1          8           0        2.445121   -0.112909    0.117516
      2          6           0        1.263150    0.011298    0.011368
      3          6           0        0.245204   -1.079440   -0.326414
      4          6           0       -0.724183    0.464031   -0.650340
      5          6           0       -1.428387   -0.653260    0.501400
      6          8           0       -2.032658    0.398288   -0.114460
      7          6           0        0.343143    1.205373    0.156270
      8          1           0        0.316487   -1.863357    0.440272
      9          1           0        0.350897   -1.551496   -1.299493
     10          1           0       -1.888948   -1.612640    0.286417
     11          1           0       -1.111619   -0.486970    1.528379
     12          1           0        0.691630    2.107025   -0.346171
     13          1           0        0.148285    1.436393    1.212443
 ---------------------------------------------------------------------

 SCF Done:  E(RHF) =  -342.470375377     A.U. after    2 cycles

 The electronic state is 1-A.
 Alpha  occ. eigenvalues --  -20.62164 -20.58491 -11.37241 -11.36481 -11.31440
 Alpha  occ. eigenvalues --  -11.31135 -11.25740  -1.42607  -1.38113  -1.12070
 Alpha  occ. eigenvalues --   -0.99301  -0.91373  -0.82995  -0.75912  -0.73696
 Alpha  occ. eigenvalues --   -0.69663  -0.67735  -0.66080  -0.64449  -0.59113
 Alpha  occ. eigenvalues --   -0.56963  -0.53538  -0.51949  -0.47533  -0.43536
 Alpha  occ. eigenvalues --   -0.33603
 Alpha virt. eigenvalues --    0.02654   0.04068   0.04495   0.05206   0.06228
 Alpha virt. eigenvalues --    0.06885   0.08916   0.09195   0.10280   0.11325
 Alpha virt. eigenvalues --    0.12888   0.13220   0.13951   0.14154   0.14701

 Mulliken charges:
               1
     1  O   -0.451758
     2  C    0.118453
     3  C    0.213938
     4  C   -0.069896
     5  C    0.877432
     6  O   -0.594906
     7  C    0.390075
     8  H    0.012319
     9  H   -0.124168
    10  H   -0.195215
    11  H   -0.108588
    12  H   -0.072544
    13  H    0.004857
 Sum of Mulliken charges =  -0.00000

 Dipole moment (field-independent basis, Debye):
    X=             -1.8298    Y=             -1.9100    Z=              2.0306  Tot=              3.3347

 Test job not archived.
 1\1\GINC-SE125\SP\RHF\Aug-CC-pVDZ\C5H6O2\OHZDE\09-Apr-2025\0\\#t hf au
 g-cc-pvdz iop(5/13=1,5/36=2,99/5=2) pseudo=read geom=check guess=(read
 ,tcheck) scf=(maxcycle=1)\\title\\0,1\O,0,-2.45796344,-0.42994506,0.54
 983188\C,0,-1.34614955,-0.2936521,0.13868325\C,0,-0.4890409,0.97226388
 ,0.19199665\C,0,0.39892849,-0.03937929,-1.07884208\C,0,1.35764936,0.47
 528179,0.29473917\O,0,1.8013474,-0.03115635,-0.88713751\C,0,-0.3882564
 8,-1.24078167,-0.55313469\H,0,-0.37153836,1.26188678,1.24543175\H,0,-0
 .86800946,1.83315583,-0.35218873\H,0,1.71551854,1.47844282,0.5053172\H

 Normal termination of Gaussian 16 at Wed Apr  9 16:50:18 2025.
