 Gaussian 16, Revision C.01,

 ----------------------------------------------------------------------
 #t hf aug-cc-pvdz symm=none int=(grid=ultrafine) guess=(read,tcheck) s
 table=(opt,rrhf)
 ----------------------------------------------------------------------
 -----
 title
 -----
 Symbolic Z-matrix:
 Charge =  0 Multiplicity = 1

 SCF Done:  E(RHF) =  -344.757136269     A.U. after   15 cycles

 1\1\GINC-SE333\Stability\RHF\Aug-CC-pVDZ\C5H10O2\OHZDE\09-Apr-2025\0\\
 #t hf aug-cc-pvdz symm=none int=(grid=ultrafine) guess=(read,tcheck) s
 table=(opt,rrhf)\\title\\0,1\O,0,0.33904165,-1.17083304,1.31426777\C,0
 ,1.3690434,-0.86928468,0.3966014\C,0,0.77340765,-0.39696421,-0.9395360
 3\C,0,-0.5448261,0.33623063,-0.68335279\C,0,-1.40753826,-0.49649204,0.
 19314469\O,0,-0.61878364,1.01803818,1.50889352\C,0,-0.45135455,1.56315
 926,0.23135831\H,0,0.04303381,-0.22163406,1.65128269\H,0,1.98117173,-1
 .76120914,0.25014786\H,0,2.00720555,-0.08571623,0.81890886\H,0,0.57736

 Normal termination of Gaussian 16 at Wed Apr  9 03:40:42 2025.
 Gaussian 16:  ES64L-G16RevC.01  3-Jul-2019

 ----------------------------------------------------------------------
 #t hf aug-cc-pvdz iop(5/13=1,5/36=2,99/5=2) pseudo=read geom=check gue
 ss=(read,tcheck) scf=(maxcycle=1)
 ----------------------------------------------------------------------
 -----
 title
 -----
 Structure from the checkpoint file:  "Grambow2020_wb97xd3_007543_reverse_mol1.chk"
 Charge =  0 Multiplicity = 1

                         Standard orientation:
 ---------------------------------------------------------------------
 Center     Atomic      Atomic             Coordinates (Angstroms)
 Number     Number       Type             X           Y           Z
 ---------------------------------------------------------------------
      1          8           0       -1.007361   -1.217739    0.240930
      2          6           0       -1.582245   -0.171697   -0.513556
      3          6           0       -0.984819    1.181124   -0.093925
      4          6           0        0.466998    0.986297    0.347906
      5          6           0        0.536310   -0.125583    1.330183
      6          8           0        1.259463   -0.993447   -0.505844
      7          6           0        1.403111    0.383677   -0.706290
      8          1           0       -0.076547   -1.355503   -0.224673
      9          1           0       -2.662703   -0.179110   -0.357882
     10          1           0       -1.391736   -0.350400   -1.577203
     11          1           0       -1.553164    1.600458    0.741856
     12          1           0       -1.041604    1.901870   -0.912029
     13          1           0        0.811218    1.914910    0.827000
     14          1           0       -0.236666   -0.248840    2.078571
     15          1           0        1.504098   -0.521092    1.601102
     16          1           0        2.438289    0.703675   -0.513318
     17          1           0        1.155873    0.700613   -1.730025
 ---------------------------------------------------------------------

 SCF Done:  E(RHF) =  -344.861596959     A.U. after    2 cycles

 The electronic state is 1-A.
 Alpha  occ. eigenvalues --  -20.54987 -20.47893 -11.38236 -11.28193 -11.26711
 Alpha  occ. eigenvalues --  -11.26654 -11.24826  -1.31547  -1.22893  -1.09616
 Alpha  occ. eigenvalues --   -0.99718  -0.90745  -0.85913  -0.77477  -0.71880
 Alpha  occ. eigenvalues --   -0.69656  -0.67011  -0.61982  -0.60025  -0.57960
 Alpha  occ. eigenvalues --   -0.57288  -0.52952  -0.51826  -0.51280  -0.46664
 Alpha  occ. eigenvalues --   -0.45181  -0.38645  -0.37838
 Alpha virt. eigenvalues --    0.02087   0.03445   0.04119   0.04868   0.05127
 Alpha virt. eigenvalues --    0.06113   0.06504   0.06661   0.07419   0.09075
 Alpha virt. eigenvalues --    0.09488   0.11850   0.13094   0.13701   0.13880

 Mulliken charges:
               1
     1  O   -0.776218
     2  C    0.867791
     3  C    0.221028
     4  C   -0.341011
     5  C    1.055511
     6  O   -1.005437
     7  C    0.929754
     8  H    0.547846
     9  H   -0.236195
    10  H   -0.095728
    11  H   -0.102878
    12  H   -0.105347
    13  H   -0.100239
    14  H   -0.215951
    15  H   -0.235674
    16  H   -0.197718
    17  H   -0.209533
 Sum of Mulliken charges =  -0.00000

 Dipole moment (field-independent basis, Debye):
    X=             -0.8206    Y=              4.4796    Z=              2.8645  Tot=              5.3802

 Test job not archived.
 1\1\GINC-SE333\SP\RHF\Aug-CC-pVDZ\C5H10O2\OHZDE\09-Apr-2025\0\\#t hf a
 ug-cc-pvdz iop(5/13=1,5/36=2,99/5=2) pseudo=read geom=check guess=(rea
 d,tcheck) scf=(maxcycle=1)\\title\\0,1\O,0,0.33904165,-1.17083304,1.31
 426777\C,0,1.3690434,-0.86928468,0.3966014\C,0,0.77340765,-0.39696421,
 -0.93953603\C,0,-0.5448261,0.33623063,-0.68335279\C,0,-1.40753826,-0.4
 9649204,0.19314469\O,0,-0.61878364,1.01803818,1.50889352\C,0,-0.451354
 55,1.56315926,0.23135831\H,0,0.04303381,-0.22163406,1.65128269\H,0,1.9
 8117173,-1.76120914,0.25014786\H,0,2.00720555,-0.08571623,0.81890886\H

 Normal termination of Gaussian 16 at Wed Apr  9 03:40:48 2025.
