 Gaussian 16, Revision C.01,

 ----------------------------------------------------------------------
 #t hf aug-cc-pvdz symm=none int=(grid=ultrafine) guess=(read,tcheck) s
 table=(opt,rrhf)
 ----------------------------------------------------------------------
 -----
 title
 -----
 Symbolic Z-matrix:
 Charge =  0 Multiplicity = 1

 SCF Done:  E(RHF) =  -281.157757800     A.U. after   17 cycles
 Normal termination of Gaussian 16 at Wed Apr  9 03:03:33 2025.
 Gaussian 16:  ES64L-G16RevC.01  3-Jul-2019

 ----------------------------------------------------------------------
 #t hf aug-cc-pvdz iop(5/13=1,5/36=2,99/5=2) pseudo=read geom=check gue
 ss=(read,tcheck) scf=(maxcycle=1)
 ----------------------------------------------------------------------
 -----
 title
 -----
 Structure from the checkpoint file:  "Grambow2020_b97d3_006502_forward_mol1.chk"
 Charge =  0 Multiplicity = 1

                         Standard orientation:
 ---------------------------------------------------------------------
 Center     Atomic      Atomic             Coordinates (Angstroms)
 Number     Number       Type             X           Y           Z
 ---------------------------------------------------------------------
      1          8           0        2.066738   -0.649119   -0.005534
      2          6           0        1.127919    0.039637    0.000755
      3          6           0        0.461487    1.250266   -0.000406
      4          6           0       -0.820245    1.213543    0.002570
      5          6           0       -0.867397   -1.053236    0.022032
      6          7           0       -2.022515   -0.742322   -0.016025
      7          1           0       -1.786885    1.687950    0.006741
 ---------------------------------------------------------------------

 SCF Done:  E(RHF) =  -281.239650435     A.U. after    2 cycles

 The electronic state is 1-A.
 Alpha  occ. eigenvalues --  -20.72912 -15.63191 -11.51453 -11.42797 -11.31757
 Alpha  occ. eigenvalues --  -11.25912  -1.51453  -1.18928  -1.14692  -0.94790
 Alpha  occ. eigenvalues --   -0.82867  -0.76725  -0.71985  -0.70212  -0.59841
 Alpha  occ. eigenvalues --   -0.54914  -0.50306  -0.45163  -0.44051  -0.40446
 Alpha virt. eigenvalues --   -0.00627  -0.00074   0.03170   0.05831   0.07369
 Alpha virt. eigenvalues --    0.09463   0.09627   0.10713   0.12030   0.12350
 Alpha virt. eigenvalues --    0.12586   0.14100   0.14498   0.15193   0.15608

 Mulliken charges:
               1
     1  O   -0.167636
     2  C    0.160446
     3  C    0.274448
     4  C    0.561512
     5  C   -0.198994
     6  N   -0.397061
     7  H   -0.232716
 Sum of Mulliken charges =  -0.00000

 Dipole moment (field-independent basis, Debye):
    X=              0.9438    Y=              3.2687    Z=              0.0204  Tot=              3.4023

 Test job not archived.
 1\1\GINC-SE228\SP\RHF\Aug-CC-pVDZ\C4H1N1O1\OHZDE\09-Apr-2025\0\\#t hf
 aug-cc-pvdz iop(5/13=1,5/36=2,99/5=2) pseudo=read geom=check guess=(re
 ad,tcheck) scf=(maxcycle=1)\\title\\0,1\O,0,-1.18252515,-2.18217143,0.
 25152537\C,0,-0.3880449,-1.33847928,0.13842792\C,0,0.89102257,-0.82906
 12,0.01911203\C,0,1.00683422,0.44279633,-0.09560707\C,0,-1.23348282,0.
 77062888,0.02437852\N,0,-0.79043346,1.87088771,-0.13546557\H,0,1.59201
 254,1.34023898,-0.20347221\\Version=ES64L-G16RevC.01\State=1-A\HF=-281
 .2396504\RMSD=5.179e-03\Dipole=1.231218,-0.5249603,-0.0170072\Quadrupo

 Normal termination of Gaussian 16 at Wed Apr  9 03:03:36 2025.
