 Gaussian 16, Revision C.01,

 ----------------------------------------------------------------------
 #t hf aug-cc-pvdz symm=none int=(grid=ultrafine) guess=(read,tcheck) s
 table=(opt,rrhf)
 ----------------------------------------------------------------------
 -----
 title
 -----
 Symbolic Z-matrix:
 Charge =  0 Multiplicity = 1

 SCF Done:  E(RHF) =  -322.556726752     A.U. after   16 cycles
 Normal termination of Gaussian 16 at Wed Apr  9 16:08:04 2025.
 Gaussian 16:  ES64L-G16RevC.01  3-Jul-2019

 ----------------------------------------------------------------------
 #t hf aug-cc-pvdz iop(5/13=1,5/36=2,99/5=2) pseudo=read geom=check gue
 ss=(read,tcheck) scf=(maxcycle=1)
 ----------------------------------------------------------------------
 -----
 title
 -----
 Structure from the checkpoint file:  "Grambow2020_wb97xd3_007798_forward_mol1.chk"
 Charge =  0 Multiplicity = 1

                         Standard orientation:
 ---------------------------------------------------------------------
 Center     Atomic      Atomic             Coordinates (Angstroms)
 Number     Number       Type             X           Y           Z
 ---------------------------------------------------------------------
      1          6           0       -1.984909   -0.429078    0.549412
      2          6           0       -1.082184   -0.305651   -0.525984
      3          6           0       -0.696144    1.030804   -0.585765
      4          7           0        0.449267    1.216094    0.108754
      5          6           0        1.156530   -0.048277    0.033201
      6          8           0        2.299191   -0.188357    0.333958
      7          6           0        0.179860   -1.115040   -0.467470
      8          1           0       -2.211116   -1.405242    0.968128
      9          1           0       -2.794828    0.290644    0.643060
     10          1           0       -1.044722    0.110761    1.491144
     11          1           0       -1.398879    1.855430   -0.644513
     12          1           0       -0.185007    0.789704    1.307412
     13          1           0        0.152629   -1.958621    0.222827
     14          1           0        0.504610   -1.485020   -1.441374
 ---------------------------------------------------------------------

 SCF Done:  E(RHF) =  -322.652818106     A.U. after    2 cycles

 The electronic state is 1-A.
 Alpha  occ. eigenvalues --  -20.57109 -15.67224 -11.37882 -11.31576 -11.31094
 Alpha  occ. eigenvalues --  -11.27094 -11.26644  -1.38195  -1.26560  -1.09374
 Alpha  occ. eigenvalues --   -1.00798  -0.91751  -0.80187  -0.75175  -0.70145
 Alpha  occ. eigenvalues --   -0.69482  -0.65968  -0.62665  -0.60745  -0.58399
 Alpha  occ. eigenvalues --   -0.55264  -0.54314  -0.50449  -0.43709  -0.42673
 Alpha  occ. eigenvalues --   -0.33552
 Alpha virt. eigenvalues --    0.02550   0.03646   0.03974   0.05520   0.06074
 Alpha virt. eigenvalues --    0.06338   0.07256   0.08167   0.09536   0.09765
 Alpha virt. eigenvalues --    0.10354   0.11967   0.13059   0.13773   0.14027

 Mulliken charges:
               1
     1  C    0.390119
     2  C   -0.689458
     3  C    0.876045
     4  N   -0.900893
     5  C    0.459673
     6  O   -0.457630
     7  C    0.370709
     8  H   -0.190579
     9  H   -0.178025
    10  H    0.168252
    11  H   -0.234691
    12  H    0.378640
    13  H   -0.008705
    14  H    0.016542
 Sum of Mulliken charges =  -0.00000

 Dipole moment (field-independent basis, Debye):
    X=             -5.0513    Y=             -1.1170    Z=             -0.5841  Tot=              5.2062

 Test job not archived.
 1\1\GINC-SE041\SP\RHF\Aug-CC-pVDZ\C5H7N1O1\OHZDE\09-Apr-2025\0\\#t hf
 aug-cc-pvdz iop(5/13=1,5/36=2,99/5=2) pseudo=read geom=check guess=(re
 ad,tcheck) scf=(maxcycle=1)\\title\\0,1\C,0,-1.46466466,0.62004059,-0.
 03315529\C,0,-0.3168329,0.31671142,-0.7928245\C,0,0.71192082,1.1290591
 7,-0.32328262\N,0,1.43065134,0.47383616,0.61627291\C,0,1.32400027,-0.9
 3199917,0.27448953\O,0,2.01120222,-1.78276829,0.74320673\C,0,0.1932973
 4,-1.09350333,-0.74431658\H,0,-2.31068666,-0.0607306,-0.01949276\H,0,-
 1.73326054,1.66226578,0.12292433\H,0,-0.80394623,0.33112652,1.2087046\

 Normal termination of Gaussian 16 at Wed Apr  9 16:08:09 2025.
