 Gaussian 16, Revision C.01,

 ----------------------------------------------------------------------
 #t hf aug-cc-pvdz symm=none int=(grid=ultrafine) guess=(read,tcheck) s
 table=(opt,rrhf)
 ----------------------------------------------------------------------
 -----
 title
 -----
 Symbolic Z-matrix:
 Charge =  0 Multiplicity = 1

 SCF Done:  E(RHF) =  -309.044328977     A.U. after   14 cycles

 1\1\GINC-SE162\Stability\RHF\Aug-CC-pVDZ\C6H12O1\OHZDE\09-Apr-2025\0\\
 #t hf aug-cc-pvdz symm=none int=(grid=ultrafine) guess=(read,tcheck) s
 table=(opt,rrhf)\\title\\0,1\C,0,0.50324189,-0.21543335,-2.17855045\C,
 0,0.73134427,-0.2892777,1.17866886\O,0,1.46106932,-0.47131086,2.302645
 87\C,0,0.91011379,0.57431249,0.18284421\C,0,-0.11077867,0.37394951,-0.
 90893829\C,0,-1.14547884,-0.56683396,-0.23923932\C,0,-0.44103219,-1.19
 762107,0.97376003\H,0,1.28300889,0.4364431,-2.57907582\H,0,-0.25280837
 ,-0.35140638,-2.95587846\H,0,0.95737509,-1.18823168,-1.97152339\H,0,2.

 Normal termination of Gaussian 16 at Wed Apr  9 16:36:27 2025.
 Gaussian 16:  ES64L-G16RevC.01  3-Jul-2019

 ----------------------------------------------------------------------
 #t hf aug-cc-pvdz iop(5/13=1,5/36=2,99/5=2) pseudo=read geom=check gue
 ss=(read,tcheck) scf=(maxcycle=1)
 ----------------------------------------------------------------------
 -----
 title
 -----
 Structure from the checkpoint file:  "Grambow2020_wb97xd3_008663_reverse_mol2.chk"
 Charge =  0 Multiplicity = 1

                         Standard orientation:
 ---------------------------------------------------------------------
 Center     Atomic      Atomic             Coordinates (Angstroms)
 Number     Number       Type             X           Y           Z
 ---------------------------------------------------------------------
      1          6           0        2.210269   -0.755575   -0.517323
      2          6           0       -1.086563   -0.209314   -0.116196
      3          8           0       -2.371974   -0.561038   -0.346344
      4          6           0       -0.109567   -0.901038    0.463813
      5          6           0        1.191854   -0.139355    0.441536
      6          6           0        0.745539    1.285345    0.022956
      7          6           0       -0.652669    1.139158   -0.600862
      8          1           0        2.442049   -1.785930   -0.237955
      9          1           0        3.144947   -0.189256   -0.517222
     10          1           0        1.819923   -0.768025   -1.538553
     11          1           0       -2.521120   -1.453392   -0.024855
     12          1           0       -0.665219    0.551723    2.851971
     13          1           0       -0.199993   -1.910916    0.848120
     14          1           0       -0.640305    0.890282    3.517127
     15          1           0        1.643483   -0.107936    1.438849
     16          1           0        1.459951    1.749714   -0.658802
     17          1           0        0.684059    1.922703    0.906445
     18          1           0       -0.638808    1.153672   -1.695108
     19          1           0       -1.346349    1.920348   -0.282810
 ---------------------------------------------------------------------

 SCF Done:  E(RHF) =  -309.144405130     A.U. after    2 cycles

 The electronic state is 1-A.
 Alpha  occ. eigenvalues --  -20.60249 -11.29805 -11.23534 -11.23279 -11.22672
 Alpha  occ. eigenvalues --  -11.21881 -11.21376  -1.36732  -1.12580  -0.99944
 Alpha  occ. eigenvalues --   -0.96094  -0.89291  -0.78736  -0.77621  -0.69468
 Alpha  occ. eigenvalues --   -0.65047  -0.64574  -0.59370  -0.58503  -0.58204
 Alpha  occ. eigenvalues --   -0.55640  -0.53322  -0.52249  -0.50815  -0.47762
 Alpha  occ. eigenvalues --   -0.46914  -0.45986  -0.32884
 Alpha virt. eigenvalues --    0.03342   0.04107   0.04581   0.04938   0.06030
 Alpha virt. eigenvalues --    0.06542   0.06637   0.06989   0.07809   0.09039
 Alpha virt. eigenvalues --    0.09137   0.11141   0.11729   0.13245   0.14124

 Mulliken charges:
               1
     1  C    0.465434
     2  C   -0.382106
     3  O   -0.562091
     4  C    0.988399
     5  C   -0.507533
     6  C    0.638283
     7  C    0.197204
     8  H   -0.082753
     9  H   -0.058189
    10  H   -0.008551
    11  H    0.107639
    12  H    0.106383
    13  H   -0.454908
    14  H   -0.057896
    15  H   -0.124762
    16  H   -0.126664
    17  H   -0.134383
    18  H    0.006423
    19  H   -0.009929
 Sum of Mulliken charges =  -0.00000

 Dipole moment (field-independent basis, Debye):
    X=              0.5680    Y=             -0.7566    Z=              0.3458  Tot=              1.0073

 Test job not archived.
 1\1\GINC-SE162\SP\RHF\Aug-CC-pVDZ\C6H12O1\OHZDE\09-Apr-2025\0\\#t hf a
 ug-cc-pvdz iop(5/13=1,5/36=2,99/5=2) pseudo=read geom=check guess=(rea
 d,tcheck) scf=(maxcycle=1)\\title\\0,1\C,0,0.50324189,-0.21543335,-2.1
 7855045\C,0,0.73134427,-0.2892777,1.17866886\O,0,1.46106932,-0.4713108
 6,2.30264587\C,0,0.91011379,0.57431249,0.18284421\C,0,-0.11077867,0.37
 394951,-0.90893829\C,0,-1.14547884,-0.56683396,-0.23923932\C,0,-0.4410
 3219,-1.19762107,0.97376003\H,0,1.28300889,0.4364431,-2.57907582\H,0,-
 0.25280837,-0.35140638,-2.95587846\H,0,0.95737509,-1.18823168,-1.97152

 Normal termination of Gaussian 16 at Wed Apr  9 16:36:35 2025.
