 Gaussian 16, Revision C.01,

 ----------------------------------------------------------------------
 #t hf aug-cc-pvdz symm=none int=(grid=ultrafine) guess=(read,tcheck) s
 table=(opt,rrhf)
 ----------------------------------------------------------------------
 -----
 title
 -----
 Symbolic Z-matrix:
 Charge =  0 Multiplicity = 1

 SCF Done:  E(RHF) =  -323.712490864     A.U. after   16 cycles
 Normal termination of Gaussian 16 at Wed Apr  9 15:15:07 2025.
 Gaussian 16:  ES64L-G16RevC.01  3-Jul-2019

 ----------------------------------------------------------------------
 #t hf aug-cc-pvdz iop(5/13=1,5/36=2,99/5=2) pseudo=read geom=check gue
 ss=(read,tcheck) scf=(maxcycle=1)
 ----------------------------------------------------------------------
 -----
 title
 -----
 Structure from the checkpoint file:  "Grambow2020_wb97xd3_006822_reverse_mol1.chk"
 Charge =  0 Multiplicity = 1

                         Standard orientation:
 ---------------------------------------------------------------------
 Center     Atomic      Atomic             Coordinates (Angstroms)
 Number     Number       Type             X           Y           Z
 ---------------------------------------------------------------------
      1          6           0       -1.930548   -1.303368    0.234666
      2          6           0       -1.251833   -0.142192   -0.451583
      3          6           0       -0.826520    1.932067    0.403730
      4          6           0        0.512712    1.487658   -0.181668
      5          6           0        0.228209    0.023880   -0.259210
      6          7           0        0.971798   -0.975518   -0.046718
      7          8           0        2.296155   -0.606833    0.150873
      8          1           0       -3.009081   -1.275030    0.077934
      9          1           0       -1.727857   -1.295079    1.306073
     10          1           0       -1.548160   -2.243647   -0.165393
     11          1           0       -1.499962   -0.084640   -1.517175
     12          1           0       -1.723369    0.890361   -0.130873
     13          1           0       -0.846898    1.516037    1.429343
     14          1           0        1.359411    1.700803    0.473744
     15          1           0        0.704401    1.930019   -1.161964
     16          1           0        2.727574   -1.443802    0.332743
 ---------------------------------------------------------------------

 SCF Done:  E(RHF) =  -323.808206437     A.U. after    2 cycles

 The electronic state is 1-A.
 Alpha  occ. eigenvalues --  -20.61388 -15.68443 -11.29927 -11.28133 -11.27766
 Alpha  occ. eigenvalues --  -11.25133 -11.24267  -1.38854  -1.17770  -1.06508
 Alpha  occ. eigenvalues --   -1.02323  -0.88707  -0.82678  -0.75260  -0.70928
 Alpha  occ. eigenvalues --   -0.67015  -0.63415  -0.61748  -0.61137  -0.59207
 Alpha  occ. eigenvalues --   -0.54301  -0.53451  -0.51883  -0.50846  -0.44135
 Alpha  occ. eigenvalues --   -0.39843  -0.34336
 Alpha virt. eigenvalues --    0.03378   0.03908   0.04417   0.04825   0.06404
 Alpha virt. eigenvalues --    0.06868   0.06903   0.07502   0.09035   0.09377
 Alpha virt. eigenvalues --    0.11898   0.12355   0.13282   0.13945   0.14676

 Mulliken charges:
               1
     1  C    0.555826
     2  C   -0.335976
     3  C   -0.250795
     4  C    0.640207
     5  C    0.084883
     6  N   -0.275409
     7  O   -0.512825
     8  H   -0.058673
     9  H   -0.029096
    10  H    0.007803
    11  H   -0.037239
    12  H    0.038276
    13  H    0.073521
    14  H   -0.023721
    15  H   -0.051236
    16  H    0.174454
 Sum of Mulliken charges =  -0.00000

 Dipole moment (field-independent basis, Debye):
    X=              0.0377    Y=             -1.7431    Z=              0.0816  Tot=              1.7454

 Test job not archived.
 1\1\GINC-SE129\SP\RHF\Aug-CC-pVDZ\C5H9N1O1\OHZDE\09-Apr-2025\0\\#t hf
 aug-cc-pvdz iop(5/13=1,5/36=2,99/5=2) pseudo=read geom=check guess=(re
 ad,tcheck) scf=(maxcycle=1)\\title\\0,1\C,0,-1.54201074,-1.37359239,-0
 .23593731\C,0,-0.67403347,-0.24717509,-0.74360012\C,0,-0.57932395,1.90
 050414,0.02679456\C,0,0.88171051,1.4572001,-0.02412252\C,0,0.64835775,
 -0.01691523,-0.0702702\N,0,1.27803742,-0.97114716,0.46807878\O,0,2.451
 50351,-0.54383759,1.07576069\H,0,-2.50067815,-1.3938549,-0.75473093\H,
 0,-1.72081326,-1.27511257,0.83522872\H,0,-1.04071338,-2.32875582,-0.39

 Normal termination of Gaussian 16 at Wed Apr  9 15:15:13 2025.
