 Gaussian 16, Revision C.01,

 ----------------------------------------------------------------------
 #t hf aug-cc-pvdz symm=none int=(grid=ultrafine) guess=(read,tcheck) s
 table=(opt,rrhf)
 ----------------------------------------------------------------------
 -----
 title
 -----
 Symbolic Z-matrix:
 Charge =  0 Multiplicity = 1

 SCF Done:  E(RHF) =  -316.483059147     A.U. after   17 cycles
 Normal termination of Gaussian 16 at Wed Apr  9 15:39:41 2025.
 Gaussian 16:  ES64L-G16RevC.01  3-Jul-2019

 ----------------------------------------------------------------------
 #t hf aug-cc-pvdz iop(5/13=1,5/36=2,99/5=2) pseudo=read geom=check gue
 ss=(read,tcheck) scf=(maxcycle=1)
 ----------------------------------------------------------------------
 -----
 title
 -----
 Structure from the checkpoint file:  "Grambow2020_wb97xd3_007267_reverse_mol2.chk"
 Charge =  0 Multiplicity = 1

                         Standard orientation:
 ---------------------------------------------------------------------
 Center     Atomic      Atomic             Coordinates (Angstroms)
 Number     Number       Type             X           Y           Z
 ---------------------------------------------------------------------
      1          7           0       -2.863563   -0.053810    0.001216
      2          6           0       -1.719717    0.016260   -0.000579
      3          6           0       -0.278884    0.080853   -0.001053
      4          7           0        0.398526    1.226140   -0.000574
      5          6           0        1.734124    0.932285    0.000840
      6          6           0        1.825493   -0.570638    0.000839
      7          7           0        0.441124   -1.023225   -0.000861
      8          1           0        2.361525   -0.918808    0.888096
      9          1           0        2.363432   -0.916924   -0.886101
     10          1           0        0.076334   -1.960560   -0.000747
 ---------------------------------------------------------------------

 SCF Done:  E(RHF) =  -316.573040417     A.U. after    2 cycles

 The electronic state is 1-A.
 Alpha  occ. eigenvalues --  -15.72544 -15.69997 -15.63982 -11.42716 -11.33576
 Alpha  occ. eigenvalues --  -11.30887 -11.28261  -1.36028  -1.24569  -1.18107
 Alpha  occ. eigenvalues --   -1.06349  -0.91405  -0.83713  -0.81060  -0.69312
 Alpha  occ. eigenvalues --   -0.66452  -0.62125  -0.59743  -0.57606  -0.52585
 Alpha  occ. eigenvalues --   -0.49775  -0.46984  -0.42779  -0.35398
 Alpha virt. eigenvalues --    0.01453   0.02541   0.04175   0.04195   0.06385
 Alpha virt. eigenvalues --    0.08802   0.09686   0.10010   0.10581   0.12061
 Alpha virt. eigenvalues --    0.12647   0.13510   0.13891   0.14616   0.15030

 Mulliken charges:
               1
     1  N   -0.008431
     2  C   -0.539634
     3  C    1.126049
     4  N   -0.548455
     5  C   -0.184868
     6  C    0.702738
     7  N   -0.286218
     8  H   -0.082784
     9  H   -0.081895
    10  H   -0.096501
 Sum of Mulliken charges =  -0.00000

 Dipole moment (field-independent basis, Debye):
    X=              0.9853    Y=             -6.0344    Z=             -0.0033  Tot=              6.1143

 Test job not archived.
 1\1\GINC-SE097\SP\RHF\Aug-CC-pVDZ\C4H3N3\OHZDE\09-Apr-2025\0\\#t hf au
 g-cc-pvdz iop(5/13=1,5/36=2,99/5=2) pseudo=read geom=check guess=(read
 ,tcheck) scf=(maxcycle=1)\\title\\0,1\N,0,3.09045792,-1.01936749,0.563
 86838\C,0,2.01782916,-0.76581458,0.25006161\C,0,0.66624917,-0.43178854
 ,-0.12654312\N,0,0.02276964,-1.02324592,-1.12987667\C,0,-1.22826544,-0
 .47757957,-1.21551326\C,0,-1.30345678,0.55465993,-0.12191722\N,0,-0.00
 136749,0.4972276,0.52814412\H,0,-2.11158402,0.31291352,0.57397501\H,0,
 -1.49781764,1.54314036,-0.54745915\H,0,0.34726147,1.0305617,1.30639928

 Normal termination of Gaussian 16 at Wed Apr  9 15:39:45 2025.
