 Gaussian 16, Revision C.01,

 ----------------------------------------------------------------------
 #t hf aug-cc-pvdz symm=none int=(grid=ultrafine) guess=(read,tcheck) s
 table=(opt,rrhf)
 ----------------------------------------------------------------------
 -----
 title
 -----
 Symbolic Z-matrix:
 Charge =  0 Multiplicity = 1

 SCF Done:  E(RHF) =  -302.761756430     A.U. after   16 cycles
 Normal termination of Gaussian 16 at Wed Apr  9 16:47:19 2025.
 Gaussian 16:  ES64L-G16RevC.01  3-Jul-2019

 ----------------------------------------------------------------------
 #t hf aug-cc-pvdz iop(5/13=1,5/36=2,99/5=2) pseudo=read geom=check gue
 ss=(read,tcheck) scf=(maxcycle=1)
 ----------------------------------------------------------------------
 -----
 title
 -----
 Structure from the checkpoint file:  "Grambow2020_wb97xd3_008881_forward_mol1.chk"
 Charge =  0 Multiplicity = 1

                         Standard orientation:
 ---------------------------------------------------------------------
 Center     Atomic      Atomic             Coordinates (Angstroms)
 Number     Number       Type             X           Y           Z
 ---------------------------------------------------------------------
      1          6           0       -2.402808   -0.544672    0.181059
      2          7           0       -1.073838   -0.094871   -0.200834
      3          6           0       -0.656055    1.221213   -0.058708
      4          6           0        0.690350    1.210688    0.081299
      5          6           0        1.141655   -0.143209    0.029546
      6          7           0        2.488229   -0.504800    0.143017
      7          6           0        0.105095   -1.055274   -0.051594
      8          1           0       -3.160129    0.100938   -0.264936
      9          1           0       -2.526109   -1.567924   -0.167386
     10          1           0       -2.491605   -0.529292    1.266616
     11          1           0       -1.356854    2.040797   -0.104544
     12          1           0        1.315559    2.087766    0.179625
     13          1           0        3.113985    0.059771   -0.409255
     14          1           0        2.626772   -1.485583   -0.046927
     15          1           0       -0.691777   -0.641262   -1.138083
 ---------------------------------------------------------------------

 SCF Done:  E(RHF) =  -302.851911533     A.U. after    2 cycles

 The electronic state is 1-A.
 Alpha  occ. eigenvalues --  -15.71140 -15.60904 -11.28985 -11.27551 -11.25691
 Alpha  occ. eigenvalues --  -11.24711 -11.21847  -1.29280  -1.16387  -1.06447
 Alpha  occ. eigenvalues --   -0.97552  -0.92822  -0.79329  -0.75315  -0.70778
 Alpha  occ. eigenvalues --   -0.68154  -0.64888  -0.61427  -0.59781  -0.56094
 Alpha  occ. eigenvalues --   -0.55246  -0.53126  -0.45867  -0.37331  -0.34916
 Alpha  occ. eigenvalues --   -0.28191
 Alpha virt. eigenvalues --    0.02848   0.03622   0.04271   0.04958   0.06008
 Alpha virt. eigenvalues --    0.06619   0.07544   0.08294   0.10864   0.11402
 Alpha virt. eigenvalues --    0.12412   0.13052   0.13292   0.14433   0.14769

 Mulliken charges:
               1
     1  C    0.888817
     2  N   -0.495830
     3  C    0.220197
     4  C    0.616172
     5  C    0.180655
     6  N   -0.360040
     7  C   -0.299973
     8  H   -0.166691
     9  H   -0.170575
    10  H   -0.089865
    11  H   -0.399746
    12  H   -0.386375
    13  H   -0.039798
    14  H    0.011697
    15  H    0.491354
 Sum of Mulliken charges =  -0.00000

 Dipole moment (field-independent basis, Debye):
    X=             -2.1161    Y=              2.6283    Z=             -1.6031  Tot=              3.7358

 Test job not archived.
 1\1\GINC-SE037\SP\RHF\Aug-CC-pVDZ\C5H8N2\OHZDE\09-Apr-2025\0\\#t hf au
 g-cc-pvdz iop(5/13=1,5/36=2,99/5=2) pseudo=read geom=check guess=(read
 ,tcheck) scf=(maxcycle=1)\\title\\0,1\C,0,2.25970106,0.38515621,0.1578
 7238\N,0,0.89551454,0.00944873,-0.17703536\C,0,0.37902455,-1.25312023,
 0.07982388\C,0,-0.96078644,-1.12572742,0.22541571\C,0,-1.30673242,0.24
 98844,0.05986876\N,0,-2.61990557,0.72374238,0.14885803\C,0,-0.20384623
 ,1.06808434,-0.10473697\H,0,2.95953529,-0.3532162,-0.23493425\H,0,2.45
 753751,1.36222968,-0.27784518\H,0,2.35992518,0.45551078,1.24025935\H,0

 Normal termination of Gaussian 16 at Wed Apr  9 16:47:26 2025.
