 Gaussian 16, Revision C.01,

 ----------------------------------------------------------------------
 #t hf aug-cc-pvdz symm=none int=(grid=ultrafine) guess=(read,tcheck) s
 table=(opt,rrhf)
 ----------------------------------------------------------------------
 -----
 title
 -----
 Symbolic Z-matrix:
 Charge =  0 Multiplicity = 1

 SCF Done:  E(RHF) =  -265.001622483     A.U. after   15 cycles
 Normal termination of Gaussian 16 at Wed Apr  9 03:07:54 2025.
 Gaussian 16:  ES64L-G16RevC.01  3-Jul-2019

 ----------------------------------------------------------------------
 #t hf aug-cc-pvdz iop(5/13=1,5/36=2,99/5=2) pseudo=read geom=check gue
 ss=(read,tcheck) scf=(maxcycle=1)
 ----------------------------------------------------------------------
 -----
 title
 -----
 Structure from the checkpoint file:  "Grambow2020_b97d3_006636_reverse_mol2.chk"
 Charge =  0 Multiplicity = 1

                         Standard orientation:
 ---------------------------------------------------------------------
 Center     Atomic      Atomic             Coordinates (Angstroms)
 Number     Number       Type             X           Y           Z
 ---------------------------------------------------------------------
      1          6           0        1.917205   -0.859977    0.022494
      2          6           0        1.281297    0.532242   -0.046738
      3          6           0       -0.232029    0.539870   -0.006580
      4          7           0       -0.838808    1.836411   -0.071032
      5          6           0       -0.944522   -0.580974    0.066630
      6          7           0       -1.627242   -1.604897   -0.142150
      7          1           0        1.582513   -1.487562   -0.814527
      8          1           0        1.648669   -1.372233    0.957077
      9          1           0        3.011939   -0.784948   -0.022549
     10          1           0        1.658724    1.151548    0.787777
     11          1           0        1.590123    1.048852   -0.969816
     12          1           0       -1.873002   -2.111575    0.724788
     13          1           0       -1.853329    1.769836   -0.160089
     14          1           0       -0.635002    2.378523    0.774781
 ---------------------------------------------------------------------

 SCF Done:  E(RHF) =  -265.081937896     A.U. after    2 cycles

 The electronic state is 1-A.
 Alpha  occ. eigenvalues --  -15.64451 -15.63522 -11.30794 -11.28661 -11.25025
 Alpha  occ. eigenvalues --  -11.23234  -1.20203  -1.16467  -1.04335  -0.94402
 Alpha  occ. eigenvalues --   -0.85776  -0.72422  -0.67926  -0.66364  -0.62390
 Alpha  occ. eigenvalues --   -0.60311  -0.53680  -0.51978  -0.50985  -0.50456
 Alpha  occ. eigenvalues --   -0.45999  -0.44099  -0.31064
 Alpha virt. eigenvalues --    0.03020   0.04025   0.04211   0.05223   0.06572
 Alpha virt. eigenvalues --    0.06953   0.07590   0.08326   0.10445   0.12497
 Alpha virt. eigenvalues --    0.12991   0.13179   0.14219   0.15171   0.15419

 Mulliken charges:
               1
     1  C    0.444706
     2  C   -0.034286
     3  C    0.851810
     4  N   -0.534085
     5  C   -0.448637
     6  N   -0.298249
     7  H    0.004038
     8  H    0.012345
     9  H   -0.102624
    10  H   -0.021950
    11  H   -0.010254
    12  H    0.094235
    13  H    0.021170
    14  H    0.021780
 Sum of Mulliken charges =  -0.00000

 Dipole moment (field-independent basis, Debye):
    X=              0.4570    Y=              0.8117    Z=              2.3807  Tot=              2.5564

 Test job not archived.
 1\1\GINC-SE129\SP\RHF\Aug-CC-pVDZ\C4H8N2\OHZDE\09-Apr-2025\0\\#t hf au
 g-cc-pvdz iop(5/13=1,5/36=2,99/5=2) pseudo=read geom=check guess=(read
 ,tcheck) scf=(maxcycle=1)\\title\\0,1\C,0,-1.80713649,0.09508025,0.073
 33674\C,0,-0.62616348,-0.79309502,-0.33150209\C,0,0.73304292,-0.140809
 76,-0.19399728\N,0,1.84588784,-0.96150181,-0.57002035\C,0,0.87832054,1
 .11139816,0.23046361\N,0,1.0218435,2.34500859,0.35584216\H,0,-1.839501
 25,1.00855047,-0.53576864\H,0,-1.73405679,0.39499712,1.12816975\H,0,-2
 .75572341,-0.44116217,-0.06351484\H,0,-0.6358423,-1.71772463,0.2746099

 Normal termination of Gaussian 16 at Wed Apr  9 03:07:58 2025.
