 Gaussian 16, Revision C.01,

 ----------------------------------------------------------------------
 #t hf aug-cc-pvdz symm=none int=(grid=ultrafine) guess=(read,tcheck) s
 table=(opt,rrhf)
 ----------------------------------------------------------------------
 -----
 title
 -----
 Symbolic Z-matrix:
 Charge =  0 Multiplicity = 1

 SCF Done:  E(RHF) =  -307.791468824     A.U. after   15 cycles

 1\1\GINC-SE042\Stability\RHF\Aug-CC-pVDZ\C6H10O1\OHZDE\09-Apr-2025\0\\
 #t hf aug-cc-pvdz symm=none int=(grid=ultrafine) guess=(read,tcheck) s
 table=(opt,rrhf)\\title\\0,1\C,0,1.84723141,-0.5594999,0.19067415\C,0,
 0.51423151,0.11285182,0.46757546\C,0,0.14834737,1.2910388,-0.45817216\
 C,0,-1.3599152,1.37162154,-0.58064537\C,0,-1.81087568,0.18097126,-0.00
 173721\C,0,-0.71566408,-0.80733906,0.38002062\O,0,-0.6482307,-1.822476
 63,-0.60580722\H,0,1.8796848,-0.97932272,-0.81624761\H,0,2.66411265,0.
 15914366,0.28025971\H,0,2.03704469,-1.37435925,0.89178238\H,0,0.525578

 Normal termination of Gaussian 16 at Wed Apr  9 16:09:17 2025.
 Gaussian 16:  ES64L-G16RevC.01  3-Jul-2019

 ----------------------------------------------------------------------
 #t hf aug-cc-pvdz iop(5/13=1,5/36=2,99/5=2) pseudo=read geom=check gue
 ss=(read,tcheck) scf=(maxcycle=1)
 ----------------------------------------------------------------------
 -----
 title
 -----
 Structure from the checkpoint file:  "Grambow2020_wb97xd3_007823_forward_mol1.chk"
 Charge =  0 Multiplicity = 1

                         Standard orientation:
 ---------------------------------------------------------------------
 Center     Atomic      Atomic             Coordinates (Angstroms)
 Number     Number       Type             X           Y           Z
 ---------------------------------------------------------------------
      1          6           0       -2.104111   -0.324078    0.020322
      2          6           0       -0.659434   -0.463251    0.466596
      3          6           0        0.217067   -1.414243   -0.373860
      4          6           0        1.653487   -0.934119   -0.323578
      5          6           0        1.566996    0.332276    0.263714
      6          6           0        0.149740    0.845119    0.488129
      7          8           0       -0.169354    1.775780   -0.531163
      8          1           0       -2.170649    0.065954   -0.996853
      9          1           0       -2.605890   -1.293393    0.040693
     10          1           0       -2.658994    0.356170    0.669124
     11          1           0       -0.646962   -0.840385    1.496132
     12          1           0       -0.049475   -1.368673   -1.438832
     13          1           0        0.108727   -2.463357   -0.095296
     14          1           0        1.995060   -0.672355    0.921497
     15          1           0        2.426395    0.991211    0.372560
     16          1           0        0.024185    1.396380    1.420498
     17          1           0       -0.010035    1.371981   -1.388150
 ---------------------------------------------------------------------

 SCF Done:  E(RHF) =  -307.882939308     A.U. after    2 cycles

 The electronic state is 1-A.
 Alpha  occ. eigenvalues --  -20.58804 -11.30524 -11.28530 -11.24372 -11.24154
 Alpha  occ. eigenvalues --  -11.23546 -11.23035  -1.34377  -1.15180  -1.03745
 Alpha  occ. eigenvalues --   -0.95720  -0.91911  -0.79834  -0.74607  -0.71875
 Alpha  occ. eigenvalues --   -0.66266  -0.63415  -0.59853  -0.58523  -0.56642
 Alpha  occ. eigenvalues --   -0.53717  -0.52716  -0.49432  -0.48428  -0.46754
 Alpha  occ. eigenvalues --   -0.45525  -0.34091
 Alpha virt. eigenvalues --    0.03100   0.04031   0.04314   0.04816   0.06077
 Alpha virt. eigenvalues --    0.06322   0.06789   0.07155   0.07738   0.09098
 Alpha virt. eigenvalues --    0.11068   0.11277   0.12454   0.13904   0.14254

 Mulliken charges:
               1
     1  C    0.843804
     2  C   -1.138919
     3  C    0.680213
     4  C   -1.076166
     5  C    0.736288
     6  C    0.990266
     7  O   -0.614047
     8  H   -0.025648
     9  H   -0.017721
    10  H   -0.031509
    11  H   -0.134883
    12  H   -0.087402
    13  H   -0.072663
    14  H    0.185607
    15  H   -0.196069
    16  H   -0.183380
    17  H    0.142229
 Sum of Mulliken charges =  -0.00000

 Dipole moment (field-independent basis, Debye):
    X=             -1.2079    Y=              0.0549    Z=              1.3135  Tot=              1.7853

 Test job not archived.
 1\1\GINC-SE042\SP\RHF\Aug-CC-pVDZ\C6H10O1\OHZDE\09-Apr-2025\0\\#t hf a
 ug-cc-pvdz iop(5/13=1,5/36=2,99/5=2) pseudo=read geom=check guess=(rea
 d,tcheck) scf=(maxcycle=1)\\title\\0,1\C,0,1.84723141,-0.5594999,0.190
 67415\C,0,0.51423151,0.11285182,0.46757546\C,0,0.14834737,1.2910388,-0
 .45817216\C,0,-1.3599152,1.37162154,-0.58064537\C,0,-1.81087568,0.1809
 7126,-0.00173721\C,0,-0.71566408,-0.80733906,0.38002062\O,0,-0.6482307
 ,-1.82247663,-0.60580722\H,0,1.8796848,-0.97932272,-0.81624761\H,0,2.6
 6411265,0.15914366,0.28025971\H,0,2.03704469,-1.37435925,0.89178238\H,

 Normal termination of Gaussian 16 at Wed Apr  9 16:09:24 2025.
