 Gaussian 16, Revision C.01,

 ----------------------------------------------------------------------
 #t hf aug-cc-pvdz symm=none int=(grid=ultrafine) guess=(read,tcheck) s
 table=(opt,rrhf)
 ----------------------------------------------------------------------
 -----
 title
 -----
 Symbolic Z-matrix:
 Charge =  0 Multiplicity = 1

 SCF Done:  E(RHF) =  -353.532599410     A.U. after   16 cycles
 Normal termination of Gaussian 16 at Wed Apr  9 16:06:43 2025.
 Gaussian 16:  ES64L-G16RevC.01  3-Jul-2019

 ----------------------------------------------------------------------
 #t hf aug-cc-pvdz iop(5/13=1,5/36=2,99/5=2) pseudo=read geom=check gue
 ss=(read,tcheck) scf=(maxcycle=1)
 ----------------------------------------------------------------------
 -----
 title
 -----
 Structure from the checkpoint file:  "Grambow2020_wb97xd3_007770_reverse_mol2.chk"
 Charge =  0 Multiplicity = 1

                         Standard orientation:
 ---------------------------------------------------------------------
 Center     Atomic      Atomic             Coordinates (Angstroms)
 Number     Number       Type             X           Y           Z
 ---------------------------------------------------------------------
      1          8           0       -2.566526    0.023429   -0.039903
      2          6           0       -1.444111   -0.089387   -0.416349
      3          7           0        0.529692    1.162286    0.200341
      4          6           0       -0.224102   -0.049273    0.526839
      5          7           0        0.634717   -1.159713    0.247427
      6          6           0        1.685475   -0.619917   -0.211573
      7          7           0        1.637093    0.820245   -0.246951
      8          1           0       -1.174841   -0.232249   -1.480367
      9          1           0       -0.573948   -0.021121    1.559456
     10          1           0        2.566906   -1.142324   -0.559097
 ---------------------------------------------------------------------

 SCF Done:  E(RHF) =  -353.634218362     A.U. after    2 cycles

 The electronic state is 1-A.
 Alpha  occ. eigenvalues --  -20.60889 -15.73420 -15.72920 -15.67820 -11.38054
 Alpha  occ. eigenvalues --  -11.35660 -11.33923  -1.41779  -1.40032  -1.22764
 Alpha  occ. eigenvalues --   -1.08623  -0.90947  -0.84339  -0.83257  -0.75715
 Alpha  occ. eigenvalues --   -0.70647  -0.69718  -0.62789  -0.59938  -0.57163
 Alpha  occ. eigenvalues --   -0.56050  -0.49166  -0.47206  -0.45760  -0.44164
 Alpha virt. eigenvalues --    0.02840   0.03512   0.04272   0.04748   0.07464
 Alpha virt. eigenvalues --    0.09147   0.09854   0.10131   0.10752   0.12645
 Alpha virt. eigenvalues --    0.12705   0.14335   0.14592   0.15331   0.16474

 Mulliken charges:
               1
     1  O   -0.373504
     2  C    0.686495
     3  N   -0.430455
     4  C    0.861032
     5  N   -0.520897
     6  C    0.653028
     7  N   -0.477425
     8  H   -0.075656
     9  H   -0.184443
    10  H   -0.138177
 Sum of Mulliken charges =   0.00000

 Dipole moment (field-independent basis, Debye):
    X=              2.6387    Y=             -1.3352    Z=             -0.6495  Tot=              3.0278

 Test job not archived.
 1\1\GINC-SE220\SP\RHF\Aug-CC-pVDZ\C3H3N3O1\OHZDE\09-Apr-2025\0\\#t hf
 aug-cc-pvdz iop(5/13=1,5/36=2,99/5=2) pseudo=read geom=check guess=(re
 ad,tcheck) scf=(maxcycle=1)\\title\\0,1\O,0,2.5189186,0.54833269,-0.73
 133434\C,0,1.53243107,-0.05358852,-0.4506422\N,0,-0.04990356,0.314085,
 1.33930901\C,0,0.20215398,0.62737586,-0.06817038\N,0,-0.86781259,0.045
 86307,-0.820323\C,0,-1.56968799,-0.53973662,0.05751308\N,0,-1.07648666
 ,-0.38269108,1.40278203\H,0,1.48196274,-1.15918185,-0.43771579\H,0,0.2
 9918074,1.70387263,-0.21384831\H,0,-2.46522833,-1.11766617,-0.12851511

 Normal termination of Gaussian 16 at Wed Apr  9 16:06:47 2025.
