 Gaussian 16, Revision C.01,

 ----------------------------------------------------------------------
 #t hf aug-cc-pvdz symm=none int=(grid=ultrafine) guess=(read,tcheck) s
 table=(opt,rrhf)
 ----------------------------------------------------------------------
 -----
 title
 -----
 Symbolic Z-matrix:
 Charge =  0 Multiplicity = 1

 SCF Done:  E(RHF) =  -338.598435039     A.U. after   17 cycles
 Normal termination of Gaussian 16 at Wed Apr  9 16:31:58 2025.
 Gaussian 16:  ES64L-G16RevC.01  3-Jul-2019

 ----------------------------------------------------------------------
 #t hf aug-cc-pvdz iop(5/13=1,5/36=2,99/5=2) pseudo=read geom=check gue
 ss=(read,tcheck) scf=(maxcycle=1)
 ----------------------------------------------------------------------
 -----
 title
 -----
 Structure from the checkpoint file:  "Grambow2020_wb97xd3_008547_reverse_mol2.chk"
 Charge =  0 Multiplicity = 1

                         Standard orientation:
 ---------------------------------------------------------------------
 Center     Atomic      Atomic             Coordinates (Angstroms)
 Number     Number       Type             X           Y           Z
 ---------------------------------------------------------------------
      1          6           0       -1.119756   -1.605369   -0.474748
      2          6           0       -0.452596   -0.375462    0.098657
      3          7           0       -1.331183    0.808250   -0.086916
      4          8           0       -0.752306    1.852800   -0.106114
      5          6           0        1.007859   -0.147464    0.181392
      6          7           0        2.102717    0.021229   -0.594292
      7          6           0        0.424731   -0.386456    1.310816
      8          1           0       -1.324992   -1.488963   -1.541208
      9          1           0       -0.478927   -2.476244   -0.340070
     10          1           0       -2.071622   -1.791999    0.025749
     11          1           0        2.949243    0.291146   -0.122547
     12          1           0        1.951850    0.488729   -1.470972
     13          1           0        0.430728   -0.562912    2.369710
 ---------------------------------------------------------------------

 SCF Done:  E(RHF) =  -338.702055803     A.U. after    2 cycles

 The electronic state is 1-A.
 Alpha  occ. eigenvalues --  -20.62787 -15.74655 -15.65938 -11.30857 -11.29135
 Alpha  occ. eigenvalues --  -11.24664 -11.23147  -1.46300  -1.22940  -1.15378
 Alpha  occ. eigenvalues --   -1.00570  -0.92975  -0.78875  -0.77610  -0.72417
 Alpha  occ. eigenvalues --   -0.70907  -0.67468  -0.62839  -0.61215  -0.56677
 Alpha  occ. eigenvalues --   -0.54770  -0.52112  -0.50626  -0.42717  -0.39981
 Alpha  occ. eigenvalues --   -0.33483
 Alpha virt. eigenvalues --    0.02843   0.03694   0.04104   0.05898   0.06507
 Alpha virt. eigenvalues --    0.06985   0.09583   0.10716   0.10994   0.11788
 Alpha virt. eigenvalues --    0.12614   0.13136   0.13944   0.15123   0.15249

 Mulliken charges:
               1
     1  C    0.381832
     2  C    0.107984
     3  N   -0.414538
     4  O   -0.372904
     5  C    0.026504
     6  N   -0.203106
     7  C    0.711728
     8  H    0.018777
     9  H   -0.029917
    10  H    0.021026
    11  H    0.014508
    12  H    0.022777
    13  H   -0.284672
 Sum of Mulliken charges =  -0.00000

 Dipole moment (field-independent basis, Debye):
    X=              2.5605    Y=             -1.7486    Z=             -0.1650  Tot=              3.1050

 Test job not archived.
 1\1\GINC-SE454\SP\RHF\Aug-CC-pVDZ\C4H6N2O1\OHZDE\09-Apr-2025\0\\#t hf
 aug-cc-pvdz iop(5/13=1,5/36=2,99/5=2) pseudo=read geom=check guess=(re
 ad,tcheck) scf=(maxcycle=1)\\title\\0,1\C,0,-1.72028346,-0.28050006,0.
 25656069\C,0,-0.40925748,0.16274656,-0.35278974\N,0,-0.42675631,-0.078
 71321,-1.81870831\O,0,0.65458351,-0.20687329,-2.30945409\C,0,0.9026995
 4,0.16316811,0.33315908\N,0,1.81552137,-0.67054605,0.88137013\C,0,0.38
 74458,1.33247244,0.13317349\H,0,-1.90402884,-1.34289554,0.08173925\H,0
 ,-1.71201675,-0.10445553,1.33181034\H,0,-2.55198467,0.2743806,-0.18134

 Normal termination of Gaussian 16 at Wed Apr  9 16:32:02 2025.
