 Gaussian 16, Revision C.01,

 ----------------------------------------------------------------------
 #t hf aug-cc-pvdz symm=none int=(grid=ultrafine) guess=(read,tcheck) s
 table=(opt,rrhf)
 ----------------------------------------------------------------------
 -----
 title
 -----
 Symbolic Z-matrix:
 Charge =  0 Multiplicity = 1

 SCF Done:  E(RHF) =  -304.559985374     A.U. after   15 cycles
 Normal termination of Gaussian 16 at Wed Apr  9 14:26:15 2025.
 Gaussian 16:  ES64L-G16RevC.01  3-Jul-2019

 ----------------------------------------------------------------------
 #t hf aug-cc-pvdz iop(5/13=1,5/36=2,99/5=2) pseudo=read geom=check gue
 ss=(read,tcheck) scf=(maxcycle=1)
 ----------------------------------------------------------------------
 -----
 title
 -----
 Structure from the checkpoint file:  "Grambow2020_wb97xd3_006274_forward_mol1.chk"
 Charge =  0 Multiplicity = 1

                         Standard orientation:
 ---------------------------------------------------------------------
 Center     Atomic      Atomic             Coordinates (Angstroms)
 Number     Number       Type             X           Y           Z
 ---------------------------------------------------------------------
      1          8           0        2.402304    0.470526   -0.346561
      2          6           0        1.844904   -0.117064    0.453765
      3          8           0        0.243905   -0.975721    0.065086
      4          6           0       -0.704021   -0.133489   -0.488347
      5          6           0       -1.328149    0.963675    0.332526
      6          6           0       -2.125648   -0.256380   -0.050832
      7          1           0        1.054551   -0.603697    1.145191
      8          1           0       -0.532330    0.087419   -1.538215
      9          1           0       -1.031438    1.046388    1.370996
     10          1           0       -1.554412    1.907364   -0.146313
     11          1           0       -2.321396   -0.979335    0.729938
     12          1           0       -2.907161   -0.157022   -0.792462
 ---------------------------------------------------------------------

 SCF Done:  E(RHF) =  -304.657809208     A.U. after    2 cycles

 The electronic state is 1-A.
 Alpha  occ. eigenvalues --  -20.68943 -20.54326 -11.44052 -11.28171 -11.23010
 Alpha  occ. eigenvalues --  -11.22494  -1.49655  -1.28819  -1.10770  -0.89483
 Alpha  occ. eigenvalues --   -0.82113  -0.80028  -0.75272  -0.69878  -0.67316
 Alpha  occ. eigenvalues --   -0.66221  -0.62217  -0.54981  -0.51799  -0.50343
 Alpha  occ. eigenvalues --   -0.48851  -0.40530  -0.36506
 Alpha virt. eigenvalues --    0.03741   0.04562   0.05082   0.05228   0.06621
 Alpha virt. eigenvalues --    0.07016   0.08260   0.08711   0.10995   0.11520
 Alpha virt. eigenvalues --    0.12601   0.13698   0.14340   0.15271   0.15585

 Mulliken charges:
               1
     1  O   -0.187252
     2  C    0.343644
     3  O   -1.017734
     4  C    0.899719
     5  C    0.392957
     6  C    0.716273
     7  H    0.507396
     8  H   -0.365520
     9  H   -0.346752
    10  H   -0.303205
    11  H   -0.302320
    12  H   -0.337208
 Sum of Mulliken charges =  -0.00000

 Dipole moment (field-independent basis, Debye):
    X=              0.5634    Y=              1.0092    Z=              1.5744  Tot=              1.9531

 Test job not archived.
 1\1\GINC-SE097\SP\RHF\Aug-CC-pVDZ\C4H6O2\OHZDE\09-Apr-2025\0\\#t hf au
 g-cc-pvdz iop(5/13=1,5/36=2,99/5=2) pseudo=read geom=check guess=(read
 ,tcheck) scf=(maxcycle=1)\\title\\0,1\O,0,2.5476926,-1.56179531,0.5386
 5952\C,0,2.34879462,-0.73714404,-0.22085856\O,0,1.19702838,0.66595395,
 0.17450475\C,0,-0.05555899,0.24247961,0.58181535\C,0,-0.9879062,-0.436
 86371,-0.38584\C,0,-1.26195703,0.96801502,0.08608683\H,0,1.88702621,0.
 08202799,-0.89559279\H,0,-0.08457531,-0.11099207,1.60880942\H,0,-0.654
 47203,-0.55140614,-1.4100465\H,0,-1.61629133,-1.24087163,-0.02565222\H

 Normal termination of Gaussian 16 at Wed Apr  9 14:26:18 2025.
