 Gaussian 16, Revision C.01,

 ----------------------------------------------------------------------
 #t hf aug-cc-pvdz symm=none int=(grid=ultrafine) guess=(read,tcheck) s
 table=(opt,rrhf)
 ----------------------------------------------------------------------
 -----
 title
 -----
 Symbolic Z-matrix:
 Charge =  0 Multiplicity = 1

 SCF Done:  E(RHF) =  -191.945087887     A.U. after   13 cycles
 Normal termination of Gaussian 16 at Wed Apr  9 14:10:52 2025.
 Gaussian 16:  ES64L-G16RevC.01  3-Jul-2019

 ----------------------------------------------------------------------
 #t hf aug-cc-pvdz iop(5/13=1,5/36=2,99/5=2) pseudo=read geom=check gue
 ss=(read,tcheck) scf=(maxcycle=1)
 ----------------------------------------------------------------------
 -----
 title
 -----
 Structure from the checkpoint file:  "Grambow2020_b97d3_006804_reverse_mol2.chk"
 Charge =  0 Multiplicity = 1

                         Standard orientation:
 ---------------------------------------------------------------------
 Center     Atomic      Atomic             Coordinates (Angstroms)
 Number     Number       Type             X           Y           Z
 ---------------------------------------------------------------------
      1          6           0        2.423767    0.008937    0.002922
      2          6           0       -1.100322   -0.104736   -0.001354
      3          8           0       -1.087000   -1.283513   -0.001583
      4          6           0       -1.116574    1.216224   -0.000663
      5          1           0        1.916723   -0.933192   -0.235978
      6          1           0        2.287625    0.717727   -0.823375
      7          1           0        3.494410   -0.177848    0.148085
      8          1           0       -2.063530    1.746325    0.053462
      9          1           0        2.000341    0.427946    0.924051
     10          1           0       -0.180791    1.764595   -0.059020
 ---------------------------------------------------------------------

 SCF Done:  E(RHF) =  -192.011139026     A.U. after    2 cycles

 The electronic state is 1-A.
 Alpha  occ. eigenvalues --  -20.64549 -11.40422 -11.25725 -11.22680  -1.42826
 Alpha  occ. eigenvalues --   -1.04809  -0.94207  -0.76872  -0.68638  -0.66082
 Alpha  occ. eigenvalues --   -0.65283  -0.57192  -0.55141  -0.54986  -0.54769
 Alpha  occ. eigenvalues --   -0.37379
 Alpha virt. eigenvalues --    0.03317   0.04270   0.05750   0.06403   0.07141
 Alpha virt. eigenvalues --    0.08234   0.09526   0.11153   0.11870   0.12565
 Alpha virt. eigenvalues --    0.13786   0.15484   0.15745   0.15872   0.16223

 Mulliken charges:
               1
     1  C    0.593915
     2  C   -0.082902
     3  O   -0.287150
     4  C    0.761893
     5  H   -0.134394
     6  H   -0.120162
     7  H   -0.183084
     8  H   -0.197098
     9  H   -0.166667
    10  H   -0.184351
 Sum of Mulliken charges =  -0.00000

 Dipole moment (field-independent basis, Debye):
    X=              0.0625    Y=              2.1065    Z=              0.0022  Tot=              2.1074

 Test job not archived.
 1\1\GINC-SE120\SP\RHF\Aug-CC-pVDZ\C3H6O1\OHZDE\09-Apr-2025\0\\#t hf au
 g-cc-pvdz iop(5/13=1,5/36=2,99/5=2) pseudo=read geom=check guess=(read
 ,tcheck) scf=(maxcycle=1)\\title\\0,1\C,0,-1.25682341,-0.30511299,1.29
 619675\C,0,0.86350198,0.98371071,-1.20885756\O,0,0.27585847,2.00563474
 ,-1.21522946\C,0,1.5231098,-0.16087383,-1.20234923\H,0,-1.55285492,0.6
 0146552,0.75559179\H,0,-1.33119918,-1.17122615,0.62686782\H,0,-1.92150
 623,-0.45259109,2.15566484\H,0,2.40227454,-0.28305278,-1.8290896\H,0,-
 0.22410375,-0.19810225,1.65028009\H,0,1.1782307,-0.97558988,-0.5721884

 Normal termination of Gaussian 16 at Wed Apr  9 14:10:54 2025.
