 Gaussian 16, Revision C.01,

 ----------------------------------------------------------------------
 #t hf aug-cc-pvdz symm=none int=(grid=ultrafine) guess=(read,tcheck) s
 table=(opt,rrhf)
 ----------------------------------------------------------------------
 -----
 title
 -----
 Symbolic Z-matrix:
 Charge =  0 Multiplicity = 1

 SCF Done:  E(RHF) =  -195.058676775     A.U. after   14 cycles
 Normal termination of Gaussian 16 at Wed Apr  9 03:06:21 2025.
 Gaussian 16:  ES64L-G16RevC.01  3-Jul-2019

 ----------------------------------------------------------------------
 #t hf aug-cc-pvdz iop(5/13=1,5/36=2,99/5=2) pseudo=read geom=check gue
 ss=(read,tcheck) scf=(maxcycle=1)
 ----------------------------------------------------------------------
 -----
 title
 -----
 Structure from the checkpoint file:  "Grambow2020_b97d3_006577_reverse_mol2.chk"
 Charge =  0 Multiplicity = 1

                         Standard orientation:
 ---------------------------------------------------------------------
 Center     Atomic      Atomic             Coordinates (Angstroms)
 Number     Number       Type             X           Y           Z
 ---------------------------------------------------------------------
      1          6           0       -1.840795   -0.751329    0.014597
      2          6           0       -1.274294    0.573511   -0.358471
      3          6           0       -0.116758    0.921556    0.490073
      4          6           0        0.973262    0.348503   -0.511767
      5          6           0        1.891574   -0.676575    0.158891
      6          1           0       -1.237741   -1.431486    0.653860
      7          1           0       -2.290659   -1.300298   -0.825086
      8          1           0       -2.698015   -0.420293    0.641787
      9          1           0        0.488168   -0.116000   -1.390658
     10          1           0        0.038323    1.999241    0.629700
     11          1           0       -0.011481    0.399304    1.463204
     12          1           0        1.536192    1.196173   -0.920565
     13          1           0        2.433206   -0.227569    1.002847
     14          1           0        1.315164   -1.529446    0.544346
     15          1           0        2.628914   -1.063620   -0.559369
 ---------------------------------------------------------------------

 SCF Done:  E(RHF) =  -195.118556741     A.U. after    2 cycles

 The electronic state is 1-A.
 Alpha  occ. eigenvalues --  -11.26182 -11.25443 -11.23846 -11.23799 -11.23722
 Alpha  occ. eigenvalues --   -1.08923  -1.00642  -0.93049  -0.81773  -0.73279
 Alpha  occ. eigenvalues --   -0.63874  -0.60357  -0.58469  -0.57493  -0.55183
 Alpha  occ. eigenvalues --   -0.51516  -0.50362  -0.48650  -0.45925  -0.33570
 Alpha virt. eigenvalues --    0.03460   0.04377   0.04498   0.05066   0.06536
 Alpha virt. eigenvalues --    0.06817   0.06965   0.07344   0.08761   0.09485
 Alpha virt. eigenvalues --    0.10426   0.11702   0.13628   0.14009   0.15483

 Mulliken charges:
               1
     1  C    0.421847
     2  C   -0.591427
     3  C    0.588780
     4  C    0.070514
     5  C    0.305019
     6  H   -0.148610
     7  H   -0.057009
     8  H    0.070538
     9  H   -0.083569
    10  H   -0.115288
    11  H   -0.175529
    12  H   -0.096333
    13  H   -0.034511
    14  H   -0.063810
    15  H   -0.090610
 Sum of Mulliken charges =  -0.00000

 Dipole moment (field-independent basis, Debye):
    X=              1.1972    Y=             -1.2187    Z=              1.3083  Tot=              2.1517

 Test job not archived.
 1\1\GINC-SE051\SP\RHF\Aug-CC-pVDZ\C5H10\OHZDE\09-Apr-2025\0\\#t hf aug
 -cc-pvdz iop(5/13=1,5/36=2,99/5=2) pseudo=read geom=check guess=(read,
 tcheck) scf=(maxcycle=1)\\title\\0,1\C,0,1.85060093,-0.87223426,-0.100
 33264\C,0,1.4654587,0.43934462,0.48850516\C,0,0.35158148,1.05775921,-0
 .2584172\C,0,-0.79007318,0.47808658,0.68010384\C,0,-1.84223608,-0.3066
 5338,-0.10793159\H,0,1.15610118,-1.36357304,-0.81531586\H,0,2.23669058
 ,-1.59704199,0.63069436\H,0,2.73506809,-0.55850781,-0.69788717\H,0,-0.
 35759394,-0.1744776,1.46154599\H,0,0.33553832,2.154902,-0.22724444\H,0

 Normal termination of Gaussian 16 at Wed Apr  9 03:06:25 2025.
