 Gaussian 16, Revision C.01,

 ----------------------------------------------------------------------
 #t hf aug-cc-pvdz symm=none int=(grid=ultrafine) guess=(read,tcheck) s
 table=(opt,rrhf)
 ----------------------------------------------------------------------
 -----
 title
 -----
 Symbolic Z-matrix:
 Charge =  0 Multiplicity = 1

 SCF Done:  E(RHF) =  -306.756771456     A.U. after   13 cycles
 Normal termination of Gaussian 16 at Wed Apr  9 03:58:42 2025.
 Gaussian 16:  ES64L-G16RevC.01  3-Jul-2019

 ----------------------------------------------------------------------
 #t hf aug-cc-pvdz iop(5/13=1,5/36=2,99/5=2) pseudo=read geom=check gue
 ss=(read,tcheck) scf=(maxcycle=1)
 ----------------------------------------------------------------------
 -----
 title
 -----
 Structure from the checkpoint file:  "Grambow2020_wb97xd3_008778_reverse_mol2.chk"
 Charge =  0 Multiplicity = 1

                         Standard orientation:
 ---------------------------------------------------------------------
 Center     Atomic      Atomic             Coordinates (Angstroms)
 Number     Number       Type             X           Y           Z
 ---------------------------------------------------------------------
      1          8           0       -2.228556   -0.078427   -0.362393
      2          6           0       -1.092733   -0.000979    0.032425
      3          6           0       -0.291072   -1.206494    0.458749
      4          6           0        1.080013   -1.237353   -0.221213
      5          6           0        1.762522    0.098640   -0.156823
      6          6           0        1.111178    1.238606    0.029173
      7          6           0       -0.382437    1.332288    0.155197
      8          1           0       -0.142819   -1.123011    1.541679
      9          1           0       -0.873105   -2.106125    0.262681
     10          1           0        1.705529   -1.999500    0.249098
     11          1           0        0.971368   -1.543577   -1.267725
     12          1           0       -0.657627    1.756423    1.128916
     13          1           0        2.840769    0.115729   -0.277609
     14          1           0        1.663277    2.171952    0.070204
     15          1           0       -0.803768    2.007277   -0.593153
 ---------------------------------------------------------------------

 SCF Done:  E(RHF) =  -306.850208211     A.U. after    2 cycles

 The electronic state is 1-A.
 Alpha  occ. eigenvalues --  -20.55980 -11.33915 -11.25321 -11.25126 -11.25059
 Alpha  occ. eigenvalues --  -11.24822 -11.24723  -1.35561  -1.12456  -1.02708
 Alpha  occ. eigenvalues --   -0.99165  -0.87776  -0.78891  -0.70679  -0.68861
 Alpha  occ. eigenvalues --   -0.65176  -0.63598  -0.61142  -0.59660  -0.55959
 Alpha  occ. eigenvalues --   -0.55221  -0.53451  -0.49747  -0.48391  -0.41569
 Alpha  occ. eigenvalues --   -0.36640
 Alpha virt. eigenvalues --    0.03017   0.03971   0.04344   0.05029   0.06144
 Alpha virt. eigenvalues --    0.06597   0.06858   0.07373   0.10700   0.12282
 Alpha virt. eigenvalues --    0.12429   0.13128   0.13811   0.14013   0.14376

 Mulliken charges:
               1
     1  O   -0.521614
     2  C    0.085060
     3  C    0.483416
     4  C    0.194903
     5  C    0.248493
     6  C    0.048020
     7  C    0.152206
     8  H   -0.027394
     9  H   -0.085294
    10  H    0.028427
    11  H    0.028808
    12  H    0.142515
    13  H   -0.421421
    14  H   -0.397860
    15  H    0.041737
 Sum of Mulliken charges =  -0.00000

 Dipole moment (field-independent basis, Debye):
    X=              3.3800    Y=              0.0547    Z=              1.1093  Tot=              3.5578

 Test job not archived.
 1\1\GINC-SE460\SP\RHF\Aug-CC-pVDZ\C6H8O1\OHZDE\09-Apr-2025\0\\#t hf au
 g-cc-pvdz iop(5/13=1,5/36=2,99/5=2) pseudo=read geom=check guess=(read
 ,tcheck) scf=(maxcycle=1)\\title\\0,1\O,0,0.61623962,-2.43842841,0.605
 94552\C,0,0.37342294,-1.35724738,0.13259426\C,0,-1.03062235,-0.8930043
 7,-0.16875791\C,0,-1.30130801,0.49382368,0.41997949\C,0,-0.18323209,1.
 45136013,0.1235434\C,0,1.04673397,1.05989381,-0.1802723\C,0,1.47511195
 ,-0.37893106,-0.22289958\H,0,-1.11847196,-0.83322486,-1.25980984\H,0,-
 1.73573977,-1.64199941,0.18951017\H,0,-2.24176556,0.88333286,0.0235563

 Normal termination of Gaussian 16 at Wed Apr  9 03:58:47 2025.
