 Gaussian 16, Revision C.01,

 ----------------------------------------------------------------------
 #t hf aug-cc-pvdz symm=none int=(grid=ultrafine) guess=(read,tcheck) s
 table=(opt,rrhf)
 ----------------------------------------------------------------------
 -----
 title
 -----
 Symbolic Z-matrix:
 Charge =  0 Multiplicity = 1

 SCF Done:  E(RHF) =  -343.741072087     A.U. after   15 cycles
 Normal termination of Gaussian 16 at Wed Apr  9 15:06:01 2025.
 Gaussian 16:  ES64L-G16RevC.01  3-Jul-2019

 ----------------------------------------------------------------------
 #t hf aug-cc-pvdz iop(5/13=1,5/36=2,99/5=2) pseudo=read geom=check gue
 ss=(read,tcheck) scf=(maxcycle=1)
 ----------------------------------------------------------------------
 -----
 title
 -----
 Structure from the checkpoint file:  "Grambow2020_wb97xd3_006672_forward_mol2.chk"
 Charge =  0 Multiplicity = 1

                         Standard orientation:
 ---------------------------------------------------------------------
 Center     Atomic      Atomic             Coordinates (Angstroms)
 Number     Number       Type             X           Y           Z
 ---------------------------------------------------------------------
      1          6           0       -1.395273    0.091737    1.199522
      2          6           0       -0.581621    0.055128   -0.083554
      3          8           0       -1.280536   -0.558941   -1.136216
      4          6           0        0.067485    1.405718   -0.473294
      5          6           0        1.436588    0.933376    0.084670
      6          6           0        0.848018   -0.468966    0.134877
      7          8           0        1.297561   -1.574337    0.173113
      8          1           0       -2.327876    0.629117    1.021106
      9          1           0       -1.631938   -0.922888    1.526738
     10          1           0       -0.853373    0.589677    2.006629
     11          1           0       -1.266310   -1.509361   -0.991036
     12          1           0        0.080809    1.521630   -1.555463
     13          1           0       -0.367957    2.291127   -0.013806
     14          1           0        2.317205    1.050440   -0.545281
     15          1           0        1.662059    1.314520    1.082604
 ---------------------------------------------------------------------

 SCF Done:  E(RHF) =  -343.847128021     A.U. after    2 cycles

 The electronic state is 1-A.
 Alpha  occ. eigenvalues --  -20.58606 -20.57882 -11.34437 -11.31027 -11.25521
 Alpha  occ. eigenvalues --  -11.24924 -11.24434  -1.37522  -1.34086  -1.13558
 Alpha  occ. eigenvalues --   -0.99863  -0.89273  -0.86255  -0.75960  -0.70462
 Alpha  occ. eigenvalues --   -0.67864  -0.66779  -0.62975  -0.59257  -0.58055
 Alpha  occ. eigenvalues --   -0.57437  -0.54781  -0.52605  -0.51202  -0.50335
 Alpha  occ. eigenvalues --   -0.46458  -0.40322
 Alpha virt. eigenvalues --    0.03265   0.04244   0.04674   0.04890   0.06223
 Alpha virt. eigenvalues --    0.06779   0.07144   0.07908   0.09430   0.11664
 Alpha virt. eigenvalues --    0.12211   0.13427   0.13587   0.14061   0.14656

 Mulliken charges:
               1
     1  C    0.625333
     2  C   -0.714520
     3  O   -0.591825
     4  C    0.713486
     5  C    0.333337
     6  C    0.382183
     7  O   -0.459074
     8  H    0.018117
     9  H    0.005650
    10  H    0.011311
    11  H    0.128092
    12  H   -0.090142
    13  H   -0.170802
    14  H   -0.137062
    15  H   -0.054084
 Sum of Mulliken charges =   0.00000

 Dipole moment (field-independent basis, Debye):
    X=             -0.6701    Y=              2.5085    Z=              1.2214  Tot=              2.8694

 Test job not archived.
 1\1\GINC-SE226\SP\RHF\Aug-CC-pVDZ\C5H8O2\OHZDE\09-Apr-2025\0\\#t hf au
 g-cc-pvdz iop(5/13=1,5/36=2,99/5=2) pseudo=read geom=check guess=(read
 ,tcheck) scf=(maxcycle=1)\\title\\0,1\C,0,-1.52443549,-0.61774829,-0.1
 331597\C,0,-0.40133126,0.40521623,-0.09034461\O,0,-0.87227219,1.716258
 52,-0.27212656\C,0,0.56334158,0.25262219,1.11109232\C,0,1.61034283,-0.
 45306314,0.20850106\C,0,0.78949132,0.01710086,-0.98340813\O,0,1.003439
 94,0.18005342,-2.14662258\H,0,-2.25593169,-0.38431551,0.64193967\H,0,-
 2.02244052,-0.59267722,-1.10470864\H,0,-1.15280354,-1.63173585,0.03036

 Normal termination of Gaussian 16 at Wed Apr  9 15:06:06 2025.
