 Gaussian 16, Revision C.01,

 ----------------------------------------------------------------------
 #t hf aug-cc-pvdz symm=none int=(grid=ultrafine) guess=(read,tcheck) s
 table=(opt,rrhf)
 ----------------------------------------------------------------------
 -----
 title
 -----
 Symbolic Z-matrix:
 Charge =  0 Multiplicity = 1

 SCF Done:  E(RHF) =  -343.646873991     A.U. after   16 cycles
 Normal termination of Gaussian 16 at Wed Apr  9 03:27:24 2025.
 Gaussian 16:  ES64L-G16RevC.01  3-Jul-2019

 ----------------------------------------------------------------------
 #t hf aug-cc-pvdz iop(5/13=1,5/36=2,99/5=2) pseudo=read geom=check gue
 ss=(read,tcheck) scf=(maxcycle=1)
 ----------------------------------------------------------------------
 -----
 title
 -----
 Structure from the checkpoint file:  "Grambow2020_wb97xd3_006714_reverse_mol2.chk"
 Charge =  0 Multiplicity = 1

                         Standard orientation:
 ---------------------------------------------------------------------
 Center     Atomic      Atomic             Coordinates (Angstroms)
 Number     Number       Type             X           Y           Z
 ---------------------------------------------------------------------
      1          8           0        2.505408   -0.349345   -0.047118
      2          6           0        1.165191   -0.776190   -0.114468
      3          6           0        0.234251    0.187338    0.576576
      4          8           0        0.101827    1.426689   -0.189254
      5          6           0       -1.198718    1.312197   -0.413686
      6          6           0       -1.907833   -1.189895   -0.228140
      7          6           0       -1.287821    0.032269    0.421022
      8          1           0        2.588476    0.469116   -0.542068
      9          1           0        0.847081   -0.925226   -1.153056
     10          1           0        1.113251   -1.741790    0.394023
     11          1           0        0.608960    0.413492    1.577106
     12          1           0       -1.450190   -1.420224   -1.191042
     13          1           0       -1.816737   -2.069665    0.411280
     14          1           0       -2.968668   -1.009187   -0.405726
     15          1           0       -1.810469    0.270414    1.352643
 ---------------------------------------------------------------------

 SCF Done:  E(RHF) =  -343.753458573     A.U. after    2 cycles

 The electronic state is 1-A.
 Alpha  occ. eigenvalues --  -20.63523 -20.58781 -11.31769 -11.31101 -11.30712
 Alpha  occ. eigenvalues --  -11.25792 -11.25023  -1.42802  -1.34217  -1.07704
 Alpha  occ. eigenvalues --   -1.01052  -0.92143  -0.88185  -0.74885  -0.72942
 Alpha  occ. eigenvalues --   -0.70192  -0.66424  -0.65267  -0.61649  -0.59463
 Alpha  occ. eigenvalues --   -0.56748  -0.53873  -0.53090  -0.52291  -0.49577
 Alpha  occ. eigenvalues --   -0.46922  -0.36027
 Alpha virt. eigenvalues --    0.03014   0.04108   0.04383   0.04924   0.06377
 Alpha virt. eigenvalues --    0.06603   0.07080   0.08590   0.09312   0.09735
 Alpha virt. eigenvalues --    0.11808   0.12567   0.13306   0.14293   0.14466

 Mulliken charges:
               1
     1  O   -0.546829
     2  C    0.830906
     3  C    0.477192
     4  O   -0.645026
     5  C    0.034231
     6  C    0.542337
     7  C   -0.294712
     8  H    0.150830
     9  H   -0.070750
    10  H   -0.076291
    11  H   -0.225827
    12  H   -0.014226
    13  H   -0.002602
    14  H   -0.024933
    15  H   -0.134301
 Sum of Mulliken charges =  -0.00000

 Dipole moment (field-independent basis, Debye):
    X=             -0.7218    Y=             -2.5168    Z=              1.2240  Tot=              2.8903

 Test job not archived.
 1\1\GINC-SE334\SP\RHF\Aug-CC-pVDZ\C5H8O2\OHZDE\09-Apr-2025\0\\#t hf au
 g-cc-pvdz iop(5/13=1,5/36=2,99/5=2) pseudo=read geom=check guess=(read
 ,tcheck) scf=(maxcycle=1)\\title\\0,1\O,0,2.55355733,0.72313433,0.6088
 4781\C,0,1.34395633,0.54659016,-0.09015933\C,0,0.47679586,-0.50910891,
 0.54710853\O,0,-0.07727872,-0.03506981,1.81530058\C,0,-1.34772339,-0.1
 0907401,1.44734692\C,0,-1.51990166,0.00019568,-1.1519129\C,0,-0.977382
 19,-0.69409023,0.08224748\H,0,2.35189167,1.06639244,1.48249477\H,0,0.7
 8960354,1.48914041,-0.16992542\H,0,1.60510938,0.22455022,-1.10096762\H

 Normal termination of Gaussian 16 at Wed Apr  9 03:27:29 2025.
