 Gaussian 16, Revision C.01,

 ----------------------------------------------------------------------
 #t hf aug-cc-pvdz symm=none int=(grid=ultrafine) guess=(read,tcheck) s
 table=(opt,rrhf)
 ----------------------------------------------------------------------
 -----
 title
 -----
 Symbolic Z-matrix:
 Charge =  0 Multiplicity = 1

 SCF Done:  E(RHF) =  -322.631501370     A.U. after   14 cycles
 Normal termination of Gaussian 16 at Wed Apr  9 04:04:44 2025.
 Gaussian 16:  ES64L-G16RevC.01  3-Jul-2019

 ----------------------------------------------------------------------
 #t hf aug-cc-pvdz iop(5/13=1,5/36=2,99/5=2) pseudo=read geom=check gue
 ss=(read,tcheck) scf=(maxcycle=1)
 ----------------------------------------------------------------------
 -----
 title
 -----
 Structure from the checkpoint file:  "Grambow2020_wb97xd3_009198_reverse_mol2.chk"
 Charge =  0 Multiplicity = 1

                         Standard orientation:
 ---------------------------------------------------------------------
 Center     Atomic      Atomic             Coordinates (Angstroms)
 Number     Number       Type             X           Y           Z
 ---------------------------------------------------------------------
      1          8           0        3.083667    0.658871    0.093907
      2          6           0        2.124132   -0.299803    0.499713
      3          6           0        1.052225   -0.526217   -0.532822
      4          6           0       -0.214559   -0.290301   -0.337320
      5          6           0       -1.463961   -0.070967   -0.125479
      6          6           0       -2.774273   -0.436616    0.377486
      7          7           0       -2.494598    0.880084   -0.241095
      8          1           0        3.526338    0.339994   -0.694708
      9          1           0        2.611885   -1.255134    0.735673
     10          1           0        1.679484    0.082618    1.417754
     11          1           0        1.376443   -0.914445   -1.497623
     12          1           0       -2.907795   -0.490641    1.453248
     13          1           0       -3.423660   -1.076680   -0.208142
     14          1           0       -2.411224    1.626160    0.440735
 ---------------------------------------------------------------------

 SCF Done:  E(RHF) =  -322.731089612     A.U. after    2 cycles

 The electronic state is 1-A.
 Alpha  occ. eigenvalues --  -20.57551 -15.64867 -11.29675 -11.29601 -11.29192
 Alpha  occ. eigenvalues --  -11.25916 -11.25617  -1.32819  -1.26796  -1.07039
 Alpha  occ. eigenvalues --   -0.96300  -0.90121  -0.87142  -0.75119  -0.71972
 Alpha  occ. eigenvalues --   -0.67022  -0.66270  -0.63643  -0.59403  -0.54331
 Alpha  occ. eigenvalues --   -0.52077  -0.51567  -0.48068  -0.45497  -0.36796
 Alpha  occ. eigenvalues --   -0.34853
 Alpha virt. eigenvalues --    0.03208   0.03560   0.04398   0.04989   0.06107
 Alpha virt. eigenvalues --    0.06256   0.06795   0.09594   0.11177   0.11521
 Alpha virt. eigenvalues --    0.12695   0.12826   0.12995   0.13796   0.14370

 Mulliken charges:
               1
     1  O   -0.542494
     2  C    0.644903
     3  C    0.585293
     4  C   -0.261874
     5  C   -0.000205
     6  C    0.886203
     7  N   -0.553441
     8  H    0.141839
     9  H   -0.006595
    10  H   -0.243241
    11  H   -0.349954
    12  H   -0.156848
    13  H   -0.158568
    14  H    0.014981
 Sum of Mulliken charges =  -0.00000

 Dipole moment (field-independent basis, Debye):
    X=             -0.5220    Y=             -1.7764    Z=              0.8910  Tot=              2.0548

 Test job not archived.
 1\1\GINC-SE141\SP\RHF\Aug-CC-pVDZ\C5H7N1O1\OHZDE\09-Apr-2025\0\\#t hf
 aug-cc-pvdz iop(5/13=1,5/36=2,99/5=2) pseudo=read geom=check guess=(re
 ad,tcheck) scf=(maxcycle=1)\\title\\0,1\O,0,2.94326399,-0.71318336,1.3
 2151267\C,0,2.15930246,-0.30946256,0.21387777\C,0,1.09074879,0.6836041
 9,0.58588292\C,0,-0.18753767,0.47010817,0.44797015\C,0,-1.44543174,0.2
 5428798,0.28949633\C,0,-2.6618321,0.21572677,-0.49947538\N,0,-2.612862
 89,-0.22050974,0.91539578\H,0,3.39482127,0.05401484,1.67796086\H,0,2.7
 9654207,0.11680653,-0.57254231\H,0,1.70171247,-1.21498765,-0.18285118\

 Normal termination of Gaussian 16 at Wed Apr  9 04:04:48 2025.
