 Gaussian 16, Revision C.01,

 ----------------------------------------------------------------------
 #t hf aug-cc-pvdz symm=none int=(grid=ultrafine) guess=(read,tcheck) s
 table=(opt,rrhf)
 ----------------------------------------------------------------------
 -----
 title
 -----
 Symbolic Z-matrix:
 Charge =  0 Multiplicity = 1

 SCF Done:  E(RHF) =  -323.870892207     A.U. after   13 cycles
 Normal termination of Gaussian 16 at Wed Apr  9 15:22:01 2025.
 Gaussian 16:  ES64L-G16RevC.01  3-Jul-2019

 ----------------------------------------------------------------------
 #t hf aug-cc-pvdz iop(5/13=1,5/36=2,99/5=2) pseudo=read geom=check gue
 ss=(read,tcheck) scf=(maxcycle=1)
 ----------------------------------------------------------------------
 -----
 title
 -----
 Structure from the checkpoint file:  "Grambow2020_wb97xd3_006863_reverse_mol2.chk"
 Charge =  0 Multiplicity = 1

                         Standard orientation:
 ---------------------------------------------------------------------
 Center     Atomic      Atomic             Coordinates (Angstroms)
 Number     Number       Type             X           Y           Z
 ---------------------------------------------------------------------
      1          6           0       -3.233693   -0.208722    0.191698
      2          7           0       -1.935570   -0.337414   -0.426455
      3          6           0       -0.949919    0.194570    0.145651
      4          6           0        0.413209    0.085637   -0.418424
      5          6           0        1.580141   -0.040442    0.459027
      6          8           0        1.274178    1.191816   -0.167096
      7          6           0        2.831704   -0.739451    0.019339
      8          1           0       -3.628131   -1.204678    0.402917
      9          1           0       -3.919268    0.263382   -0.514549
     10          1           0       -3.221317    0.374532    1.122047
     11          1           0       -1.036910    0.764121    1.083028
     12          1           0        1.394408   -0.037704    1.532895
     13          1           0        0.463530   -0.330912   -1.420724
     14          1           0        3.708544   -0.259872    0.458099
     15          1           0        2.816741   -1.782732    0.340592
     16          1           0        2.929317   -0.708322   -1.066101
 ---------------------------------------------------------------------

 SCF Done:  E(RHF) =  -323.972590570     A.U. after    2 cycles

 The electronic state is 1-A.
 Alpha  occ. eigenvalues --  -20.59045 -15.63004 -11.30550 -11.29967 -11.29153
 Alpha  occ. eigenvalues --  -11.26132 -11.24039  -1.39227  -1.21020  -1.01444
 Alpha  occ. eigenvalues --   -0.99320  -0.90143  -0.83051  -0.78998  -0.69351
 Alpha  occ. eigenvalues --   -0.67607  -0.63118  -0.61258  -0.59784  -0.58130
 Alpha  occ. eigenvalues --   -0.56372  -0.53826  -0.52188  -0.48233  -0.46632
 Alpha  occ. eigenvalues --   -0.40772  -0.39642
 Alpha virt. eigenvalues --    0.03333   0.03907   0.04375   0.05055   0.05976
 Alpha virt. eigenvalues --    0.06351   0.06461   0.08193   0.08690   0.10918
 Alpha virt. eigenvalues --    0.11475   0.12365   0.12926   0.13927   0.14540

 Mulliken charges:
               1
     1  C    0.732775
     2  N   -0.563568
     3  C    0.407462
     4  C    1.134673
     5  C    0.156043
     6  O   -0.751191
     7  C    0.311507
     8  H   -0.138597
     9  H   -0.143268
    10  H   -0.085188
    11  H   -0.369518
    12  H   -0.331943
    13  H   -0.433366
    14  H    0.054306
    15  H    0.040402
    16  H   -0.020528
 Sum of Mulliken charges =  -0.00000

 Dipole moment (field-independent basis, Debye):
    X=             -0.0423    Y=             -1.4564    Z=              1.7514  Tot=              2.2783

 Test job not archived.
 1\1\GINC-SE226\SP\RHF\Aug-CC-pVDZ\C5H9N1O1\OHZDE\09-Apr-2025\0\\#t hf
 aug-cc-pvdz iop(5/13=1,5/36=2,99/5=2) pseudo=read geom=check guess=(re
 ad,tcheck) scf=(maxcycle=1)\\title\\0,1\C,0,2.34677102,-0.41784509,-2.
 17809305\N,0,1.01071469,-0.06858724,-1.75765208\C,0,0.61137022,-0.4861
 7484,-0.64052895\C,0,-0.73772439,-0.15026893,-0.13528223\C,0,-0.965556
 04,0.09048308,1.29219062\O,0,-1.34771221,-1.1343265,0.69394151\C,0,-2.
 0646105,0.98611779,1.78031853\H,0,2.91822184,0.49726049,-2.34587002\H,
 0,2.29375639,-0.94141459,-3.13451577\H,0,2.88433717,-1.04648875,-1.455

 Normal termination of Gaussian 16 at Wed Apr  9 15:22:06 2025.
