 Gaussian 16, Revision C.01,

 ----------------------------------------------------------------------
 #t hf aug-cc-pvdz symm=none int=(grid=ultrafine) guess=(read,tcheck) s
 table=(opt,rrhf)
 ----------------------------------------------------------------------
 -----
 title
 -----
 Symbolic Z-matrix:
 Charge =  0 Multiplicity = 1

 SCF Done:  E(RHF) =  -308.819900448     A.U. after   16 cycles

 1\1\GINC-SE097\Stability\RHF\Aug-CC-pVDZ\C6H12O1\OHZDE\09-Apr-2025\0\\
 #t hf aug-cc-pvdz symm=none int=(grid=ultrafine) guess=(read,tcheck) s
 table=(opt,rrhf)\\title\\0,1\C,0,1.64897808,0.99417818,1.14163209\O,0,
 1.88025486,-0.13347667,-0.49653329\C,0,0.77070606,-1.0177719,-0.593018
 86\C,0,-0.51457668,-0.19447554,-0.34548326\C,0,-0.21489856,1.24990428,
 -0.56488615\C,0,-1.81081833,-0.86631438,-0.68005349\C,0,-1.4283026,-0.
 64466945,0.75822751\H,0,2.48621359,0.40522187,1.49037665\H,0,0.7125119
 2,0.81591613,1.64571428\H,0,1.86773421,2.02676066,0.91893263\H,0,0.764

 Normal termination of Gaussian 16 at Wed Apr  9 16:11:36 2025.
 Gaussian 16:  ES64L-G16RevC.01  3-Jul-2019

 ----------------------------------------------------------------------
 #t hf aug-cc-pvdz iop(5/13=1,5/36=2,99/5=2) pseudo=read geom=check gue
 ss=(read,tcheck) scf=(maxcycle=1)
 ----------------------------------------------------------------------
 -----
 title
 -----
 Structure from the checkpoint file:  "Grambow2020_wb97xd3_007848_reverse_mol1.chk"
 Charge =  0 Multiplicity = 1

                         Standard orientation:
 ---------------------------------------------------------------------
 Center     Atomic      Atomic             Coordinates (Angstroms)
 Number     Number       Type             X           Y           Z
 ---------------------------------------------------------------------
      1          6           0        1.990322   -0.855288   -0.575825
      2          8           0        1.559318    0.941823    0.194440
      3          6           0        0.209211    1.254738   -0.124435
      4          6           0       -0.651999    0.008156    0.184427
      5          6           0        0.098169   -0.880049    1.118513
      6          6           0       -2.136309    0.208963    0.191278
      7          6           0       -1.486337   -0.555484   -0.929996
      8          1           0        2.610418   -0.264268   -1.235850
      9          1           0        1.139146   -1.329601   -1.037748
     10          1           0        2.520773   -1.454780    0.147298
     11          1           0       -0.094084    2.088678    0.515237
     12          1           0        0.160482    1.573674   -1.167786
     13          1           0        1.390964    0.237846    0.931886
     14          1           0        0.046401   -1.944923    0.912401
     15          1           0       -0.070360   -0.670963    2.177553
     16          1           0       -2.524594    1.197266   -0.033872
     17          1           0       -2.714704   -0.347249    0.917565
     18          1           0       -1.443891   -0.078270   -1.902886
     19          1           0       -1.633434   -1.628213   -0.963080
 ---------------------------------------------------------------------

 SCF Done:  E(RHF) =  -308.917339417     A.U. after    2 cycles

 The electronic state is 1-A.
 Alpha  occ. eigenvalues --  -20.59332 -11.35660 -11.28205 -11.22933 -11.22194
 Alpha  occ. eigenvalues --  -11.21672 -11.16568  -1.34166  -1.12841  -0.98082
 Alpha  occ. eigenvalues --   -0.93253  -0.89051  -0.81412  -0.73743  -0.70024
 Alpha  occ. eigenvalues --   -0.65768  -0.65441  -0.63063  -0.61894  -0.59932
 Alpha  occ. eigenvalues --   -0.56829  -0.52546  -0.50186  -0.47927  -0.45573
 Alpha  occ. eigenvalues --   -0.41951  -0.38536  -0.26230
 Alpha virt. eigenvalues --    0.02323   0.04130   0.04675   0.04860   0.05660
 Alpha virt. eigenvalues --    0.06273   0.06388   0.06820   0.07166   0.08298
 Alpha virt. eigenvalues --    0.08888   0.09492   0.09962   0.12408   0.13247

 Mulliken charges:
               1
     1  C    0.652644
     2  O   -0.732717
     3  C    1.039462
     4  C   -0.567983
     5  C    0.049418
     6  C    0.977513
     7  C    0.610261
     8  H   -0.118845
     9  H    0.017313
    10  H   -0.048315
    11  H   -0.142562
    12  H   -0.184994
    13  H    0.510653
    14  H   -0.333282
    15  H   -0.336285
    16  H   -0.374728
    17  H   -0.325197
    18  H   -0.363392
    19  H   -0.328962
 Sum of Mulliken charges =   0.00000

 Dipole moment (field-independent basis, Debye):
    X=              1.4939    Y=             -0.7978    Z=             -2.3742  Tot=              2.9163

 Test job not archived.
 1\1\GINC-SE097\SP\RHF\Aug-CC-pVDZ\C6H12O1\OHZDE\09-Apr-2025\0\\#t hf a
 ug-cc-pvdz iop(5/13=1,5/36=2,99/5=2) pseudo=read geom=check guess=(rea
 d,tcheck) scf=(maxcycle=1)\\title\\0,1\C,0,1.64897808,0.99417818,1.141
 63209\O,0,1.88025486,-0.13347667,-0.49653329\C,0,0.77070606,-1.0177719
 ,-0.59301886\C,0,-0.51457668,-0.19447554,-0.34548326\C,0,-0.21489856,1
 .24990428,-0.56488615\C,0,-1.81081833,-0.86631438,-0.68005349\C,0,-1.4
 283026,-0.64466945,0.75822751\H,0,2.48621359,0.40522187,1.49037665\H,0
 ,0.71251192,0.81591613,1.64571428\H,0,1.86773421,2.02676066,0.91893263

 Normal termination of Gaussian 16 at Wed Apr  9 16:11:43 2025.
