 Gaussian 16, Revision C.01,

 ----------------------------------------------------------------------
 #t hf aug-cc-pvdz symm=none int=(grid=ultrafine) guess=(read,tcheck) s
 table=(opt,rrhf)
 ----------------------------------------------------------------------
 -----
 title
 -----
 Symbolic Z-matrix:
 Charge =  0 Multiplicity = 1

 SCF Done:  E(RHF) =  -342.362953662     A.U. after   17 cycles
 Normal termination of Gaussian 16 at Wed Apr  9 16:50:10 2025.
 Gaussian 16:  ES64L-G16RevC.01  3-Jul-2019

 ----------------------------------------------------------------------
 #t hf aug-cc-pvdz iop(5/13=1,5/36=2,99/5=2) pseudo=read geom=check gue
 ss=(read,tcheck) scf=(maxcycle=1)
 ----------------------------------------------------------------------
 -----
 title
 -----
 Structure from the checkpoint file:  "Grambow2020_wb97xd3_008946_forward_mol1.chk"
 Charge =  0 Multiplicity = 1

                         Standard orientation:
 ---------------------------------------------------------------------
 Center     Atomic      Atomic             Coordinates (Angstroms)
 Number     Number       Type             X           Y           Z
 ---------------------------------------------------------------------
      1          8           0       -2.681679   -0.109771   -0.275239
      2          6           0       -1.509934   -0.029467   -0.075999
      3          6           0       -0.504221    1.088209   -0.148867
      4          6           0        0.502550    0.268970    0.426039
      5          6           0        2.074090    0.264873    0.249077
      6          8           0        2.085677   -0.525227   -0.787372
      7          6           0       -0.412048   -0.960793    0.442261
      8          1           0        0.142994    1.055658    1.231331
      9          1           0       -0.506726    2.134891   -0.431853
     10          1           0        2.354135    1.326397    0.089572
     11          1           0        2.547184   -0.094020    1.181791
     12          1           0       -0.070580   -1.668722   -0.313102
     13          1           0       -0.601610   -1.464967    1.388080
 ---------------------------------------------------------------------

 SCF Done:  E(RHF) =  -342.466128943     A.U. after    2 cycles

 The electronic state is 1-A.
 Alpha  occ. eigenvalues --  -20.62619 -20.46224 -11.40253 -11.38188 -11.33413
 Alpha  occ. eigenvalues --  -11.29714 -11.28807  -1.41812  -1.26037  -1.21679
 Alpha  occ. eigenvalues --   -0.99262  -0.93063  -0.82568  -0.78992  -0.73161
 Alpha  occ. eigenvalues --   -0.70047  -0.69193  -0.63025  -0.61000  -0.57064
 Alpha  occ. eigenvalues --   -0.55547  -0.54611  -0.52337  -0.47676  -0.36858
 Alpha  occ. eigenvalues --   -0.34633
 Alpha virt. eigenvalues --   -0.02448   0.01909   0.03307   0.04371   0.05113
 Alpha virt. eigenvalues --    0.06633   0.06811   0.07950   0.09771   0.10906
 Alpha virt. eigenvalues --    0.11866   0.12358   0.12822   0.13336   0.14207

 Mulliken charges:
               1
     1  O   -0.375138
     2  C    0.263810
     3  C    0.016715
     4  C   -0.588356
     5  C    0.974724
     6  O   -0.805933
     7  C    0.413396
     8  H    0.400531
     9  H   -0.208299
    10  H   -0.069218
    11  H   -0.097375
    12  H    0.116067
    13  H   -0.040923
 Sum of Mulliken charges =  -0.00000

 Dipole moment (field-independent basis, Debye):
    X=             -2.4650    Y=              3.7349    Z=              3.9441  Tot=              5.9650

 Test job not archived.
 1\1\GINC-SE100\SP\RHF\Aug-CC-pVDZ\C5H6O2\OHZDE\09-Apr-2025\0\\#t hf au
 g-cc-pvdz iop(5/13=1,5/36=2,99/5=2) pseudo=read geom=check guess=(read
 ,tcheck) scf=(maxcycle=1)\\title\\0,1\O,0,-2.91031244,-0.463391,-0.429
 32438\C,0,-1.7463435,-0.28229469,-0.25180421\C,0,-0.89810415,0.9338386
 ,0.00796014\C,0,0.2446659,0.12898847,0.25606075\C,0,1.78617351,0.40687
 192,0.03787331\O,0,1.81865095,-0.00629563,-1.1977878\C,0,-0.50361187,-
 1.16135762,-0.09630044\H,0,-0.149101,0.56171311,1.28287696\H,0,-1.0540
 8688,2.00455098,0.07777124\H,0,1.91715958,1.49325439,0.22040093\H,0,2.

 Normal termination of Gaussian 16 at Wed Apr  9 16:50:14 2025.
