 Gaussian 16, Revision C.01,

 ----------------------------------------------------------------------
 #t hf aug-cc-pvdz symm=none int=(grid=ultrafine) guess=(read,tcheck) s
 table=(opt,rrhf)
 ----------------------------------------------------------------------
 -----
 title
 -----
 Symbolic Z-matrix:
 Charge =  0 Multiplicity = 1

 SCF Done:  E(RHF) =  -345.938671843     A.U. after   15 cycles

 1\1\GINC-SE131\Stability\RHF\Aug-CC-pVDZ\C5H12O2\OHZDE\09-Apr-2025\0\\
 #t hf aug-cc-pvdz symm=none int=(grid=ultrafine) guess=(read,tcheck) s
 table=(opt,rrhf)\\title\\0,1\C,0,-2.44113447,-0.24667697,0.92718598\O,
 0,-1.05487202,-0.40725962,1.06328574\C,0,-0.27785136,0.3018478,0.09659
 927\C,0,-0.34475647,1.80692894,0.31511516\C,0,1.13298131,-0.20567497,0
 .16279426\C,0,1.41590929,-1.49786298,-0.33433747\O,0,2.18120943,-0.878
 21513,-1.90300484\H,0,-2.78212368,0.75230245,1.22420312\H,0,-2.9185723
 2,-0.97920388,1.57791616\H,0,-2.76633421,-0.43026886,-0.10676971\H,0,-

 Normal termination of Gaussian 16 at Wed Apr  9 16:15:26 2025.
 Gaussian 16:  ES64L-G16RevC.01  3-Jul-2019

 ----------------------------------------------------------------------
 #t hf aug-cc-pvdz iop(5/13=1,5/36=2,99/5=2) pseudo=read geom=check gue
 ss=(read,tcheck) scf=(maxcycle=1)
 ----------------------------------------------------------------------
 -----
 title
 -----
 Structure from the checkpoint file:  "Grambow2020_wb97xd3_008015_reverse_mol1.chk"
 Charge =  0 Multiplicity = 1

                         Standard orientation:
 ---------------------------------------------------------------------
 Center     Atomic      Atomic             Coordinates (Angstroms)
 Number     Number       Type             X           Y           Z
 ---------------------------------------------------------------------
      1          6           0       -2.523014   -0.866258   -0.391476
      2          8           0       -1.375257   -0.673501    0.390528
      3          6           0       -0.478947    0.321706   -0.106733
      4          6           0       -1.065397    1.720862    0.019493
      5          6           0        0.820690    0.196607    0.633339
      6          6           0        1.656381   -0.909627    0.359834
      7          8           0        2.845992    0.066919   -0.670483
      8          1           0       -3.231534   -0.032836   -0.314921
      9          1           0       -3.015227   -1.768768   -0.029270
     10          1           0       -2.267014   -1.006763   -1.451310
     11          1           0       -0.304021    0.104772   -1.173738
     12          1           0       -1.266285    1.948143    1.068670
     13          1           0       -1.996717    1.825644   -0.538630
     14          1           0       -0.359193    2.457458   -0.365892
     15          1           0        0.830616    0.578301    1.650780
     16          1           0        1.943284    0.689072   -0.122579
     17          1           0        2.334031   -1.291847    1.114343
     18          1           0        1.392211   -1.620496   -0.414116
     19          1           0        3.715690    0.190238   -0.270445
 ---------------------------------------------------------------------

 SCF Done:  E(RHF) =  -346.050059355     A.U. after    2 cycles

 The electronic state is 1-A.
 Alpha  occ. eigenvalues --  -20.55953 -20.55709 -11.32617 -11.28315 -11.27298
 Alpha  occ. eigenvalues --  -11.21714 -11.19780  -1.32492  -1.28135  -1.06800
 Alpha  occ. eigenvalues --   -0.99356  -0.92249  -0.84405  -0.78185  -0.72192
 Alpha  occ. eigenvalues --   -0.67226  -0.66205  -0.63647  -0.61920  -0.59351
 Alpha  occ. eigenvalues --   -0.56273  -0.54323  -0.52796  -0.51261  -0.50774
 Alpha  occ. eigenvalues --   -0.49158  -0.46156  -0.42385  -0.34030
 Alpha virt. eigenvalues --    0.03321   0.04108   0.04643   0.04985   0.06078
 Alpha virt. eigenvalues --    0.06167   0.06576   0.07084   0.08518   0.08739
 Alpha virt. eigenvalues --    0.09117   0.10968   0.11954   0.13017   0.13922

 Mulliken charges:
               1
     1  C    0.731802
     2  O   -0.711129
     3  C    0.262624
     4  C    0.474438
     5  C   -0.089244
     6  C    0.826036
     7  O   -0.661740
     8  H   -0.134403
     9  H   -0.259158
    10  H   -0.077283
    11  H   -0.220063
    12  H    0.006672
    13  H   -0.132350
    14  H   -0.019862
    15  H   -0.312189
    16  H    0.743392
    17  H   -0.253971
    18  H   -0.314618
    19  H    0.141047
 Sum of Mulliken charges =  -0.00000

 Dipole moment (field-independent basis, Debye):
    X=              0.5445    Y=             -0.4457    Z=              0.5107  Tot=              0.8695

 Test job not archived.
 1\1\GINC-SE131\SP\RHF\Aug-CC-pVDZ\C5H12O2\OHZDE\09-Apr-2025\0\\#t hf a
 ug-cc-pvdz iop(5/13=1,5/36=2,99/5=2) pseudo=read geom=check guess=(rea
 d,tcheck) scf=(maxcycle=1)\\title\\0,1\C,0,-2.44113447,-0.24667697,0.9
 2718598\O,0,-1.05487202,-0.40725962,1.06328574\C,0,-0.27785136,0.30184
 78,0.09659927\C,0,-0.34475647,1.80692894,0.31511516\C,0,1.13298131,-0.
 20567497,0.16279426\C,0,1.41590929,-1.49786298,-0.33433747\O,0,2.18120
 943,-0.87821513,-1.90300484\H,0,-2.78212368,0.75230245,1.22420312\H,0,
 -2.91857232,-0.97920388,1.57791616\H,0,-2.76633421,-0.43026886,-0.1067

 Normal termination of Gaussian 16 at Wed Apr  9 16:15:34 2025.
