 Gaussian 16, Revision C.01,

 ----------------------------------------------------------------------
 #t hf aug-cc-pvdz symm=none int=(grid=ultrafine) guess=(read,tcheck) s
 table=(opt,rrhf)
 ----------------------------------------------------------------------
 -----
 title
 -----
 Symbolic Z-matrix:
 Charge =  0 Multiplicity = 1

 SCF Done:  E(RHF) =  -344.797800321     A.U. after   13 cycles

 1\1\GINC-SE452\Stability\RHF\Aug-CC-pVDZ\C5H10O2\OHZDE\09-Apr-2025\0\\
 #t hf aug-cc-pvdz symm=none int=(grid=ultrafine) guess=(read,tcheck) s
 table=(opt,rrhf)\\title\\0,1\O,0,2.53579109,0.15971969,1.16771639\C,0,
 2.34266432,-0.17941764,0.03574253\C,0,-0.3630131,-1.98527013,0.2512908
 3\C,0,-0.86262262,-0.76571774,0.23492353\C,0,-1.57543373,0.10762414,-0
 .76432379\O,0,-1.61364538,1.18439998,0.18792619\C,0,-0.9584009,0.38833
 025,1.19729532\H,0,0.83160579,2.94287056,-0.88621786\H,0,2.73721659,-1
 .13203584,-0.36522259\H,0,1.76389085,0.44394711,-0.67084075\H,0,0.1213

 Normal termination of Gaussian 16 at Wed Apr  9 03:40:31 2025.
 Gaussian 16:  ES64L-G16RevC.01  3-Jul-2019

 ----------------------------------------------------------------------
 #t hf aug-cc-pvdz iop(5/13=1,5/36=2,99/5=2) pseudo=read geom=check gue
 ss=(read,tcheck) scf=(maxcycle=1)
 ----------------------------------------------------------------------
 -----
 title
 -----
 Structure from the checkpoint file:  "Grambow2020_wb97xd3_007539_reverse_mol2.chk"
 Charge =  0 Multiplicity = 1

                         Standard orientation:
 ---------------------------------------------------------------------
 Center     Atomic      Atomic             Coordinates (Angstroms)
 Number     Number       Type             X           Y           Z
 ---------------------------------------------------------------------
      1          8           0       -2.629727   -0.462590    0.489997
      2          6           0       -2.298417   -0.099410   -0.601796
      3          6           0        0.153021    1.960421    0.011232
      4          6           0        0.765456    0.795540    0.083063
      5          6           0        1.705279    0.001937   -0.786562
      6          8           0        1.700903   -1.071701    0.169978
      7          6           0        0.823642   -0.349446    1.059168
      8          1           0       -0.366786   -3.053795   -1.251720
      9          1           0       -2.717276    0.812580   -1.067367
     10          1           0       -1.559806   -0.659072   -1.205165
     11          1           0       -0.498096    2.302422    0.806919
     12          1           0        0.289647    2.616397   -0.840599
     13          1           0        0.186340   -2.710460   -0.884048
     14          1           0        2.703892    0.429239   -0.920215
     15          1           0        1.311975   -0.311225   -1.759540
     16          1           0       -0.119146   -0.876445    1.235207
     17          1           0        1.305951   -0.129561    2.016098
 ---------------------------------------------------------------------

 SCF Done:  E(RHF) =  -344.912940150     A.U. after    2 cycles

 The electronic state is 1-A.
 Alpha  occ. eigenvalues --  -20.58788 -20.57401 -11.35239 -11.30250 -11.29634
 Alpha  occ. eigenvalues --  -11.26525 -11.24581  -1.37467  -1.35766  -1.06470
 Alpha  occ. eigenvalues --   -0.95236  -0.91475  -0.86520  -0.74144  -0.70627
 Alpha  occ. eigenvalues --   -0.69066  -0.67510  -0.66565  -0.65185  -0.58773
 Alpha  occ. eigenvalues --   -0.58270  -0.57838  -0.55401  -0.51168  -0.47696
 Alpha  occ. eigenvalues --   -0.46393  -0.45150  -0.37519
 Alpha virt. eigenvalues --    0.02947   0.04154   0.04563   0.04924   0.06286
 Alpha virt. eigenvalues --    0.06462   0.06903   0.07412   0.08655   0.09665
 Alpha virt. eigenvalues --    0.10486   0.11551   0.11760   0.12414   0.13233

 Mulliken charges:
               1
     1  O   -0.417584
     2  C    0.709466
     3  C    1.192125
     4  C   -0.782304
     5  C    0.703195
     6  O   -0.746498
     7  C    0.807192
     8  H    0.092413
     9  H   -0.145199
    10  H   -0.161465
    11  H   -0.376254
    12  H   -0.363144
    13  H   -0.075398
    14  H   -0.104919
    15  H   -0.097938
    16  H   -0.139668
    17  H   -0.094020
 Sum of Mulliken charges =  -0.00000

 Dipole moment (field-independent basis, Debye):
    X=              0.2636    Y=              2.6562    Z=             -2.4892  Tot=              3.6498

 Test job not archived.
 1\1\GINC-SE452\SP\RHF\Aug-CC-pVDZ\C5H10O2\OHZDE\09-Apr-2025\0\\#t hf a
 ug-cc-pvdz iop(5/13=1,5/36=2,99/5=2) pseudo=read geom=check guess=(rea
 d,tcheck) scf=(maxcycle=1)\\title\\0,1\O,0,2.53579109,0.15971969,1.167
 71639\C,0,2.34266432,-0.17941764,0.03574253\C,0,-0.3630131,-1.98527013
 ,0.25129083\C,0,-0.86262262,-0.76571774,0.23492353\C,0,-1.57543373,0.1
 0762414,-0.76432379\O,0,-1.61364538,1.18439998,0.18792619\C,0,-0.95840
 09,0.38833025,1.19729532\H,0,0.83160579,2.94287056,-0.88621786\H,0,2.7
 3721659,-1.13203584,-0.36522259\H,0,1.76389085,0.44394711,-0.67084075\

 Normal termination of Gaussian 16 at Wed Apr  9 03:40:36 2025.
