 Gaussian 16, Revision C.01,

 ----------------------------------------------------------------------
 #t hf aug-cc-pvdz symm=none int=(grid=ultrafine) guess=(read,tcheck) s
 table=(opt,rrhf)
 ----------------------------------------------------------------------
 -----
 title
 -----
 Symbolic Z-matrix:
 Charge =  0 Multiplicity = 1

 SCF Done:  E(RHF) =  -343.610524018     A.U. after   17 cycles
 Normal termination of Gaussian 16 at Wed Apr  9 15:07:02 2025.
 Gaussian 16:  ES64L-G16RevC.01  3-Jul-2019

 ----------------------------------------------------------------------
 #t hf aug-cc-pvdz iop(5/13=1,5/36=2,99/5=2) pseudo=read geom=check gue
 ss=(read,tcheck) scf=(maxcycle=1)
 ----------------------------------------------------------------------
 -----
 title
 -----
 Structure from the checkpoint file:  "Grambow2020_wb97xd3_006675_forward_mol1.chk"
 Charge =  0 Multiplicity = 1

                         Standard orientation:
 ---------------------------------------------------------------------
 Center     Atomic      Atomic             Coordinates (Angstroms)
 Number     Number       Type             X           Y           Z
 ---------------------------------------------------------------------
      1          6           0        2.359045    0.211948   -0.658495
      2          6           0        1.122530   -0.143521    0.076698
      3          8           0        1.041214   -1.392123    0.424856
      4          6           0        0.285463    0.932413    0.678031
      5          6           0       -1.050652    1.113715   -0.037724
      6          6           0       -1.552222   -0.363887   -0.156690
      7          8           0       -2.718419   -0.566199   -0.344018
      8          1           0        3.156466    0.378915    0.076148
      9          1           0        2.669066   -0.592269   -1.321920
     10          1           0        2.222800    1.138981   -1.213576
     11          1           0        0.062158   -1.505913    0.590177
     12          1           0        0.073062    0.623176    1.709583
     13          1           0        0.877656    1.851151    0.692114
     14          1           0       -1.724620    1.809404    0.477531
     15          1           0       -0.903934    1.459123   -1.067677
 ---------------------------------------------------------------------

 SCF Done:  E(RHF) =  -343.718213108     A.U. after    2 cycles

 The electronic state is 1-A.
 Alpha  occ. eigenvalues --  -20.67839 -20.49884 -11.45380 -11.30412 -11.28737
 Alpha  occ. eigenvalues --  -11.23843 -11.22927  -1.46398  -1.28697  -1.13017
 Alpha  occ. eigenvalues --   -1.05688  -0.91943  -0.86789  -0.77597  -0.72811
 Alpha  occ. eigenvalues --   -0.69176  -0.68060  -0.63085  -0.62725  -0.61378
 Alpha  occ. eigenvalues --   -0.60470  -0.55700  -0.54282  -0.53363  -0.47615
 Alpha  occ. eigenvalues --   -0.45810  -0.24706
 Alpha virt. eigenvalues --    0.01229   0.02526   0.03615   0.03818   0.04927
 Alpha virt. eigenvalues --    0.06049   0.06733   0.06777   0.07493   0.10198
 Alpha virt. eigenvalues --    0.10458   0.12437   0.12908   0.13166   0.14092

 Mulliken charges:
               1
     1  C    0.381406
     2  C   -0.029227
     3  O   -0.484852
     4  C    0.345904
     5  C    0.274746
     6  C   -0.216701
     7  O   -0.466917
     8  H    0.181312
     9  H   -0.026559
    10  H    0.030938
    11  H    0.317724
    12  H   -0.010400
    13  H   -0.058941
    14  H   -0.153842
    15  H   -0.084591
 Sum of Mulliken charges =   0.00000

 Dipole moment (field-independent basis, Debye):
    X=              9.0052    Y=              3.3500    Z=              0.9610  Tot=              9.6561

 Test job not archived.
 1\1\GINC-SE226\SP\RHF\Aug-CC-pVDZ\C5H8O2\OHZDE\09-Apr-2025\0\\#t hf au
 g-cc-pvdz iop(5/13=1,5/36=2,99/5=2) pseudo=read geom=check guess=(read
 ,tcheck) scf=(maxcycle=1)\\title\\0,1\C,0,-1.93610514,-0.67223299,0.30
 443251\C,0,-0.82745022,0.26349901,0.0025626\O,0,-1.17152288,1.29944489
 ,-0.70118665\C,0,0.43805433,0.18646851,0.78517475\C,0,1.61281958,-0.33
 644175,-0.0375468\C,0,1.49187166,0.51589623,-1.34442286\O,0,2.44941167
 ,0.62223965,-2.05705617\H,0,-2.48467112,-0.28272959,1.17093246\H,0,-2.
 62775943,-0.747871,-0.53157248\H,0,-1.54793815,-1.65345254,0.57388181\

 Normal termination of Gaussian 16 at Wed Apr  9 15:07:07 2025.
