 Gaussian 16, Revision C.01,

 ----------------------------------------------------------------------
 #t hf aug-cc-pvdz symm=none int=(grid=ultrafine) guess=(read,tcheck) s
 table=(opt,rrhf)
 ----------------------------------------------------------------------
 -----
 title
 -----
 Symbolic Z-matrix:
 Charge =  0 Multiplicity = 1

 SCF Done:  E(RHF) =  -305.746956345     A.U. after   15 cycles
 Normal termination of Gaussian 16 at Wed Apr  9 14:17:16 2025.
 Gaussian 16:  ES64L-G16RevC.01  3-Jul-2019

 ----------------------------------------------------------------------
 #t hf aug-cc-pvdz iop(5/13=1,5/36=2,99/5=2) pseudo=read geom=check gue
 ss=(read,tcheck) scf=(maxcycle=1)
 ----------------------------------------------------------------------
 -----
 title
 -----
 Structure from the checkpoint file:  "Grambow2020_b97d3_006969_reverse_mol2.chk"
 Charge =  0 Multiplicity = 1

                         Standard orientation:
 ---------------------------------------------------------------------
 Center     Atomic      Atomic             Coordinates (Angstroms)
 Number     Number       Type             X           Y           Z
 ---------------------------------------------------------------------
      1          8           0       -0.950853   -1.348156    0.373981
      2          6           0       -1.518946   -0.276610   -0.309492
      3          6           0       -0.959469    1.202090    0.135610
      4          6           0        0.365052    1.119849   -0.445736
      5          6           0        1.364597    0.450007    0.448467
      6          8           0        1.731070   -0.755781   -0.283796
      7          1           0       -0.022766   -1.461081    0.051145
      8          1           0       -1.436172   -0.346309   -1.403563
      9          1           0       -2.577894   -0.234055   -0.028140
     10          1           0       -1.639903    1.905863   -0.365521
     11          1           0       -1.077106    1.239241    1.234688
     12          1           0        1.748616   -0.454843   -1.221948
     13          1           0        1.026976    0.086367    1.435015
     14          1           0        2.229106    1.124288    0.603748
 ---------------------------------------------------------------------

 SCF Done:  E(RHF) =  -305.839735050     A.U. after    2 cycles

 The electronic state is 1-A.
 Alpha  occ. eigenvalues --  -20.60020 -20.57647 -11.32023 -11.30644 -11.28131
 Alpha  occ. eigenvalues --  -11.25518  -1.34330  -1.32580  -1.07357  -0.96296
 Alpha  occ. eigenvalues --   -0.87479  -0.77724  -0.72818  -0.68476  -0.64949
 Alpha  occ. eigenvalues --   -0.63698  -0.61779  -0.58973  -0.57072  -0.55086
 Alpha  occ. eigenvalues --   -0.49931  -0.47419  -0.44601  -0.36306
 Alpha virt. eigenvalues --    0.03457   0.04093   0.04468   0.05021   0.06417
 Alpha virt. eigenvalues --    0.06594   0.06998   0.07454   0.08625   0.10678
 Alpha virt. eigenvalues --    0.12807   0.13552   0.14218   0.14490   0.15460

 Mulliken charges:
               1
     1  O   -0.533673
     2  C    0.559204
     3  C    0.267364
     4  C   -0.406457
     5  C    0.973770
     6  O   -0.653662
     7  H    0.260937
     8  H   -0.049010
     9  H   -0.157534
    10  H   -0.077646
    11  H   -0.078382
    12  H    0.241655
    13  H   -0.234862
    14  H   -0.111704
 Sum of Mulliken charges =  -0.00000

 Dipole moment (field-independent basis, Debye):
    X=             -0.4003    Y=              2.0146    Z=             -0.0505  Tot=              2.0546

 Test job not archived.
 1\1\GINC-SE232\SP\RHF\Aug-CC-pVDZ\C4H8O2\OHZDE\09-Apr-2025\0\\#t hf au
 g-cc-pvdz iop(5/13=1,5/36=2,99/5=2) pseudo=read geom=check guess=(read
 ,tcheck) scf=(maxcycle=1)\\title\\0,1\O,0,1.31731922,1.03602262,0.5380
 7221\C,0,1.4822913,-0.25264977,0.03788866\C,0,0.21530034,-1.26403446,0
 .30155364\C,0,-0.72928368,-0.67988652,-0.62883091\C,0,-1.49923548,0.46
 856659,-0.0495153\O,0,-1.07413912,1.60968885,-0.85049639\H,0,0.6595182
 1,1.50509604,-0.03253024\H,0,1.71935862,-0.29170863,-1.03494605\H,0,2.
 29433268,-0.72211331,0.60580862\H,0,0.59871199,-2.25250911,0.00943476\

 Normal termination of Gaussian 16 at Wed Apr  9 14:17:20 2025.
