 Gaussian 16, Revision C.01,

 ----------------------------------------------------------------------
 #t hf aug-cc-pvdz symm=none int=(grid=ultrafine) guess=(read,tcheck) s
 table=(opt,rrhf)
 ----------------------------------------------------------------------
 -----
 title
 -----
 Symbolic Z-matrix:
 Charge =  0 Multiplicity = 1

 SCF Done:  E(RHF) =  -317.685168148     A.U. after   16 cycles
 Normal termination of Gaussian 16 at Wed Apr  9 03:46:48 2025.
 Gaussian 16:  ES64L-G16RevC.01  3-Jul-2019

 ----------------------------------------------------------------------
 #t hf aug-cc-pvdz iop(5/13=1,5/36=2,99/5=2) pseudo=read geom=check gue
 ss=(read,tcheck) scf=(maxcycle=1)
 ----------------------------------------------------------------------
 -----
 title
 -----
 Structure from the checkpoint file:  "Grambow2020_wb97xd3_007979_reverse_mol2.chk"
 Charge =  0 Multiplicity = 1

                         Standard orientation:
 ---------------------------------------------------------------------
 Center     Atomic      Atomic             Coordinates (Angstroms)
 Number     Number       Type             X           Y           Z
 ---------------------------------------------------------------------
      1          7           0       -2.208480   -0.015824   -0.054102
      2          6           0       -0.840601   -0.050328   -0.004346
      3          7           0       -0.217658   -1.205480    0.017732
      4          6           0        1.125517   -1.167292   -0.014102
      5          6           0        1.973948   -0.038694    0.027993
      6          6           0        1.220691    1.103127    0.018113
      7          7           0       -0.158724    1.102400   -0.038011
      8          1           0       -2.684229    0.749633    0.391165
      9          1           0       -2.627055   -0.918754    0.096556
     10          1           0        1.562187   -2.163948   -0.066271
     11          1           0       -0.662584    1.973280   -0.119313
     12          1           0        1.628380    2.111234    0.052580
 ---------------------------------------------------------------------

 SCF Done:  E(RHF) =  -317.777677301     A.U. after    2 cycles

 The electronic state is 1-A.
 Alpha  occ. eigenvalues --  -15.72025 -15.67638 -15.63329 -11.40018 -11.29953
 Alpha  occ. eigenvalues --  -11.29902 -11.16477  -1.34401  -1.21497  -1.19036
 Alpha  occ. eigenvalues --   -1.02874  -0.91029  -0.88695  -0.78650  -0.73682
 Alpha  occ. eigenvalues --   -0.71660  -0.66928  -0.64175  -0.62292  -0.55883
 Alpha  occ. eigenvalues --   -0.49240  -0.44792  -0.44047  -0.32635  -0.29887
 Alpha virt. eigenvalues --    0.01157   0.02888   0.04662   0.06094   0.06144
 Alpha virt. eigenvalues --    0.07261   0.08420   0.10435   0.11971   0.12600
 Alpha virt. eigenvalues --    0.12963   0.13170   0.14507   0.14841   0.15474

 Mulliken charges:
               1
     1  N   -0.232189
     2  C    0.832008
     3  N   -0.514441
     4  C    0.711528
     5  C   -0.571456
     6  C    0.828221
     7  N   -0.368378
     8  H   -0.051079
     9  H    0.042798
    10  H   -0.293125
    11  H   -0.045883
    12  H   -0.338003
 Sum of Mulliken charges =  -0.00000

 Dipole moment (field-independent basis, Debye):
    X=             -6.7486    Y=              3.1651    Z=              0.6539  Tot=              7.4826

 Test job not archived.
 1\1\GINC-SE284\SP\RHF\Aug-CC-pVDZ\C4H5N3\OHZDE\09-Apr-2025\0\\#t hf au
 g-cc-pvdz iop(5/13=1,5/36=2,99/5=2) pseudo=read geom=check guess=(read
 ,tcheck) scf=(maxcycle=1)\\title\\0,1\N,0,2.05592263,-0.05608355,0.214
 8802\C,0,0.69513637,-0.1398797,0.08839679\N,0,0.10683687,-1.3123848,0.
 13373478\C,0,-1.23630638,-1.3158155,0.08328704\C,0,-2.11139011,-0.2238
 691,-0.10964335\C,0,-1.39195603,0.93858381,-0.15827949\N,0,-0.01907689
 ,0.98824565,-0.0216239\H,0,2.53675096,0.6824683,-0.26872051\H,0,2.5077
 039,-0.95448795,0.17072075\H,0,-1.64767775,-2.31785527,0.19911594\H,0,

 Normal termination of Gaussian 16 at Wed Apr  9 03:46:53 2025.
