 Gaussian 16, Revision C.01,

 ----------------------------------------------------------------------
 #t hf aug-cc-pvdz symm=none int=(grid=ultrafine) guess=(read,tcheck) s
 table=(opt,rrhf)
 ----------------------------------------------------------------------
 -----
 title
 -----
 Symbolic Z-matrix:
 Charge =  0 Multiplicity = 1

 SCF Done:  E(RHF) =  -307.022668827     A.U. after   14 cycles

 1\1\GINC-SE042\Stability\RHF\Aug-CC-pVDZ\C4H10O2\OHZDE\09-Apr-2025\0\\
 #t hf aug-cc-pvdz symm=none int=(grid=ultrafine) guess=(read,tcheck) s
 table=(opt,rrhf)\\title\\0,1\C,0,2.63841055,-0.53277445,-0.67194738\O,
 0,1.96109599,0.63941072,-0.23270906\C,0,0.59725133,0.39269991,0.045915
 58\C,0,0.39801091,-0.35390071,1.36440647\C,0,-3.05061899,0.44283157,-0
 .58651582\O,0,-0.62245865,-0.93445799,1.68433604\H,0,2.60401815,-1.341
 63409,0.08022818\H,0,2.20787689,-0.91834393,-1.61386848\H,0,3.68325039
 ,-0.24881989,-0.84137572\H,0,0.07979812,-0.14768897,-0.76721564\H,0,0.

 Normal termination of Gaussian 16 at Wed Apr  9 03:05:56 2025.
 Gaussian 16:  ES64L-G16RevC.01  3-Jul-2019

 ----------------------------------------------------------------------
 #t hf aug-cc-pvdz iop(5/13=1,5/36=2,99/5=2) pseudo=read geom=check gue
 ss=(read,tcheck) scf=(maxcycle=1)
 ----------------------------------------------------------------------
 -----
 title
 -----
 Structure from the checkpoint file:  "Grambow2020_b97d3_006566_reverse_mol2.chk"
 Charge =  0 Multiplicity = 1

                         Standard orientation:
 ---------------------------------------------------------------------
 Center     Atomic      Atomic             Coordinates (Angstroms)
 Number     Number       Type             X           Y           Z
 ---------------------------------------------------------------------
      1          6           0        2.460560   -0.553337    0.601905
      2          8           0        1.686611   -0.649006   -0.588706
      3          6           0        0.332327   -0.306411   -0.371652
      4          6           0        0.129221    1.201206   -0.225479
      5          6           0       -3.280458   -0.938210    0.136343
      6          8           0       -0.861677    1.723803    0.249676
      7          1           0        2.449936    0.467028    1.026107
      8          1           0        2.097589   -1.253236    1.376263
      9          1           0        3.489714   -0.815328    0.331295
     10          1           0       -0.112114   -0.825600    0.496609
     11          1           0       -0.223224   -0.629205   -1.266928
     12          1           0        0.978323    1.801476   -0.640407
     13          1           0       -4.343531   -0.758922    0.337982
     14          1           0       -2.914228   -1.729156    0.803305
     15          1           0       -3.159653   -1.258373   -0.906532
     16          1           0       -2.712184   -0.016552    0.307845
 ---------------------------------------------------------------------

 SCF Done:  E(RHF) =  -307.125136380     A.U. after    2 cycles

 The electronic state is 1-A.
 Alpha  occ. eigenvalues --  -20.59806 -20.58712 -11.35840 -11.31432 -11.30431
 Alpha  occ. eigenvalues --  -11.21472  -1.36853  -1.35353  -1.01440  -0.93056
 Alpha  occ. eigenvalues --   -0.92157  -0.81589  -0.70455  -0.68810  -0.68656
 Alpha  occ. eigenvalues --   -0.64675  -0.60594  -0.57698  -0.54057  -0.53968
 Alpha  occ. eigenvalues --   -0.53889  -0.53309  -0.51076  -0.48825  -0.43182
 Alpha virt. eigenvalues --    0.03174   0.04228   0.04659   0.05352   0.05860
 Alpha virt. eigenvalues --    0.06471   0.07258   0.08122   0.08844   0.09388
 Alpha virt. eigenvalues --    0.10253   0.12155   0.12549   0.13589   0.13920

 Mulliken charges:
               1
     1  C    0.652735
     2  O   -0.663797
     3  C    0.592882
     4  C    0.498432
     5  C    0.723528
     6  O   -0.475850
     7  H   -0.077221
     8  H   -0.054000
     9  H   -0.218651
    10  H   -0.060047
    11  H   -0.106756
    12  H   -0.107220
    13  H   -0.164105
    14  H   -0.136017
    15  H   -0.139356
    16  H   -0.264556
 Sum of Mulliken charges =  -0.00000

 Dipole moment (field-independent basis, Debye):
    X=              2.2083    Y=             -1.2675    Z=              0.2845  Tot=              2.5621

 Test job not archived.
 1\1\GINC-SE042\SP\RHF\Aug-CC-pVDZ\C4H10O2\OHZDE\09-Apr-2025\0\\#t hf a
 ug-cc-pvdz iop(5/13=1,5/36=2,99/5=2) pseudo=read geom=check guess=(rea
 d,tcheck) scf=(maxcycle=1)\\title\\0,1\C,0,2.63841055,-0.53277445,-0.6
 7194738\O,0,1.96109599,0.63941072,-0.23270906\C,0,0.59725133,0.3926999
 1,0.04591558\C,0,0.39801091,-0.35390071,1.36440647\C,0,-3.05061899,0.4
 4283157,-0.58651582\O,0,-0.62245865,-0.93445799,1.68433604\H,0,2.60401
 815,-1.34163409,0.08022818\H,0,2.20787689,-0.91834393,-1.61386848\H,0,
 3.68325039,-0.24881989,-0.84137572\H,0,0.07979812,-0.14768897,-0.76721

 Normal termination of Gaussian 16 at Wed Apr  9 03:06:01 2025.
