 Gaussian 16, Revision C.01,

 ----------------------------------------------------------------------
 #t hf aug-cc-pvdz symm=none int=(grid=ultrafine) guess=(read,tcheck) s
 table=(opt,rrhf)
 ----------------------------------------------------------------------
 -----
 title
 -----
 Symbolic Z-matrix:
 Charge =  0 Multiplicity = 1

 SCF Done:  E(RHF) =  -283.670429670     A.U. after   14 cycles
 Normal termination of Gaussian 16 at Wed Apr  9 14:24:07 2025.
 Gaussian 16:  ES64L-G16RevC.01  3-Jul-2019

 ----------------------------------------------------------------------
 #t hf aug-cc-pvdz iop(5/13=1,5/36=2,99/5=2) pseudo=read geom=check gue
 ss=(read,tcheck) scf=(maxcycle=1)
 ----------------------------------------------------------------------
 -----
 title
 -----
 Structure from the checkpoint file:  "Grambow2020_wb97xd3_006229_reverse_mol2.chk"
 Charge =  0 Multiplicity = 1

                         Standard orientation:
 ---------------------------------------------------------------------
 Center     Atomic      Atomic             Coordinates (Angstroms)
 Number     Number       Type             X           Y           Z
 ---------------------------------------------------------------------
      1          8           0        3.063652    0.153420   -0.545008
      2          6           0        2.099236   -0.002790    0.083094
      3          6           0       -1.966467   -1.290924   -0.184583
      4          6           0       -2.074132    0.005327   -0.120836
      5          6           0       -2.167215    1.298171   -0.051611
      6          7           0        1.167993   -0.120436    0.840362
      7          1           0       -2.207619   -1.913166    0.669700
      8          1           0       -1.658853   -1.779898   -1.101809
      9          1           0       -3.092512    1.803434   -0.301173
     10          1           0       -1.321233    1.901164    0.257502
     11          1           0        0.246529   -0.454544    0.596925
 ---------------------------------------------------------------------

 SCF Done:  E(RHF) =  -283.763626952     A.U. after    2 cycles

 The electronic state is 1-A.
 Alpha  occ. eigenvalues --  -20.63024 -15.64782 -11.42131 -11.29211 -11.26753
 Alpha  occ. eigenvalues --  -11.26448  -1.43787  -1.22569  -1.09066  -0.97801
 Alpha  occ. eigenvalues --   -0.80403  -0.73820  -0.73492  -0.66527  -0.65271
 Alpha  occ. eigenvalues --   -0.65104  -0.63199  -0.62961  -0.47886  -0.44728
 Alpha  occ. eigenvalues --   -0.40358  -0.40038
 Alpha virt. eigenvalues --    0.03112   0.03875   0.04788   0.05149   0.07032
 Alpha virt. eigenvalues --    0.08866   0.09262   0.09663   0.10533   0.11489
 Alpha virt. eigenvalues --    0.12684   0.13093   0.13576   0.15351   0.15755

 Mulliken charges:
               1
     1  O   -0.178855
     2  C   -0.107040
     3  C    0.719297
     4  C   -0.745735
     5  C    0.888297
     6  N    0.149612
     7  H   -0.219990
     8  H   -0.225707
     9  H   -0.213067
    10  H   -0.221474
    11  H    0.154661
 Sum of Mulliken charges =   0.00000

 Dipole moment (field-independent basis, Debye):
    X=             -3.0380    Y=             -0.5696    Z=             -0.1024  Tot=              3.0926

 Test job not archived.
 1\1\GINC-SE112\SP\RHF\Aug-CC-pVDZ\C4H5N1O1\OHZDE\09-Apr-2025\0\\#t hf
 aug-cc-pvdz iop(5/13=1,5/36=2,99/5=2) pseudo=read geom=check guess=(re
 ad,tcheck) scf=(maxcycle=1)\\title\\0,1\O,0,-0.41877905,3.02922528,2.3
 1081671\C,0,-0.09825676,2.48662119,1.33518428\C,0,-1.03135902,-0.84701
 812,-1.17021974\C,0,0.03493977,-1.24597473,-0.53795194\C,0,1.10103622,
 -1.62905276,0.09576033\N,0,0.32986562,2.01661932,0.31033426\H,0,-0.982
 70515,-0.54499023,-2.21019576\H,0,-1.99763128,-0.83304372,-0.67915062\
 H,0,1.40164693,-2.66989828,0.10029644\H,0,1.71440759,-0.9160862,0.6345

 Normal termination of Gaussian 16 at Wed Apr  9 14:24:10 2025.
