 Gaussian 16, Revision C.01,

 ----------------------------------------------------------------------
 #t hf aug-cc-pvdz symm=none int=(grid=ultrafine) guess=(read,tcheck) s
 table=(opt,rrhf)
 ----------------------------------------------------------------------
 -----
 title
 -----
 Symbolic Z-matrix:
 Charge =  0 Multiplicity = 1

 SCF Done:  E(RHF) =  -380.668446488     A.U. after   14 cycles
 Normal termination of Gaussian 16 at Wed Apr  9 16:31:07 2025.
 Gaussian 16:  ES64L-G16RevC.01  3-Jul-2019

 ----------------------------------------------------------------------
 #t hf aug-cc-pvdz iop(5/13=1,5/36=2,99/5=2) pseudo=read geom=check gue
 ss=(read,tcheck) scf=(maxcycle=1)
 ----------------------------------------------------------------------
 -----
 title
 -----
 Structure from the checkpoint file:  "Grambow2020_wb97xd3_008486_reverse_mol1.chk"
 Charge =  0 Multiplicity = 1

                         Standard orientation:
 ---------------------------------------------------------------------
 Center     Atomic      Atomic             Coordinates (Angstroms)
 Number     Number       Type             X           Y           Z
 ---------------------------------------------------------------------
      1          6           0        2.347772   -0.041730   -0.389732
      2          8           0        1.163074    0.749892   -0.223706
      3          6           0        0.131541    0.168347    0.325963
      4          8           0        0.300093   -0.887414    1.075186
      5          6           0       -1.125954    1.008427    0.439021
      6          6           0       -1.977796    0.040904   -0.391479
      7          8           0       -0.977702   -0.891639   -0.767615
      8          1           0        2.124579   -0.900087   -1.022973
      9          1           0        3.064732    0.612940   -0.876824
     10          1           0        2.720699   -0.377371    0.575283
     11          1           0       -1.408998    1.130669    1.484425
     12          1           0       -0.988193    1.984251   -0.022681
     13          1           0       -2.795457   -0.427846    0.166082
     14          1           0       -2.402577    0.528741   -1.272342
     15          1           0       -0.451879   -1.373705    0.395468
 ---------------------------------------------------------------------

 SCF Done:  E(RHF) =  -380.790244556     A.U. after    2 cycles

 The electronic state is 1-A.
 Alpha  occ. eigenvalues --  -20.64377 -20.57898 -20.52363 -11.44725 -11.30988
 Alpha  occ. eigenvalues --  -11.28125 -11.25356  -1.45752  -1.36301  -1.25795
 Alpha  occ. eigenvalues --   -1.05367  -0.98294  -0.86453  -0.81440  -0.73823
 Alpha  occ. eigenvalues --   -0.73110  -0.70816  -0.67417  -0.64294  -0.62871
 Alpha  occ. eigenvalues --   -0.57481  -0.55079  -0.54734  -0.52697  -0.52369
 Alpha  occ. eigenvalues --   -0.49386  -0.42438  -0.42032
 Alpha virt. eigenvalues --    0.03402   0.04243   0.05025   0.05315   0.06141
 Alpha virt. eigenvalues --    0.06774   0.07064   0.07904   0.09961   0.11935
 Alpha virt. eigenvalues --    0.12222   0.13179   0.14734   0.15121   0.15742

 Mulliken charges:
               1
     1  C    0.673037
     2  O   -0.532334
     3  C    0.760800
     4  O   -0.745578
     5  C    0.176381
     6  C    0.980715
     7  O   -0.992078
     8  H   -0.027800
     9  H   -0.218073
    10  H   -0.029675
    11  H   -0.036336
    12  H   -0.115204
    13  H   -0.188355
    14  H   -0.220568
    15  H    0.515069
 Sum of Mulliken charges =  -0.00000

 Dipole moment (field-independent basis, Debye):
    X=              1.0036    Y=              2.1014    Z=              0.6020  Tot=              2.4053

 Test job not archived.
 1\1\GINC-SE057\SP\RHF\Aug-CC-pVDZ\C4H8O3\OHZDE\09-Apr-2025\0\\#t hf au
 g-cc-pvdz iop(5/13=1,5/36=2,99/5=2) pseudo=read geom=check guess=(read
 ,tcheck) scf=(maxcycle=1)\\title\\0,1\C,0,-2.36411209,0.01028201,-0.39
 930189\O,0,-1.27993428,-0.40039512,0.44547166\C,0,-0.1396368,0.2163847
 2,0.29153956\O,0,-0.10786653,1.40361674,-0.25053651\C,0,1.00578852,-0.
 27370788,1.15619035\C,0,1.8996978,-0.62772343,-0.0384073\O,0,0.9979191
 5,-0.35353652,-1.09808649\H,0,-2.08845918,-0.14147316,-1.44264847\H,0,
 -3.1975095,-0.63210096,-0.12971615\H,0,-2.60748058,1.05615625,-0.22637

 Normal termination of Gaussian 16 at Wed Apr  9 16:31:12 2025.
