 Gaussian 16, Revision C.01,

 ----------------------------------------------------------------------
 #t hf aug-cc-pvdz symm=none int=(grid=ultrafine) guess=(read,tcheck) s
 table=(opt,rrhf)
 ----------------------------------------------------------------------
 -----
 title
 -----
 Symbolic Z-matrix:
 Charge =  0 Multiplicity = 1

 SCF Done:  E(RHF) =  -302.883213784     A.U. after   14 cycles
 Normal termination of Gaussian 16 at Wed Apr  9 16:15:06 2025.
 Gaussian 16:  ES64L-G16RevC.01  3-Jul-2019

 ----------------------------------------------------------------------
 #t hf aug-cc-pvdz iop(5/13=1,5/36=2,99/5=2) pseudo=read geom=check gue
 ss=(read,tcheck) scf=(maxcycle=1)
 ----------------------------------------------------------------------
 -----
 title
 -----
 Structure from the checkpoint file:  "Grambow2020_wb97xd3_008031_reverse_mol2.chk"
 Charge =  0 Multiplicity = 1

                         Standard orientation:
 ---------------------------------------------------------------------
 Center     Atomic      Atomic             Coordinates (Angstroms)
 Number     Number       Type             X           Y           Z
 ---------------------------------------------------------------------
      1          6           0        0.951266   -1.544655    0.736811
      2          6           0        1.773404   -0.815962   -0.266088
      3          6           0       -2.706535   -0.158016    0.157799
      4          7           0       -2.036050   -0.668473   -0.781798
      5          6           0        1.690885    0.479938   -0.564497
      6          6           0        0.748909    1.354613    0.063814
      7          7           0       -0.023218    2.057143    0.546087
      8          1           0        0.332054   -0.872158    1.329150
      9          1           0        0.291340   -2.253630    0.230178
     10          1           0        1.595215   -2.119090    1.406065
     11          1           0        2.504624   -1.400397   -0.816522
     12          1           0       -2.544399    0.851253    0.546248
     13          1           0       -3.495492   -0.750409    0.623241
     14          1           0       -1.342404   -0.000256   -1.118278
     15          1           0        2.326366    0.928484   -1.317133
 ---------------------------------------------------------------------

 SCF Done:  E(RHF) =  -302.976677502     A.U. after    2 cycles

 The electronic state is 1-A.
 Alpha  occ. eigenvalues --  -15.64379 -15.62148 -11.29769 -11.29601 -11.28810
 Alpha  occ. eigenvalues --  -11.28658 -11.25286  -1.20498  -1.17584  -1.11199
 Alpha  occ. eigenvalues --   -0.98370  -0.84753  -0.82882  -0.70490  -0.67920
 Alpha  occ. eigenvalues --   -0.67427  -0.60084  -0.59276  -0.56831  -0.55830
 Alpha  occ. eigenvalues --   -0.53982  -0.51815  -0.47416  -0.44306  -0.41751
 Alpha  occ. eigenvalues --   -0.38714
 Alpha virt. eigenvalues --    0.02699   0.03749   0.04598   0.05229   0.06326
 Alpha virt. eigenvalues --    0.06721   0.07480   0.07981   0.08299   0.09585
 Alpha virt. eigenvalues --    0.10928   0.12376   0.12692   0.13873   0.13993

 Mulliken charges:
               1
     1  C    0.327897
     2  C    0.158799
     3  C    0.688394
     4  N   -0.322354
     5  C    1.053209
     6  C   -0.667376
     7  N   -0.188449
     8  H   -0.092581
     9  H    0.117810
    10  H    0.008153
    11  H   -0.387382
    12  H   -0.170089
    13  H   -0.256069
    14  H    0.070584
    15  H   -0.340546
 Sum of Mulliken charges =  -0.00000

 Dipole moment (field-independent basis, Debye):
    X=              2.4314    Y=             -1.7597    Z=             -0.0143  Tot=              3.0014

 Test job not archived.
 1\1\GINC-SE220\SP\RHF\Aug-CC-pVDZ\C5H8N2\OHZDE\09-Apr-2025\0\\#t hf au
 g-cc-pvdz iop(5/13=1,5/36=2,99/5=2) pseudo=read geom=check guess=(read
 ,tcheck) scf=(maxcycle=1)\\title\\0,1\C,0,1.61104711,-0.48060796,0.027
 66597\C,0,0.92022804,-1.076285,1.20267578\C,0,-1.02776367,2.07733873,-
 1.43217003\N,0,-0.65049826,2.1304273,-0.22891961\C,0,-0.35158904,-1.46
 978634,1.25608041\C,0,-1.2419967,-1.34457506,0.14313581\N,0,-1.9695075
 4,-1.22274446,-0.73902106\H,0,0.99647861,-0.51163636,-0.87115875\H,0,1
 .85704521,0.56443271,0.23308801\H,0,2.54948852,-1.00532301,-0.16351024

 Normal termination of Gaussian 16 at Wed Apr  9 16:15:30 2025.
