 Gaussian 16, Revision C.01,

 ----------------------------------------------------------------------
 #t hf aug-cc-pvdz symm=none int=(grid=ultrafine) guess=(read,tcheck) s
 table=(opt,rrhf)
 ----------------------------------------------------------------------
 -----
 title
 -----
 Symbolic Z-matrix:
 Charge =  0 Multiplicity = 1

 SCF Done:  E(RHF) =  -375.614258711     A.U. after   17 cycles
 Normal termination of Gaussian 16 at Wed Apr  9 03:45:29 2025.
 Gaussian 16:  ES64L-G16RevC.01  3-Jul-2019

 ----------------------------------------------------------------------
 #t hf aug-cc-pvdz iop(5/13=1,5/36=2,99/5=2) pseudo=read geom=check gue
 ss=(read,tcheck) scf=(maxcycle=1)
 ----------------------------------------------------------------------
 -----
 title
 -----
 Structure from the checkpoint file:  "Grambow2020_wb97xd3_007867_reverse_mol1.chk"
 Charge =  0 Multiplicity = 1

                         Standard orientation:
 ---------------------------------------------------------------------
 Center     Atomic      Atomic             Coordinates (Angstroms)
 Number     Number       Type             X           Y           Z
 ---------------------------------------------------------------------
      1          7           0        1.894661    0.946716   -0.320963
      2          6           0        1.400368   -0.258247    0.015282
      3          8           0        1.983078   -1.318226   -0.045913
      4          6           0       -0.058997   -0.163766    0.491428
      5          8           0       -0.611477    1.018065    0.603043
      6          6           0       -1.811220    0.034517   -0.560152
      7          7           0       -2.882112   -0.376887   -0.172422
      8          1           0        2.864613    1.039026   -0.562198
      9          1           0        1.324114    1.753576   -0.123314
     10          1           0       -0.260569   -0.932529    1.256028
     11          1           0       -0.640079   -0.773532   -0.474365
     12          1           0       -1.450858    0.681620   -1.342634
     13          1           0       -3.078774   -1.030687    0.563785
 ---------------------------------------------------------------------

 SCF Done:  E(RHF) =  -375.730014364     A.U. after    2 cycles

 The electronic state is 1-A.
 Alpha  occ. eigenvalues --  -20.54922 -20.53628 -15.66094 -15.65648 -11.43185
 Alpha  occ. eigenvalues --  -11.37539 -11.35773  -1.36590  -1.32397  -1.24249
 Alpha  occ. eigenvalues --   -1.19036  -0.96101  -0.90429  -0.81192  -0.76386
 Alpha  occ. eigenvalues --   -0.75025  -0.68763  -0.65781  -0.63942  -0.61151
 Alpha  occ. eigenvalues --   -0.58187  -0.57141  -0.50166  -0.46545  -0.43327
 Alpha  occ. eigenvalues --   -0.42093  -0.38934
 Alpha virt. eigenvalues --    0.03109   0.03350   0.04277   0.05650   0.05944
 Alpha virt. eigenvalues --    0.06179   0.07626   0.09811   0.11048   0.11856
 Alpha virt. eigenvalues --    0.12434   0.13228   0.14184   0.14618   0.14944

 Mulliken charges:
               1
     1  N   -0.107651
     2  C    0.381604
     3  O   -0.528988
     4  C    0.566372
     5  O   -0.802506
     6  C    0.506596
     7  N   -0.198549
     8  H   -0.021643
     9  H    0.069445
    10  H   -0.113984
    11  H    0.286850
    12  H   -0.031000
    13  H   -0.006545
 Sum of Mulliken charges =   0.00000

 Dipole moment (field-independent basis, Debye):
    X=             -1.2786    Y=              0.8563    Z=             -1.2103  Tot=              1.9577

 Test job not archived.
 1\1\GINC-SE179\SP\RHF\Aug-CC-pVDZ\C3H6N2O2\OHZDE\09-Apr-2025\0\\#t hf
 aug-cc-pvdz iop(5/13=1,5/36=2,99/5=2) pseudo=read geom=check guess=(re
 ad,tcheck) scf=(maxcycle=1)\\title\\0,1\N,0,-2.06822498,0.78694558,-0.
 1436381\C,0,-1.45382997,-0.2424713,0.4663963\O,0,-1.88253642,-0.887501
 19,1.39752391\C,0,-0.07283616,-0.52771738,-0.14750819\O,0,0.3050477,0.
 15721917,-1.19749941\C,0,1.73133114,0.42335739,0.08883695\N,0,2.804581
 08,-0.12584138,-0.02479656\H,0,-3.01389128,1.01934583,0.09973109\H,0,-
 1.63126048,1.16414758,-0.96970872\H,0,0.15360753,-1.60558095,-0.091179

 Normal termination of Gaussian 16 at Wed Apr  9 03:45:33 2025.
