 Gaussian 16, Revision C.01,

 ----------------------------------------------------------------------
 #t hf aug-cc-pvdz symm=none int=(grid=ultrafine) guess=(read,tcheck) s
 table=(opt,rrhf)
 ----------------------------------------------------------------------
 -----
 title
 -----
 Symbolic Z-matrix:
 Charge =  0 Multiplicity = 1

 SCF Done:  E(RHF) =  -322.627186372     A.U. after   16 cycles
 Normal termination of Gaussian 16 at Wed Apr  9 15:35:04 2025.
 Gaussian 16:  ES64L-G16RevC.01  3-Jul-2019

 ----------------------------------------------------------------------
 #t hf aug-cc-pvdz iop(5/13=1,5/36=2,99/5=2) pseudo=read geom=check gue
 ss=(read,tcheck) scf=(maxcycle=1)
 ----------------------------------------------------------------------
 -----
 title
 -----
 Structure from the checkpoint file:  "Grambow2020_wb97xd3_007014_forward_mol1.chk"
 Charge =  0 Multiplicity = 1

                         Standard orientation:
 ---------------------------------------------------------------------
 Center     Atomic      Atomic             Coordinates (Angstroms)
 Number     Number       Type             X           Y           Z
 ---------------------------------------------------------------------
      1          6           0       -2.115448   -0.607068    0.060517
      2          6           0       -0.632977   -0.445558    0.051691
      3          6           0        0.345371   -1.433694   -0.129955
      4          6           0        1.601140   -0.874133   -0.115057
      5          7           0        1.440948    0.455778    0.134909
      6          6           0       -0.024874    0.850395    0.000144
      7          8           0       -0.382273    1.998089   -0.180004
      8          1           0       -2.402743   -1.617762    0.350610
      9          1           0       -2.532868   -0.401794   -0.928798
     10          1           0       -2.574598    0.098960    0.752849
     11          1           0        0.577463    0.484135    1.210171
     12          1           0        0.147982   -2.493951   -0.182946
     13          1           0        2.562559   -1.352460   -0.022216
     14          1           0        2.154481    1.168060    0.111946
 ---------------------------------------------------------------------

 SCF Done:  E(RHF) =  -322.724378343     A.U. after    2 cycles

 The electronic state is 1-A.
 Alpha  occ. eigenvalues --  -20.51722 -15.72655 -11.36807 -11.28727 -11.26221
 Alpha  occ. eigenvalues --  -11.25512 -11.23822  -1.34615  -1.26937  -1.08723
 Alpha  occ. eigenvalues --   -0.99968  -0.94218  -0.82709  -0.76385  -0.72580
 Alpha  occ. eigenvalues --   -0.68134  -0.63222  -0.62027  -0.59645  -0.57194
 Alpha  occ. eigenvalues --   -0.55861  -0.53694  -0.51228  -0.43259  -0.38642
 Alpha  occ. eigenvalues --   -0.30187
 Alpha virt. eigenvalues --    0.02505   0.03535   0.04169   0.05064   0.06057
 Alpha virt. eigenvalues --    0.06754   0.07757   0.09953   0.10797   0.11037
 Alpha virt. eigenvalues --    0.12233   0.13031   0.13298   0.13691   0.14138

 Mulliken charges:
               1
     1  C    0.494463
     2  C   -0.658215
     3  C    0.682533
     4  C    0.553737
     5  N   -0.624435
     6  C    0.236795
     7  O   -0.575243
     8  H   -0.064196
     9  H    0.120186
    10  H    0.042154
    11  H    0.571876
    12  H   -0.406224
    13  H   -0.307585
    14  H   -0.065845
 Sum of Mulliken charges =  -0.00000

 Dipole moment (field-independent basis, Debye):
    X=              2.8368    Y=             -3.5524    Z=              1.1571  Tot=              4.6911

 Test job not archived.
 1\1\GINC-SE173\SP\RHF\Aug-CC-pVDZ\C5H7N1O1\OHZDE\09-Apr-2025\0\\#t hf
 aug-cc-pvdz iop(5/13=1,5/36=2,99/5=2) pseudo=read geom=check guess=(re
 ad,tcheck) scf=(maxcycle=1)\\title\\0,1\C,0,-1.97748376,0.26354776,0.2
 0271712\C,0,-0.49711104,0.12835755,0.08395212\C,0,0.49091825,1.0426963
 2,0.47683384\C,0,1.74326423,0.52807329,0.23792024\N,0,1.56779551,-0.68
 347334,-0.3605547\C,0,0.11186852,-1.12212199,-0.25866076\O,0,-0.235495
 23,-2.28024046,-0.38312189\H,0,-2.28020066,1.31057546,0.21974616\H,0,-
 2.33726484,-0.21308268,1.11841427\H,0,-2.47642795,-0.23086742,-0.63108

 Normal termination of Gaussian 16 at Wed Apr  9 15:35:11 2025.
