 Gaussian 16, Revision C.01,

 ----------------------------------------------------------------------
 #t hf aug-cc-pvdz symm=none int=(grid=ultrafine) guess=(read,tcheck) s
 table=(opt,rrhf)
 ----------------------------------------------------------------------
 -----
 title
 -----
 Symbolic Z-matrix:
 Charge =  0 Multiplicity = 1

 SCF Done:  E(RHF) =  -341.238796542     A.U. after   19 cycles
 Normal termination of Gaussian 16 at Wed Apr  9 16:58:05 2025.
 Gaussian 16:  ES64L-G16RevC.01  3-Jul-2019

 ----------------------------------------------------------------------
 #t hf aug-cc-pvdz iop(5/13=1,5/36=2,99/5=2) pseudo=read geom=check gue
 ss=(read,tcheck) scf=(maxcycle=1)
 ----------------------------------------------------------------------
 -----
 title
 -----
 Structure from the checkpoint file:  "Grambow2020_wb97xd3_009090_reverse_mol1.chk"
 Charge =  0 Multiplicity = 1

                         Standard orientation:
 ---------------------------------------------------------------------
 Center     Atomic      Atomic             Coordinates (Angstroms)
 Number     Number       Type             X           Y           Z
 ---------------------------------------------------------------------
      1          8           0       -0.688223    1.769573   -0.290050
      2          6           0       -0.662635    0.632664    0.057244
      3          6           0       -1.595985   -0.369945    0.512826
      4          6           0       -0.654377   -1.087469   -0.498241
      5          6           0        0.661984   -1.411112   -0.062690
      6          6           0        1.166276   -0.164270    0.139776
      7          8           0        2.017137    0.646913    0.127503
      8          1           0       -1.526144   -0.795454    1.509391
      9          1           0       -2.620228   -0.192727    0.188797
     10          1           0       -1.108636   -1.564602   -1.365028
     11          1           0        1.132120   -2.378310    0.073739
 ---------------------------------------------------------------------

 SCF Done:  E(RHF) =  -341.343124835     A.U. after    2 cycles

 The electronic state is 1-A.
 Alpha  occ. eigenvalues --  -20.59541 -20.58718 -11.38284 -11.37089 -11.34457
 Alpha  occ. eigenvalues --  -11.29182 -11.28902  -1.39894  -1.37780  -1.18624
 Alpha  occ. eigenvalues --   -1.04656  -0.87129  -0.80577  -0.73869  -0.72101
 Alpha  occ. eigenvalues --   -0.69220  -0.67711  -0.63209  -0.61804  -0.61012
 Alpha  occ. eigenvalues --   -0.58475  -0.52697  -0.51781  -0.37829  -0.33709
 Alpha virt. eigenvalues --    0.00812   0.02533   0.03602   0.04087   0.05818
 Alpha virt. eigenvalues --    0.07121   0.09116   0.10499   0.11265   0.11809
 Alpha virt. eigenvalues --    0.13237   0.13686   0.14308   0.14556   0.15068

 Mulliken charges:
               1
     1  O   -0.460086
     2  C    0.102636
     3  C    0.733787
     4  C    0.138451
     5  C    0.905194
     6  C   -0.350002
     7  O   -0.321514
     8  H   -0.132456
     9  H   -0.126816
    10  H   -0.283309
    11  H   -0.205885
 Sum of Mulliken charges =  -0.00000

 Dipole moment (field-independent basis, Debye):
    X=             -3.2624    Y=             -5.9920    Z=              0.5861  Tot=              6.8477

 Test job not archived.
 1\1\GINC-SE173\SP\RHF\Aug-CC-pVDZ\C5H4O2\OHZDE\09-Apr-2025\0\\#t hf au
 g-cc-pvdz iop(5/13=1,5/36=2,99/5=2) pseudo=read geom=check guess=(read
 ,tcheck) scf=(maxcycle=1)\\title\\0,1\O,0,-0.42790854,1.90983606,-1.15
 664898\C,0,-0.40743286,0.95924313,-0.44265767\C,0,-1.33427272,-0.03312
 332,0.04734029\C,0,-0.03905244,-0.80722095,-0.33593622\C,0,1.07758106,
 -0.70568458,0.54160383\C,0,1.35573611,0.62110541,0.43125915\O,0,2.0745
 5018,1.54999284,0.3801993\H,0,-1.56356289,-0.11831725,1.10528417\H,0,-
 2.2006559,-0.17721352,-0.5961593\H,0,-0.12276881,-1.60426557,-1.072846

 Normal termination of Gaussian 16 at Wed Apr  9 16:58:10 2025.
