 Gaussian 16, Revision C.01,

 ----------------------------------------------------------------------
 #t hf aug-cc-pvdz symm=none int=(grid=ultrafine) guess=(read,tcheck) s
 table=(opt,rrhf)
 ----------------------------------------------------------------------
 -----
 title
 -----
 Symbolic Z-matrix:
 Charge =  0 Multiplicity = 1

 SCF Done:  E(RHF) =  -376.971605701     A.U. after   13 cycles
 Normal termination of Gaussian 16 at Wed Apr  9 03:58:45 2025.
 Gaussian 16:  ES64L-G16RevC.01  3-Jul-2019

 ----------------------------------------------------------------------
 #t hf aug-cc-pvdz iop(5/13=1,5/36=2,99/5=2) pseudo=read geom=check gue
 ss=(read,tcheck) scf=(maxcycle=1)
 ----------------------------------------------------------------------
 -----
 title
 -----
 Structure from the checkpoint file:  "Grambow2020_wb97xd3_008741_forward_mol2.chk"
 Charge =  0 Multiplicity = 1

                         Standard orientation:
 ---------------------------------------------------------------------
 Center     Atomic      Atomic             Coordinates (Angstroms)
 Number     Number       Type             X           Y           Z
 ---------------------------------------------------------------------
      1          7           0       -2.546140   -0.004979    0.196701
      2          6           0       -1.201254   -0.151353   -0.046501
      3          8           0       -0.719162   -1.238988   -0.323327
      4          7           0       -0.468393    0.994414    0.025693
      5          6           0        0.912120    1.063803   -0.440493
      6          6           0        1.915163    0.286929    0.408919
      7          8           0        2.015832   -1.069635    0.074572
      8          1           0       -3.031533   -0.872879    0.340856
      9          1           0       -2.866978    0.770576    0.748140
     10          1           0       -0.975119    1.860218    0.055981
     11          1           0        1.180733    2.121267   -0.422714
     12          1           0        0.986264    0.716691   -1.476151
     13          1           0        1.658891    0.428969    1.469285
     14          1           0        2.905914    0.721357    0.249299
     15          1           0        1.114029   -1.399544   -0.062962
 ---------------------------------------------------------------------

 SCF Done:  E(RHF) =  -377.091205699     A.U. after    2 cycles

 The electronic state is 1-A.
 Alpha  occ. eigenvalues --  -20.54260 -20.53844 -15.65871 -15.65737 -11.40543
 Alpha  occ. eigenvalues --  -11.28118 -11.27769  -1.37571  -1.29994  -1.22421
 Alpha  occ. eigenvalues --   -1.17362  -0.99766  -0.87265  -0.79951  -0.76910
 Alpha  occ. eigenvalues --   -0.72580  -0.69283  -0.65515  -0.63424  -0.61966
 Alpha  occ. eigenvalues --   -0.61019  -0.57387  -0.54319  -0.50728  -0.47055
 Alpha  occ. eigenvalues --   -0.44423  -0.43834  -0.40439
 Alpha virt. eigenvalues --    0.01954   0.03233   0.04787   0.04920   0.06596
 Alpha virt. eigenvalues --    0.06603   0.07899   0.09279   0.11457   0.12104
 Alpha virt. eigenvalues --    0.12535   0.13823   0.14408   0.14886   0.15683

 Mulliken charges:
               1
     1  N   -0.184449
     2  C    0.792147
     3  O   -0.540058
     4  N   -0.250329
     5  C    0.502054
     6  C    0.770012
     7  O   -0.544864
     8  H    0.023679
     9  H   -0.039116
    10  H   -0.133273
    11  H   -0.178130
    12  H   -0.117287
    13  H   -0.142616
    14  H   -0.161506
    15  H    0.203736
 Sum of Mulliken charges =  -0.00000

 Dipole moment (field-independent basis, Debye):
    X=             -3.6519    Y=              5.0970    Z=              1.3093  Tot=              6.4055

 Test job not archived.
 1\1\GINC-SE094\SP\RHF\Aug-CC-pVDZ\C3H8N2O2\OHZDE\09-Apr-2025\0\\#t hf
 aug-cc-pvdz iop(5/13=1,5/36=2,99/5=2) pseudo=read geom=check guess=(re
 ad,tcheck) scf=(maxcycle=1)\\title\\0,1\N,0,2.32068232,1.1016805,-0.42
 847005\C,0,1.0005366,0.84957018,-0.1404664\O,0,0.27497485,1.71348911,0
 .32772077\N,0,0.57126791,-0.40981005,-0.43161879\C,0,-0.84224272,-0.77
 014324,-0.4213108\C,0,-1.48693347,-0.79590427,0.96246582\O,0,-1.944113
 6,0.45307087,1.40205218\H,0,2.67081091,1.95299987,-0.02560054\H,0,2.97
 210174,0.3384344,-0.46866471\H,0,1.17480146,-0.97964651,-0.99583414\H,

 Normal termination of Gaussian 16 at Wed Apr  9 03:58:50 2025.
