 Gaussian 16, Revision C.01,

 ----------------------------------------------------------------------
 #t hf aug-cc-pvdz symm=none int=(grid=ultrafine) guess=(read,tcheck) s
 table=(opt,rrhf)
 ----------------------------------------------------------------------
 -----
 title
 -----
 Symbolic Z-matrix:
 Charge =  0 Multiplicity = 1

 SCF Done:  E(RHF) =  -283.511271908     A.U. after   19 cycles
 Normal termination of Gaussian 16 at Wed Apr  9 13:42:05 2025.
 Gaussian 16:  ES64L-G16RevC.01  3-Jul-2019

 ----------------------------------------------------------------------
 #t hf aug-cc-pvdz iop(5/13=1,5/36=2,99/5=2) pseudo=read geom=check gue
 ss=(read,tcheck) scf=(maxcycle=1)
 ----------------------------------------------------------------------
 -----
 title
 -----
 Structure from the checkpoint file:  "Grambow2020_b97d3_006658_forward_mol1.chk"
 Charge =  0 Multiplicity = 1

                         Standard orientation:
 ---------------------------------------------------------------------
 Center     Atomic      Atomic             Coordinates (Angstroms)
 Number     Number       Type             X           Y           Z
 ---------------------------------------------------------------------
      1          7           0       -1.496610   -0.365591   -0.006295
      2          6           0       -1.398116    0.843664   -0.038591
      3          6           0        0.041689    1.289701   -0.055038
      4          6           0        0.883873   -0.033451    0.370797
      5          6           0       -0.502164   -1.329845   -0.069393
      6          8           0        1.965507   -0.224066   -0.231867
      7          1           0        0.302160    2.123179    0.612392
      8          1           0        0.297362    1.583711   -1.084502
      9          1           0        0.841244   -0.157455    1.484655
     10          1           0       -0.514205   -2.091437    0.714680
     11          1           0       -0.326036   -1.726745   -1.074871
 ---------------------------------------------------------------------

 SCF Done:  E(RHF) =  -283.595721735     A.U. after    2 cycles

 The electronic state is 1-A.
 Alpha  occ. eigenvalues --  -20.55567 -15.71918 -11.35229 -11.33584 -11.31995
 Alpha  occ. eigenvalues --  -11.30031  -1.32380  -1.28871  -1.03283  -0.98914
 Alpha  occ. eigenvalues --   -0.81428  -0.74573  -0.69421  -0.67495  -0.64190
 Alpha  occ. eigenvalues --   -0.62221  -0.59491  -0.55278  -0.50504  -0.48046
 Alpha  occ. eigenvalues --   -0.41406  -0.33817
 Alpha virt. eigenvalues --   -0.01959   0.03372   0.04183   0.04260   0.06504
 Alpha virt. eigenvalues --    0.06712   0.07589   0.10224   0.10366   0.11117
 Alpha virt. eigenvalues --    0.12426   0.13626   0.14087   0.14552   0.15424

 Mulliken charges:
               1
     1  N   -0.197874
     2  C   -0.143221
     3  C    0.110025
     4  C    0.598465
     5  C    0.597709
     6  O   -0.648334
     7  H    0.004764
     8  H    0.024929
     9  H   -0.064977
    10  H   -0.138324
    11  H   -0.143159
 Sum of Mulliken charges =   0.00000

 Dipole moment (field-independent basis, Debye):
    X=             -2.3668    Y=             -0.2763    Z=              0.9920  Tot=              2.5811

 Test job not archived.
 1\1\GINC-SE054\SP\RHF\Aug-CC-pVDZ\C4H5N1O1\OHZDE\09-Apr-2025\0\\#t hf
 aug-cc-pvdz iop(5/13=1,5/36=2,99/5=2) pseudo=read geom=check guess=(re
 ad,tcheck) scf=(maxcycle=1)\\title\\0,1\N,0,1.05378988,1.1213762,-0.22
 83785\C,0,1.64680408,0.06319169,-0.26865793\C,0,0.71194766,-1.11044106
 ,-0.12413817\C,0,-0.67609892,-0.46231506,0.41863077\C,0,-0.31005341,1.
 36186252,-0.15920179\O,0,-1.7353183,-0.93929696,-0.0504237\H,0,1.03542
 478,-1.91137507,0.55546614\H,0,0.55764951,-1.55015398,-1.12136092\H,0,
 -0.59268396,-0.2778883,1.52176429\H,0,-0.64380248,2.04014163,0.6304099

 Normal termination of Gaussian 16 at Wed Apr  9 13:42:09 2025.
