 Gaussian 16, Revision C.01,

 ----------------------------------------------------------------------
 #t hf aug-cc-pvdz symm=none int=(grid=ultrafine) guess=(read,tcheck) s
 table=(opt,rrhf)
 ----------------------------------------------------------------------
 -----
 title
 -----
 Symbolic Z-matrix:
 Charge =  0 Multiplicity = 1

 SCF Done:  E(RHF) =  -342.420685899     A.U. after   16 cycles
 Normal termination of Gaussian 16 at Wed Apr  9 16:31:59 2025.
 Gaussian 16:  ES64L-G16RevC.01  3-Jul-2019

 ----------------------------------------------------------------------
 #t hf aug-cc-pvdz iop(5/13=1,5/36=2,99/5=2) pseudo=read geom=check gue
 ss=(read,tcheck) scf=(maxcycle=1)
 ----------------------------------------------------------------------
 -----
 title
 -----
 Structure from the checkpoint file:  "Grambow2020_wb97xd3_008534_reverse_mol2.chk"
 Charge =  0 Multiplicity = 1

                         Standard orientation:
 ---------------------------------------------------------------------
 Center     Atomic      Atomic             Coordinates (Angstroms)
 Number     Number       Type             X           Y           Z
 ---------------------------------------------------------------------
      1          8           0       -2.100764   -0.634585   -0.162332
      2          6           0       -0.978465   -0.228592   -0.178630
      3          6           0       -0.586566    1.291844   -0.218057
      4          8           0        0.685773    1.291191   -0.403448
      5          6           0        1.339563   -0.019617   -0.451019
      6          6           0        1.293616   -0.728273    0.842194
      7          6           0        0.286829   -1.033750   -0.257950
      8          1           0       -1.072010    1.174671    2.936588
      9          1           0       -1.169241    1.584316    2.318924
     10          1           0        2.156938   -0.042581   -1.154482
     11          1           0        0.958341   -0.174216    1.710876
     12          1           0        2.039856   -1.486577    1.037406
     13          1           0        0.276185   -1.998132   -0.742297
 ---------------------------------------------------------------------

 SCF Done:  E(RHF) =  -342.528668670     A.U. after    2 cycles

 The electronic state is 1-A.
 Alpha  occ. eigenvalues --  -20.67293 -20.59582 -11.35941 -11.34389 -11.32848
 Alpha  occ. eigenvalues --  -11.28978 -11.28408  -1.45335  -1.38549  -1.19435
 Alpha  occ. eigenvalues --   -0.99142  -0.90950  -0.83621  -0.79713  -0.74720
 Alpha  occ. eigenvalues --   -0.69250  -0.66543  -0.64601  -0.62762  -0.59951
 Alpha  occ. eigenvalues --   -0.58976  -0.57650  -0.50484  -0.46934  -0.46228
 Alpha  occ. eigenvalues --   -0.37023
 Alpha virt. eigenvalues --    0.02307   0.03807   0.04090   0.04341   0.06075
 Alpha virt. eigenvalues --    0.07572   0.08238   0.09344   0.09705   0.10042
 Alpha virt. eigenvalues --    0.11375   0.12357   0.13311   0.13755   0.14591

 Mulliken charges:
               1
     1  O   -0.412920
     2  C    0.053842
     3  C    0.050051
     4  O   -0.507047
     5  C    0.969690
     6  C    0.625653
     7  C    0.553693
     8  H    0.027668
     9  H    0.006274
    10  H   -0.346895
    11  H   -0.354271
    12  H   -0.304063
    13  H   -0.361675
 Sum of Mulliken charges =  -0.00000

 Dipole moment (field-independent basis, Debye):
    X=              4.9377    Y=             -2.7345    Z=              0.0287  Tot=              5.6444

 Test job not archived.
 1\1\GINC-SE114\SP\RHF\Aug-CC-pVDZ\C5H6O2\OHZDE\09-Apr-2025\0\\#t hf au
 g-cc-pvdz iop(5/13=1,5/36=2,99/5=2) pseudo=read geom=check guess=(read
 ,tcheck) scf=(maxcycle=1)\\title\\0,1\O,0,1.10982949,2.2005384,0.26112
 81\C,0,0.6018987,1.21085852,-0.17152702\C,0,1.33116591,0.17242119,-1.0
 9709812\O,0,0.40067013,-0.63040699,-1.475069\C,0,-0.93473219,-0.392036
 91,-0.92026975\C,0,-1.00000972,-0.63029864,0.53426591\C,0,-0.82780956,
 0.77485427,-0.02532688\H,0,2.50027691,-0.97562169,1.64449779\H,0,2.660
 85805,-0.814689,0.93239844\H,0,-1.71653548,-0.60915685,-1.63099524\H,0

 Normal termination of Gaussian 16 at Wed Apr  9 16:32:03 2025.
