 Gaussian 16, Revision C.01,

 ----------------------------------------------------------------------
 #t hf aug-cc-pvdz symm=none int=(grid=ultrafine) guess=(read,tcheck) s
 table=(opt,rrhf)
 ----------------------------------------------------------------------
 -----
 title
 -----
 Symbolic Z-matrix:
 Charge =  0 Multiplicity = 1

 SCF Done:  E(RHF) =  -342.470197148     A.U. after   15 cycles
 Normal termination of Gaussian 16 at Wed Apr  9 16:55:13 2025.
 Gaussian 16:  ES64L-G16RevC.01  3-Jul-2019

 ----------------------------------------------------------------------
 #t hf aug-cc-pvdz iop(5/13=1,5/36=2,99/5=2) pseudo=read geom=check gue
 ss=(read,tcheck) scf=(maxcycle=1)
 ----------------------------------------------------------------------
 -----
 title
 -----
 Structure from the checkpoint file:  "Grambow2020_wb97xd3_009064_forward_mol1.chk"
 Charge =  0 Multiplicity = 1

                         Standard orientation:
 ---------------------------------------------------------------------
 Center     Atomic      Atomic             Coordinates (Angstroms)
 Number     Number       Type             X           Y           Z
 ---------------------------------------------------------------------
      1          8           0       -0.233375   -0.629969    1.346527
      2          6           0       -0.830500   -0.560709    0.213865
      3          6           0       -1.324568    0.845881   -0.094935
      4          6           0        0.084320    1.454658   -0.219963
      5          6           0        0.959052    0.241412   -0.119682
      6          8           0        2.029369   -0.167547   -0.108961
      7          6           0       -0.584482   -1.380636   -0.861519
      8          1           0       -1.881400    1.266797    0.738837
      9          1           0       -1.892060    0.936385   -1.019286
     10          1           0        0.374296    2.132902    0.584796
     11          1           0        0.286257    1.935761   -1.178802
     12          1           0        0.003352   -2.278412   -0.724387
     13          1           0       -1.081328   -1.216932   -1.808276
 ---------------------------------------------------------------------

 SCF Done:  E(RHF) =  -342.575155398     A.U. after    2 cycles

 The electronic state is 1-A.
 Alpha  occ. eigenvalues --  -20.66303 -20.52111 -11.46633 -11.32386 -11.31981
 Alpha  occ. eigenvalues --  -11.26638 -11.23187  -1.47770  -1.31458  -1.12531
 Alpha  occ. eigenvalues --   -1.00359  -0.93234  -0.80912  -0.75988  -0.70454
 Alpha  occ. eigenvalues --   -0.69952  -0.69073  -0.65341  -0.62858  -0.60408
 Alpha  occ. eigenvalues --   -0.56925  -0.54732  -0.52782  -0.49267  -0.42162
 Alpha  occ. eigenvalues --   -0.32888
 Alpha virt. eigenvalues --    0.02491   0.04135   0.04300   0.05134   0.06547
 Alpha virt. eigenvalues --    0.07204   0.07784   0.08301   0.10252   0.11368
 Alpha virt. eigenvalues --    0.12060   0.12616   0.13408   0.13807   0.14603

 Mulliken charges:
               1
     1  O   -0.810093
     2  C   -0.076509
     3  C    0.761291
     4  C   -0.011021
     5  C    0.219748
     6  O   -0.254465
     7  C    0.890855
     8  H   -0.110611
     9  H   -0.156536
    10  H    0.093664
    11  H    0.081420
    12  H   -0.292010
    13  H   -0.335731
 Sum of Mulliken charges =   0.00000

 Dipole moment (field-independent basis, Debye):
    X=             -1.2826    Y=              3.9707    Z=             -3.4938  Tot=              5.4423

 Test job not archived.
 1\1\GINC-SE226\SP\RHF\Aug-CC-pVDZ\C5H6O2\OHZDE\09-Apr-2025\0\\#t hf au
 g-cc-pvdz iop(5/13=1,5/36=2,99/5=2) pseudo=read geom=check guess=(read
 ,tcheck) scf=(maxcycle=1)\\title\\0,1\O,0,0.62079236,-1.1671498,1.2193
 3691\C,0,0.47797268,-0.91440414,-0.02966337\C,0,-0.9680675,-0.61140029
 ,-0.39723862\C,0,-1.03349654,0.70281703,0.40260977\C,0,0.38777502,0.86
 758266,0.84984475\O,0,1.13774882,1.50448631,1.4370702\C,0,1.4485411,-0
 .38342343,-0.84533072\H,0,-1.64716937,-1.36490862,-0.0055059\H,0,-1.14
 401276,-0.45217798,-1.45947867\H,0,-1.65602165,0.67478819,1.2989438\H,

 Normal termination of Gaussian 16 at Wed Apr  9 16:55:17 2025.
