 Gaussian 16, Revision C.01,

 ----------------------------------------------------------------------
 #t hf aug-cc-pvdz symm=none int=(grid=ultrafine) guess=(read,tcheck) s
 table=(opt,rrhf)
 ----------------------------------------------------------------------
 -----
 title
 -----
 Symbolic Z-matrix:
 Charge =  0 Multiplicity = 1

 SCF Done:  E(RHF) =  -359.548589268     A.U. after   15 cycles
 Normal termination of Gaussian 16 at Wed Apr  9 16:26:03 2025.
 Gaussian 16:  ES64L-G16RevC.01  3-Jul-2019

 ----------------------------------------------------------------------
 #t hf aug-cc-pvdz iop(5/13=1,5/36=2,99/5=2) pseudo=read geom=check gue
 ss=(read,tcheck) scf=(maxcycle=1)
 ----------------------------------------------------------------------
 -----
 title
 -----
 Structure from the checkpoint file:  "Grambow2020_wb97xd3_008286_forward_mol1.chk"
 Charge =  0 Multiplicity = 1

                         Standard orientation:
 ---------------------------------------------------------------------
 Center     Atomic      Atomic             Coordinates (Angstroms)
 Number     Number       Type             X           Y           Z
 ---------------------------------------------------------------------
      1          6           0        2.202089   -0.254278   -0.422074
      2          6           0        0.757316   -1.043570    0.582889
      3          6           0        0.948053    1.092250    0.122486
      4          7           0       -0.489097    1.084309    0.177959
      5          6           0       -1.236204   -0.033641   -0.049784
      6          8           0       -2.412042   -0.096878   -0.235024
      7          8           0       -0.404108   -1.127718   -0.092513
      8          1           0        1.989943   -0.833637   -1.315450
      9          1           0        2.892574   -0.782711    0.224966
     10          1           0        2.742160    0.646031   -0.741781
     11          1           0        0.621501   -0.491860    1.525180
     12          1           0        1.236594    1.745781   -0.696346
     13          1           0        1.404238    1.421904    1.052808
     14          1           0       -0.961654    1.936536   -0.075892
 ---------------------------------------------------------------------

 SCF Done:  E(RHF) =  -359.662366552     A.U. after    2 cycles

 The electronic state is 1-A.
 Alpha  occ. eigenvalues --  -20.63498 -20.55735 -15.67800 -11.42835 -11.34515
 Alpha  occ. eigenvalues --  -11.31229 -11.29439  -1.44958  -1.35484  -1.23262
 Alpha  occ. eigenvalues --   -1.03259  -0.92630  -0.91888  -0.83404  -0.73255
 Alpha  occ. eigenvalues --   -0.72079  -0.67790  -0.66192  -0.65141  -0.59806
 Alpha  occ. eigenvalues --   -0.58306  -0.57275  -0.54231  -0.50161  -0.46911
 Alpha  occ. eigenvalues --   -0.42450  -0.33299
 Alpha virt. eigenvalues --    0.02209   0.03659   0.03742   0.04749   0.06527
 Alpha virt. eigenvalues --    0.06960   0.07495   0.10136   0.10361   0.10625
 Alpha virt. eigenvalues --    0.12272   0.12856   0.13355   0.14062   0.14879

 Mulliken charges:
               1
     1  C    0.516319
     2  C    0.207489
     3  C    0.727543
     4  N   -0.319848
     5  C    0.632216
     6  O   -0.394619
     7  O   -0.553809
     8  H   -0.009392
     9  H   -0.012084
    10  H   -0.276604
    11  H    0.008826
    12  H   -0.322467
    13  H   -0.152214
    14  H   -0.051357
 Sum of Mulliken charges =  -0.00000

 Dipole moment (field-independent basis, Debye):
    X=              4.4580    Y=              4.2147    Z=              0.2092  Tot=              6.1385

 Test job not archived.
 1\1\GINC-SE229\SP\RHF\Aug-CC-pVDZ\C4H7N1O2\OHZDE\09-Apr-2025\0\\#t hf
 aug-cc-pvdz iop(5/13=1,5/36=2,99/5=2) pseudo=read geom=check guess=(re
 ad,tcheck) scf=(maxcycle=1)\\title\\0,1\C,0,-1.56615046,-0.5666588,0.1
 1240321\C,0,-0.01339877,-1.0533867,-0.9231443\C,0,-0.28640234,0.863206
 32,0.10749583\N,0,1.14886254,0.85301474,0.19942673\C,0,1.8879072,-0.29
 282386,0.1727264\O,0,3.03971649,-0.42160406,0.45140156\O,0,1.07457936,
 -1.34247077,-0.18497848\H,0,-1.43610398,-1.38039833,0.81929802\H,0,-2.
 17812714,-0.87859637,-0.72595789\H,0,-2.15122563,0.21114954,0.61949972

 Normal termination of Gaussian 16 at Wed Apr  9 16:26:08 2025.
