 Gaussian 16, Revision C.01,

 ----------------------------------------------------------------------
 #t hf aug-cc-pvdz symm=none int=(grid=ultrafine) guess=(read,tcheck) s
 table=(opt,rrhf)
 ----------------------------------------------------------------------
 -----
 title
 -----
 Symbolic Z-matrix:
 Charge =  0 Multiplicity = 1

 SCF Done:  E(RHF) =  -322.507035966     A.U. after   18 cycles
 Normal termination of Gaussian 16 at Wed Apr  9 03:34:42 2025.
 Gaussian 16:  ES64L-G16RevC.01  3-Jul-2019

 ----------------------------------------------------------------------
 #t hf aug-cc-pvdz iop(5/13=1,5/36=2,99/5=2) pseudo=read geom=check gue
 ss=(read,tcheck) scf=(maxcycle=1)
 ----------------------------------------------------------------------
 -----
 title
 -----
 Structure from the checkpoint file:  "Grambow2020_wb97xd3_007131_forward_mol1.chk"
 Charge =  0 Multiplicity = 1

                         Standard orientation:
 ---------------------------------------------------------------------
 Center     Atomic      Atomic             Coordinates (Angstroms)
 Number     Number       Type             X           Y           Z
 ---------------------------------------------------------------------
      1          7           0        1.268013   -1.489112    0.072851
      2          6           0        0.277831   -0.844952   -0.275762
      3          8           0       -1.055993   -1.089598   -0.110670
      4          6           0       -1.589598    0.146337    0.439196
      5          6           0       -0.793979    1.218400   -0.227079
      6          6           0        1.486723    1.003756    0.467338
      7          6           0        0.445749    0.670066   -0.611777
      8          1           0        1.952833   -0.265006    0.266274
      9          1           0       -1.461585    0.101970    1.528632
     10          1           0       -2.654456    0.222716    0.217671
     11          1           0       -1.238611    2.132710   -0.600255
     12          1           0        1.120255    0.921743    1.491667
     13          1           0        2.065881    1.915142    0.314014
     14          1           0        0.827178    0.949650   -1.594098
 ---------------------------------------------------------------------

 SCF Done:  E(RHF) =  -322.603034938     A.U. after    2 cycles

 The electronic state is 1-A.
 Alpha  occ. eigenvalues --  -20.60906 -15.57019 -11.36364 -11.34396 -11.30775
 Alpha  occ. eigenvalues --  -11.27655 -11.25849  -1.39092  -1.16175  -1.12340
 Alpha  occ. eigenvalues --   -0.99430  -0.91831  -0.82290  -0.78036  -0.70834
 Alpha  occ. eigenvalues --   -0.70530  -0.64863  -0.62414  -0.58915  -0.55932
 Alpha  occ. eigenvalues --   -0.54626  -0.53408  -0.50215  -0.41617  -0.36924
 Alpha  occ. eigenvalues --   -0.29360
 Alpha virt. eigenvalues --   -0.01344   0.01681   0.03494   0.04089   0.04695
 Alpha virt. eigenvalues --    0.05960   0.07194   0.08332   0.09394   0.10024
 Alpha virt. eigenvalues --    0.12054   0.12484   0.13098   0.13978   0.14141

 Mulliken charges:
               1
     1  N   -0.723641
     2  C    0.695980
     3  O   -0.726485
     4  C    0.710420
     5  C    0.251573
     6  C    0.179313
     7  C    0.013096
     8  H    0.577752
     9  H   -0.010589
    10  H   -0.141875
    11  H   -0.247812
    12  H   -0.200248
    13  H   -0.165603
    14  H   -0.211880
 Sum of Mulliken charges =  -0.00000

 Dipole moment (field-independent basis, Debye):
    X=             -3.7339    Y=              6.6259    Z=             -0.2792  Tot=              7.6107

 Test job not archived.
 1\1\GINC-SE195\SP\RHF\Aug-CC-pVDZ\C5H7N1O1\OHZDE\09-Apr-2025\0\\#t hf
 aug-cc-pvdz iop(5/13=1,5/36=2,99/5=2) pseudo=read geom=check guess=(re
 ad,tcheck) scf=(maxcycle=1)\\title\\0,1\N,0,1.65495299,-1.52283262,-0.
 59175861\C,0,1.15536549,-0.48757482,-0.14950842\O,0,1.62514957,0.79487
 774,-0.12098768\C,0,0.53783104,1.59518791,-0.66123199\C,0,-0.69683325,
 0.91870466,-0.16703906\C,0,-0.80288785,-1.26235929,-1.14764981\C,0,-0.
 3879797,-0.43418482,0.07768293\H,0,0.35429667,-1.95946655,-0.94171668\
 H,0,0.64382963,1.5962267,-1.75393066\H,0,0.61863576,2.62206272,-0.3037

 Normal termination of Gaussian 16 at Wed Apr  9 03:34:51 2025.
