 Gaussian 16, Revision C.01,

 ----------------------------------------------------------------------
 #t hf aug-cc-pvdz symm=none int=(grid=ultrafine) guess=(read,tcheck) s
 table=(opt,rrhf)
 ----------------------------------------------------------------------
 -----
 title
 -----
 Symbolic Z-matrix:
 Charge =  0 Multiplicity = 1

 SCF Done:  E(RHF) =  -359.575322223     A.U. after   15 cycles
 Normal termination of Gaussian 16 at Wed Apr  9 17:13:29 2025.
 Gaussian 16:  ES64L-G16RevC.01  3-Jul-2019

 ----------------------------------------------------------------------
 #t hf aug-cc-pvdz iop(5/13=1,5/36=2,99/5=2) pseudo=read geom=check gue
 ss=(read,tcheck) scf=(maxcycle=1)
 ----------------------------------------------------------------------
 -----
 title
 -----
 Structure from the checkpoint file:  "Grambow2020_wb97xd3_009401_reverse_mol1.chk"
 Charge =  0 Multiplicity = 1

                         Standard orientation:
 ---------------------------------------------------------------------
 Center     Atomic      Atomic             Coordinates (Angstroms)
 Number     Number       Type             X           Y           Z
 ---------------------------------------------------------------------
      1          8           0       -1.778599    0.069701   -0.923200
      2          6           0       -1.254342    0.041890    0.289849
      3          6           0       -0.352582   -1.116665    0.666868
      4          8           0        0.766104   -1.276534   -0.192710
      5          6           0        1.555838   -0.208850   -0.364367
      6          7           0        1.344520    1.002963   -0.087214
      7          6           0        0.069675    1.427229    0.400436
      8          1           0       -0.909698    1.033374   -0.444315
      9          1           0       -1.892736    0.339529    1.140380
     10          1           0       -0.005365   -1.034390    1.701767
     11          1           0       -0.950140   -2.022535    0.556304
     12          1           0        2.497634   -0.502904   -0.819450
     13          1           0        0.016609    1.550747    1.480306
     14          1           0       -0.179528    2.408486   -0.033934
 ---------------------------------------------------------------------

 SCF Done:  E(RHF) =  -359.685858351     A.U. after    2 cycles

 The electronic state is 1-A.
 Alpha  occ. eigenvalues --  -20.63321 -20.51402 -15.63508 -11.37143 -11.37048
 Alpha  occ. eigenvalues --  -11.32718 -11.31208  -1.42003  -1.31207  -1.21575
 Alpha  occ. eigenvalues --   -1.05616  -0.97246  -0.89567  -0.76971  -0.74384
 Alpha  occ. eigenvalues --   -0.73239  -0.71322  -0.67430  -0.62748  -0.60877
 Alpha  occ. eigenvalues --   -0.59806  -0.55624  -0.54147  -0.48675  -0.43086
 Alpha  occ. eigenvalues --   -0.41027  -0.36556
 Alpha virt. eigenvalues --    0.02570   0.03879   0.04374   0.04846   0.06005
 Alpha virt. eigenvalues --    0.06843   0.08504   0.09548   0.10199   0.11936
 Alpha virt. eigenvalues --    0.12292   0.12638   0.13652   0.14688   0.14794

 Mulliken charges:
               1
     1  O   -0.955155
     2  C    0.549008
     3  C    0.801433
     4  O   -0.473720
     5  C    0.592360
     6  N   -0.327223
     7  C    0.375475
     8  H    0.369438
     9  H   -0.071693
    10  H   -0.112987
    11  H   -0.120897
    12  H   -0.337048
    13  H   -0.140310
    14  H   -0.148681
 Sum of Mulliken charges =  -0.00000

 Dipole moment (field-independent basis, Debye):
    X=              1.1880    Y=              0.2964    Z=              4.1563  Tot=              4.3329

 Test job not archived.
 1\1\GINC-SE114\SP\RHF\Aug-CC-pVDZ\C4H7N1O2\OHZDE\09-Apr-2025\0\\#t hf
 aug-cc-pvdz iop(5/13=1,5/36=2,99/5=2) pseudo=read geom=check guess=(re
 ad,tcheck) scf=(maxcycle=1)\\title\\0,1\O,0,-1.25141795,-0.41054166,1.
 58523684\C,0,-1.10573529,0.14141827,0.39308598\C,0,-0.14756595,1.30620
 375,0.24225577\O,0,1.18109457,1.01257787,0.64763921\C,0,1.76717234,-0.
 04918323,0.07995136\N,0,1.25688125,-0.99418761,-0.58075243\C,0,-0.1611
 0298,-1.09788446,-0.72772292\H,0,-0.75959416,-1.08847475,0.48455553\H,
 0,-2.00770187,0.28811329,-0.22697538\H,0,-0.13738619,1.6868814,-0.7840

 Normal termination of Gaussian 16 at Wed Apr  9 17:13:34 2025.
