 Gaussian 16, Revision C.01,

 ----------------------------------------------------------------------
 #t hf aug-cc-pvdz symm=none int=(grid=ultrafine) guess=(read,tcheck) s
 table=(opt,rrhf)
 ----------------------------------------------------------------------
 -----
 title
 -----
 Symbolic Z-matrix:
 Charge =  0 Multiplicity = 1

 SCF Done:  E(RHF) =  -288.044281309     A.U. after   14 cycles

 1\1\GINC-SE112\Stability\RHF\Aug-CC-pVDZ\C6H11N1\OHZDE\09-Apr-2025\0\\
 #t hf aug-cc-pvdz symm=none int=(grid=ultrafine) guess=(read,tcheck) s
 table=(opt,rrhf)\\title\\0,1\C,0,-3.20316061,0.25249217,-0.03044493\C,
 0,-1.84333091,-0.41285702,-0.2268482\C,0,-0.81028724,0.08472039,0.7511
 5853\C,0,2.63018441,-0.79169223,-0.12268879\C,0,2.56627987,0.72009926,
 -0.23672983\C,0,0.29195832,0.69254853,0.39450372\N,0,1.27094445,1.3269
 232,0.05431605\H,0,-3.9388323,-0.13854754,-0.73635236\H,0,-3.13014169,
 1.33193725,-0.17490858\H,0,-3.58189784,0.07781233,0.97928231\H,0,-1.95

 Normal termination of Gaussian 16 at Wed Apr  9 14:30:48 2025.
 Gaussian 16:  ES64L-G16RevC.01  3-Jul-2019

 ----------------------------------------------------------------------
 #t hf aug-cc-pvdz iop(5/13=1,5/36=2,99/5=2) pseudo=read geom=check gue
 ss=(read,tcheck) scf=(maxcycle=1)
 ----------------------------------------------------------------------
 -----
 title
 -----
 Structure from the checkpoint file:  "Grambow2020_wb97xd3_006566_reverse_mol2.chk"
 Charge =  0 Multiplicity = 1

                         Standard orientation:
 ---------------------------------------------------------------------
 Center     Atomic      Atomic             Coordinates (Angstroms)
 Number     Number       Type             X           Y           Z
 ---------------------------------------------------------------------
      1          6           0        3.301235   -0.124316   -0.205943
      2          6           0        1.955712    0.593782   -0.271562
      3          6           0        0.939790    0.004211    0.672667
      4          6           0       -2.499560    1.067463    0.033199
      5          6           0       -2.482930   -0.419531   -0.268751
      6          6           0       -0.190151   -0.527051    0.282030
      7          7           0       -1.197197   -1.089746   -0.099815
      8          1           0        4.025478    0.333113   -0.883187
      9          1           0        3.192599   -1.175277   -0.479954
     10          1           0        3.716218   -0.085984    0.803920
     11          1           0        2.098173    1.653228   -0.034894
     12          1           0        1.564604    0.555736   -1.290917
     13          1           0        1.152008   -0.002333    1.736530
     14          1           0       -2.209844    1.264233    1.067063
     15          1           0       -1.810166    1.610804   -0.616151
     16          1           0       -3.194065   -0.951895    0.367432
     17          1           0       -3.502406    1.468379   -0.123084
     18          1           0       -2.796801   -0.609122   -1.297887
 ---------------------------------------------------------------------

 SCF Done:  E(RHF) =  -288.135933495     A.U. after    2 cycles

 The electronic state is 1-A.
 Alpha  occ. eigenvalues --  -15.63567 -11.30362 -11.27625 -11.24181 -11.23350
 Alpha  occ. eigenvalues --  -11.23055 -11.22359  -1.22170  -1.07024  -1.01973
 Alpha  occ. eigenvalues --   -0.96504  -0.87468  -0.83050  -0.69222  -0.65550
 Alpha  occ. eigenvalues --   -0.64052  -0.61846  -0.60250  -0.57881  -0.53827
 Alpha  occ. eigenvalues --   -0.52639  -0.52144  -0.50712  -0.49092  -0.47874
 Alpha  occ. eigenvalues --   -0.42087  -0.32248
 Alpha virt. eigenvalues --    0.03360   0.03954   0.04252   0.04767   0.05833
 Alpha virt. eigenvalues --    0.06178   0.06382   0.07541   0.08066   0.08503
 Alpha virt. eigenvalues --    0.09046   0.10917   0.12374   0.12830   0.13775

 Mulliken charges:
               1
     1  C    0.293307
     2  C   -0.104007
     3  C    1.325405
     4  C    0.296184
     5  C    0.669647
     6  C   -0.960669
     7  N   -0.351168
     8  H   -0.087507
     9  H   -0.049917
    10  H   -0.042563
    11  H   -0.015279
    12  H   -0.123671
    13  H   -0.368948
    14  H   -0.040399
    15  H   -0.040693
    16  H   -0.154953
    17  H   -0.096080
    18  H   -0.148690
 Sum of Mulliken charges =   0.00000

 Dipole moment (field-independent basis, Debye):
    X=             -0.4711    Y=              1.5551    Z=              0.0387  Tot=              1.6253

 Test job not archived.
 1\1\GINC-SE112\SP\RHF\Aug-CC-pVDZ\C6H11N1\OHZDE\09-Apr-2025\0\\#t hf a
 ug-cc-pvdz iop(5/13=1,5/36=2,99/5=2) pseudo=read geom=check guess=(rea
 d,tcheck) scf=(maxcycle=1)\\title\\0,1\C,0,-3.20316061,0.25249217,-0.0
 3044493\C,0,-1.84333091,-0.41285702,-0.2268482\C,0,-0.81028724,0.08472
 039,0.75115853\C,0,2.63018441,-0.79169223,-0.12268879\C,0,2.56627987,0
 .72009926,-0.23672983\C,0,0.29195832,0.69254853,0.39450372\N,0,1.27094
 445,1.3269232,0.05431605\H,0,-3.9388323,-0.13854754,-0.73635236\H,0,-3
 .13014169,1.33193725,-0.17490858\H,0,-3.58189784,0.07781233,0.97928231

 Normal termination of Gaussian 16 at Wed Apr  9 14:30:54 2025.
