 Gaussian 16, Revision C.01,

 ----------------------------------------------------------------------
 #t hf aug-cc-pvdz symm=none int=(grid=ultrafine) guess=(read,tcheck) s
 table=(opt,rrhf)
 ----------------------------------------------------------------------
 -----
 title
 -----
 Symbolic Z-matrix:
 Charge =  0 Multiplicity = 1

 SCF Done:  E(RHF) =  -318.832331878     A.U. after   15 cycles
 Normal termination of Gaussian 16 at Wed Apr  9 15:28:57 2025.
 Gaussian 16:  ES64L-G16RevC.01  3-Jul-2019

 ----------------------------------------------------------------------
 #t hf aug-cc-pvdz iop(5/13=1,5/36=2,99/5=2) pseudo=read geom=check gue
 ss=(read,tcheck) scf=(maxcycle=1)
 ----------------------------------------------------------------------
 -----
 title
 -----
 Structure from the checkpoint file:  "Grambow2020_wb97xd3_006923_reverse_mol2.chk"
 Charge =  0 Multiplicity = 1

                         Standard orientation:
 ---------------------------------------------------------------------
 Center     Atomic      Atomic             Coordinates (Angstroms)
 Number     Number       Type             X           Y           Z
 ---------------------------------------------------------------------
      1          7           0        2.416209   -0.471893    0.038812
      2          6           0        1.129842   -0.079950   -0.012831
      3          6           0       -0.051933   -0.983840   -0.027662
      4          6           0       -1.180646    0.022852    0.029552
      5          7           0       -2.511442   -0.448459   -0.084194
      6          6           0       -0.775987    1.308294    0.023913
      7          7           0        0.692998    1.141225   -0.003840
      8          1           0        3.163608    0.194880   -0.020435
      9          1           0        2.644270   -1.435700   -0.112354
     10          1           0       -0.006299   -1.691694    0.806593
     11          1           0       -3.121012    0.348969   -0.210006
     12          1           0       -2.815232   -0.944589    0.744616
     13          1           0       -0.077068   -1.567342   -0.953435
     14          1           0        1.299723    1.945225    0.011740
 ---------------------------------------------------------------------

 SCF Done:  E(RHF) =  -318.926390427     A.U. after    2 cycles

 The electronic state is 1-A.
 Alpha  occ. eigenvalues --  -15.69655 -15.67646 -15.58376 -11.38100 -11.25649
 Alpha  occ. eigenvalues --  -11.21180 -11.17443  -1.30638  -1.20463  -1.12872
 Alpha  occ. eigenvalues --   -1.02482  -0.93118  -0.82690  -0.78197  -0.76235
 Alpha  occ. eigenvalues --   -0.69944  -0.65168  -0.62943  -0.57824  -0.55873
 Alpha  occ. eigenvalues --   -0.54273  -0.52701  -0.46052  -0.41238  -0.30273
 Alpha  occ. eigenvalues --   -0.25591
 Alpha virt. eigenvalues --    0.01146   0.02985   0.04323   0.04825   0.06058
 Alpha virt. eigenvalues --    0.07185   0.08582   0.10113   0.11026   0.11336
 Alpha virt. eigenvalues --    0.12167   0.13208   0.13530   0.14310   0.15945

 Mulliken charges:
               1
     1  N   -0.199779
     2  C    0.734413
     3  C   -0.077526
     4  C    0.576632
     5  N   -0.444705
     6  C   -0.109650
     7  N   -0.364587
     8  H   -0.057626
     9  H   -0.013862
    10  H   -0.003303
    11  H    0.033922
    12  H   -0.005267
    13  H    0.042154
    14  H   -0.110815
 Sum of Mulliken charges =  -0.00000

 Dipole moment (field-independent basis, Debye):
    X=              7.2399    Y=             -3.5749    Z=              0.5606  Tot=              8.0939

 Test job not archived.
 1\1\GINC-SE100\SP\RHF\Aug-CC-pVDZ\C4H7N3\OHZDE\09-Apr-2025\0\\#t hf au
 g-cc-pvdz iop(5/13=1,5/36=2,99/5=2) pseudo=read geom=check guess=(read
 ,tcheck) scf=(maxcycle=1)\\title\\0,1\N,0,-2.35840555,-0.32710362,0.14
 95735\C,0,-1.08032927,0.0543777,-0.02936381\C,0,0.11558462,-0.63144953
 ,0.53033268\C,0,1.22848607,0.17571222,-0.10262505\N,0,2.56380627,-0.09
 928529,0.28128427\C,0,0.80253514,1.20211399,-0.86499472\N,0,-0.6637186
 5,1.04361742,-0.75738916\H,0,-3.11797278,0.22387909,-0.20564148\H,0,-2
 .57400575,-1.01917084,0.84120086\H,0,0.10173646,-1.69712224,0.27879314

 Normal termination of Gaussian 16 at Wed Apr  9 15:29:02 2025.
