 Gaussian 16, Revision C.01,

 ----------------------------------------------------------------------
 #t hf aug-cc-pvdz symm=none int=(grid=ultrafine) guess=(read,tcheck) s
 table=(opt,rrhf)
 ----------------------------------------------------------------------
 -----
 title
 -----
 Symbolic Z-matrix:
 Charge =  0 Multiplicity = 1

 SCF Done:  E(RHF) =  -344.936392360     A.U. after   15 cycles

 1\1\GINC-SE108\Stability\RHF\Aug-CC-pVDZ\C5H10O2\OHZDE\09-Apr-2025\0\\
 #t hf aug-cc-pvdz symm=none int=(grid=ultrafine) guess=(read,tcheck) s
 table=(opt,rrhf)\\title\\0,1\C,0,-2.39094579,-0.52989525,0.27283929\C,
 0,-1.20395542,0.32949469,-0.071355\O,0,-1.1472641,1.4915032,0.25522105
 \C,0,-0.09821083,-0.34049828,-0.86507514\C,0,1.24555206,0.36798384,-0.
 77851097\C,0,1.98431625,0.06864029,0.51921913\O,0,1.19119201,0.2553142
 1,1.67374473\H,0,-3.22146029,0.08732582,0.60770499\H,0,-2.69103899,-1.
 14811798,-0.57551261\H,0,-2.0969318,-1.20666159,1.07972117\H,0,-0.4559

 Normal termination of Gaussian 16 at Wed Apr  9 03:33:35 2025.
 Gaussian 16:  ES64L-G16RevC.01  3-Jul-2019

 ----------------------------------------------------------------------
 #t hf aug-cc-pvdz iop(5/13=1,5/36=2,99/5=2) pseudo=read geom=check gue
 ss=(read,tcheck) scf=(maxcycle=1)
 ----------------------------------------------------------------------
 -----
 title
 -----
 Structure from the checkpoint file:  "Grambow2020_wb97xd3_007058_reverse_mol2.chk"
 Charge =  0 Multiplicity = 1

                         Standard orientation:
 ---------------------------------------------------------------------
 Center     Atomic      Atomic             Coordinates (Angstroms)
 Number     Number       Type             X           Y           Z
 ---------------------------------------------------------------------
      1          6           0       -2.369076   -0.180350   -0.677640
      2          6           0       -1.176462    0.050227    0.211446
      3          8           0       -1.019574   -0.572592    1.234976
      4          6           0       -0.198955    1.118581   -0.240939
      5          6           0        1.185107    0.997035    0.379334
      6          6           0        2.035408   -0.075547   -0.288527
      7          8           0        1.377750   -1.320467   -0.408882
      8          1           0       -3.123679   -0.764379   -0.155782
      9          1           0       -2.790213    0.764216   -1.027487
     10          1           0       -2.032795   -0.732234   -1.559601
     11          1           0       -0.662507    2.073554    0.034061
     12          1           0        0.981399   -1.540397    0.439089
     13          1           0       -0.148842    1.114349   -1.334108
     14          1           0        1.715846    1.949669    0.304482
     15          1           0        1.076239    0.777368    1.444745
     16          1           0        2.982875   -0.182974    0.254722
     17          1           0        2.280134    0.225621   -1.310922
 ---------------------------------------------------------------------

 SCF Done:  E(RHF) =  -345.045498345     A.U. after    2 cycles

 The electronic state is 1-A.
 Alpha  occ. eigenvalues --  -20.56404 -20.56152 -11.34579 -11.28419 -11.25004
 Alpha  occ. eigenvalues --  -11.24457 -11.23759  -1.35958  -1.31873  -1.07201
 Alpha  occ. eigenvalues --   -1.01277  -0.94039  -0.83712  -0.74391  -0.68920
 Alpha  occ. eigenvalues --   -0.67559  -0.66562  -0.63192  -0.62193  -0.60422
 Alpha  occ. eigenvalues --   -0.57061  -0.55313  -0.52707  -0.52133  -0.51400
 Alpha  occ. eigenvalues --   -0.47893  -0.44643  -0.42544
 Alpha virt. eigenvalues --    0.03085   0.04004   0.04677   0.04878   0.06351
 Alpha virt. eigenvalues --    0.06412   0.06718   0.07746   0.07781   0.09056
 Alpha virt. eigenvalues --    0.11117   0.12742   0.13457   0.13607   0.14630

 Mulliken charges:
               1
     1  C    0.381405
     2  C   -0.174869
     3  O   -0.578096
     4  C    0.193365
     5  C    0.251815
     6  C    0.769016
     7  O   -0.574787
     8  H   -0.069343
     9  H    0.017532
    10  H    0.097360
    11  H    0.040370
    12  H    0.193177
    13  H   -0.112957
    14  H   -0.047470
    15  H   -0.103765
    16  H   -0.135052
    17  H   -0.147702
 Sum of Mulliken charges =  -0.00000

 Dipole moment (field-independent basis, Debye):
    X=             -0.4753    Y=              2.9197    Z=             -1.4188  Tot=              3.2808

 Test job not archived.
 1\1\GINC-SE108\SP\RHF\Aug-CC-pVDZ\C5H10O2\OHZDE\09-Apr-2025\0\\#t hf a
 ug-cc-pvdz iop(5/13=1,5/36=2,99/5=2) pseudo=read geom=check guess=(rea
 d,tcheck) scf=(maxcycle=1)\\title\\0,1\C,0,-2.39094579,-0.52989525,0.2
 7283929\C,0,-1.20395542,0.32949469,-0.071355\O,0,-1.1472641,1.4915032,
 0.25522105\C,0,-0.09821083,-0.34049828,-0.86507514\C,0,1.24555206,0.36
 798384,-0.77851097\C,0,1.98431625,0.06864029,0.51921913\O,0,1.19119201
 ,0.25531421,1.67374473\H,0,-3.22146029,0.08732582,0.60770499\H,0,-2.69
 103899,-1.14811798,-0.57551261\H,0,-2.0969318,-1.20666159,1.07972117\H

 Normal termination of Gaussian 16 at Wed Apr  9 03:33:42 2025.
