 Gaussian 16, Revision C.01,

 ----------------------------------------------------------------------
 #t hf aug-cc-pvdz symm=none int=(grid=ultrafine) guess=(read,tcheck) s
 table=(opt,rrhf)
 ----------------------------------------------------------------------
 -----
 title
 -----
 Symbolic Z-matrix:
 Charge =  0 Multiplicity = 1

 SCF Done:  E(RHF) =  -353.378518660     A.U. after   20 cycles
 Normal termination of Gaussian 16 at Wed Apr  9 03:46:13 2025.
 Gaussian 16:  ES64L-G16RevC.01  3-Jul-2019

 ----------------------------------------------------------------------
 #t hf aug-cc-pvdz iop(5/13=1,5/36=2,99/5=2) pseudo=read geom=check gue
 ss=(read,tcheck) scf=(maxcycle=1)
 ----------------------------------------------------------------------
 -----
 title
 -----
 Structure from the checkpoint file:  "Grambow2020_wb97xd3_007939_forward_mol1.chk"
 Charge =  0 Multiplicity = 1

                         Standard orientation:
 ---------------------------------------------------------------------
 Center     Atomic      Atomic             Coordinates (Angstroms)
 Number     Number       Type             X           Y           Z
 ---------------------------------------------------------------------
      1          8           0       -1.930562   -0.565618   -0.269669
      2          6           0       -0.690748   -0.149918    0.047061
      3          6           0        0.278756   -1.217388    0.088242
      4          7           0        1.499011   -0.745922    0.103690
      5          7           0        1.920629    0.314369   -0.121870
      6          6           0        0.096722    1.304180   -0.385767
      7          7           0       -0.627068    1.118769    0.650295
      8          1           0       -2.560506    0.068791    0.091406
      9          1           0        0.040932   -2.257522   -0.032904
     10          1           0        0.307685    2.281924   -0.823160
 ---------------------------------------------------------------------

 SCF Done:  E(RHF) =  -353.480504995     A.U. after    2 cycles

 The electronic state is 1-A.
 Alpha  occ. eigenvalues --  -20.63331 -15.76094 -15.74693 -15.66749 -11.40684
 Alpha  occ. eigenvalues --  -11.31843 -11.28972  -1.42601  -1.40364  -1.27978
 Alpha  occ. eigenvalues --   -1.09387  -0.91866  -0.84249  -0.76833  -0.73461
 Alpha  occ. eigenvalues --   -0.69968  -0.67378  -0.65113  -0.63096  -0.58902
 Alpha  occ. eigenvalues --   -0.57109  -0.54696  -0.47090  -0.37498  -0.31933
 Alpha virt. eigenvalues --    0.03312   0.03671   0.04532   0.05261   0.07642
 Alpha virt. eigenvalues --    0.09385   0.09985   0.10716   0.11945   0.12595
 Alpha virt. eigenvalues --    0.13117   0.13829   0.15138   0.16157   0.16658

 Mulliken charges:
               1
     1  O   -0.554047
     2  C    0.619523
     3  C    0.808567
     4  N   -0.192945
     5  N   -0.191601
     6  C    0.340524
     7  N   -0.519301
     8  H    0.146855
     9  H   -0.225665
    10  H   -0.231910
 Sum of Mulliken charges =  -0.00000

 Dipole moment (field-independent basis, Debye):
    X=             -1.0592    Y=             -0.0516    Z=             -0.6767  Tot=              1.2580

 Test job not archived.
 1\1\GINC-SE292\SP\RHF\Aug-CC-pVDZ\C3H3N3O1\OHZDE\09-Apr-2025\0\\#t hf
 aug-cc-pvdz iop(5/13=1,5/36=2,99/5=2) pseudo=read geom=check guess=(re
 ad,tcheck) scf=(maxcycle=1)\\title\\0,1\O,0,1.8037879,-0.41212937,-0.2
 6420309\C,0,0.54048151,-0.11967744,0.09467268\C,0,0.25151882,1.2935600
 2,0.07502335\N,0,-1.03681579,1.51244565,0.1368724\N,0,-1.94864833,0.80
 573165,-0.01135516\C,0,-0.89548337,-0.98852026,-0.2293178\N,0,-0.13244
 494,-1.14472035,0.78312867\H,0,2.03900467,-1.25935653,0.13147245\H,0,0
 .97954023,2.05868834,-0.11908356\H,0,-1.59368369,-1.74293871,-0.596972

 Normal termination of Gaussian 16 at Wed Apr  9 03:46:17 2025.
