 Gaussian 16, Revision C.01,

 ----------------------------------------------------------------------
 #t hf aug-cc-pvdz symm=none int=(grid=ultrafine) guess=(read,tcheck) s
 table=(opt,rrhf)
 ----------------------------------------------------------------------
 -----
 title
 -----
 Symbolic Z-matrix:
 Charge =  0 Multiplicity = 1

 SCF Done:  E(RHF) =  -270.040900317     A.U. after   13 cycles

 1\1\GINC-SE419\Stability\RHF\Aug-CC-pVDZ\C5H10O1\OHZDE\09-Apr-2025\0\\
 #t hf aug-cc-pvdz symm=none int=(grid=ultrafine) guess=(read,tcheck) s
 table=(opt,rrhf)\\title\\0,1\C,0,2.32611011,-0.36156869,-0.44410486\C,
 0,1.2803903,0.75378312,-0.25426673\C,0,-0.01809559,0.24854656,0.316104
 63\O,0,0.16227706,-0.23729153,1.59343362\C,0,-1.19433129,0.25963779,-0
 .34815958\C,0,-2.52187391,-0.23599949,0.16199779\H,0,3.26505078,0.0497
 8518,-0.84047297\H,0,2.54099697,-0.85679126,0.51109538\H,0,1.95684423,
 -1.12067148,-1.14773211\H,0,1.07383044,1.24595255,-1.21431867\H,0,1.68

 Normal termination of Gaussian 16 at Wed Apr  9 03:10:00 2025.
 Gaussian 16:  ES64L-G16RevC.01  3-Jul-2019

 ----------------------------------------------------------------------
 #t hf aug-cc-pvdz iop(5/13=1,5/36=2,99/5=2) pseudo=read geom=check gue
 ss=(read,tcheck) scf=(maxcycle=1)
 ----------------------------------------------------------------------
 -----
 title
 -----
 Structure from the checkpoint file:  "Grambow2020_b97d3_006744_reverse_mol2.chk"
 Charge =  0 Multiplicity = 1

                         Standard orientation:
 ---------------------------------------------------------------------
 Center     Atomic      Atomic             Coordinates (Angstroms)
 Number     Number       Type             X           Y           Z
 ---------------------------------------------------------------------
      1          6           0        2.354150   -0.204544    0.569443
      2          6           0        1.336172   -0.459793   -0.558451
      3          6           0       -0.036432    0.070408   -0.239864
      4          8           0       -0.019821    1.444629   -0.133173
      5          6           0       -1.128856   -0.705466   -0.068018
      6          6           0       -2.523149   -0.238772    0.258220
      7          1           0        3.346593   -0.585486    0.290392
      8          1           0        2.441067    0.869497    0.776109
      9          1           0        2.038574   -0.706672    1.494627
     10          1           0        1.257956   -1.536613   -0.760786
     11          1           0        1.693304    0.020335   -1.483932
     12          1           0       -0.913888    1.742341    0.121047
     13          1           0       -0.985965   -1.781105   -0.170894
     14          1           0       -3.258109   -0.668233   -0.440014
     15          1           0       -2.830705   -0.537702    1.273642
     16          1           0       -2.641561    0.855616    0.197214
 ---------------------------------------------------------------------

 SCF Done:  E(RHF) =  -270.126726500     A.U. after    2 cycles

 The electronic state is 1-A.
 Alpha  occ. eigenvalues --  -20.59707 -11.30272 -11.24240 -11.23820 -11.22517
 Alpha  occ. eigenvalues --  -11.22474  -1.35208  -1.06301  -1.01546  -0.92501
 Alpha  occ. eigenvalues --   -0.84008  -0.78123  -0.69097  -0.63549  -0.60109
 Alpha  occ. eigenvalues --   -0.59405  -0.56861  -0.56347  -0.55375  -0.51655
 Alpha  occ. eigenvalues --   -0.50841  -0.49355  -0.48216  -0.32791
 Alpha virt. eigenvalues --    0.03347   0.04170   0.04865   0.05060   0.06160
 Alpha virt. eigenvalues --    0.06597   0.06639   0.07768   0.08718   0.09274
 Alpha virt. eigenvalues --    0.11938   0.12864   0.13184   0.14282   0.14674

 Mulliken charges:
               1
     1  C    0.284365
     2  C    0.094490
     3  C    0.464961
     4  O   -0.612857
     5  C    0.296674
     6  C    0.031303
     7  H   -0.069143
     8  H   -0.021300
     9  H   -0.068853
    10  H   -0.093903
    11  H    0.031217
    12  H    0.149204
    13  H   -0.448127
    14  H    0.048088
    15  H    0.074649
    16  H   -0.160769
 Sum of Mulliken charges =   0.00000

 Dipole moment (field-independent basis, Debye):
    X=             -1.0310    Y=             -0.5535    Z=              0.2738  Tot=              1.2018

 Test job not archived.
 1\1\GINC-SE419\SP\RHF\Aug-CC-pVDZ\C5H10O1\OHZDE\09-Apr-2025\0\\#t hf a
 ug-cc-pvdz iop(5/13=1,5/36=2,99/5=2) pseudo=read geom=check guess=(rea
 d,tcheck) scf=(maxcycle=1)\\title\\0,1\C,0,2.32611011,-0.36156869,-0.4
 4410486\C,0,1.2803903,0.75378312,-0.25426673\C,0,-0.01809559,0.2485465
 6,0.31610463\O,0,0.16227706,-0.23729153,1.59343362\C,0,-1.19433129,0.2
 5963779,-0.34815958\C,0,-2.52187391,-0.23599949,0.16199779\H,0,3.26505
 078,0.04978518,-0.84047297\H,0,2.54099697,-0.85679126,0.51109538\H,0,1
 .95684423,-1.12067148,-1.14773211\H,0,1.07383044,1.24595255,-1.2143186

 Normal termination of Gaussian 16 at Wed Apr  9 03:10:04 2025.
