 Gaussian 16, Revision C.01,

 ----------------------------------------------------------------------
 #t hf aug-cc-pvdz symm=none int=(grid=ultrafine) guess=(read,tcheck) s
 table=(opt,rrhf)
 ----------------------------------------------------------------------
 -----
 title
 -----
 Symbolic Z-matrix:
 Charge =  0 Multiplicity = 1

 SCF Done:  E(RHF) =  -321.328282248     A.U. after   17 cycles
 Normal termination of Gaussian 16 at Wed Apr  9 03:39:14 2025.
 Gaussian 16:  ES64L-G16RevC.01  3-Jul-2019

 ----------------------------------------------------------------------
 #t hf aug-cc-pvdz iop(5/13=1,5/36=2,99/5=2) pseudo=read geom=check gue
 ss=(read,tcheck) scf=(maxcycle=1)
 ----------------------------------------------------------------------
 -----
 title
 -----
 Structure from the checkpoint file:  "Grambow2020_wb97xd3_007496_forward_mol1.chk"
 Charge =  0 Multiplicity = 1

                         Standard orientation:
 ---------------------------------------------------------------------
 Center     Atomic      Atomic             Coordinates (Angstroms)
 Number     Number       Type             X           Y           Z
 ---------------------------------------------------------------------
      1          8           0       -0.204039    1.807245   -0.023470
      2          6           0       -0.713382    0.742209   -0.012665
      3          6           0       -1.982030    0.110680   -0.080011
      4          6           0       -1.922061   -1.189667    0.007915
      5          6           0        0.572715   -0.493683    0.096437
      6          6           0        1.854422   -0.431038   -0.702778
      7          7           0        1.707060   -0.387022    0.724862
      8          1           0       -2.713612   -1.927696    0.009309
      9          1           0       -0.829866   -1.582297    0.103171
     10          1           0        2.037224    0.496024   -1.237475
     11          1           0        2.291749   -1.333550   -1.110817
     12          1           0        2.039412    0.167708    1.496149
 ---------------------------------------------------------------------

 SCF Done:  E(RHF) =  -321.424799609     A.U. after    2 cycles

 The electronic state is 1-A.
 Alpha  occ. eigenvalues --  -20.60918 -15.71917 -11.39150 -11.36689 -11.33248
 Alpha  occ. eigenvalues --  -11.25222 -11.20202  -1.41239  -1.35067  -1.06692
 Alpha  occ. eigenvalues --   -0.95984  -0.87817  -0.84829  -0.76831  -0.71954
 Alpha  occ. eigenvalues --   -0.69498  -0.63631  -0.62763  -0.60396  -0.57294
 Alpha  occ. eigenvalues --   -0.53943  -0.48304  -0.43477  -0.37568  -0.31098
 Alpha virt. eigenvalues --    0.02178   0.03016   0.03500   0.04169   0.05114
 Alpha virt. eigenvalues --    0.07062   0.07721   0.09224   0.10611   0.11000
 Alpha virt. eigenvalues --    0.11725   0.12554   0.13849   0.14151   0.14944

 Mulliken charges:
               1
     1  O   -0.403225
     2  C    0.304336
     3  C   -0.345813
     4  C    0.619703
     5  C   -0.119712
     6  C    1.009915
     7  N   -0.292086
     8  H   -0.301633
     9  H   -0.049328
    10  H   -0.183858
    11  H   -0.199662
    12  H   -0.038639
 Sum of Mulliken charges =  -0.00000

 Dipole moment (field-independent basis, Debye):
    X=              5.7215    Y=             -2.9415    Z=              0.7319  Tot=              6.4749

 Test job not archived.
 1\1\GINC-SE070\SP\RHF\Aug-CC-pVDZ\C5H5N1O1\OHZDE\09-Apr-2025\0\\#t hf
 aug-cc-pvdz iop(5/13=1,5/36=2,99/5=2) pseudo=read geom=check guess=(re
 ad,tcheck) scf=(maxcycle=1)\\title\\0,1\O,0,0.09357948,-0.22794987,2.1
 3613262\C,0,0.7455297,-0.11776552,1.15803827\C,0,2.08388749,-0.1957576
 2,0.69376699\C,0,2.20975431,0.06233385,-0.57893664\C,0,-0.34879989,0.2
 4227956,-0.20804668\C,0,-1.66866685,-0.46290948,-0.42275534\N,0,-1.450
 80967,0.93274694,-0.16490002\H,0,3.09488789,0.10072568,-1.20047196\H,0
 ,1.18944691,0.28642315,-1.09360123\H,0,-2.0073068,-1.09733943,0.390621

 Normal termination of Gaussian 16 at Wed Apr  9 03:39:19 2025.
