 Gaussian 16, Revision C.01,

 ----------------------------------------------------------------------
 #t hf aug-cc-pvdz symm=none int=(grid=ultrafine) guess=(read,tcheck) s
 table=(opt,rrhf)
 ----------------------------------------------------------------------
 -----
 title
 -----
 Symbolic Z-matrix:
 Charge =  0 Multiplicity = 1

 SCF Done:  E(RHF) =  -304.521950234     A.U. after   15 cycles
 Normal termination of Gaussian 16 at Wed Apr  9 14:16:04 2025.
 Gaussian 16:  ES64L-G16RevC.01  3-Jul-2019

 ----------------------------------------------------------------------
 #t hf aug-cc-pvdz iop(5/13=1,5/36=2,99/5=2) pseudo=read geom=check gue
 ss=(read,tcheck) scf=(maxcycle=1)
 ----------------------------------------------------------------------
 -----
 title
 -----
 Structure from the checkpoint file:  "Grambow2020_b97d3_006924_reverse_mol1.chk"
 Charge =  0 Multiplicity = 1

                         Standard orientation:
 ---------------------------------------------------------------------
 Center     Atomic      Atomic             Coordinates (Angstroms)
 Number     Number       Type             X           Y           Z
 ---------------------------------------------------------------------
      1          8           0       -1.794992   -0.390302   -0.347711
      2          6           0       -0.560732   -0.136798    0.219101
      3          6           0        0.177464    1.597651    0.563015
      4          6           0        0.483274    0.681802   -0.544546
      5          8           0        1.539402   -0.289875   -0.284150
      6          6           0        0.589487   -1.157084    0.372625
      7          1           0       -2.424445   -0.606053    0.366287
      8          1           0       -0.707324    2.170747    0.201775
      9          1           0       -0.558404    0.519768    1.245213
     10          1           0        0.333696    0.923183   -1.599609
     11          1           0        0.891739   -1.417950    1.396773
     12          1           0        0.372505   -2.061708   -0.216722
 ---------------------------------------------------------------------

 SCF Done:  E(RHF) =  -304.613562642     A.U. after    2 cycles

 The electronic state is 1-A.
 Alpha  occ. eigenvalues --  -20.62621 -20.57760 -11.34741 -11.31586 -11.31540
 Alpha  occ. eigenvalues --  -11.27219  -1.38500  -1.34857  -1.09742  -0.97102
 Alpha  occ. eigenvalues --   -0.84125  -0.79723  -0.75593  -0.68758  -0.65930
 Alpha  occ. eigenvalues --   -0.64355  -0.59699  -0.58233  -0.56514  -0.49988
 Alpha  occ. eigenvalues --   -0.47445  -0.43896  -0.35563
 Alpha virt. eigenvalues --    0.02463   0.04478   0.04670   0.05326   0.06490
 Alpha virt. eigenvalues --    0.07542   0.09322   0.09926   0.11568   0.12201
 Alpha virt. eigenvalues --    0.13435   0.13766   0.14421   0.15186   0.15228

 Mulliken charges:
               1
     1  O   -0.571111
     2  C   -0.257217
     3  C   -0.398277
     4  C    1.037324
     5  O   -0.846911
     6  C    0.947503
     7  H    0.179309
     8  H    0.025931
     9  H    0.347569
    10  H   -0.190425
    11  H   -0.146367
    12  H   -0.127329
 Sum of Mulliken charges =  -0.00000

 Dipole moment (field-independent basis, Debye):
    X=             -3.3482    Y=             -1.4584    Z=              0.4808  Tot=              3.6836

 Test job not archived.
 1\1\GINC-SE232\SP\RHF\Aug-CC-pVDZ\C4H6O2\OHZDE\09-Apr-2025\0\\#t hf au
 g-cc-pvdz iop(5/13=1,5/36=2,99/5=2) pseudo=read geom=check guess=(read
 ,tcheck) scf=(maxcycle=1)\\title\\0,1\O,0,0.0128407,-1.31798272,-1.177
 09012\C,0,0.04488192,-0.44290829,-0.10837362\C,0,-1.48344772,0.3293996
 ,0.75143554\C,0,-0.58412442,0.94708708,-0.23277343\O,0,0.59374126,1.60
 738659,0.31859493\C,0,1.28373073,0.34020317,0.38106031\H,0,0.13376456,
 -2.22496838,-0.83751816\H,0,-2.24214122,-0.19823963,0.12872719\H,0,-0.
 54273696,-0.7939522,0.89932741\H,0,-0.90591488,1.32376203,-1.20661341\

 Normal termination of Gaussian 16 at Wed Apr  9 14:16:08 2025.
