 Gaussian 16, Revision C.01,

 ----------------------------------------------------------------------
 #t hf aug-cc-pvdz symm=none int=(grid=ultrafine) guess=(read,tcheck) s
 table=(opt,rrhf)
 ----------------------------------------------------------------------
 -----
 title
 -----
 Symbolic Z-matrix:
 Charge =  0 Multiplicity = 1

 SCF Done:  E(RHF) =  -338.658552485     A.U. after   15 cycles
 Normal termination of Gaussian 16 at Wed Apr  9 15:17:53 2025.
 Gaussian 16:  ES64L-G16RevC.01  3-Jul-2019

 ----------------------------------------------------------------------
 #t hf aug-cc-pvdz iop(5/13=1,5/36=2,99/5=2) pseudo=read geom=check gue
 ss=(read,tcheck) scf=(maxcycle=1)
 ----------------------------------------------------------------------
 -----
 title
 -----
 Structure from the checkpoint file:  "Grambow2020_wb97xd3_006836_forward_mol1.chk"
 Charge =  0 Multiplicity = 1

                         Standard orientation:
 ---------------------------------------------------------------------
 Center     Atomic      Atomic             Coordinates (Angstroms)
 Number     Number       Type             X           Y           Z
 ---------------------------------------------------------------------
      1          7           0        2.442673   -0.461014   -0.201629
      2          6           0        1.122246   -0.072854    0.100880
      3          6           0        0.667810    1.302460   -0.023928
      4          7           0       -0.691941    1.132456   -0.033430
      5          6           0       -1.095258   -0.180449   -0.018054
      6          8           0       -2.417825   -0.411850   -0.044838
      7          6           0       -0.016896   -0.989409    0.050556
      8          1           0        3.042849    0.346547   -0.289311
      9          1           0        2.832117   -1.124940    0.450095
     10          1           0        1.060449    0.542280    1.160285
     11          1           0       -1.342424    1.897106    0.010182
     12          1           0       -2.577152   -1.357750   -0.042717
     13          1           0        0.004215   -2.067023    0.058857
 ---------------------------------------------------------------------

 SCF Done:  E(RHF) =  -338.760005857     A.U. after    2 cycles

 The electronic state is 1-A.
 Alpha  occ. eigenvalues --  -20.63372 -15.66592 -15.62120 -11.35756 -11.29436
 Alpha  occ. eigenvalues --  -11.25707 -11.22727  -1.40774  -1.27154  -1.17143
 Alpha  occ. eigenvalues --   -1.03413  -0.97906  -0.84041  -0.78817  -0.74641
 Alpha  occ. eigenvalues --   -0.69529  -0.67394  -0.66015  -0.62891  -0.59551
 Alpha  occ. eigenvalues --   -0.56881  -0.54177  -0.47354  -0.37353  -0.36152
 Alpha  occ. eigenvalues --   -0.33506
 Alpha virt. eigenvalues --    0.02557   0.03714   0.04516   0.05920   0.06104
 Alpha virt. eigenvalues --    0.07248   0.10386   0.10683   0.12507   0.12740
 Alpha virt. eigenvalues --    0.13105   0.14131   0.14457   0.15280   0.15528

 Mulliken charges:
               1
     1  N   -0.420951
     2  C    0.276511
     3  C   -0.373660
     4  N   -0.323770
     5  C    0.356119
     6  O   -0.479865
     7  C    1.029348
     8  H    0.053302
     9  H   -0.013670
    10  H    0.243500
    11  H   -0.114971
    12  H    0.148428
    13  H   -0.380322
 Sum of Mulliken charges =  -0.00000

 Dipole moment (field-independent basis, Debye):
    X=             -1.2691    Y=             -2.6720    Z=              1.4739  Tot=              3.3049

 Test job not archived.
 1\1\GINC-SE129\SP\RHF\Aug-CC-pVDZ\C4H6N2O1\OHZDE\09-Apr-2025\0\\#t hf
 aug-cc-pvdz iop(5/13=1,5/36=2,99/5=2) pseudo=read geom=check guess=(re
 ad,tcheck) scf=(maxcycle=1)\\title\\0,1\N,0,-2.09890565,0.52783005,-0.
 6575959\C,0,-0.87560107,0.01444666,-0.18254649\C,0,-0.41268461,-1.3234
 7473,-0.51307819\N,0,0.91871703,-1.22735915,-0.20316506\C,0,1.31679054
 ,0.02812232,0.18661103\O,0,2.61589385,0.18979132,0.48601036\C,0,0.2531
 4921,0.85888433,0.20872937\H,0,-2.67105635,-0.20895681,-1.04469199\H,0
 ,-2.61470948,1.05495868,0.03036438\H,0,-1.04467335,-0.81730698,0.70297

 Normal termination of Gaussian 16 at Wed Apr  9 15:17:57 2025.
