 Gaussian 16, Revision C.01,

 ----------------------------------------------------------------------
 #t hf aug-cc-pvdz symm=none int=(grid=ultrafine) guess=(read,tcheck) s
 table=(opt,rrhf)
 ----------------------------------------------------------------------
 -----
 title
 -----
 Symbolic Z-matrix:
 Charge =  0 Multiplicity = 1

 SCF Done:  E(RHF) =  -306.595538715     A.U. after   15 cycles
 Normal termination of Gaussian 16 at Wed Apr  9 16:25:06 2025.
 Gaussian 16:  ES64L-G16RevC.01  3-Jul-2019

 ----------------------------------------------------------------------
 #t hf aug-cc-pvdz iop(5/13=1,5/36=2,99/5=2) pseudo=read geom=check gue
 ss=(read,tcheck) scf=(maxcycle=1)
 ----------------------------------------------------------------------
 -----
 title
 -----
 Structure from the checkpoint file:  "Grambow2020_wb97xd3_008220_reverse_mol2.chk"
 Charge =  0 Multiplicity = 1

                         Standard orientation:
 ---------------------------------------------------------------------
 Center     Atomic      Atomic             Coordinates (Angstroms)
 Number     Number       Type             X           Y           Z
 ---------------------------------------------------------------------
      1          6           0       -1.323253    1.055829   -0.535867
      2          8           0       -1.586930   -0.745883   -0.283503
      3          6           0       -0.417235   -0.621583    0.616331
      4          6           0        0.814357   -1.251003    0.058112
      5          6           0        1.684730   -0.324482   -0.329539
      6          6           0        1.217332    1.075564   -0.058714
      7          6           0       -0.202801    0.883776    0.501798
      8          1           0       -1.288875   -1.067463   -1.139954
      9          1           0       -2.241587    1.339549   -0.002718
     10          1           0       -0.746681   -1.017812    1.576112
     11          1           0        0.950236   -2.323177   -0.015491
     12          1           0        2.644377   -0.544946   -0.783187
     13          1           0        1.886796    1.571821    0.650451
     14          1           0        1.199175    1.678202   -0.971035
     15          1           0       -0.346782    1.422275    1.441119
 ---------------------------------------------------------------------

 SCF Done:  E(RHF) =  -306.685415569     A.U. after    2 cycles

 The electronic state is 1-A.
 Alpha  occ. eigenvalues --  -20.61445 -11.31501 -11.26145 -11.24664 -11.24333
 Alpha  occ. eigenvalues --  -11.23612 -11.23520  -1.36488  -1.13912  -1.00710
 Alpha  occ. eigenvalues --   -0.96565  -0.86567  -0.78885  -0.73768  -0.71398
 Alpha  occ. eigenvalues --   -0.66781  -0.65925  -0.60134  -0.58680  -0.54931
 Alpha  occ. eigenvalues --   -0.51605  -0.51180  -0.48520  -0.45978  -0.37948
 Alpha  occ. eigenvalues --   -0.31687
 Alpha virt. eigenvalues --    0.03080   0.04034   0.04212   0.05309   0.05976
 Alpha virt. eigenvalues --    0.06443   0.06874   0.07384   0.10444   0.11337
 Alpha virt. eigenvalues --    0.11869   0.13039   0.13590   0.13991   0.14324

 Mulliken charges:
               1
     1  C    0.078655
     2  O   -0.711880
     3  C    0.586312
     4  C    0.325917
     5  C   -0.021266
     6  C    0.494297
     7  C    0.097316
     8  H    0.295315
     9  H   -0.131398
    10  H   -0.245705
    11  H   -0.279858
    12  H   -0.286911
    13  H   -0.020928
    14  H   -0.017787
    15  H   -0.162081
 Sum of Mulliken charges =  -0.00000

 Dipole moment (field-independent basis, Debye):
    X=              2.1904    Y=             -1.5923    Z=              1.5718  Tot=              3.1311

 Test job not archived.
 1\1\GINC-SE041\SP\RHF\Aug-CC-pVDZ\C6H8O1\OHZDE\09-Apr-2025\0\\#t hf au
 g-cc-pvdz iop(5/13=1,5/36=2,99/5=2) pseudo=read geom=check guess=(read
 ,tcheck) scf=(maxcycle=1)\\title\\0,1\C,0,-1.68220712,-0.00249834,-0.7
 7218302\O,0,-0.89969067,-1.64979156,-0.5409385\C,0,-0.12325543,-0.9484
 9151,0.50723427\C,0,1.30218135,-0.73063399,0.12609764\C,0,1.5275621,0.
 54985947,-0.14922633\C,0,0.31828134,1.41738725,0.04305305\C,0,-0.79302
 188,0.41785538,0.40867079\H,0,-0.37455683,-1.68620543,-1.34633746\H,0,
 -2.65292351,-0.32557766,-0.37042156\H,0,-0.2770233,-1.52690439,1.41745

 Normal termination of Gaussian 16 at Wed Apr  9 16:25:12 2025.
