 Gaussian 16, Revision C.01,

 ----------------------------------------------------------------------
 #t hf aug-cc-pvdz symm=none int=(grid=ultrafine) guess=(read,tcheck) s
 table=(opt,rrhf)
 ----------------------------------------------------------------------
 -----
 title
 -----
 Symbolic Z-matrix:
 Charge =  0 Multiplicity = 1

 SCF Done:  E(RHF) =  -273.225163907     A.U. after   12 cycles
 Normal termination of Gaussian 16 at Wed Apr  9 16:08:35 2025.
 Gaussian 16:  ES64L-G16RevC.01  3-Jul-2019

 ----------------------------------------------------------------------
 #t hf aug-cc-pvdz iop(5/13=1,5/36=2,99/5=2) pseudo=read geom=check gue
 ss=(read,tcheck) scf=(maxcycle=1)
 ----------------------------------------------------------------------
 -----
 title
 -----
 Structure from the checkpoint file:  "Grambow2020_wb97xd3_007785_forward_mol2.chk"
 Charge =  0 Multiplicity = 1

                         Standard orientation:
 ---------------------------------------------------------------------
 Center     Atomic      Atomic             Coordinates (Angstroms)
 Number     Number       Type             X           Y           Z
 ---------------------------------------------------------------------
      1          6           0       -1.407260   -1.231719   -0.545037
      2          6           0       -0.670305    0.000037   -0.010382
      3          6           0       -0.683092   -0.037873    1.518415
      4          6           0       -1.383727    1.270272   -0.482943
      5          6           0        0.737836   -0.000541   -0.596208
      6          6           0        1.889824   -0.752168   -0.003467
      7          6           0        1.889807    0.751153   -0.003829
      8          1           0       -1.445397   -1.221902   -1.637365
      9          1           0       -0.902867   -2.150394   -0.236423
     10          1           0       -2.435066   -1.266877   -0.174725
     11          1           0       -1.713587   -0.023563    1.880467
     12          1           0       -0.214301   -0.943731    1.907707
     13          1           0       -0.174192    0.824882    1.953233
     14          1           0       -1.405251    1.324803   -1.574383
     15          1           0       -2.416457    1.297530   -0.125697
     16          1           0       -0.873265    2.163163   -0.114263
     17          1           0        0.719255    0.000862   -1.682914
     18          1           0        1.747759   -1.247079    0.948461
     19          1           0        2.563808   -1.268315   -0.674463
     20          1           0        2.562317    1.267410   -0.676132
     21          1           0        1.748742    1.248250    0.947196
 ---------------------------------------------------------------------

 SCF Done:  E(RHF) =  -273.312333305     A.U. after    2 cycles

 The electronic state is 1-A.
 Alpha  occ. eigenvalues --  -11.23944 -11.23030 -11.22629 -11.22581 -11.21803
 Alpha  occ. eigenvalues --  -11.21597 -11.21585  -1.14213  -1.06457  -0.92732
 Alpha  occ. eigenvalues --   -0.92453  -0.83570  -0.81640  -0.72503  -0.66588
 Alpha  occ. eigenvalues --   -0.64503  -0.59978  -0.59217  -0.55645  -0.54287
 Alpha  occ. eigenvalues --   -0.53198  -0.51768  -0.50365  -0.47446  -0.47171
 Alpha  occ. eigenvalues --   -0.45584  -0.41004  -0.40199
 Alpha virt. eigenvalues --    0.03596   0.04296   0.04420   0.04652   0.06290
 Alpha virt. eigenvalues --    0.06372   0.06473   0.06794   0.07072   0.08786
 Alpha virt. eigenvalues --    0.09070   0.09284   0.09500   0.09609   0.12869

 Mulliken charges:
               1
     1  C    1.193310
     2  C   -4.176823
     3  C    1.342042
     4  C    1.178718
     5  C    1.146461
     6  C    0.677448
     7  C    0.686063
     8  H   -0.019069
     9  H   -0.003612
    10  H   -0.026201
    11  H   -0.029697
    12  H   -0.037921
    13  H   -0.040840
    14  H   -0.022911
    15  H   -0.027353
    16  H   -0.003540
    17  H   -0.473146
    18  H   -0.345134
    19  H   -0.325414
    20  H   -0.332043
    21  H   -0.360338
 Sum of Mulliken charges =  -0.00000

 Dipole moment (field-independent basis, Debye):
    X=             -0.0648    Y=             -0.0023    Z=             -0.0428  Tot=              0.0777

 Test job not archived.
 1\1\GINC-SE129\SP\RHF\Aug-CC-pVDZ\C7H14\OHZDE\09-Apr-2025\0\\#t hf aug
 -cc-pvdz iop(5/13=1,5/36=2,99/5=2) pseudo=read geom=check guess=(read,
 tcheck) scf=(maxcycle=1)\\title\\0,1\C,0,-0.65810001,1.65551555,0.6418
 9192\C,0,-0.50721899,0.1929416,0.21259881\C,0,-1.05754032,0.03181121,-
 1.2051478\C,0,-1.30568321,-0.7055736,1.16176138\C,0,0.96615408,-0.1837
 9352,0.32789927\C,0,1.98086063,0.07133129,-0.74384892\C,0,1.5925824,-1
 .33781411,-0.39239206\H,0,-0.30283345,1.80208058,1.6651393\H,0,-0.0791
 0959,2.31343956,-0.01043069\H,0,-1.70377026,1.97137163,0.60235952\H,0,

 Normal termination of Gaussian 16 at Wed Apr  9 16:08:45 2025.
