 Gaussian 16, Revision C.01,

 ----------------------------------------------------------------------
 #t hf aug-cc-pvdz symm=none int=(grid=ultrafine) guess=(read,tcheck) s
 table=(opt,rrhf)
 ----------------------------------------------------------------------
 -----
 title
 -----
 Symbolic Z-matrix:
 Charge =  0 Multiplicity = 1

 SCF Done:  E(RHF) =  -284.875336748     A.U. after   13 cycles
 Normal termination of Gaussian 16 at Wed Apr  9 03:05:24 2025.
 Gaussian 16:  ES64L-G16RevC.01  3-Jul-2019

 ----------------------------------------------------------------------
 #t hf aug-cc-pvdz iop(5/13=1,5/36=2,99/5=2) pseudo=read geom=check gue
 ss=(read,tcheck) scf=(maxcycle=1)
 ----------------------------------------------------------------------
 -----
 title
 -----
 Structure from the checkpoint file:  "Grambow2020_b97d3_006531_forward_mol2.chk"
 Charge =  0 Multiplicity = 1

                         Standard orientation:
 ---------------------------------------------------------------------
 Center     Atomic      Atomic             Coordinates (Angstroms)
 Number     Number       Type             X           Y           Z
 ---------------------------------------------------------------------
      1          6           0        0.968381    0.921095   -0.332393
      2          6           0       -0.389860    1.299467    0.251936
      3          8           0       -1.391113    0.302778   -0.066980
      4          6           0       -0.940207   -0.990103   -0.087873
      5          7           0        0.242885   -1.447044    0.032685
      6          6           0        1.337880   -0.483452    0.166246
      7          1           0        0.899442    0.918326   -1.430061
      8          1           0        1.724132    1.666545   -0.044888
      9          1           0       -0.330582    1.383704    1.348428
     10          1           0       -0.776775    2.242214   -0.152417
     11          1           0       -1.787730   -1.663578   -0.238183
     12          1           0        2.202081   -0.876016   -0.389120
     13          1           0        1.640978   -0.446144    1.225795
 ---------------------------------------------------------------------

 SCF Done:  E(RHF) =  -284.962481329     A.U. after    2 cycles

 The electronic state is 1-A.
 Alpha  occ. eigenvalues --  -20.60969 -15.61268 -11.34608 -11.30707 -11.26903
 Alpha  occ. eigenvalues --  -11.24791  -1.37808  -1.18060  -1.06174  -0.92384
 Alpha  occ. eigenvalues --   -0.88594  -0.75056  -0.71294  -0.66789  -0.64570
 Alpha  occ. eigenvalues --   -0.61216  -0.58362  -0.56838  -0.54960  -0.49281
 Alpha  occ. eigenvalues --   -0.48553  -0.40354  -0.38721
 Alpha virt. eigenvalues --    0.03201   0.04375   0.04470   0.04829   0.06601
 Alpha virt. eigenvalues --    0.07027   0.07389   0.10488   0.10720   0.13042
 Alpha virt. eigenvalues --    0.13213   0.13850   0.14019   0.15158   0.15385

 Mulliken charges:
               1
     1  C    0.026291
     2  C    0.771644
     3  O   -0.547959
     4  C    0.535064
     5  N   -0.404196
     6  C    0.604553
     7  H   -0.101399
     8  H   -0.005199
     9  H   -0.146328
    10  H   -0.172770
    11  H   -0.309835
    12  H   -0.125016
    13  H   -0.124850
 Sum of Mulliken charges =  -0.00000

 Dipole moment (field-independent basis, Debye):
    X=              0.8422    Y=              2.2671    Z=              0.2418  Tot=              2.4305

 Test job not archived.
 1\1\GINC-SE208\SP\RHF\Aug-CC-pVDZ\C4H7N1O1\OHZDE\09-Apr-2025\0\\#t hf
 aug-cc-pvdz iop(5/13=1,5/36=2,99/5=2) pseudo=read geom=check guess=(re
 ad,tcheck) scf=(maxcycle=1)\\title\\0,1\C,0,0.56397308,-0.72978797,0.5
 1911326\C,0,-0.80288765,-0.99602722,-0.10557335\O,0,-1.6472006,0.17852
 812,-0.03374046\C,0,-0.9963748,1.37396319,-0.18425364\N,0,0.24958519,1
 .62192915,-0.27982054\C,0,1.18131455,0.49742217,-0.16701095\H,0,0.4356
 1893,-0.52855757,1.59273613\H,0,1.2049589,-1.61769627,0.41777223\H,0,-
 0.69720287,-1.27495346,-1.16573173\H,0,-1.35800111,-1.78709274,0.41215

 Normal termination of Gaussian 16 at Wed Apr  9 03:05:28 2025.
