 Gaussian 16, Revision C.01,

 ----------------------------------------------------------------------
 #t hf aug-cc-pvdz symm=none int=(grid=ultrafine) guess=(read,tcheck) s
 table=(opt,rrhf)
 ----------------------------------------------------------------------
 -----
 title
 -----
 Symbolic Z-matrix:
 Charge =  0 Multiplicity = 1

 SCF Done:  E(RHF) =  -322.630413476     A.U. after   15 cycles
 Normal termination of Gaussian 16 at Wed Apr  9 17:08:31 2025.
 Gaussian 16:  ES64L-G16RevC.01  3-Jul-2019

 ----------------------------------------------------------------------
 #t hf aug-cc-pvdz iop(5/13=1,5/36=2,99/5=2) pseudo=read geom=check gue
 ss=(read,tcheck) scf=(maxcycle=1)
 ----------------------------------------------------------------------
 -----
 title
 -----
 Structure from the checkpoint file:  "Grambow2020_wb97xd3_009158_reverse_mol2.chk"
 Charge =  0 Multiplicity = 1

                         Standard orientation:
 ---------------------------------------------------------------------
 Center     Atomic      Atomic             Coordinates (Angstroms)
 Number     Number       Type             X           Y           Z
 ---------------------------------------------------------------------
      1          6           0        1.579761   -1.270641   -0.000449
      2          7           0        0.288266   -0.608353    0.000976
      3          6           0       -0.872417   -1.176512    0.000762
      4          6           0       -1.888849   -0.093663   -0.000500
      5          6           0       -1.153150    1.222865    0.000314
      6          6           0        0.121109    0.815527    0.001098
      7          8           0        1.317607    1.475591   -0.000244
      8          1           0        2.131556   -0.975734    0.890154
      9          1           0        2.141492   -0.948685   -0.875235
     10          1           0        1.439629   -2.349203   -0.017327
     11          1           0       -0.975343   -2.253583   -0.001441
     12          1           0       -2.546330   -0.207290   -0.871771
     13          1           0       -2.552108   -0.205253    0.866516
     14          1           0        1.083667    2.408034   -0.003127
 ---------------------------------------------------------------------

 SCF Done:  E(RHF) =  -322.728539485     A.U. after    2 cycles

 The electronic state is 1-A.
 Alpha  occ. eigenvalues --  -20.58168 -15.73738 -11.33573 -11.30853 -11.28747
 Alpha  occ. eigenvalues --  -11.24231 -11.15819  -1.36122  -1.30174  -1.08172
 Alpha  occ. eigenvalues --   -0.98158  -0.95613  -0.81860  -0.77555  -0.72235
 Alpha  occ. eigenvalues --   -0.67582  -0.66848  -0.63062  -0.59632  -0.59371
 Alpha  occ. eigenvalues --   -0.57055  -0.56059  -0.49382  -0.48137  -0.30036
 Alpha  occ. eigenvalues --   -0.28817
 Alpha virt. eigenvalues --    0.02018   0.03541   0.04188   0.04822   0.06477
 Alpha virt. eigenvalues --    0.06876   0.07041   0.07734   0.09358   0.11786
 Alpha virt. eigenvalues --    0.12939   0.13016   0.13417   0.14219   0.15318

 Mulliken charges:
               1
     1  C    0.830996
     2  N   -0.420049
     3  C    0.311702
     4  C    0.093410
     5  C   -0.676484
     6  C    0.933256
     7  O   -0.508840
     8  H   -0.058337
     9  H   -0.060464
    10  H   -0.236797
    11  H   -0.423961
    12  H    0.032187
    13  H    0.030383
    14  H    0.152999
 Sum of Mulliken charges =  -0.00000

 Dipole moment (field-independent basis, Debye):
    X=              1.9072    Y=             -6.2649    Z=             -0.0088  Tot=              6.5488

 Test job not archived.
 1\1\GINC-SE103\SP\RHF\Aug-CC-pVDZ\C5H7N1O1\OHZDE\09-Apr-2025\0\\#t hf
 aug-cc-pvdz iop(5/13=1,5/36=2,99/5=2) pseudo=read geom=check guess=(re
 ad,tcheck) scf=(maxcycle=1)\\title\\0,1\C,0,-1.78617323,0.03261941,0.4
 8032437\N,0,-0.40022183,-0.12273481,0.07834046\C,0,0.17875219,-1.21571
 56,-0.29605625\C,0,1.59210863,-0.87834095,-0.60314222\C,0,1.7732733,0.
 59809547,-0.35451634\C,0,0.54636466,0.9534197,0.04310319\O,0,-0.007441
 33,2.14075673,0.43146511\H,0,-2.27216693,0.74287089,-0.18598828\H,0,-1
 .81841687,0.43273835,1.49191396\H,0,-2.29104398,-0.92996695,0.43847827

 Normal termination of Gaussian 16 at Wed Apr  9 17:08:36 2025.
