 Gaussian 16, Revision C.01,

 ----------------------------------------------------------------------
 #t hf aug-cc-pvdz symm=none int=(grid=ultrafine) guess=(read,tcheck) s
 table=(opt,rrhf)
 ----------------------------------------------------------------------
 -----
 title
 -----
 Symbolic Z-matrix:
 Charge =  0 Multiplicity = 1

 SCF Done:  E(RHF) =  -323.737672218     A.U. after   16 cycles
 Normal termination of Gaussian 16 at Wed Apr  9 15:58:11 2025.
 Gaussian 16:  ES64L-G16RevC.01  3-Jul-2019

 ----------------------------------------------------------------------
 #t hf aug-cc-pvdz iop(5/13=1,5/36=2,99/5=2) pseudo=read geom=check gue
 ss=(read,tcheck) scf=(maxcycle=1)
 ----------------------------------------------------------------------
 -----
 title
 -----
 Structure from the checkpoint file:  "Grambow2020_wb97xd3_007618_forward_mol1.chk"
 Charge =  0 Multiplicity = 1

                         Standard orientation:
 ---------------------------------------------------------------------
 Center     Atomic      Atomic             Coordinates (Angstroms)
 Number     Number       Type             X           Y           Z
 ---------------------------------------------------------------------
      1          6           0       -2.036016    0.366363    0.261891
      2          6           0       -1.087870   -0.559450   -0.386615
      3          7           0        0.906985   -0.561265   -0.960648
      4          6           0        0.100958   -1.204037    0.121549
      5          6           0        0.858055   -0.385274    1.155478
      6          6           0        1.186694    0.624409   -0.024485
      7          8           0        0.367069    1.600385   -0.201167
      8          1           0       -1.656037    0.789239    1.184424
      9          1           0       -2.323175    1.176472   -0.404990
     10          1           0       -2.939130   -0.234862    0.459295
     11          1           0       -1.431931   -0.983749   -1.328607
     12          1           0        0.531456   -0.347552   -1.880915
     13          1           0        0.115657   -2.293068    0.140266
     14          1           0        1.729442   -0.924646    1.524089
     15          1           0        0.289004    0.039500    1.978653
     16          1           0        2.268341    0.852370   -0.105252
 ---------------------------------------------------------------------

 SCF Done:  E(RHF) =  -323.834722042     A.U. after    2 cycles

 The electronic state is 1-A.
 Alpha  occ. eigenvalues --  -20.43303 -15.64114 -11.38334 -11.31027 -11.28823
 Alpha  occ. eigenvalues --  -11.27052 -11.22652  -1.27672  -1.18065  -1.07608
 Alpha  occ. eigenvalues --   -0.97988  -0.94038  -0.80897  -0.75750  -0.72173
 Alpha  occ. eigenvalues --   -0.67652  -0.63411  -0.60140  -0.58472  -0.56143
 Alpha  occ. eigenvalues --   -0.55428  -0.52337  -0.51045  -0.49764  -0.40317
 Alpha  occ. eigenvalues --   -0.34202  -0.33078
 Alpha virt. eigenvalues --    0.01871   0.03352   0.03738   0.03850   0.05167
 Alpha virt. eigenvalues --    0.06466   0.06572   0.06812   0.07975   0.08512
 Alpha virt. eigenvalues --    0.10756   0.12535   0.12766   0.13097   0.14015

 Mulliken charges:
               1
     1  C    0.291854
     2  C   -0.007878
     3  N   -0.656750
     4  C    0.658564
     5  C    0.721932
     6  C    0.816222
     7  O   -0.836387
     8  H   -0.042389
     9  H    0.118098
    10  H    0.102302
    11  H   -0.400031
    12  H   -0.002880
    13  H   -0.255016
    14  H   -0.133690
    15  H   -0.166813
    16  H   -0.207137
 Sum of Mulliken charges =   0.00000

 Dipole moment (field-independent basis, Debye):
    X=             -3.8474    Y=             -5.4589    Z=             -0.0468  Tot=              6.6786

 Test job not archived.
 1\1\GINC-SE168\SP\RHF\Aug-CC-pVDZ\C5H9N1O1\OHZDE\09-Apr-2025\0\\#t hf
 aug-cc-pvdz iop(5/13=1,5/36=2,99/5=2) pseudo=read geom=check guess=(re
 ad,tcheck) scf=(maxcycle=1)\\title\\0,1\C,0,-1.31462895,-1.2376173,0.6
 5498822\C,0,-1.09621567,-0.05723791,-0.20272423\N,0,0.27089263,1.49721
 485,-0.35652741\C,0,-0.03224104,0.2541056,-1.12904038\C,0,1.32292761,-
 0.30952925,-0.73103251\C,0,1.28004937,0.70519583,0.48891417\O,0,0.7735
 4095,0.27181789,1.58944267\H,0,-0.43184418,-1.85702621,0.76128416\H,0,
 -1.66669684,-0.95329105,1.64426789\H,0,-2.12435422,-1.80497835,0.16662

 Normal termination of Gaussian 16 at Wed Apr  9 15:58:17 2025.
