 Gaussian 16, Revision C.01,

 ----------------------------------------------------------------------
 #t hf aug-cc-pvdz symm=none int=(grid=ultrafine) guess=(read,tcheck) s
 table=(opt,rrhf)
 ----------------------------------------------------------------------
 -----
 title
 -----
 Symbolic Z-matrix:
 Charge =  0 Multiplicity = 1

 SCF Done:  E(RHF) =  -310.212540102     A.U. after   12 cycles

 1\1\GINC-SE114\Stability\RHF\Aug-CC-pVDZ\C6H14O1\OHZDE\09-Apr-2025\0\\
 #t hf aug-cc-pvdz symm=none int=(grid=ultrafine) guess=(read,tcheck) s
 table=(opt,rrhf)\\title\\0,1\C,0,-1.70778564,1.10190508,-0.13237731\C,
 0,-1.67058162,-0.417597,-0.0269083\C,0,-0.28378095,-0.99409158,-0.1781
 2656\C,0,0.05812448,-2.30505591,0.45470045\C,0,0.64588752,-1.03943658,
 1.00690919\O,0,1.75836993,1.83173811,-0.35264212\C,0,2.01948824,1.5242
 6965,-1.70256185\H,0,-2.72886119,1.47951781,-0.0566988\H,0,-1.29915663
 ,1.44408167,-1.0863684\H,0,-1.12240959,1.57038926,0.66210437\H,0,-2.07

 Normal termination of Gaussian 16 at Wed Apr  9 16:03:30 2025.
 Gaussian 16:  ES64L-G16RevC.01  3-Jul-2019

 ----------------------------------------------------------------------
 #t hf aug-cc-pvdz iop(5/13=1,5/36=2,99/5=2) pseudo=read geom=check gue
 ss=(read,tcheck) scf=(maxcycle=1)
 ----------------------------------------------------------------------
 -----
 title
 -----
 Structure from the checkpoint file:  "Grambow2020_wb97xd3_007724_reverse_mol2.chk"
 Charge =  0 Multiplicity = 1

                         Standard orientation:
 ---------------------------------------------------------------------
 Center     Atomic      Atomic             Coordinates (Angstroms)
 Number     Number       Type             X           Y           Z
 ---------------------------------------------------------------------
      1          6           0       -0.406468    2.091749    0.187056
      2          6           0       -1.488210    1.117819   -0.263155
      3          6           0       -0.987444   -0.296001   -0.432782
      4          6           0       -1.927142   -1.449258   -0.281243
      5          6           0       -0.878691   -1.204748    0.764299
      6          8           0        2.311301   -0.132767    0.697611
      7          6           0        2.745026   -0.346253   -0.625760
      8          1           0       -0.795123    3.108726    0.262021
      9          1           0        0.430092    2.109051   -0.515816
     10          1           0       -0.006704    1.817700    1.166051
     11          1           0       -2.308049    1.115308    0.462796
     12          1           0       -1.921174    1.457433   -1.209258
     13          1           0       -0.220236   -0.415360   -1.193099
     14          1           0        1.351046   -0.154674    0.708402
     15          1           0       -1.803576   -2.304135   -0.932575
     16          1           0       -2.955644   -1.225779   -0.026344
     17          1           0       -1.200974   -0.810356    1.720733
     18          1           0       -0.054397   -1.904498    0.826117
     19          1           0        3.834661   -0.350214   -0.613337
     20          1           0        2.412755    0.449248   -1.303924
     21          1           0        2.404490   -1.310168   -1.023143
 ---------------------------------------------------------------------

 SCF Done:  E(RHF) =  -310.315074275     A.U. after    2 cycles

 The electronic state is 1-A.
 Alpha  occ. eigenvalues --  -20.56290 -11.27912 -11.24453 -11.23862 -11.23681
 Alpha  occ. eigenvalues --  -11.23542 -11.22425  -1.31503  -1.14713  -1.02284
 Alpha  occ. eigenvalues --   -0.92111  -0.87373  -0.82794  -0.78017  -0.70197
 Alpha  occ. eigenvalues --   -0.67704  -0.63825  -0.62456  -0.60379  -0.60166
 Alpha  occ. eigenvalues --   -0.56399  -0.53335  -0.51895  -0.50642  -0.49952
 Alpha  occ. eigenvalues --   -0.48212  -0.45669  -0.42436  -0.41446
 Alpha virt. eigenvalues --    0.03330   0.04122   0.04407   0.04638   0.05721
 Alpha virt. eigenvalues --    0.06392   0.06534   0.06833   0.07546   0.08465
 Alpha virt. eigenvalues --    0.08840   0.09647   0.09964   0.11111   0.12452

 Mulliken charges:
               1
     1  C    0.546173
     2  C    0.097335
     3  C    0.093682
     4  C    1.060253
     5  C    0.687438
     6  O   -0.462110
     7  C    0.859259
     8  H   -0.139372
     9  H   -0.125937
    10  H   -0.089130
    11  H   -0.144462
    12  H   -0.078425
    13  H   -0.548139
    14  H    0.210539
    15  H   -0.340683
    16  H   -0.363319
    17  H   -0.310824
    18  H   -0.410661
    19  H   -0.267833
    20  H   -0.143705
    21  H   -0.130079
 Sum of Mulliken charges =  -0.00000

 Dipole moment (field-independent basis, Debye):
    X=             -1.4524    Y=             -0.1771    Z=             -1.5173  Tot=              2.1078

 Test job not archived.
 1\1\GINC-SE114\SP\RHF\Aug-CC-pVDZ\C6H14O1\OHZDE\09-Apr-2025\0\\#t hf a
 ug-cc-pvdz iop(5/13=1,5/36=2,99/5=2) pseudo=read geom=check guess=(rea
 d,tcheck) scf=(maxcycle=1)\\title\\0,1\C,0,-1.70778564,1.10190508,-0.1
 3237731\C,0,-1.67058162,-0.417597,-0.0269083\C,0,-0.28378095,-0.994091
 58,-0.17812656\C,0,0.05812448,-2.30505591,0.45470045\C,0,0.64588752,-1
 .03943658,1.00690919\O,0,1.75836993,1.83173811,-0.35264212\C,0,2.01948
 824,1.52426965,-1.70256185\H,0,-2.72886119,1.47951781,-0.0566988\H,0,-
 1.29915663,1.44408167,-1.0863684\H,0,-1.12240959,1.57038926,0.66210437

 Normal termination of Gaussian 16 at Wed Apr  9 16:03:54 2025.
