 Gaussian 16, Revision C.01,

 ----------------------------------------------------------------------
 #t hf aug-cc-pvdz symm=none int=(grid=ultrafine) guess=(read,tcheck) s
 table=(opt,rrhf)
 ----------------------------------------------------------------------
 -----
 title
 -----
 Symbolic Z-matrix:
 Charge =  0 Multiplicity = 1

 SCF Done:  E(RHF) =  -245.838180684     A.U. after   13 cycles
 Normal termination of Gaussian 16 at Wed Apr  9 03:20:22 2025.
 Gaussian 16:  ES64L-G16RevC.01  3-Jul-2019

 ----------------------------------------------------------------------
 #t hf aug-cc-pvdz iop(5/13=1,5/36=2,99/5=2) pseudo=read geom=check gue
 ss=(read,tcheck) scf=(maxcycle=1)
 ----------------------------------------------------------------------
 -----
 title
 -----
 Structure from the checkpoint file:  "Grambow2020_wb97xd3_006107_forward_mol2.chk"
 Charge =  0 Multiplicity = 1

                         Standard orientation:
 ---------------------------------------------------------------------
 Center     Atomic      Atomic             Coordinates (Angstroms)
 Number     Number       Type             X           Y           Z
 ---------------------------------------------------------------------
      1          6           0       -0.922604   -0.744381    0.000137
      2          6           0       -0.905805    0.796847   -0.000172
      3          7           0        0.516875    1.153023   -0.000016
      4          6           0        1.148216    0.064140    0.000095
      5          8           0        0.473250   -1.103225   -0.000278
      6          1           0       -1.383836   -1.175566    0.889010
      7          1           0       -1.385043   -1.176529   -0.887671
      8          1           0       -1.390768    1.222626   -0.880101
      9          1           0       -1.390214    1.222080    0.880332
     10          1           0        2.226897   -0.037600    0.000400
 ---------------------------------------------------------------------

 SCF Done:  E(RHF) =  -245.915025246     A.U. after    2 cycles

 The electronic state is 1-A.
 Alpha  occ. eigenvalues --  -20.61102 -15.61449 -11.34421 -11.30385 -11.27226
 Alpha  occ. eigenvalues --   -1.40509  -1.18679  -1.02842  -0.86639  -0.80531
 Alpha  occ. eigenvalues --   -0.72220  -0.70017  -0.61869  -0.57973  -0.57112
 Alpha  occ. eigenvalues --   -0.53467  -0.53148  -0.43458  -0.38534
 Alpha virt. eigenvalues --    0.03413   0.04462   0.04797   0.05256   0.07326
 Alpha virt. eigenvalues --    0.09587   0.10390   0.10857   0.11908   0.14010
 Alpha virt. eigenvalues --    0.14884   0.15712   0.16791   0.17042   0.18220

 Mulliken charges:
               1
     1  C    0.761379
     2  C    0.479154
     3  N   -0.493513
     4  C    0.703740
     5  O   -0.606983
     6  H   -0.174924
     7  H   -0.175013
     8  H   -0.148588
     9  H   -0.148182
    10  H   -0.197069
 Sum of Mulliken charges =  -0.00000

 Dipole moment (field-independent basis, Debye):
    X=             -1.4385    Y=             -0.9536    Z=              0.0009  Tot=              1.7259

 Test job not archived.
 1\1\GINC-SE044\SP\RHF\Aug-CC-pVDZ\C3H5N1O1\OHZDE\09-Apr-2025\0\\#t hf
 aug-cc-pvdz iop(5/13=1,5/36=2,99/5=2) pseudo=read geom=check guess=(re
 ad,tcheck) scf=(maxcycle=1)\\title\\0,1\C,0,-0.65344358,-0.73920278,-0
 .01275183\C,0,-0.55579941,0.78296607,0.20890725\N,0,0.86686189,1.09347
 358,0.03426426\C,0,1.43257515,-0.0006187,-0.22494105\O,0,0.70502742,-1
 .1342119,-0.28789312\H,0,-0.99510791,-1.2870751,0.86579915\H,0,-1.2685
 2429,-1.01755518,-0.86890591\H,0,-1.14674805,1.35163207,-0.51092017\H,
 0,-0.87654413,1.08311438,1.20780486\H,0,2.49170291,-0.13252243,-0.4113

 Normal termination of Gaussian 16 at Wed Apr  9 03:20:25 2025.
