 Gaussian 16, Revision C.01,

 ----------------------------------------------------------------------
 #t hf aug-cc-pvdz symm=none int=(grid=ultrafine) guess=(read,tcheck) s
 table=(opt,rrhf)
 ----------------------------------------------------------------------
 -----
 title
 -----
 Symbolic Z-matrix:
 Charge =  0 Multiplicity = 1

 SCF Done:  E(RHF) =  -342.400759133     A.U. after   16 cycles
 Normal termination of Gaussian 16 at Wed Apr  9 16:32:01 2025.
 Gaussian 16:  ES64L-G16RevC.01  3-Jul-2019

 ----------------------------------------------------------------------
 #t hf aug-cc-pvdz iop(5/13=1,5/36=2,99/5=2) pseudo=read geom=check gue
 ss=(read,tcheck) scf=(maxcycle=1)
 ----------------------------------------------------------------------
 -----
 title
 -----
 Structure from the checkpoint file:  "Grambow2020_wb97xd3_008533_reverse_mol1.chk"
 Charge =  0 Multiplicity = 1

                         Standard orientation:
 ---------------------------------------------------------------------
 Center     Atomic      Atomic             Coordinates (Angstroms)
 Number     Number       Type             X           Y           Z
 ---------------------------------------------------------------------
      1          8           0       -2.135510   -0.576935   -0.080700
      2          6           0       -0.890346   -0.309527    0.066262
      3          6           0       -0.656977    1.067314    0.292220
      4          8           0        0.626530    1.392861   -0.203697
      5          6           0        1.266207    0.183387   -0.475880
      6          6           0        1.495962   -0.768882    0.625976
      7          6           0        0.311142   -1.030881   -0.291677
      8          1           0       -0.896602    1.486586    1.266848
      9          1           0       -2.034004    0.708337   -0.176760
     10          1           0        1.943947    0.230756   -1.317594
     11          1           0        1.291780   -0.453198    1.640528
     12          1           0        2.318233   -1.461934    0.511637
     13          1           0        0.292561   -1.886419   -0.950891
 ---------------------------------------------------------------------

 SCF Done:  E(RHF) =  -342.506403957     A.U. after    2 cycles

 The electronic state is 1-A.
 Alpha  occ. eigenvalues --  -20.59485 -20.58973 -11.36670 -11.33264 -11.27760
 Alpha  occ. eigenvalues --  -11.27355 -11.26998  -1.39231  -1.36211  -1.16277
 Alpha  occ. eigenvalues --   -1.01711  -0.90328  -0.84898  -0.77347  -0.73597
 Alpha  occ. eigenvalues --   -0.69180  -0.66561  -0.65821  -0.60318  -0.59818
 Alpha  occ. eigenvalues --   -0.57872  -0.54817  -0.48648  -0.46649  -0.43061
 Alpha  occ. eigenvalues --   -0.33742
 Alpha virt. eigenvalues --    0.02818   0.04183   0.04657   0.04749   0.06439
 Alpha virt. eigenvalues --    0.06944   0.08994   0.09795   0.10049   0.11013
 Alpha virt. eigenvalues --    0.12059   0.13579   0.13957   0.14215   0.14906

 Mulliken charges:
               1
     1  O   -0.702506
     2  C   -0.091791
     3  C    0.341042
     4  O   -0.702923
     5  C    0.893223
     6  C    0.783581
     7  C    0.586379
     8  H   -0.227767
     9  H    0.465883
    10  H   -0.371659
    11  H   -0.312331
    12  H   -0.280786
    13  H   -0.380346
 Sum of Mulliken charges =  -0.00000

 Dipole moment (field-independent basis, Debye):
    X=              2.9080    Y=             -1.5836    Z=              0.4265  Tot=              3.3386

 Test job not archived.
 1\1\GINC-SE113\SP\RHF\Aug-CC-pVDZ\C5H6O2\OHZDE\09-Apr-2025\0\\#t hf au
 g-cc-pvdz iop(5/13=1,5/36=2,99/5=2) pseudo=read geom=check guess=(read
 ,tcheck) scf=(maxcycle=1)\\title\\0,1\O,0,1.51761021,1.84146472,0.3571
 5427\C,0,0.73731411,0.83285304,0.22532903\C,0,1.43847418,-0.35423292,-
 0.09154868\O,0,0.58421332,-1.19370295,-0.84310224\C,0,-0.69517725,-0.6
 4556809,-0.74926972\C,0,-1.32592636,-0.52274659,0.57766683\C,0,-0.6852
 9709,0.7246304,-0.01239494\H,0,2.00580027,-0.85278475,0.69120047\H,0,2
 .22390188,0.91659301,-0.20606929\H,0,-1.29591207,-0.79141229,-1.636909

 Normal termination of Gaussian 16 at Wed Apr  9 16:32:05 2025.
