 Gaussian 16, Revision C.01,

 ----------------------------------------------------------------------
 #t hf aug-cc-pvdz symm=none int=(grid=ultrafine) guess=(read,tcheck) s
 table=(opt,rrhf)
 ----------------------------------------------------------------------
 -----
 title
 -----
 Symbolic Z-matrix:
 Charge =  0 Multiplicity = 1

 SCF Done:  E(RHF) =  -354.754377011     A.U. after   15 cycles
 Normal termination of Gaussian 16 at Wed Apr  9 15:42:43 2025.
 Gaussian 16:  ES64L-G16RevC.01  3-Jul-2019

 ----------------------------------------------------------------------
 #t hf aug-cc-pvdz iop(5/13=1,5/36=2,99/5=2) pseudo=read geom=check gue
 ss=(read,tcheck) scf=(maxcycle=1)
 ----------------------------------------------------------------------
 -----
 title
 -----
 Structure from the checkpoint file:  "Grambow2020_wb97xd3_007309_forward_mol2.chk"
 Charge =  0 Multiplicity = 1

                         Standard orientation:
 ---------------------------------------------------------------------
 Center     Atomic      Atomic             Coordinates (Angstroms)
 Number     Number       Type             X           Y           Z
 ---------------------------------------------------------------------
      1          8           0        2.439597    0.470289   -0.076173
      2          6           0        1.597262   -0.645989    0.050174
      3          6           0        0.149010   -0.277400    0.009873
      4          7           0       -0.241073    0.976798    0.027398
      5          7           0       -1.580607    0.868285    0.006577
      6          6           0       -1.933153   -0.422398   -0.022909
      7          7           0       -0.864086   -1.181211   -0.020317
      8          1           0        1.919576    1.258227    0.107699
      9          1           0        1.792970   -1.179193    0.989375
     10          1           0        1.807859   -1.344167   -0.764409
     11          1           0       -2.157429    1.689800    0.006580
     12          1           0       -2.958095   -0.759367   -0.048291
 ---------------------------------------------------------------------

 SCF Done:  E(RHF) =  -354.859405737     A.U. after    2 cycles

 The electronic state is 1-A.
 Alpha  occ. eigenvalues --  -20.56708 -15.72797 -15.66783 -15.63187 -11.34356
 Alpha  occ. eigenvalues --  -11.31231 -11.29670  -1.39722  -1.32602  -1.18049
 Alpha  occ. eigenvalues --   -1.11456  -0.96172  -0.86991  -0.80787  -0.78399
 Alpha  occ. eigenvalues --   -0.68701  -0.66736  -0.64990  -0.62475  -0.60209
 Alpha  occ. eigenvalues --   -0.52486  -0.51214  -0.47165  -0.45393  -0.41951
 Alpha  occ. eigenvalues --   -0.37849
 Alpha virt. eigenvalues --    0.02034   0.03933   0.04649   0.05659   0.07176
 Alpha virt. eigenvalues --    0.09187   0.09532   0.10691   0.12759   0.13658
 Alpha virt. eigenvalues --    0.13803   0.14146   0.14814   0.16413   0.16770

 Mulliken charges:
               1
     1  O   -0.528443
     2  C    0.914428
     3  C    0.084623
     4  N   -0.494785
     5  N   -0.132597
     6  C    0.838429
     7  N   -0.635912
     8  H    0.167986
     9  H    0.009955
    10  H   -0.031582
    11  H   -0.003302
    12  H   -0.188800
 Sum of Mulliken charges =  -0.00000

 Dipole moment (field-independent basis, Debye):
    X=             -4.4525    Y=              1.2772    Z=              0.3944  Tot=              4.6488

 Test job not archived.
 1\1\GINC-SE037\SP\RHF\Aug-CC-pVDZ\C3H5N3O1\OHZDE\09-Apr-2025\0\\#t hf
 aug-cc-pvdz iop(5/13=1,5/36=2,99/5=2) pseudo=read geom=check guess=(re
 ad,tcheck) scf=(maxcycle=1)\\title\\0,1\O,0,-2.26675757,0.97105502,-0.
 55516382\C,0,-1.69135171,-0.18028247,0.00599453\C,0,-0.19725695,-0.152
 00062,-0.03637442\N,0,0.45356171,0.78367427,-0.68939164\N,0,1.73772271
 ,0.43383885,-0.50202237\C,0,1.80396569,-0.6762205,0.2425599\N,0,0.5969
 9513,-1.08001361,0.5570108\H,0,-1.59667731,1.40964622,-1.08780413\H,0,
 -2.03560952,-1.08302746,-0.51481696\H,0,-2.01457988,-0.26800996,1.0467

 Normal termination of Gaussian 16 at Wed Apr  9 15:42:48 2025.
