 Gaussian 16, Revision C.01,

 ----------------------------------------------------------------------
 #t hf aug-cc-pvdz symm=none int=(grid=ultrafine) guess=(read,tcheck) s
 table=(opt,rrhf)
 ----------------------------------------------------------------------
 -----
 title
 -----
 Symbolic Z-matrix:
 Charge =  0 Multiplicity = 1

 SCF Done:  E(RHF) =  -317.789382732     A.U. after   14 cycles
 Normal termination of Gaussian 16 at Wed Apr  9 03:46:49 2025.
 Gaussian 16:  ES64L-G16RevC.01  3-Jul-2019

 ----------------------------------------------------------------------
 #t hf aug-cc-pvdz iop(5/13=1,5/36=2,99/5=2) pseudo=read geom=check gue
 ss=(read,tcheck) scf=(maxcycle=1)
 ----------------------------------------------------------------------
 -----
 title
 -----
 Structure from the checkpoint file:  "Grambow2020_wb97xd3_007976_forward_mol2.chk"
 Charge =  0 Multiplicity = 1

                         Standard orientation:
 ---------------------------------------------------------------------
 Center     Atomic      Atomic             Coordinates (Angstroms)
 Number     Number       Type             X           Y           Z
 ---------------------------------------------------------------------
      1          7           0        2.215050   -0.000061   -0.036169
      2          6           0        0.860607   -0.000270   -0.003672
      3          7           0        0.255987    1.193595    0.001949
      4          6           0       -1.067200    1.173011    0.001878
      5          6           0       -1.803846    0.000290   -0.001263
      6          6           0       -1.067633   -1.172799    0.001970
      7          7           0        0.255468   -1.193950    0.001997
      8          1           0        2.693612   -0.867943    0.111094
      9          1           0        2.693340    0.868235    0.110591
     10          1           0       -1.559355    2.141837    0.006593
     11          1           0       -2.884304    0.000590   -0.002120
     12          1           0       -1.560392   -2.141199    0.005925
 ---------------------------------------------------------------------

 SCF Done:  E(RHF) =  -317.882958447     A.U. after    2 cycles

 The electronic state is 1-A.
 Alpha  occ. eigenvalues --  -15.63792 -15.62089 -15.62085 -11.36182 -11.30410
 Alpha  occ. eigenvalues --  -11.30408 -11.23576  -1.29999  -1.17944  -1.16190
 Alpha  occ. eigenvalues --   -1.03357  -0.89278  -0.86803  -0.74206  -0.73477
 Alpha  occ. eigenvalues --   -0.65775  -0.65383  -0.59949  -0.59251  -0.58363
 Alpha  occ. eigenvalues --   -0.47654  -0.46469  -0.42261  -0.39913  -0.32649
 Alpha virt. eigenvalues --    0.03272   0.03585   0.04032   0.06170   0.06524
 Alpha virt. eigenvalues --    0.08454   0.08956   0.11545   0.12385   0.12478
 Alpha virt. eigenvalues --    0.12850   0.14434   0.14712   0.14967   0.15109

 Mulliken charges:
               1
     1  N   -0.241812
     2  C    0.709043
     3  N   -0.522199
     4  C    0.529123
     5  C    0.614141
     6  C    0.529409
     7  N   -0.522165
     8  H   -0.036600
     9  H   -0.036285
    10  H   -0.318873
    11  H   -0.384796
    12  H   -0.318984
 Sum of Mulliken charges =   0.00000

 Dipole moment (field-independent basis, Debye):
    X=             -0.3982    Y=              0.0008    Z=              0.4502  Tot=              0.6010

 Test job not archived.
 1\1\GINC-SE036\SP\RHF\Aug-CC-pVDZ\C4H5N3\OHZDE\09-Apr-2025\0\\#t hf au
 g-cc-pvdz iop(5/13=1,5/36=2,99/5=2) pseudo=read geom=check guess=(read
 ,tcheck) scf=(maxcycle=1)\\title\\0,1\N,0,2.27705258,-0.25593888,-0.15
 124618\C,0,0.933532,-0.10490307,-0.06343001\N,0,0.21977833,-1.19973026
 ,0.22435391\C,0,-1.08729596,-1.026257,0.33709078\C,0,-1.70280091,0.202
 9749,0.16953782\C,0,-0.86182819,1.26060838,-0.13432499\N,0,0.44918528,
 1.12783997,-0.25539878\H,0,2.81798335,0.50662229,-0.51155617\H,0,2.650
 57143,-1.1857789,-0.16217477\H,0,-1.668014,-1.91456921,0.570611\H,0,-2

 Normal termination of Gaussian 16 at Wed Apr  9 03:46:55 2025.
