 Gaussian 16, Revision C.01,

 ----------------------------------------------------------------------
 #t hf aug-cc-pvdz symm=none int=(grid=ultrafine) guess=(read,tcheck) s
 table=(opt,rrhf)
 ----------------------------------------------------------------------
 -----
 title
 -----
 Symbolic Z-matrix:
 Charge =  0 Multiplicity = 1

 SCF Done:  E(RHF) =  -308.999685649     A.U. after   15 cycles

 1\1\GINC-SE226\Stability\RHF\Aug-CC-pVDZ\C6H12O1\OHZDE\09-Apr-2025\0\\
 #t hf aug-cc-pvdz symm=none int=(grid=ultrafine) guess=(read,tcheck) s
 table=(opt,rrhf)\\title\\0,1\C,0,1.57805197,-0.30281471,-0.80533734\C,
 0,0.62864036,0.58410239,-0.03061385\O,0,0.20521489,1.6428622,-0.942233
 01\C,0,0.27991321,2.85095904,-0.50429469\C,0,-0.62839672,-0.08823852,0
 .52129712\C,0,-0.2736266,-1.04445873,1.65669563\C,0,-1.46444487,-0.779
 87565,-0.55127116\H,0,2.45011334,0.26867841,-1.12438458\H,0,1.92418554
 ,-1.12528738,-0.1787246\H,0,1.09908982,-0.71979549,-1.69171499\H,0,1.1

 Normal termination of Gaussian 16 at Wed Apr  9 14:36:10 2025.
 Gaussian 16:  ES64L-G16RevC.01  3-Jul-2019

 ----------------------------------------------------------------------
 #t hf aug-cc-pvdz iop(5/13=1,5/36=2,99/5=2) pseudo=read geom=check gue
 ss=(read,tcheck) scf=(maxcycle=1)
 ----------------------------------------------------------------------
 -----
 title
 -----
 Structure from the checkpoint file:  "Grambow2020_wb97xd3_006575_reverse_mol2.chk"
 Charge =  0 Multiplicity = 1

                         Standard orientation:
 ---------------------------------------------------------------------
 Center     Atomic      Atomic             Coordinates (Angstroms)
 Number     Number       Type             X           Y           Z
 ---------------------------------------------------------------------
      1          6           0        0.267541    1.687295    0.588148
      2          6           0        0.386200    0.451570   -0.276203
      3          8           0        1.551242   -0.285851    0.203587
      4          6           0        2.402441   -0.668189   -0.683061
      5          6           0       -0.808707   -0.501746   -0.262857
      6          6           0       -2.006367    0.125597   -0.970954
      7          6           0       -1.177988   -0.988555    1.135138
      8          1           0        1.157231    2.308282    0.479920
      9          1           0       -0.596429    2.279551    0.285324
     10          1           0        0.157819    1.427085    1.641332
     11          1           0        0.617628    0.717497   -1.310533
     12          1           0        3.166441   -1.206064   -0.075189
     13          1           0       -0.487695   -1.366923   -0.854043
     14          1           0       -1.746365    0.468355   -1.974781
     15          1           0       -2.402048    0.977378   -0.412387
     16          1           0       -2.813290   -0.602877   -1.065955
     17          1           0       -1.588833   -0.180600    1.745185
     18          1           0       -0.313762   -1.402356    1.656465
     19          1           0       -1.939350   -1.768349    1.074709
 ---------------------------------------------------------------------

 SCF Done:  E(RHF) =  -309.098303654     A.U. after    2 cycles

 The electronic state is 1-A.
 Alpha  occ. eigenvalues --  -20.63354 -11.29958 -11.29701 -11.24388 -11.23455
 Alpha  occ. eigenvalues --  -11.23127 -11.22600  -1.40663  -1.10270  -1.01287
 Alpha  occ. eigenvalues --   -0.93700  -0.90930  -0.83661  -0.76238  -0.68934
 Alpha  occ. eigenvalues --   -0.65145  -0.63770  -0.62346  -0.58541  -0.56420
 Alpha  occ. eigenvalues --   -0.55739  -0.54863  -0.53263  -0.52099  -0.48681
 Alpha  occ. eigenvalues --   -0.47226  -0.46287  -0.35420
 Alpha virt. eigenvalues --    0.03365   0.04199   0.04568   0.04847   0.06152
 Alpha virt. eigenvalues --    0.06329   0.06446   0.06706   0.07312   0.08964
 Alpha virt. eigenvalues --    0.09550   0.09712   0.10109   0.11621   0.13680

 Mulliken charges:
               1
     1  C    0.623490
     2  C    0.449323
     3  O   -0.579776
     4  C    0.076349
     5  C   -1.318959
     6  C    0.820268
     7  C    0.814520
     8  H   -0.064126
     9  H   -0.020540
    10  H   -0.000619
    11  H   -0.183215
    12  H   -0.220914
    13  H   -0.070694
    14  H   -0.053219
    15  H   -0.065003
    16  H   -0.063824
    17  H   -0.040764
    18  H   -0.025659
    19  H   -0.076637
 Sum of Mulliken charges =   0.00000

 Dipole moment (field-independent basis, Debye):
    X=             -1.7342    Y=              0.6586    Z=              0.9429  Tot=              2.0810

 Test job not archived.
 1\1\GINC-SE226\SP\RHF\Aug-CC-pVDZ\C6H12O1\OHZDE\09-Apr-2025\0\\#t hf a
 ug-cc-pvdz iop(5/13=1,5/36=2,99/5=2) pseudo=read geom=check guess=(rea
 d,tcheck) scf=(maxcycle=1)\\title\\0,1\C,0,1.57805197,-0.30281471,-0.8
 0533734\C,0,0.62864036,0.58410239,-0.03061385\O,0,0.20521489,1.6428622
 ,-0.94223301\C,0,0.27991321,2.85095904,-0.50429469\C,0,-0.62839672,-0.
 08823852,0.52129712\C,0,-0.2736266,-1.04445873,1.65669563\C,0,-1.46444
 487,-0.77987565,-0.55127116\H,0,2.45011334,0.26867841,-1.12438458\H,0,
 1.92418554,-1.12528738,-0.1787246\H,0,1.09908982,-0.71979549,-1.691714

 Normal termination of Gaussian 16 at Wed Apr  9 14:36:17 2025.
