 Gaussian 16, Revision C.01,

 ----------------------------------------------------------------------
 #t hf aug-cc-pvdz symm=none int=(grid=ultrafine) guess=(read,tcheck) s
 table=(opt,rrhf)
 ----------------------------------------------------------------------
 -----
 title
 -----
 Symbolic Z-matrix:
 Charge =  0 Multiplicity = 1

 SCF Done:  E(RHF) =  -295.856627465     A.U. after   15 cycles
 Normal termination of Gaussian 16 at Wed Apr  9 14:07:55 2025.
 Gaussian 16:  ES64L-G16RevC.01  3-Jul-2019

 ----------------------------------------------------------------------
 #t hf aug-cc-pvdz iop(5/13=1,5/36=2,99/5=2) pseudo=read geom=check gue
 ss=(read,tcheck) scf=(maxcycle=1)
 ----------------------------------------------------------------------
 -----
 title
 -----
 Structure from the checkpoint file:  "Grambow2020_b97d3_006784_reverse_mol2.chk"
 Charge =  0 Multiplicity = 1

                         Standard orientation:
 ---------------------------------------------------------------------
 Center     Atomic      Atomic             Coordinates (Angstroms)
 Number     Number       Type             X           Y           Z
 ---------------------------------------------------------------------
      1          7           0       -2.067403   -0.114122    0.027091
      2          6           0       -0.798063    0.023521   -0.041515
      3          7           0        0.090004   -1.104602   -0.138692
      4          7           0        1.386652   -0.586435    0.131701
      5          6           0        1.223268    0.786298    0.026054
      6          7           0       -0.001561    1.201376   -0.031164
      7          1           0       -2.482998    0.820567    0.091700
      8          1           0       -0.144155   -1.865268    0.498980
      9          1           0        2.115324   -1.012147   -0.447069
     10          1           0        2.106751    1.424413    0.026601
 ---------------------------------------------------------------------

 SCF Done:  E(RHF) =  -295.940784520     A.U. after    2 cycles

 The electronic state is 1-A.
 Alpha  occ. eigenvalues --  -15.71040 -15.68852 -15.64470 -15.59365 -11.36889
 Alpha  occ. eigenvalues --  -11.36153  -1.36442  -1.19478  -1.16705  -1.06127
 Alpha  occ. eigenvalues --   -0.86179  -0.81477  -0.75039  -0.69238  -0.65481
 Alpha  occ. eigenvalues --   -0.62352  -0.58501  -0.49194  -0.47198  -0.45849
 Alpha  occ. eigenvalues --   -0.42633  -0.33917
 Alpha virt. eigenvalues --    0.02050   0.03689   0.04740   0.05729   0.07982
 Alpha virt. eigenvalues --    0.10019   0.11028   0.11931   0.13074   0.13757
 Alpha virt. eigenvalues --    0.14218   0.15280   0.15752   0.17282   0.18295

 Mulliken charges:
               1
     1  N   -0.437712
     2  C    0.817652
     3  N   -0.394647
     4  N   -0.311340
     5  C    0.774863
     6  N   -0.519625
     7  H    0.026383
     8  H    0.093439
     9  H    0.100116
    10  H   -0.149129
 Sum of Mulliken charges =  -0.00000

 Dipole moment (field-independent basis, Debye):
    X=              4.9069    Y=             -0.5096    Z=              0.1618  Tot=              4.9359

 Test job not archived.
 1\1\GINC-SE099\SP\RHF\Aug-CC-pVDZ\C2H4N4\OHZDE\09-Apr-2025\0\\#t hf au
 g-cc-pvdz iop(5/13=1,5/36=2,99/5=2) pseudo=read geom=check guess=(read
 ,tcheck) scf=(maxcycle=1)\\title\\0,1\N,0,2.18693372,0.23717376,-0.052
 63871\C,0,0.91243596,0.18934466,0.03815437\N,0,0.20055322,-1.05440104,
 0.16887979\N,0,-1.16224955,-0.73570377,-0.08431319\C,0,-1.19952357,0.6
 478036,-0.00204102\N,0,-0.04773706,1.23804728,0.02565937\H,0,2.4603033
 2,1.22122558,-0.13893441\H,0,0.53267705,-1.7837277,-0.46186991\H,0,-1.
 81108013,-1.25304513,0.51447286\H,0,-2.16667395,1.15010476,0.00487786\

 Normal termination of Gaussian 16 at Wed Apr  9 14:07:58 2025.
