 Gaussian 16, Revision C.01,

 ----------------------------------------------------------------------
 #t hf aug-cc-pvdz symm=none int=(grid=ultrafine) guess=(read,tcheck) s
 table=(opt,rrhf)
 ----------------------------------------------------------------------
 -----
 title
 -----
 Symbolic Z-matrix:
 Charge =  0 Multiplicity = 1

 SCF Done:  E(RHF) =  -345.954681701     A.U. after   15 cycles

 1\1\GINC-SE129\Stability\RHF\Aug-CC-pVDZ\C5H12O2\OHZDE\09-Apr-2025\0\\
 #t hf aug-cc-pvdz symm=none int=(grid=ultrafine) guess=(read,tcheck) s
 table=(opt,rrhf)\\title\\0,1\C,0,2.2798371,0.41524483,1.06644446\C,0,1
 .10029224,0.71073945,0.15658588\C,0,0.24997599,-0.47348868,-0.13879067
 \O,0,-0.45976563,-0.80940597,1.69831629\C,0,-1.05410809,-0.40333878,-0
 .67625954\C,0,-1.62735197,0.87126139,-1.24336801\O,0,-1.41016827,-1.56
 378926,-1.40176118\H,0,1.91482956,0.07096492,2.03387724\H,0,2.92028798
 ,-0.36177863,0.64254247\H,0,2.89025136,1.30674941,1.21512177\H,0,0.482

 Normal termination of Gaussian 16 at Wed Apr  9 16:20:27 2025.
 Gaussian 16:  ES64L-G16RevC.01  3-Jul-2019

 ----------------------------------------------------------------------
 #t hf aug-cc-pvdz iop(5/13=1,5/36=2,99/5=2) pseudo=read geom=check gue
 ss=(read,tcheck) scf=(maxcycle=1)
 ----------------------------------------------------------------------
 -----
 title
 -----
 Structure from the checkpoint file:  "Grambow2020_wb97xd3_008076_reverse_mol1.chk"
 Charge =  0 Multiplicity = 1

                         Standard orientation:
 ---------------------------------------------------------------------
 Center     Atomic      Atomic             Coordinates (Angstroms)
 Number     Number       Type             X           Y           Z
 ---------------------------------------------------------------------
      1          6           0       -2.690173   -0.307641   -0.314304
      2          6           0       -1.290678   -0.840434   -0.061261
      3          6           0       -0.204422    0.101155   -0.443545
      4          8           0       -0.563418    1.544161    0.890768
      5          6           0        1.137422   -0.016534   -0.019242
      6          6           0        1.663803   -1.253943    0.663816
      7          8           0        2.051276    0.570057   -0.925088
      8          1           0       -2.853497    0.584958    0.289249
      9          1           0       -2.827885   -0.043688   -1.365493
     10          1           0       -3.443488   -1.052699   -0.055659
     11          1           0       -1.172534   -1.126722    0.984809
     12          1           0       -1.112959   -1.751386   -0.650041
     13          1           0       -0.378007    0.723035   -1.316035
     14          1           0       -0.578146    2.442719    0.543606
     15          1           0        0.595474    0.921256    0.781052
     16          1           0        1.899798   -2.037502   -0.062615
     17          1           0        2.581505   -1.023604    1.208957
     18          1           0        0.951158   -1.652440    1.385867
     19          1           0        2.740008    1.006716   -0.421931
 ---------------------------------------------------------------------

 SCF Done:  E(RHF) =  -346.063690066     A.U. after    2 cycles

 The electronic state is 1-A.
 Alpha  occ. eigenvalues --  -20.57516 -20.51075 -11.33211 -11.26793 -11.25546
 Alpha  occ. eigenvalues --  -11.23395 -11.22889  -1.32859  -1.22516  -1.09722
 Alpha  occ. eigenvalues --   -1.01837  -0.94678  -0.86449  -0.76648  -0.73183
 Alpha  occ. eigenvalues --   -0.65180  -0.64798  -0.63624  -0.60759  -0.57850
 Alpha  occ. eigenvalues --   -0.55721  -0.54320  -0.53838  -0.51398  -0.51023
 Alpha  occ. eigenvalues --   -0.50101  -0.48214  -0.44941  -0.33626
 Alpha virt. eigenvalues --    0.03249   0.03953   0.04455   0.04947   0.05899
 Alpha virt. eigenvalues --    0.06306   0.06817   0.07165   0.08284   0.08571
 Alpha virt. eigenvalues --    0.09409   0.09936   0.11664   0.12487   0.13922

 Mulliken charges:
               1
     1  C    0.468971
     2  C   -0.033889
     3  C    0.285241
     4  O   -0.781252
     5  C   -0.392847
     6  C    0.579416
     7  O   -0.571194
     8  H    0.022595
     9  H   -0.050909
    10  H   -0.039406
    11  H   -0.067283
    12  H    0.069158
    13  H   -0.382410
    14  H    0.117874
    15  H    0.683226
    16  H    0.055633
    17  H   -0.056659
    18  H   -0.025951
    19  H    0.119685
 Sum of Mulliken charges =   0.00000

 Dipole moment (field-independent basis, Debye):
    X=              0.1228    Y=             -1.2561    Z=             -0.8001  Tot=              1.4943

 Test job not archived.
 1\1\GINC-SE129\SP\RHF\Aug-CC-pVDZ\C5H12O2\OHZDE\09-Apr-2025\0\\#t hf a
 ug-cc-pvdz iop(5/13=1,5/36=2,99/5=2) pseudo=read geom=check guess=(rea
 d,tcheck) scf=(maxcycle=1)\\title\\0,1\C,0,2.2798371,0.41524483,1.0664
 4446\C,0,1.10029224,0.71073945,0.15658588\C,0,0.24997599,-0.47348868,-
 0.13879067\O,0,-0.45976563,-0.80940597,1.69831629\C,0,-1.05410809,-0.4
 0333878,-0.67625954\C,0,-1.62735197,0.87126139,-1.24336801\O,0,-1.4101
 6827,-1.56378926,-1.40176118\H,0,1.91482956,0.07096492,2.03387724\H,0,
 2.92028798,-0.36177863,0.64254247\H,0,2.89025136,1.30674941,1.21512177

 Normal termination of Gaussian 16 at Wed Apr  9 16:20:34 2025.
