 Gaussian 16, Revision C.01,

 ----------------------------------------------------------------------
 #t hf aug-cc-pvdz symm=none int=(grid=ultrafine) guess=(read,tcheck) s
 table=(opt,rrhf)
 ----------------------------------------------------------------------
 -----
 title
 -----
 Symbolic Z-matrix:
 Charge =  0 Multiplicity = 1

 SCF Done:  E(RHF) =  -302.715005483     A.U. after   15 cycles
 Normal termination of Gaussian 16 at Wed Apr  9 16:16:57 2025.
 Gaussian 16:  ES64L-G16RevC.01  3-Jul-2019

 ----------------------------------------------------------------------
 #t hf aug-cc-pvdz iop(5/13=1,5/36=2,99/5=2) pseudo=read geom=check gue
 ss=(read,tcheck) scf=(maxcycle=1)
 ----------------------------------------------------------------------
 -----
 title
 -----
 Structure from the checkpoint file:  "Grambow2020_wb97xd3_008042_reverse_mol1.chk"
 Charge =  0 Multiplicity = 1

                         Standard orientation:
 ---------------------------------------------------------------------
 Center     Atomic      Atomic             Coordinates (Angstroms)
 Number     Number       Type             X           Y           Z
 ---------------------------------------------------------------------
      1          6           0        1.289822    1.200916    0.055004
      2          6           0       -0.056034    1.101065    0.516950
      3          6           0       -1.191078    0.849454   -0.468914
      4          7           0       -1.627024   -0.493996   -0.138965
      5          6           0       -0.551704   -1.144446    0.562744
      6          6           0        0.688473   -1.258377   -0.006400
      7          7           0        1.738636   -0.990700   -0.468835
      8          1           0        1.483532    1.307113   -1.000514
      9          1           0        0.429877    2.260776    0.296027
     10          1           0        2.097483    1.377363    0.751883
     11          1           0       -0.265153    1.153070    1.576694
     12          1           0       -0.783427    0.947447   -1.484935
     13          1           0       -2.004200    1.576968   -0.369880
     14          1           0       -2.020106   -1.004609   -0.918443
     15          1           0       -0.796168   -1.716919    1.447468
 ---------------------------------------------------------------------

 SCF Done:  E(RHF) =  -302.804463553     A.U. after    2 cycles

 The electronic state is 1-A.
 Alpha  occ. eigenvalues --  -15.61689 -15.58852 -11.34452 -11.32910 -11.29323
 Alpha  occ. eigenvalues --  -11.25079 -11.22778  -1.21191  -1.14442  -1.12141
 Alpha  occ. eigenvalues --   -0.95823  -0.90536  -0.81824  -0.71385  -0.70236
 Alpha  occ. eigenvalues --   -0.67238  -0.62713  -0.60494  -0.58663  -0.55034
 Alpha  occ. eigenvalues --   -0.54146  -0.51115  -0.44033  -0.41173  -0.37845
 Alpha  occ. eigenvalues --   -0.26636
 Alpha virt. eigenvalues --    0.02200   0.03569   0.04059   0.04878   0.06189
 Alpha virt. eigenvalues --    0.06451   0.06700   0.07436   0.08588   0.10813
 Alpha virt. eigenvalues --    0.12265   0.12878   0.13317   0.13927   0.14340

 Mulliken charges:
               1
     1  C    0.535406
     2  C    0.167782
     3  C    0.890670
     4  N   -0.608100
     5  C    1.127932
     6  C   -0.638331
     7  N   -0.323191
     8  H   -0.148272
     9  H    0.124638
    10  H   -0.237547
    11  H   -0.270722
    12  H   -0.119937
    13  H   -0.134096
    14  H   -0.051154
    15  H   -0.315077
 Sum of Mulliken charges =  -0.00000

 Dipole moment (field-independent basis, Debye):
    X=             -1.2297    Y=              5.2420    Z=              0.4493  Tot=              5.4031

 Test job not archived.
 1\1\GINC-SE026\SP\RHF\Aug-CC-pVDZ\C5H8N2\OHZDE\09-Apr-2025\0\\#t hf au
 g-cc-pvdz iop(5/13=1,5/36=2,99/5=2) pseudo=read geom=check guess=(read
 ,tcheck) scf=(maxcycle=1)\\title\\0,1\C,0,1.22456372,-0.77247076,-0.74
 718454\C,0,0.83034677,0.30078093,0.105703\C,0,-0.31692366,1.22071303,-
 0.29561412\N,0,-1.35698646,0.89249898,0.66058539\C,0,-1.0656198,-0.411
 579,1.19563775\C,0,-0.93145203,-1.49429968,0.36819577\N,0,-0.52968635,
 -2.22844494,-0.46123387\H,0,0.85764747,-0.80903309,-1.76057214\H,0,1.8
 0473811,0.48526792,-0.69827088\H,0,2.0366319,-1.42804016,-0.46458167\H

 Normal termination of Gaussian 16 at Wed Apr  9 16:17:02 2025.
