 Gaussian 16, Revision C.01,

 ----------------------------------------------------------------------
 #t hf aug-cc-pvdz symm=none int=(grid=ultrafine) guess=(read,tcheck) s
 table=(opt,rrhf)
 ----------------------------------------------------------------------
 -----
 title
 -----
 Symbolic Z-matrix:
 Charge =  0 Multiplicity = 1

 SCF Done:  E(RHF) =  -191.801967430     A.U. after   15 cycles
 Normal termination of Gaussian 16 at Wed Apr  9 14:23:02 2025.
 Gaussian 16:  ES64L-G16RevC.01  3-Jul-2019

 ----------------------------------------------------------------------
 #t hf aug-cc-pvdz iop(5/13=1,5/36=2,99/5=2) pseudo=read geom=check gue
 ss=(read,tcheck) scf=(maxcycle=1)
 ----------------------------------------------------------------------
 -----
 title
 -----
 Structure from the checkpoint file:  "Grambow2020_wb97xd3_006095_reverse_mol1.chk"
 Charge =  0 Multiplicity = 1

                         Standard orientation:
 ---------------------------------------------------------------------
 Center     Atomic      Atomic             Coordinates (Angstroms)
 Number     Number       Type             X           Y           Z
 ---------------------------------------------------------------------
      1          6           0        1.708618    0.008830    0.191578
      2          6           0        0.383119   -0.278862   -0.390342
      3          6           0       -1.649716   -0.204551    0.214196
      4          8           0       -0.604009    0.571034   -0.124378
      5          1           0        1.894525    1.086655    0.151172
      6          1           0        2.497536   -0.514975   -0.347857
      7          1           0        1.773044   -0.281521    1.248821
      8          1           0        0.127023   -1.155139   -0.966556
      9          1           0       -2.618967    0.106122   -0.144923
     10          1           0       -1.493214   -0.961915    0.961779
 ---------------------------------------------------------------------

 SCF Done:  E(RHF) =  -191.865524734     A.U. after    2 cycles

 The electronic state is 1-A.
 Alpha  occ. eigenvalues --  -20.66146 -11.32320 -11.27493 -11.25206  -1.43298
 Alpha  occ. eigenvalues --   -1.03962  -0.91574  -0.83418  -0.71622  -0.68304
 Alpha  occ. eigenvalues --   -0.65611  -0.58400  -0.57756  -0.55152  -0.49495
 Alpha  occ. eigenvalues --   -0.24444
 Alpha virt. eigenvalues --    0.03473   0.04309   0.04860   0.05309   0.05733
 Alpha virt. eigenvalues --    0.07026   0.08089   0.10255   0.13473   0.13825
 Alpha virt. eigenvalues --    0.14079   0.15712   0.16220   0.16634   0.17357

 Mulliken charges:
               1
     1  C    0.090105
     2  C    0.474926
     3  C    0.602533
     4  O   -0.488889
     5  H    0.007601
     6  H   -0.021000
     7  H    0.031390
     8  H   -0.191374
     9  H   -0.302222
    10  H   -0.203070
 Sum of Mulliken charges =  -0.00000

 Dipole moment (field-independent basis, Debye):
    X=              1.6682    Y=             -0.7536    Z=              0.0205  Tot=              1.8307

 Test job not archived.
 1\1\GINC-SE057\SP\RHF\Aug-CC-pVDZ\C3H6O1\OHZDE\09-Apr-2025\0\\#t hf au
 g-cc-pvdz iop(5/13=1,5/36=2,99/5=2) pseudo=read geom=check guess=(read
 ,tcheck) scf=(maxcycle=1)\\title\\0,1\C,0,-1.49201093,0.18521913,0.227
 95389\C,0,-0.22693863,-0.25907242,-0.3889278\C,0,1.85224987,-0.1215812
 5,0.01291335\O,0,0.72090228,-0.72646084,0.41768641\H,0,-1.75843905,-0.
 49978295,1.03893394\H,0,-2.29916928,0.21099131,-0.50388197\H,0,-1.4105
 5069,1.18493311,0.67533921\H,0,0.02196362,-0.18189397,-1.43657241\H,0,
 2.74764011,-0.72421604,0.00665183\H,0,1.83968171,0.94851592,-0.0952844

 Normal termination of Gaussian 16 at Wed Apr  9 14:23:05 2025.
