 Gaussian 16, Revision C.01,

 ----------------------------------------------------------------------
 #t hf aug-cc-pvdz symm=none int=(grid=ultrafine) guess=(read,tcheck) s
 table=(opt,rrhf)
 ----------------------------------------------------------------------
 -----
 title
 -----
 Symbolic Z-matrix:
 Charge =  0 Multiplicity = 1

 SCF Done:  E(RHF) =  -353.555061960     A.U. after   16 cycles
 Normal termination of Gaussian 16 at Wed Apr  9 14:26:14 2025.
 Gaussian 16:  ES64L-G16RevC.01  3-Jul-2019

 ----------------------------------------------------------------------
 #t hf aug-cc-pvdz iop(5/13=1,5/36=2,99/5=2) pseudo=read geom=check gue
 ss=(read,tcheck) scf=(maxcycle=1)
 ----------------------------------------------------------------------
 -----
 title
 -----
 Structure from the checkpoint file:  "Grambow2020_wb97xd3_006539_reverse_mol2.chk"
 Charge =  0 Multiplicity = 1

                         Standard orientation:
 ---------------------------------------------------------------------
 Center     Atomic      Atomic             Coordinates (Angstroms)
 Number     Number       Type             X           Y           Z
 ---------------------------------------------------------------------
      1          8           0       -2.210416   -0.018079    0.001319
      2          6           0       -1.008936   -0.048153   -0.000179
      3          7           0       -0.269567   -1.255547   -0.001325
      4          7           0        0.996032   -1.246702    0.000004
      5          6           0        1.715720   -0.080187    0.000891
      6          6           0        1.090122    1.115210    0.000060
      7          7           0       -0.256117    1.123677   -0.001196
      8          1           0       -0.780978    1.984805   -0.000143
      9          1           0        2.789788   -0.181003    0.003153
     10          1           0        1.600639    2.069609   -0.000572
 ---------------------------------------------------------------------

 SCF Done:  E(RHF) =  -353.659812809     A.U. after    2 cycles

 The electronic state is 1-A.
 Alpha  occ. eigenvalues --  -20.55713 -15.72982 -15.72401 -15.69514 -11.41236
 Alpha  occ. eigenvalues --  -11.35834 -11.29434  -1.40354  -1.33824  -1.26777
 Alpha  occ. eigenvalues --   -1.10094  -0.97384  -0.92475  -0.79655  -0.78230
 Alpha  occ. eigenvalues --   -0.70165  -0.66258  -0.66176  -0.65340  -0.54739
 Alpha  occ. eigenvalues --   -0.53809  -0.51728  -0.50074  -0.40100  -0.36222
 Alpha virt. eigenvalues --    0.01368   0.03357   0.04242   0.05310   0.07588
 Alpha virt. eigenvalues --    0.09417   0.09930   0.10094   0.11141   0.12121
 Alpha virt. eigenvalues --    0.12843   0.13428   0.13986   0.14926   0.15452

 Mulliken charges:
               1
     1  O   -0.432388
     2  C    0.724976
     3  N   -0.310991
     4  N   -0.505074
     5  C    0.738288
     6  C    0.719239
     7  N   -0.323881
     8  H   -0.025687
     9  H   -0.272097
    10  H   -0.312386
 Sum of Mulliken charges =  -0.00000

 Dipole moment (field-independent basis, Debye):
    X=              4.4966    Y=              5.4502    Z=              0.0011  Tot=              7.0656

 Test job not archived.
 1\1\GINC-SE113\SP\RHF\Aug-CC-pVDZ\C3H3N3O1\OHZDE\09-Apr-2025\0\\#t hf
 aug-cc-pvdz iop(5/13=1,5/36=2,99/5=2) pseudo=read geom=check guess=(re
 ad,tcheck) scf=(maxcycle=1)\\title\\0,1\O,0,2.54527094,-0.52756774,0.1
 1500298\C,0,1.42394311,-0.11786452,-0.02366141\N,0,1.12974694,1.131831
 55,-0.62046717\N,0,-0.0647672,1.53066958,-0.74649702\C,0,-1.13076232,0
 .78285173,-0.3185577\C,0,-0.93979449,-0.42117683,0.25953653\N,0,0.3248
 861,-0.86035928,0.40142609\H,0,0.53240061,-1.7507634,0.82703145\H,0,-2
 .1083783,1.21272984,-0.47108208\H,0,-1.73829337,-1.05870993,0.61654933

 Normal termination of Gaussian 16 at Wed Apr  9 14:26:17 2025.
