 Gaussian 16, Revision C.01,

 ----------------------------------------------------------------------
 #t hf aug-cc-pvdz symm=none int=(grid=ultrafine) guess=(read,tcheck) s
 table=(opt,rrhf)
 ----------------------------------------------------------------------
 -----
 title
 -----
 Symbolic Z-matrix:
 Charge =  0 Multiplicity = 1

 SCF Done:  E(RHF) =  -323.739740303     A.U. after   15 cycles
 Normal termination of Gaussian 16 at Wed Apr  9 15:34:06 2025.
 Gaussian 16:  ES64L-G16RevC.01  3-Jul-2019

 ----------------------------------------------------------------------
 #t hf aug-cc-pvdz iop(5/13=1,5/36=2,99/5=2) pseudo=read geom=check gue
 ss=(read,tcheck) scf=(maxcycle=1)
 ----------------------------------------------------------------------
 -----
 title
 -----
 Structure from the checkpoint file:  "Grambow2020_wb97xd3_006973_forward_mol1.chk"
 Charge =  0 Multiplicity = 1

                         Standard orientation:
 ---------------------------------------------------------------------
 Center     Atomic      Atomic             Coordinates (Angstroms)
 Number     Number       Type             X           Y           Z
 ---------------------------------------------------------------------
      1          6           0       -2.746351   -0.894799   -0.100674
      2          6           0       -0.564248   -0.716510    0.385533
      3          6           0       -0.313895    0.538734   -0.345534
      4          8           0       -1.150625    1.491124   -0.071253
      5          6           0        1.152949    0.826568    0.294557
      6          6           0        2.182104   -0.160061    0.003191
      7          7           0        2.956031   -0.971244   -0.243732
      8          1           0       -3.121055   -0.943941   -1.122384
      9          1           0       -2.227792   -1.845875    0.075632
     10          1           0       -3.550255   -0.862612    0.634716
     11          1           0       -0.128128   -1.664629    0.076254
     12          1           0       -0.826113   -0.614202    1.434224
     13          1           0       -0.100195    0.318667   -1.413421
     14          1           0       -2.269746    0.145037   -0.027765
     15          1           0        1.062927    0.996633    1.367518
     16          1           0        1.409780    1.777049   -0.171068
 ---------------------------------------------------------------------

 SCF Done:  E(RHF) =  -323.839471068     A.U. after    2 cycles

 The electronic state is 1-A.
 Alpha  occ. eigenvalues --  -20.47178 -15.64962 -11.39537 -11.32322 -11.30426
 Alpha  occ. eigenvalues --  -11.29959 -11.25608  -1.27175  -1.20975  -1.08542
 Alpha  occ. eigenvalues --   -1.02407  -0.96079  -0.83260  -0.73640  -0.71297
 Alpha  occ. eigenvalues --   -0.65887  -0.63718  -0.60374  -0.59479  -0.58659
 Alpha  occ. eigenvalues --   -0.56393  -0.55073  -0.52497  -0.47611  -0.46892
 Alpha  occ. eigenvalues --   -0.39572  -0.37896
 Alpha virt. eigenvalues --    0.01851   0.02216   0.03874   0.04438   0.05262
 Alpha virt. eigenvalues --    0.06134   0.06224   0.07202   0.08119   0.08541
 Alpha virt. eigenvalues --    0.10526   0.11095   0.12007   0.13374   0.13848

 Mulliken charges:
               1
     1  C    0.595267
     2  C    0.438544
     3  C    0.621062
     4  O   -0.943522
     5  C    0.258409
     6  C   -0.076329
     7  N   -0.224775
     8  H   -0.035082
     9  H   -0.000338
    10  H   -0.008255
    11  H   -0.369078
    12  H   -0.051363
    13  H   -0.189939
    14  H   -0.138916
    15  H    0.001472
    16  H    0.122844
 Sum of Mulliken charges =  -0.00000

 Dipole moment (field-independent basis, Debye):
    X=             -1.8195    Y=             -3.5638    Z=              1.5918  Tot=              4.3064

 Test job not archived.
 1\1\GINC-SE097\SP\RHF\Aug-CC-pVDZ\C5H9N1O1\OHZDE\09-Apr-2025\0\\#t hf
 aug-cc-pvdz iop(5/13=1,5/36=2,99/5=2) pseudo=read geom=check guess=(re
 ad,tcheck) scf=(maxcycle=1)\\title\\0,1\C,0,2.22589896,-0.74816071,0.1
 8004299\C,0,0.14278378,-0.05674198,0.64083113\C,0,-0.31164648,0.102316
 57,-0.75235483\O,0,-0.08996527,-0.92959799,-1.50628107\C,0,-1.89217866
 ,0.26297927,-0.40551406\C,0,-2.25587727,1.42143095,0.39648683\N,0,-2.4
 9146966,2.34202447,1.04065651\H,0,2.92797233,-0.15615097,-0.40589733\H
 ,0,2.10968942,-0.21912995,1.13458702\H,0,2.62548283,-1.7286239,0.43912

 Normal termination of Gaussian 16 at Wed Apr  9 15:34:11 2025.
