 Gaussian 16, Revision C.01,

 ----------------------------------------------------------------------
 #t hf aug-cc-pvdz symm=none int=(grid=ultrafine) guess=(read,tcheck) s
 table=(opt,rrhf)
 ----------------------------------------------------------------------
 -----
 title
 -----
 Symbolic Z-matrix:
 Charge =  0 Multiplicity = 1

 SCF Done:  E(RHF) =  -286.806202970     A.U. after   15 cycles
 Normal termination of Gaussian 16 at Wed Apr  9 16:33:12 2025.
 Gaussian 16:  ES64L-G16RevC.01  3-Jul-2019

 ----------------------------------------------------------------------
 #t hf aug-cc-pvdz iop(5/13=1,5/36=2,99/5=2) pseudo=read geom=check gue
 ss=(read,tcheck) scf=(maxcycle=1)
 ----------------------------------------------------------------------
 -----
 title
 -----
 Structure from the checkpoint file:  "Grambow2020_wb97xd3_008579_reverse_mol2.chk"
 Charge =  0 Multiplicity = 1

                         Standard orientation:
 ---------------------------------------------------------------------
 Center     Atomic      Atomic             Coordinates (Angstroms)
 Number     Number       Type             X           Y           Z
 ---------------------------------------------------------------------
      1          6           0        2.532837   -0.596951    0.003730
      2          6           0        1.095121   -0.217713   -0.003228
      3          6           0       -0.043474   -0.908785   -0.005425
      4          6           0       -1.201702   -0.010324   -0.002634
      5          6           0       -2.611372   -0.514170    0.003368
      6          6           0       -0.862264    1.301101   -0.000017
      7          7           0        0.686543    1.188948   -0.000604
      8          1           0        3.047888   -0.238242    0.900127
      9          1           0        2.626215   -1.682115   -0.017766
     10          1           0        3.068554   -0.200637   -0.863989
     11          1           0       -0.090801   -1.991230   -0.007775
     12          1           0       -3.301550    0.328709    0.008140
     13          1           0       -2.816248   -1.127144    0.886152
     14          1           0       -2.825982   -1.129026   -0.875726
     15          1           0        1.015157    1.700526   -0.817069
     16          1           0        1.016097    1.697572    0.817377
 ---------------------------------------------------------------------

 SCF Done:  E(RHF) =  -286.891232201     A.U. after    2 cycles

 The electronic state is 1-A.
 Alpha  occ. eigenvalues --  -15.72219 -11.27922 -11.26122 -11.25023 -11.20869
 Alpha  occ. eigenvalues --  -11.20572 -11.20357  -1.27182  -1.07116  -1.03459
 Alpha  occ. eigenvalues --   -0.95172  -0.88382  -0.78622  -0.74367  -0.71003
 Alpha  occ. eigenvalues --   -0.66058  -0.59887  -0.59473  -0.57115  -0.55734
 Alpha  occ. eigenvalues --   -0.55112  -0.50321  -0.49397  -0.41590  -0.32669
 Alpha  occ. eigenvalues --   -0.28960
 Alpha virt. eigenvalues --    0.02204   0.03748   0.04246   0.04406   0.05912
 Alpha virt. eigenvalues --    0.06877   0.07105   0.07688   0.08741   0.09746
 Alpha virt. eigenvalues --    0.11058   0.11560   0.12230   0.13540   0.13867

 Mulliken charges:
               1
     1  C    0.460704
     2  C   -0.593065
     3  C    0.554009
     4  C   -0.410580
     5  C    0.831042
     6  C   -0.325747
     7  N   -0.285793
     8  H    0.063257
     9  H    0.009199
    10  H    0.054946
    11  H   -0.499702
    12  H   -0.110910
    13  H    0.045505
    14  H    0.044289
    15  H    0.081302
    16  H    0.081545
 Sum of Mulliken charges =  -0.00000

 Dipole moment (field-independent basis, Debye):
    X=              5.0331    Y=             -1.5922    Z=              0.0068  Tot=              5.2790

 Test job not archived.
 1\1\GINC-SE043\SP\RHF\Aug-CC-pVDZ\C6H9N1\OHZDE\09-Apr-2025\0\\#t hf au
 g-cc-pvdz iop(5/13=1,5/36=2,99/5=2) pseudo=read geom=check guess=(read
 ,tcheck) scf=(maxcycle=1)\\title\\0,1\C,0,2.49330275,-0.25338311,0.126
 54659\C,0,1.029407,0.00036603,0.06722563\C,0,-0.03208835,-0.76384977,-
 0.18414142\C,0,-1.27066895,0.01557385,-0.09958608\C,0,-2.62031062,-0.5
 9028511,-0.32864568\C,0,-1.06370505,1.31832436,0.20874813\N,0,0.484569
 04,1.33505072,0.32685208\H,0,2.90418361,-0.0570675,1.12159157\H,0,2.69
 487729,-1.29680114,-0.11305698\H,0,3.04851162,0.36385652,-0.58602058\H

 Normal termination of Gaussian 16 at Wed Apr  9 16:33:19 2025.
