 Gaussian 16, Revision C.01,

 ----------------------------------------------------------------------
 #t hf aug-cc-pvdz symm=none int=(grid=ultrafine) guess=(read,tcheck) s
 table=(opt,rrhf)
 ----------------------------------------------------------------------
 -----
 title
 -----
 Symbolic Z-matrix:
 Charge =  0 Multiplicity = 1

 SCF Done:  E(RHF) =  -232.987958998     A.U. after   12 cycles
 Normal termination of Gaussian 16 at Wed Apr  9 03:07:00 2025.
 Gaussian 16:  ES64L-G16RevC.01  3-Jul-2019

 ----------------------------------------------------------------------
 #t hf aug-cc-pvdz iop(5/13=1,5/36=2,99/5=2) pseudo=read geom=check gue
 ss=(read,tcheck) scf=(maxcycle=1)
 ----------------------------------------------------------------------
 -----
 title
 -----
 Structure from the checkpoint file:  "Grambow2020_b97d3_006586_forward_mol2.chk"
 Charge =  0 Multiplicity = 1

                         Standard orientation:
 ---------------------------------------------------------------------
 Center     Atomic      Atomic             Coordinates (Angstroms)
 Number     Number       Type             X           Y           Z
 ---------------------------------------------------------------------
      1          6           0        1.479334   -0.004549    0.842969
      2          6           0        1.687240    0.003808   -0.658805
      3          6           0        0.299964   -0.001505   -0.089930
      4          6           0       -0.773615    1.096529   -0.149094
      5          6           0       -1.832205    0.001041    0.185648
      6          6           0       -0.776688   -1.096130   -0.155026
      7          1           0        1.699619    0.909632    1.396454
      8          1           0        1.703187   -0.925716    1.383435
      9          1           0        2.053080   -0.909927   -1.129928
     10          1           0        2.045202    0.925085   -1.121275
     11          1           0       -0.899449    1.500505   -1.164180
     12          1           0       -0.673985    1.931335    0.558323
     13          1           0       -2.755302    0.004551   -0.407476
     14          1           0       -2.093573   -0.001577    1.251371
     15          1           0       -0.903786   -1.496179   -1.171412
     16          1           0       -0.679178   -1.932872    0.550114
 ---------------------------------------------------------------------

 SCF Done:  E(RHF) =  -233.058884348     A.U. after    2 cycles

 The electronic state is 1-A.
 Alpha  occ. eigenvalues --  -11.23840 -11.22980 -11.22940 -11.22876 -11.22845
 Alpha  occ. eigenvalues --  -11.22828  -1.14735  -1.05442  -0.89417  -0.83142
 Alpha  occ. eigenvalues --   -0.81579  -0.71513  -0.65091  -0.64005  -0.63273
 Alpha  occ. eigenvalues --   -0.54259  -0.51872  -0.50520  -0.49540  -0.47369
 Alpha  occ. eigenvalues --   -0.43854  -0.39555  -0.38972
 Alpha virt. eigenvalues --    0.03756   0.04454   0.04640   0.04862   0.06543
 Alpha virt. eigenvalues --    0.06700   0.06742   0.06808   0.07603   0.09182
 Alpha virt. eigenvalues --    0.11767   0.13034   0.13351   0.13468   0.13945

 Mulliken charges:
               1
     1  C    0.474375
     2  C    0.561503
     3  C   -0.282832
     4  C    0.353957
     5  C    0.478549
     6  C    0.360088
     7  H   -0.269302
     8  H   -0.267371
     9  H   -0.255648
    10  H   -0.254651
    11  H   -0.106720
    12  H   -0.153326
    13  H   -0.198851
    14  H   -0.179842
    15  H   -0.107597
    16  H   -0.152332
 Sum of Mulliken charges =  -0.00000

 Dipole moment (field-independent basis, Debye):
    X=             -0.1590    Y=             -0.0011    Z=              0.0081  Tot=              0.1592

 Test job not archived.
 1\1\GINC-SE220\SP\RHF\Aug-CC-pVDZ\C6H10\OHZDE\09-Apr-2025\0\\#t hf aug
 -cc-pvdz iop(5/13=1,5/36=2,99/5=2) pseudo=read geom=check guess=(read,
 tcheck) scf=(maxcycle=1)\\title\\0,1\C,0,-1.50489181,0.32191552,0.7722
 6482\C,0,-1.70644602,-0.0568224,-0.68188587\C,0,-0.32483112,-0.0009447
 7,-0.10205959\C,0,0.66712711,-1.14835333,0.14537716\C,0,1.80042211,-0.
 07886136,0.21309389\C,0,0.82812435,0.96399349,-0.42019031\H,0,-1.79280
 131,-0.40254352,1.5357201\H,0,-1.66412969,1.36393626,1.05439422\H,0,-2
 .00351758,0.72847824,-1.37885075\H,0,-2.12784766,-1.03909274,-0.901731

 Normal termination of Gaussian 16 at Wed Apr  9 03:07:05 2025.
