 Gaussian 16, Revision C.01,

 ----------------------------------------------------------------------
 #t hf aug-cc-pvdz symm=none int=(grid=ultrafine) guess=(read,tcheck) s
 table=(opt,rrhf)
 ----------------------------------------------------------------------
 -----
 title
 -----
 Symbolic Z-matrix:
 Charge =  0 Multiplicity = 1

 SCF Done:  E(RHF) =  -394.399787346     A.U. after   14 cycles
 Normal termination of Gaussian 16 at Wed Apr  9 15:36:44 2025.
 Gaussian 16:  ES64L-G16RevC.01  3-Jul-2019

 ----------------------------------------------------------------------
 #t hf aug-cc-pvdz iop(5/13=1,5/36=2,99/5=2) pseudo=read geom=check gue
 ss=(read,tcheck) scf=(maxcycle=1)
 ----------------------------------------------------------------------
 -----
 title
 -----
 Structure from the checkpoint file:  "Grambow2020_wb97xd3_007199_reverse_mol2.chk"
 Charge =  0 Multiplicity = 1

                         Standard orientation:
 ---------------------------------------------------------------------
 Center     Atomic      Atomic             Coordinates (Angstroms)
 Number     Number       Type             X           Y           Z
 ---------------------------------------------------------------------
      1          7           0        1.025455   -0.302307    0.001587
      2          6           0       -0.159682    0.303368   -0.000135
      3          8           0       -1.082349   -0.681724   -0.000216
      4          6           0       -2.418307   -0.310966   -0.000914
      5          8           0       -2.839681    0.789010    0.000748
      6          6           0        2.205990    0.453976   -0.000446
      7          8           0        3.287847   -0.050516   -0.000486
      8          1           0        1.136760   -1.314707    0.002907
      9          1           0       -3.010021   -1.234876   -0.003299
     10          1           0        2.000527    1.533304   -0.002108
 ---------------------------------------------------------------------

 SCF Done:  E(RHF) =  -394.526654895     A.U. after    2 cycles

 The electronic state is 1-A.
 Alpha  occ. eigenvalues --  -20.67115 -20.60668 -20.59214 -15.70756 -11.42852
 Alpha  occ. eigenvalues --  -11.40022 -11.36081  -1.47367  -1.40485  -1.39162
 Alpha  occ. eigenvalues --   -1.25659  -0.99905  -0.87473  -0.84112  -0.77106
 Alpha  occ. eigenvalues --   -0.74873  -0.71287  -0.69835  -0.67859  -0.65901
 Alpha  occ. eigenvalues --   -0.61931  -0.56051  -0.51471  -0.48770  -0.47910
 Alpha  occ. eigenvalues --   -0.42009
 Alpha virt. eigenvalues --    0.02733   0.04533   0.04642   0.06930   0.07609
 Alpha virt. eigenvalues --    0.09243   0.09254   0.09601   0.11494   0.12970
 Alpha virt. eigenvalues --    0.13098   0.14791   0.15414   0.16427   0.16755

 Mulliken charges:
               1
     1  N   -0.063942
     2  C    0.019348
     3  O   -0.516135
     4  C    0.744625
     5  O   -0.290776
     6  C    0.983255
     7  O   -0.412183
     8  H   -0.091912
     9  H   -0.252866
    10  H   -0.119414
 Sum of Mulliken charges =  -0.00000

 Dipole moment (field-independent basis, Debye):
    X=             -1.4723    Y=             -2.7349    Z=             -0.0018  Tot=              3.1060

 Test job not archived.
 1\1\GINC-SE131\SP\RHF\Aug-CC-pVDZ\C3H3N1O3\OHZDE\09-Apr-2025\0\\#t hf
 aug-cc-pvdz iop(5/13=1,5/36=2,99/5=2) pseudo=read geom=check guess=(re
 ad,tcheck) scf=(maxcycle=1)\\title\\0,1\N,0,-0.94895543,0.0215166,-0.4
 147757\C,0,0.09018726,0.03588143,0.4167125\O,0,1.18094146,-0.19171633,
 -0.34498056\C,0,2.41277265,-0.22571115,0.29037929\O,0,2.61144097,-0.07
 259889,1.44128893\C,0,-2.24730798,0.22755393,0.0725235\O,0,-3.20541591
 ,0.2208307,-0.63945355\H,0,-0.86169386,-0.13614065,-1.41721002\H,0,3.1
 6852842,-0.42210906,-0.48033599\H,0,-2.25566757,0.38925041,1.15923859\

 Normal termination of Gaussian 16 at Wed Apr  9 15:36:48 2025.
