 Gaussian 16, Revision C.01,

 ----------------------------------------------------------------------
 #t hf aug-cc-pvdz symm=none int=(grid=ultrafine) guess=(read,tcheck) s
 table=(opt,rrhf)
 ----------------------------------------------------------------------
 -----
 title
 -----
 Symbolic Z-matrix:
 Charge =  0 Multiplicity = 1

 SCF Done:  E(RHF) =  -380.765953108     A.U. after   14 cycles
 Normal termination of Gaussian 16 at Wed Apr  9 16:31:06 2025.
 Gaussian 16:  ES64L-G16RevC.01  3-Jul-2019

 ----------------------------------------------------------------------
 #t hf aug-cc-pvdz iop(5/13=1,5/36=2,99/5=2) pseudo=read geom=check gue
 ss=(read,tcheck) scf=(maxcycle=1)
 ----------------------------------------------------------------------
 -----
 title
 -----
 Structure from the checkpoint file:  "Grambow2020_wb97xd3_008487_reverse_mol2.chk"
 Charge =  0 Multiplicity = 1

                         Standard orientation:
 ---------------------------------------------------------------------
 Center     Atomic      Atomic             Coordinates (Angstroms)
 Number     Number       Type             X           Y           Z
 ---------------------------------------------------------------------
      1          6           0        1.139605    1.954452   -0.020738
      2          8           0        0.696779    0.596251   -0.045601
      3          6           0       -0.641008    0.415641    0.000415
      4          8           0       -1.415076    1.329645    0.075333
      5          6           0       -0.988892   -1.024540   -0.053734
      6          6           0       -2.256793   -1.402353   -0.001437
      7          8           0        2.447193   -1.778526   -0.051953
      8          1           0        0.809718    2.445090    0.894316
      9          1           0        2.224949    1.913150   -0.064406
     10          1           0        0.743462    2.496665   -0.878586
     11          1           0       -0.173283   -1.733050   -0.141943
     12          1           0        1.987277   -0.932738   -0.095883
     13          1           0       -3.046577   -0.664906    0.083572
     14          1           0       -2.533910   -2.448021   -0.042815
     15          1           0        2.639721   -1.914340    0.876474
 ---------------------------------------------------------------------

 SCF Done:  E(RHF) =  -380.890907565     A.U. after    2 cycles

 The electronic state is 1-A.
 Alpha  occ. eigenvalues --  -20.63340 -20.56718 -20.56674 -11.40383 -11.30726
 Alpha  occ. eigenvalues --  -11.27239 -11.26154  -1.43723  -1.33924  -1.30227
 Alpha  occ. eigenvalues --   -1.08219  -0.99413  -0.86144  -0.78921  -0.72973
 Alpha  occ. eigenvalues --   -0.72530  -0.69935  -0.69857  -0.64868  -0.60474
 Alpha  occ. eigenvalues --   -0.58870  -0.57452  -0.56148  -0.54904  -0.51642
 Alpha  occ. eigenvalues --   -0.49455  -0.47980  -0.40591
 Alpha virt. eigenvalues --    0.03119   0.03920   0.04805   0.05781   0.06221
 Alpha virt. eigenvalues --    0.06453   0.06931   0.07820   0.09631   0.10816
 Alpha virt. eigenvalues --    0.12265   0.13058   0.14249   0.14573   0.15062

 Mulliken charges:
               1
     1  C    0.763016
     2  O   -0.570360
     3  C   -0.032205
     4  O   -0.425475
     5  C    1.019688
     6  C    0.617861
     7  O   -0.299031
     8  H   -0.063785
     9  H   -0.265639
    10  H   -0.064326
    11  H   -0.518903
    12  H    0.194158
    13  H   -0.253704
    14  H   -0.258775
    15  H    0.157482
 Sum of Mulliken charges =   0.00000

 Dipole moment (field-independent basis, Debye):
    X=              0.1834    Y=              0.0674    Z=              1.3473  Tot=              1.3614

 Test job not archived.
 1\1\GINC-SE097\SP\RHF\Aug-CC-pVDZ\C4H8O3\OHZDE\09-Apr-2025\0\\#t hf au
 g-cc-pvdz iop(5/13=1,5/36=2,99/5=2) pseudo=read geom=check guess=(read
 ,tcheck) scf=(maxcycle=1)\\title\\0,1\C,0,-2.18179252,-0.43885868,0.30
 103092\O,0,-0.78172352,-0.15837145,0.35159189\C,0,-0.21319221,0.197653
 ,-0.82076947\O,0,-0.831791,0.26002166,-1.84724007\C,0,1.2308065,0.4867
 6453,-0.64942644\C,0,1.96524399,0.83570955,-1.69436164\O,0,0.93592132,
 -0.42536991,2.73527883\H,0,-2.37969224,-1.26396661,-0.38227586\H,0,-2.
 46782719,-0.70366278,1.31574684\H,0,-2.73133332,0.44037902,-0.03329577

 Normal termination of Gaussian 16 at Wed Apr  9 16:31:11 2025.
