 Gaussian 16, Revision C.01,

 ----------------------------------------------------------------------
 #t hf aug-cc-pvdz symm=none int=(grid=ultrafine) guess=(read,tcheck) s
 table=(opt,rrhf)
 ----------------------------------------------------------------------
 -----
 title
 -----
 Symbolic Z-matrix:
 Charge =  0 Multiplicity = 1

 SCF Done:  E(RHF) =  -321.346950058     A.U. after   19 cycles
 Normal termination of Gaussian 16 at Wed Apr  9 16:24:50 2025.
 Gaussian 16:  ES64L-G16RevC.01  3-Jul-2019

 ----------------------------------------------------------------------
 #t hf aug-cc-pvdz iop(5/13=1,5/36=2,99/5=2) pseudo=read geom=check gue
 ss=(read,tcheck) scf=(maxcycle=1)
 ----------------------------------------------------------------------
 -----
 title
 -----
 Structure from the checkpoint file:  "Grambow2020_wb97xd3_008194_reverse_mol1.chk"
 Charge =  0 Multiplicity = 1

                         Standard orientation:
 ---------------------------------------------------------------------
 Center     Atomic      Atomic             Coordinates (Angstroms)
 Number     Number       Type             X           Y           Z
 ---------------------------------------------------------------------
      1          8           0       -1.596517   -1.359466   -0.609899
      2          6           0       -0.763160   -1.204297    0.516130
      3          6           0        0.048988    0.024998    0.648114
      4          6           0       -0.508939    1.208934    0.188642
      5          6           0       -0.996607    2.272608   -0.123462
      6          6           0        1.710815   -0.225346   -0.302445
      7          7           0        2.839403   -0.068500   -0.085032
      8          1           0       -2.116926   -0.559151   -0.724994
      9          1           0       -1.341930   -1.170381    1.459309
     10          1           0       -0.144220   -2.099345    0.571682
     11          1           0        0.945903   -0.510221   -1.034491
     12          1           0       -1.393090    3.232945   -0.358964
 ---------------------------------------------------------------------

 SCF Done:  E(RHF) =  -321.445026315     A.U. after    2 cycles

 The electronic state is 1-A.
 Alpha  occ. eigenvalues --  -20.60163 -15.65309 -11.33076 -11.32531 -11.30481
 Alpha  occ. eigenvalues --  -11.29543 -11.28594  -1.35806  -1.19982  -1.11027
 Alpha  occ. eigenvalues --   -1.02852  -0.90499  -0.81075  -0.76099  -0.73045
 Alpha  occ. eigenvalues --   -0.66511  -0.65620  -0.56659  -0.56410  -0.55019
 Alpha  occ. eigenvalues --   -0.50280  -0.48771  -0.46736  -0.44049  -0.33856
 Alpha virt. eigenvalues --   -0.00372   0.02428   0.03802   0.04905   0.05538
 Alpha virt. eigenvalues --    0.06638   0.08700   0.09533   0.10361   0.10743
 Alpha virt. eigenvalues --    0.10981   0.12781   0.13094   0.13592   0.14983

 Mulliken charges:
               1
     1  O   -0.552109
     2  C    0.971695
     3  C   -0.994989
     4  C   -0.331856
     5  C    1.118351
     6  C    0.391198
     7  N   -0.364371
     8  H    0.178330
     9  H    0.046021
    10  H   -0.134523
    11  H    0.152818
    12  H   -0.480565
 Sum of Mulliken charges =  -0.00000

 Dipole moment (field-independent basis, Debye):
    X=             -4.2007    Y=              1.3280    Z=             -0.4417  Tot=              4.4277

 Test job not archived.
 1\1\GINC-SE125\SP\RHF\Aug-CC-pVDZ\C5H5N1O1\OHZDE\09-Apr-2025\0\\#t hf
 aug-cc-pvdz iop(5/13=1,5/36=2,99/5=2) pseudo=read geom=check guess=(re
 ad,tcheck) scf=(maxcycle=1)\\title\\0,1\O,0,-1.69192969,-0.28979599,-0
 .92322892\C,0,-1.08270496,-0.78991361,0.24520255\C,0,0.22512031,-0.242
 54284,0.66727818\C,0,0.45257656,1.10728633,0.44294353\C,0,0.65314254,2
 .29719279,0.34033907\C,0,1.62525709,-1.21248792,-0.2419687\N,0,2.61882
 972,-1.73396232,0.05206734\H,0,-1.68734376,0.67117142,-0.89010681\H,0,
 -1.69050777,-0.58943698,1.14858317\H,0,-1.04595736,-1.87365868,0.13828

 Normal termination of Gaussian 16 at Wed Apr  9 16:24:55 2025.
