 Gaussian 16, Revision C.01,

 ----------------------------------------------------------------------
 #t hf aug-cc-pvdz symm=none int=(grid=ultrafine) guess=(read,tcheck) s
 table=(opt,rrhf)
 ----------------------------------------------------------------------
 -----
 title
 -----
 Symbolic Z-matrix:
 Charge =  0 Multiplicity = 1

 SCF Done:  E(RHF) =  -323.839076848     A.U. after   13 cycles
 Normal termination of Gaussian 16 at Wed Apr  9 16:20:05 2025.
 Gaussian 16:  ES64L-G16RevC.01  3-Jul-2019

 ----------------------------------------------------------------------
 #t hf aug-cc-pvdz iop(5/13=1,5/36=2,99/5=2) pseudo=read geom=check gue
 ss=(read,tcheck) scf=(maxcycle=1)
 ----------------------------------------------------------------------
 -----
 title
 -----
 Structure from the checkpoint file:  "Grambow2020_wb97xd3_008092_reverse_mol2.chk"
 Charge =  0 Multiplicity = 1

                         Standard orientation:
 ---------------------------------------------------------------------
 Center     Atomic      Atomic             Coordinates (Angstroms)
 Number     Number       Type             X           Y           Z
 ---------------------------------------------------------------------
      1          6           0       -3.330061   -0.081979    0.091920
      2          6           0       -0.933936   -0.159188    0.443913
      3          7           0       -1.965318    0.143077   -0.323405
      4          8           0        0.178512    0.174962   -0.216935
      5          6           0        1.384349   -0.100282    0.453530
      6          6           0        2.561624    0.715599    0.057556
      7          6           0        2.470097   -0.738913   -0.338960
      8          1           0       -3.305588   -0.523339    1.085745
      9          1           0       -3.888684    0.855686    0.132516
     10          1           0       -3.839790   -0.765445   -0.590549
     11          1           0       -1.809276    0.552080   -1.239028
     12          1           0        1.228780   -0.378164    1.487210
     13          1           0        2.402955    1.446448   -0.724424
     14          1           0        3.266228    1.010183    0.823699
     15          1           0        2.253270   -0.950554   -1.377573
     16          1           0        3.108800   -1.459552    0.153965
 ---------------------------------------------------------------------

 SCF Done:  E(RHF) =  -323.943191231     A.U. after    2 cycles

 The electronic state is 1-A.
 Alpha  occ. eigenvalues --  -20.60052 -15.64733 -11.29725 -11.29126 -11.26942
 Alpha  occ. eigenvalues --  -11.23304 -11.23225  -1.38647  -1.21120  -1.12823
 Alpha  occ. eigenvalues --   -0.96038  -0.84188  -0.82855  -0.79423  -0.73745
 Alpha  occ. eigenvalues --   -0.67555  -0.63744  -0.62878  -0.61125  -0.59536
 Alpha  occ. eigenvalues --   -0.55325  -0.54651  -0.51895  -0.44161  -0.43092
 Alpha  occ. eigenvalues --   -0.38464  -0.36194
 Alpha virt. eigenvalues --    0.03443   0.04153   0.04518   0.04797   0.06000
 Alpha virt. eigenvalues --    0.06215   0.06689   0.07523   0.08642   0.10536
 Alpha virt. eigenvalues --    0.11342   0.11554   0.13412   0.14605   0.14620

 Mulliken charges:
               1
     1  C    0.868691
     2  C   -0.027772
     3  N   -0.113766
     4  O   -0.598016
     5  C    0.779625
     6  C    0.613743
     7  C    0.618962
     8  H   -0.155856
     9  H   -0.117699
    10  H   -0.119189
    11  H   -0.130123
    12  H   -0.341993
    13  H   -0.343158
    14  H   -0.304527
    15  H   -0.329639
    16  H   -0.299282
 Sum of Mulliken charges =   0.00000

 Dipole moment (field-independent basis, Debye):
    X=             -0.7016    Y=              0.4763    Z=             -1.2057  Tot=              1.4740

 Test job not archived.
 1\1\GINC-SE219\SP\RHF\Aug-CC-pVDZ\C5H9N1O1\OHZDE\09-Apr-2025\0\\#t hf
 aug-cc-pvdz iop(5/13=1,5/36=2,99/5=2) pseudo=read geom=check guess=(re
 ad,tcheck) scf=(maxcycle=1)\\title\\0,1\C,0,3.32040863,-0.10215743,-0.
 04609757\C,0,0.94007036,-0.264195,0.37699853\N,0,1.93702935,0.09343967
 ,-0.41170967\O,0,-0.20258917,0.03942402,-0.24594701\C,0,-1.37716591,-0
 .25905409,0.4686178\C,0,-2.60648251,-0.46992244,-0.33931211\C,0,-2.440
 73931,0.7816698,0.48969685\H,0,3.34097373,-0.56151316,0.93962794\H,0,3
 .82574306,-0.76043827,-0.75618593\H,0,3.85418165,0.84987744,-0.0082863

 Normal termination of Gaussian 16 at Wed Apr  9 16:20:10 2025.
