 Gaussian 16, Revision C.01,

 ----------------------------------------------------------------------
 #t hf aug-cc-pvdz symm=none int=(grid=ultrafine) guess=(read,tcheck) s
 table=(opt,rrhf)
 ----------------------------------------------------------------------
 -----
 title
 -----
 Symbolic Z-matrix:
 Charge =  0 Multiplicity = 1

 SCF Done:  E(RHF) =  -245.827401488     A.U. after   15 cycles
 Normal termination of Gaussian 16 at Wed Apr  9 14:20:01 2025.
 Gaussian 16:  ES64L-G16RevC.01  3-Jul-2019

 ----------------------------------------------------------------------
 #t hf aug-cc-pvdz iop(5/13=1,5/36=2,99/5=2) pseudo=read geom=check gue
 ss=(read,tcheck) scf=(maxcycle=1)
 ----------------------------------------------------------------------
 -----
 title
 -----
 Structure from the checkpoint file:  "Grambow2020_b97d3_007187_reverse_mol2.chk"
 Charge =  0 Multiplicity = 1

                         Standard orientation:
 ---------------------------------------------------------------------
 Center     Atomic      Atomic             Coordinates (Angstroms)
 Number     Number       Type             X           Y           Z
 ---------------------------------------------------------------------
      1          8           0       -2.101177   -0.588622   -0.079477
      2          6           0       -1.261859    0.272603   -0.250932
      3          6           0        1.248676    0.353071   -0.220549
      4          6           0       -0.017655    0.444129    0.615022
      5          7           0        2.160210   -0.539818   -0.172049
      6          1           0       -1.343885    1.011983   -1.084990
      7          1           0        1.377115    1.152155   -0.965183
      8          1           0       -0.065969    1.453277    1.061834
      9          1           0       -0.030990   -0.306168    1.415628
     10          1           0        1.936704   -1.242364    0.551624
 ---------------------------------------------------------------------

 SCF Done:  E(RHF) =  -245.902132394     A.U. after    2 cycles

 The electronic state is 1-A.
 Alpha  occ. eigenvalues --  -20.59477 -15.64285 -11.37082 -11.32134 -11.28278
 Alpha  occ. eigenvalues --   -1.37307  -1.19841  -1.04413  -0.84100  -0.81405
 Alpha  occ. eigenvalues --   -0.70216  -0.66678  -0.65425  -0.63624  -0.56430
 Alpha  occ. eigenvalues --   -0.54440  -0.47962  -0.44041  -0.42763
 Alpha virt. eigenvalues --    0.02952   0.03919   0.05005   0.05193   0.07123
 Alpha virt. eigenvalues --    0.08434   0.09698   0.10652   0.11662   0.12929
 Alpha virt. eigenvalues --    0.14136   0.14561   0.15003   0.15612   0.15733

 Mulliken charges:
               1
     1  O   -0.454865
     2  C    0.585116
     3  C    0.557429
     4  C   -0.024287
     5  N   -0.382086
     6  H   -0.089297
     7  H   -0.253852
     8  H    0.142265
     9  H   -0.117745
    10  H    0.037322
 Sum of Mulliken charges =  -0.00000

 Dipole moment (field-independent basis, Debye):
    X=              0.3942    Y=              2.7575    Z=              0.9102  Tot=              2.9304

 Test job not archived.
 1\1\GINC-SE138\SP\RHF\Aug-CC-pVDZ\C3H5N1O1\OHZDE\09-Apr-2025\0\\#t hf
 aug-cc-pvdz iop(5/13=1,5/36=2,99/5=2) pseudo=read geom=check guess=(re
 ad,tcheck) scf=(maxcycle=1)\\title\\0,1\O,0,1.21214983,-1.42094744,1.5
 6262962\C,0,0.95742249,-1.07154053,0.42746951\C,0,-0.20516973,0.893810
 84,-0.61941126\C,0,-0.38198509,-0.48800423,-0.01163863\N,0,-0.62974406
 ,2.01087818,-0.16952925\H,0,1.71340914,-1.14828907,-0.39207758\H,0,0.3
 7410052,0.92403921,-1.55377974\H,0,-0.7925234,-1.1579682,-0.7881444\H,
 0,-1.06474466,-0.46978948,0.84719783\H,0,-1.15066703,1.86878069,0.7111

 Normal termination of Gaussian 16 at Wed Apr  9 14:20:04 2025.
