 Gaussian 16, Revision C.01,

 ----------------------------------------------------------------------
 #t hf aug-cc-pvdz symm=none int=(grid=ultrafine) guess=(read,tcheck) s
 table=(opt,rrhf)
 ----------------------------------------------------------------------
 -----
 title
 -----
 Symbolic Z-matrix:
 Charge =  0 Multiplicity = 1

 SCF Done:  E(RHF) =  -374.445319231     A.U. after   15 cycles
 Normal termination of Gaussian 16 at Wed Apr  9 16:34:50 2025.
 Gaussian 16:  ES64L-G16RevC.01  3-Jul-2019

 ----------------------------------------------------------------------
 #t hf aug-cc-pvdz iop(5/13=1,5/36=2,99/5=2) pseudo=read geom=check gue
 ss=(read,tcheck) scf=(maxcycle=1)
 ----------------------------------------------------------------------
 -----
 title
 -----
 Structure from the checkpoint file:  "Grambow2020_wb97xd3_008642_reverse_mol1.chk"
 Charge =  0 Multiplicity = 1

                         Standard orientation:
 ---------------------------------------------------------------------
 Center     Atomic      Atomic             Coordinates (Angstroms)
 Number     Number       Type             X           Y           Z
 ---------------------------------------------------------------------
      1          6           0        2.305568   -0.636331    0.015974
      2          7           0        0.097497   -0.779984   -0.021678
      3          7           0       -1.208205   -1.206211   -0.005264
      4          6           0       -1.902022   -0.134729    0.009733
      5          8           0       -1.146593    1.007761    0.007299
      6          6           0        0.114346    0.527126   -0.011222
      7          8           0        1.170378    1.182318   -0.010914
      8          1           0        2.479277   -0.439210    1.062356
      9          1           0        2.134875   -1.660775   -0.264584
     10          1           0        2.837427   -0.020135   -0.691044
     11          1           0       -2.974254   -0.033545    0.023880
 ---------------------------------------------------------------------

 SCF Done:  E(RHF) =  -374.561652613     A.U. after    2 cycles

 The electronic state is 1-A.
 Alpha  occ. eigenvalues --  -20.65092 -20.55198 -15.66127 -15.62967 -11.39514
 Alpha  occ. eigenvalues --  -11.39093 -11.33774  -1.47599  -1.33831  -1.26103
 Alpha  occ. eigenvalues --   -1.07009  -1.00007  -0.87754  -0.81211  -0.73823
 Alpha  occ. eigenvalues --   -0.70542  -0.67622  -0.66729  -0.64827  -0.62161
 Alpha  occ. eigenvalues --   -0.54083  -0.51774  -0.49191  -0.45336  -0.44021
 Alpha  occ. eigenvalues --   -0.33735
 Alpha virt. eigenvalues --    0.00824   0.04048   0.04899   0.05032   0.05578
 Alpha virt. eigenvalues --    0.09416   0.09623   0.09904   0.12189   0.13525
 Alpha virt. eigenvalues --    0.13734   0.14257   0.14588   0.15757   0.16174

 Mulliken charges:
               1
     1  C    0.695149
     2  N   -0.416686
     3  N   -0.208371
     4  C    0.793009
     5  O   -0.485142
     6  C    0.374528
     7  O   -0.588548
     8  H    0.048178
     9  H   -0.037024
    10  H    0.046150
    11  H   -0.221243
 Sum of Mulliken charges =  -0.00000

 Dipole moment (field-independent basis, Debye):
    X=              2.5749    Y=             -1.7751    Z=              0.1353  Tot=              3.1304

 Test job not archived.
 1\1\GINC-SE043\SP\RHF\Aug-CC-pVDZ\C3H4N2O2\OHZDE\09-Apr-2025\0\\#t hf
 aug-cc-pvdz iop(5/13=1,5/36=2,99/5=2) pseudo=read geom=check guess=(re
 ad,tcheck) scf=(maxcycle=1)\\title\\0,1\C,0,-1.99246089,0.04905212,0.1
 4884667\N,0,0.10338063,-0.62161403,-0.08628669\N,0,1.25319113,-1.33733
 096,-0.31537495\C,0,2.19364878,-0.47692467,-0.245221\O,0,1.75563112,0.
 79401884,0.01708309\C,0,0.41863134,0.63259301,0.10479813\O,0,-0.433375
 98,1.51035231,0.32411747\H,0,-2.18502822,0.46288223,-0.82870546\H,0,-2
 .06808683,-1.01943096,0.24863998\H,0,-2.29803553,0.64003847,0.99726083

 Normal termination of Gaussian 16 at Wed Apr  9 16:34:56 2025.
