 Gaussian 16, Revision C.01,

 ----------------------------------------------------------------------
 #t hf aug-cc-pvdz symm=none int=(grid=ultrafine) guess=(read,tcheck) s
 table=(opt,rrhf)
 ----------------------------------------------------------------------
 -----
 title
 -----
 Symbolic Z-matrix:
 Charge =  0 Multiplicity = 1

 SCF Done:  E(RHF) =  -267.602472492     A.U. after   15 cycles
 Normal termination of Gaussian 16 at Wed Apr  9 14:14:01 2025.
 Gaussian 16:  ES64L-G16RevC.01  3-Jul-2019

 ----------------------------------------------------------------------
 #t hf aug-cc-pvdz iop(5/13=1,5/36=2,99/5=2) pseudo=read geom=check gue
 ss=(read,tcheck) scf=(maxcycle=1)
 ----------------------------------------------------------------------
 -----
 title
 -----
 Structure from the checkpoint file:  "Grambow2020_b97d3_006842_reverse_mol2.chk"
 Charge =  0 Multiplicity = 1

                         Standard orientation:
 ---------------------------------------------------------------------
 Center     Atomic      Atomic             Coordinates (Angstroms)
 Number     Number       Type             X           Y           Z
 ---------------------------------------------------------------------
      1          6           0       -2.117007   -0.008234   -0.000226
      2          6           0       -0.629674    0.127810   -0.002784
      3          6           0        0.121402    1.341821   -0.000521
      4          6           0        1.399529    0.804158   -0.000721
      5          6           0        1.428089   -0.698228    0.000123
      6          8           0        0.025272   -1.055564   -0.000069
      7          1           0       -2.454558   -1.050172   -0.049405
      8          1           0       -2.517964    0.467393    0.907636
      9          1           0       -2.532180    0.562462   -0.843433
     10          1           0        2.336411    1.367855    0.005224
     11          1           0        1.875065   -1.149589    0.897707
     12          1           0        1.877013   -1.157404   -0.892405
 ---------------------------------------------------------------------

 SCF Done:  E(RHF) =  -267.682289298     A.U. after    2 cycles

 The electronic state is 1-A.
 Alpha  occ. eigenvalues --  -20.64924 -11.37447 -11.32200 -11.27451 -11.25957
 Alpha  occ. eigenvalues --  -11.18209  -1.42145  -1.07030  -1.06080  -0.94782
 Alpha  occ. eigenvalues --   -0.80476  -0.76862  -0.70061  -0.69954  -0.62236
 Alpha  occ. eigenvalues --   -0.59279  -0.56744  -0.55799  -0.52691  -0.51986
 Alpha  occ. eigenvalues --   -0.36254  -0.32583
 Alpha virt. eigenvalues --    0.03097   0.03850   0.04799   0.04955   0.05355
 Alpha virt. eigenvalues --    0.06402   0.06803   0.08689   0.10508   0.11910
 Alpha virt. eigenvalues --    0.12266   0.14004   0.14755   0.15588   0.15791

 Mulliken charges:
               1
     1  C    0.592673
     2  C    0.017992
     3  C   -0.691063
     4  C    0.396922
     5  C    0.727297
     6  O   -0.641832
     7  H   -0.114548
     8  H    0.095710
     9  H    0.078244
    10  H   -0.260049
    11  H   -0.100590
    12  H   -0.100756
 Sum of Mulliken charges =  -0.00000

 Dipole moment (field-independent basis, Debye):
    X=              0.6522    Y=             -3.3536    Z=              0.0129  Tot=              3.4165

 Test job not archived.
 1\1\GINC-SE131\SP\RHF\Aug-CC-pVDZ\C5H6O1\OHZDE\09-Apr-2025\0\\#t hf au
 g-cc-pvdz iop(5/13=1,5/36=2,99/5=2) pseudo=read geom=check guess=(read
 ,tcheck) scf=(maxcycle=1)\\title\\0,1\C,0,-1.94403811,-0.42948724,0.18
 676272\C,0,-0.52017672,0.01838717,0.23874049\C,0,-0.04598851,1.3576227
 ,0.37852063\C,0,1.31749682,1.10595507,0.36231078\C,0,1.66652688,-0.348
 62701,0.21965744\O,0,0.37254623,-0.99343673,0.14604566\H,0,-2.05073357
 ,-1.50907852,0.02835345\H,0,-2.44349756,-0.1427026,1.12457625\H,0,-2.4
 6591478,0.12142048,-0.60898049\H,0,2.11217266,1.85201323,0.44847832\H,

 Normal termination of Gaussian 16 at Wed Apr  9 14:14:05 2025.
