 Gaussian 16, Revision C.01,

 ----------------------------------------------------------------------
 #t hf aug-cc-pvdz symm=none int=(grid=ultrafine) guess=(read,tcheck) s
 table=(opt,rrhf)
 ----------------------------------------------------------------------
 -----
 title
 -----
 Symbolic Z-matrix:
 Charge =  0 Multiplicity = 1

 SCF Done:  E(RHF) =  -283.572807981     A.U. after   16 cycles
 Normal termination of Gaussian 16 at Wed Apr  9 03:09:44 2025.
 Gaussian 16:  ES64L-G16RevC.01  3-Jul-2019

 ----------------------------------------------------------------------
 #t hf aug-cc-pvdz iop(5/13=1,5/36=2,99/5=2) pseudo=read geom=check gue
 ss=(read,tcheck) scf=(maxcycle=1)
 ----------------------------------------------------------------------
 -----
 title
 -----
 Structure from the checkpoint file:  "Grambow2020_b97d3_006724_reverse_mol2.chk"
 Charge =  0 Multiplicity = 1

                         Standard orientation:
 ---------------------------------------------------------------------
 Center     Atomic      Atomic             Coordinates (Angstroms)
 Number     Number       Type             X           Y           Z
 ---------------------------------------------------------------------
      1          6           0       -1.837553   -0.142651   -0.478598
      2          6           0       -0.811959   -0.443158    0.446127
      3          8           0        0.418461   -1.215726    0.103887
      4          6           0        1.362732   -0.292884   -0.188425
      5          7           0        1.095048    0.959199   -0.128152
      6          6           0       -0.297606    1.113238    0.220174
      7          1           0       -1.464490   -0.352315   -1.503686
      8          1           0       -0.846604    1.643844   -0.581034
      9          1           0       -1.042027   -0.656686    1.492392
     10          1           0        2.328548   -0.701999   -0.481873
     11          1           0       -0.482135    1.671295    1.144500
 ---------------------------------------------------------------------

 SCF Done:  E(RHF) =  -283.655908025     A.U. after    2 cycles

 The electronic state is 1-A.
 Alpha  occ. eigenvalues --  -20.62784 -15.63610 -11.36892 -11.33443 -11.31691
 Alpha  occ. eigenvalues --  -11.28461  -1.40640  -1.20144  -1.09197  -0.91655
 Alpha  occ. eigenvalues --   -0.86078  -0.78805  -0.72761  -0.66197  -0.63948
 Alpha  occ. eigenvalues --   -0.60508  -0.59907  -0.56577  -0.52197  -0.43975
 Alpha  occ. eigenvalues --   -0.40435  -0.38482
 Alpha virt. eigenvalues --    0.03487   0.03969   0.04693   0.05015   0.07303
 Alpha virt. eigenvalues --    0.08054   0.09721   0.09795   0.10212   0.12513
 Alpha virt. eigenvalues --    0.13363   0.14131   0.14433   0.15452   0.15721

 Mulliken charges:
               1
     1  C   -0.224558
     2  C    0.925651
     3  O   -0.656988
     4  C    0.680201
     5  N   -0.498288
     6  C    0.314710
     7  H    0.023528
     8  H   -0.133734
     9  H   -0.166204
    10  H   -0.195816
    11  H   -0.068503
 Sum of Mulliken charges =  -0.00000

 Dipole moment (field-independent basis, Debye):
    X=              0.7716    Y=             -0.4964    Z=              0.3739  Tot=              0.9907

 Test job not archived.
 1\1\GINC-SE195\SP\RHF\Aug-CC-pVDZ\C4H5N1O1\OHZDE\09-Apr-2025\0\\#t hf
 aug-cc-pvdz iop(5/13=1,5/36=2,99/5=2) pseudo=read geom=check guess=(re
 ad,tcheck) scf=(maxcycle=1)\\title\\0,1\C,0,-1.53827404,0.39473892,-0.
 75766674\C,0,-0.36726668,-0.39472631,-0.81010299\O,0,0.99547668,0.1527
 0426,-1.07688998\C,0,1.5513737,0.3635565,0.13770886\N,0,0.90536909,0.0
 8787548,1.20993943\C,0,-0.41058781,-0.37993966,0.84394847\H,0,-1.24363
 052,1.46426527,-0.70075366\H,0,-1.19284301,0.28606688,1.25551556\H,0,-
 0.38923526,-1.40820611,-1.21700856\H,0,2.55476509,0.78664926,0.1156680

 Normal termination of Gaussian 16 at Wed Apr  9 03:09:49 2025.
