 Gaussian 16, Revision C.01,

 ----------------------------------------------------------------------
 #t hf aug-cc-pvdz symm=none int=(grid=ultrafine) guess=(read,tcheck) s
 table=(opt,rrhf)
 ----------------------------------------------------------------------
 -----
 title
 -----
 Symbolic Z-matrix:
 Charge =  0 Multiplicity = 1

 SCF Done:  E(RHF) =  -317.651473564     A.U. after   16 cycles
 Normal termination of Gaussian 16 at Wed Apr  9 16:17:48 2025.
 Gaussian 16:  ES64L-G16RevC.01  3-Jul-2019

 ----------------------------------------------------------------------
 #t hf aug-cc-pvdz iop(5/13=1,5/36=2,99/5=2) pseudo=read geom=check gue
 ss=(read,tcheck) scf=(maxcycle=1)
 ----------------------------------------------------------------------
 -----
 title
 -----
 Structure from the checkpoint file:  "Grambow2020_wb97xd3_008065_reverse_mol2.chk"
 Charge =  0 Multiplicity = 1

                         Standard orientation:
 ---------------------------------------------------------------------
 Center     Atomic      Atomic             Coordinates (Angstroms)
 Number     Number       Type             X           Y           Z
 ---------------------------------------------------------------------
      1          7           0       -3.335224   -0.175176   -0.073335
      2          6           0       -2.186242   -0.280398   -0.024181
      3          6           0       -0.788228   -0.392067    0.050153
      4          6           0        2.249224   -1.080249    0.034797
      5          7           0        2.257139    0.181433   -0.153496
      6          6           0        1.219831    1.032142    0.025288
      7          7           0       -0.071137    0.749193    0.087744
      8          1           0       -0.312858   -1.350920    0.021264
      9          1           0        1.431867   -1.653277    0.465307
     10          1           0        3.159894   -1.627811   -0.192334
     11          1           0        1.448777    2.087648    0.036368
     12          1           0       -0.650639    1.579649    0.126662
 ---------------------------------------------------------------------

 SCF Done:  E(RHF) =  -317.746357012     A.U. after    2 cycles

 The electronic state is 1-A.
 Alpha  occ. eigenvalues --  -15.77358 -15.67084 -15.62184 -11.34786 -11.32763
 Alpha  occ. eigenvalues --  -11.29516 -11.27975  -1.32840  -1.23268  -1.17812
 Alpha  occ. eigenvalues --   -1.04333  -0.94248  -0.83979  -0.81573  -0.74280
 Alpha  occ. eigenvalues --   -0.68614  -0.66171  -0.62733  -0.60446  -0.53433
 Alpha  occ. eigenvalues --   -0.51143  -0.46598  -0.45777  -0.44776  -0.27430
 Alpha virt. eigenvalues --    0.02345   0.02747   0.03233   0.04523   0.05589
 Alpha virt. eigenvalues --    0.06308   0.08436   0.09923   0.10563   0.12368
 Alpha virt. eigenvalues --    0.12740   0.13134   0.13886   0.14390   0.14616

 Mulliken charges:
               1
     1  N   -0.107912
     2  C   -1.035322
     3  C    1.527252
     4  C    0.717887
     5  N   -0.401348
     6  C    0.698147
     7  N   -0.154351
     8  H   -0.477372
     9  H   -0.194868
    10  H   -0.264553
    11  H   -0.341079
    12  H    0.033519
 Sum of Mulliken charges =   0.00000

 Dipole moment (field-independent basis, Debye):
    X=              4.5721    Y=              0.6947    Z=              0.7070  Tot=              4.6783

 Test job not archived.
 1\1\GINC-SE100\SP\RHF\Aug-CC-pVDZ\C4H5N3\OHZDE\09-Apr-2025\0\\#t hf au
 g-cc-pvdz iop(5/13=1,5/36=2,99/5=2) pseudo=read geom=check guess=(read
 ,tcheck) scf=(maxcycle=1)\\title\\0,1\N,0,3.64448408,0.34399979,0.5673
 9753\C,0,2.5389028,0.12999375,0.31139093\C,0,1.19149917,-0.10907698,-0
 .00449769\C,0,-1.66397836,-1.09752242,-0.75893063\N,0,-1.91392307,-0.1
 2204851,0.0242267\C,0,-1.04220648,0.82746752,0.43679011\N,0,0.28020957
 ,0.78692069,0.42544285\H,0,0.8994626,-1.00086379,-0.51990215\H,0,-0.73
 266673,-1.25855657,-1.29605159\H,0,-2.46976985,-1.79750375,-0.9625467\

 Normal termination of Gaussian 16 at Wed Apr  9 16:17:52 2025.
