 Gaussian 16, Revision C.01,

 ----------------------------------------------------------------------
 #t hf aug-cc-pvdz symm=none int=(grid=ultrafine) guess=(read,tcheck) s
 table=(opt,rrhf)
 ----------------------------------------------------------------------
 -----
 title
 -----
 Symbolic Z-matrix:
 Charge =  0 Multiplicity = 1

 SCF Done:  E(RHF) =  -332.350157513     A.U. after   17 cycles
 Normal termination of Gaussian 16 at Wed Apr  9 16:50:53 2025.
 Gaussian 16:  ES64L-G16RevC.01  3-Jul-2019

 ----------------------------------------------------------------------
 #t hf aug-cc-pvdz iop(5/13=1,5/36=2,99/5=2) pseudo=read geom=check gue
 ss=(read,tcheck) scf=(maxcycle=1)
 ----------------------------------------------------------------------
 -----
 title
 -----
 Structure from the checkpoint file:  "Grambow2020_wb97xd3_009006_forward_mol1.chk"
 Charge =  0 Multiplicity = 1

                         Standard orientation:
 ---------------------------------------------------------------------
 Center     Atomic      Atomic             Coordinates (Angstroms)
 Number     Number       Type             X           Y           Z
 ---------------------------------------------------------------------
      1          7           0        2.485308   -0.000980   -0.491966
      2          6           0        1.452344    0.061451    0.036940
      3          6           0        0.045803    0.911146    0.526228
      4          6           0       -1.175806    1.016587   -0.139842
      5          7           0       -1.600664   -0.244987   -0.336251
      6          7           0       -0.763520   -1.176452    0.017368
      7          7           0        0.211018   -0.471691    0.611405
      8          1           0       -1.761715    1.866084   -0.446805
      9          1           0       -2.497321   -0.542410   -0.697033
 ---------------------------------------------------------------------

 SCF Done:  E(RHF) =  -332.442513767     A.U. after    2 cycles

 The electronic state is 1-A.
 Alpha  occ. eigenvalues --  -15.82611 -15.77186 -15.76115 -15.61673 -11.34729
 Alpha  occ. eigenvalues --  -11.34289 -11.30678  -1.48741  -1.28507  -1.17191
 Alpha  occ. eigenvalues --   -1.14316  -0.98051  -0.89112  -0.80220  -0.76662
 Alpha  occ. eigenvalues --   -0.69665  -0.62393  -0.58261  -0.57139  -0.53134
 Alpha  occ. eigenvalues --   -0.49480  -0.43914  -0.39795  -0.35692
 Alpha virt. eigenvalues --    0.00570   0.03236   0.03832   0.07037   0.07670
 Alpha virt. eigenvalues --    0.08604   0.10177   0.10649   0.11258   0.12231
 Alpha virt. eigenvalues --    0.12830   0.14086   0.14569   0.15623   0.16246

 Mulliken charges:
               1
     1  N   -0.192885
     2  C    0.087822
     3  C   -0.043749
     4  C    0.863282
     5  N   -0.043002
     6  N   -0.190157
     7  N   -0.306307
     8  H   -0.191563
     9  H    0.016559
 Sum of Mulliken charges =  -0.00000

 Dipole moment (field-independent basis, Debye):
    X=             -8.3647    Y=              0.2417    Z=             -1.1295  Tot=              8.4440

 Test job not archived.
 1\1\GINC-SE043\SP\RHF\Aug-CC-pVDZ\C3H2N4\OHZDE\09-Apr-2025\0\\#t hf au
 g-cc-pvdz iop(5/13=1,5/36=2,99/5=2) pseudo=read geom=check guess=(read
 ,tcheck) scf=(maxcycle=1)\\title\\0,1\N,0,2.66866623,0.73588871,0.9057
 0853\C,0,1.71669085,0.6645088,0.24291051\C,0,0.66871259,-0.17385445,-0
 .82415459\C,0,-0.45609926,-0.93698845,-0.50868544\N,0,-1.27138893,-0.1
 2442663,0.18823261\N,0,-0.78216527,1.04818841,0.46951192\N,0,0.3734606
 7,1.04446261,-0.21152157\H,0,-0.73435119,-1.94909223,-0.74823205\H,0,-
 2.21858769,-0.31372476,0.48756307\\Version=ES64L-G16RevC.01\State=1-A\

 Normal termination of Gaussian 16 at Wed Apr  9 16:50:58 2025.
