 Gaussian 16, Revision C.01,

 ----------------------------------------------------------------------
 #t hf aug-cc-pvdz symm=none int=(grid=ultrafine) guess=(read,tcheck) s
 table=(opt,rrhf)
 ----------------------------------------------------------------------
 -----
 title
 -----
 Symbolic Z-matrix:
 Charge =  0 Multiplicity = 1

 SCF Done:  E(RHF) =  -337.428898080     A.U. after   17 cycles
 Normal termination of Gaussian 16 at Wed Apr  9 16:44:53 2025.
 Gaussian 16:  ES64L-G16RevC.01  3-Jul-2019

 ----------------------------------------------------------------------
 #t hf aug-cc-pvdz iop(5/13=1,5/36=2,99/5=2) pseudo=read geom=check gue
 ss=(read,tcheck) scf=(maxcycle=1)
 ----------------------------------------------------------------------
 -----
 title
 -----
 Structure from the checkpoint file:  "Grambow2020_wb97xd3_008703_reverse_mol1.chk"
 Charge =  0 Multiplicity = 1

                         Standard orientation:
 ---------------------------------------------------------------------
 Center     Atomic      Atomic             Coordinates (Angstroms)
 Number     Number       Type             X           Y           Z
 ---------------------------------------------------------------------
      1          8           0        2.571380    0.882805   -0.142107
      2          6           0        2.120372   -0.229809   -0.069559
      3          6           0        0.810933   -0.511662    0.461824
      4          6           0       -0.337622   -0.982406    0.043529
      5          7           0       -1.578397   -1.000152   -0.188470
      6          6           0       -2.140436    0.287381   -0.090405
      7          7           0       -1.434377    1.316379    0.097503
      8          1           0        2.697669   -1.132551   -0.352682
      9          1           0        0.317629   -1.964050    0.088008
     10          1           0       -3.225522    0.278303   -0.194911
     11          1           0       -1.990877    2.161243    0.160869
 ---------------------------------------------------------------------

 SCF Done:  E(RHF) =  -337.529705298     A.U. after    2 cycles

 The electronic state is 1-A.
 Alpha  occ. eigenvalues --  -20.59110 -15.64179 -15.62056 -11.39249 -11.37548
 Alpha  occ. eigenvalues --  -11.34669 -11.33540  -1.38662  -1.27594  -1.16953
 Alpha  occ. eigenvalues --   -1.10316  -0.93342  -0.85379  -0.76127  -0.72706
 Alpha  occ. eigenvalues --   -0.68347  -0.67821  -0.61047  -0.60867  -0.55997
 Alpha  occ. eigenvalues --   -0.49069  -0.46124  -0.45174  -0.43941  -0.36199
 Alpha virt. eigenvalues --    0.02058   0.03561   0.04801   0.05619   0.06093
 Alpha virt. eigenvalues --    0.07006   0.08079   0.09411   0.09811   0.10461
 Alpha virt. eigenvalues --    0.11969   0.12951   0.13652   0.14192   0.14757

 Mulliken charges:
               1
     1  O   -0.470210
     2  C    0.763223
     3  C   -0.088855
     4  C   -0.146740
     5  N   -0.387940
     6  C    0.776980
     7  N   -0.267735
     8  H   -0.064019
     9  H    0.068582
    10  H   -0.199087
    11  H    0.015799
 Sum of Mulliken charges =  -0.00000

 Dipole moment (field-independent basis, Debye):
    X=             -1.1368    Y=             -2.7540    Z=             -0.2829  Tot=              2.9928

 Test job not archived.
 1\1\GINC-SE220\SP\RHF\Aug-CC-pVDZ\C4H4N2O1\OHZDE\09-Apr-2025\0\\#t hf
 aug-cc-pvdz iop(5/13=1,5/36=2,99/5=2) pseudo=read geom=check guess=(re
 ad,tcheck) scf=(maxcycle=1)\\title\\0,1\O,0,-2.77699169,-0.9490687,-0.
 06533602\C,0,-2.31772642,0.16240114,-0.04820738\C,0,-1.0035458,0.45966
 826,0.46267448\C,0,0.14610444,0.90148117,0.01674489\N,0,1.38573742,0.8
 9903479,-0.22192877\C,0,1.93913634,-0.38644255,-0.06526571\N,0,1.22679
 322,-1.40009568,0.17502299\H,0,-2.89008487,1.05481904,-0.37126985\H,0,
 -0.50192307,1.88891095,0.01752287\H,0,3.02369564,-0.39032186,-0.175414

 Normal termination of Gaussian 16 at Wed Apr  9 16:44:57 2025.
