 Gaussian 16, Revision C.01,

 ----------------------------------------------------------------------
 #t hf aug-cc-pvdz symm=none int=(grid=ultrafine) guess=(read,tcheck) s
 table=(opt,rrhf)
 ----------------------------------------------------------------------
 -----
 title
 -----
 Symbolic Z-matrix:
 Charge =  0 Multiplicity = 1

 SCF Done:  E(RHF) =  -295.889526405     A.U. after   15 cycles
 Normal termination of Gaussian 16 at Wed Apr  9 14:05:53 2025.
 Gaussian 16:  ES64L-G16RevC.01  3-Jul-2019

 ----------------------------------------------------------------------
 #t hf aug-cc-pvdz iop(5/13=1,5/36=2,99/5=2) pseudo=read geom=check gue
 ss=(read,tcheck) scf=(maxcycle=1)
 ----------------------------------------------------------------------
 -----
 title
 -----
 Structure from the checkpoint file:  "Grambow2020_b97d3_006780_forward_mol2.chk"
 Charge =  0 Multiplicity = 1

                         Standard orientation:
 ---------------------------------------------------------------------
 Center     Atomic      Atomic             Coordinates (Angstroms)
 Number     Number       Type             X           Y           Z
 ---------------------------------------------------------------------
      1          7           0        2.028676    0.004758   -0.088542
      2          6           0        0.647722    0.000318   -0.008923
      3          7           0       -0.071834   -1.133903    0.002002
      4          7           0       -1.347785   -0.641834    0.005768
      5          6           0       -1.337261    0.711554    0.006137
      6          7           0       -0.089215    1.160483   -0.004745
      7          1           0        2.434128    0.834225    0.334272
      8          1           0        2.439871   -0.857279    0.258219
      9          1           0       -2.132331   -1.284906    0.011681
     10          1           0       -2.243327    1.310207    0.011163
 ---------------------------------------------------------------------

 SCF Done:  E(RHF) =  -295.974825811     A.U. after    2 cycles

 The electronic state is 1-A.
 Alpha  occ. eigenvalues --  -15.71227 -15.64461 -15.63755 -15.62337 -11.34137
 Alpha  occ. eigenvalues --  -11.33956  -1.36481  -1.19900  -1.14785  -1.05579
 Alpha  occ. eigenvalues --   -0.85870  -0.80017  -0.76084  -0.68786  -0.63959
 Alpha  occ. eigenvalues --   -0.62132  -0.59690  -0.49841  -0.48890  -0.44011
 Alpha  occ. eigenvalues --   -0.40316  -0.32878
 Alpha virt. eigenvalues --    0.02568   0.03786   0.04386   0.07037   0.08051
 Alpha virt. eigenvalues --    0.09942   0.12257   0.12609   0.13934   0.14505
 Alpha virt. eigenvalues --    0.15446   0.16050   0.17346   0.18043   0.18913

 Mulliken charges:
               1
     1  N   -0.348988
     2  C    0.944290
     3  N   -0.489632
     4  N   -0.185162
     5  C    0.789160
     6  N   -0.606267
     7  H    0.027819
     8  H    0.017824
     9  H    0.008392
    10  H   -0.157435
 Sum of Mulliken charges =  -0.00000

 Dipole moment (field-independent basis, Debye):
    X=             -2.0030    Y=             -0.3681    Z=              1.1624  Tot=              2.3449

 Test job not archived.
 1\1\GINC-SE131\SP\RHF\Aug-CC-pVDZ\C2H4N4\OHZDE\09-Apr-2025\0\\#t hf au
 g-cc-pvdz iop(5/13=1,5/36=2,99/5=2) pseudo=read geom=check guess=(read
 ,tcheck) scf=(maxcycle=1)\\title\\0,1\N,0,1.96646882,-0.04398918,-0.36
 648538\C,0,0.60354627,-0.02079446,-0.13133329\N,0,-0.1437709,-1.136584
 47,-0.10188869\N,0,-1.3960713,-0.61588648,0.07365491\C,0,-1.34523299,0
 .73454976,0.14787557\N,0,-0.09339558,1.154051,0.02061355\H,0,2.4411733
 7,0.74964001,0.053023\H,0,2.38795607,-0.9341975,-0.11686821\H,0,-2.193
 86185,-1.23968952,0.13272418\H,0,-2.22681193,1.35290084,0.28868436\\Ve

 Normal termination of Gaussian 16 at Wed Apr  9 14:05:56 2025.
