 Gaussian 16, Revision C.01,

 ----------------------------------------------------------------------
 #t hf aug-cc-pvdz symm=none int=(grid=ultrafine) guess=(read,tcheck) s
 table=(opt,rrhf)
 ----------------------------------------------------------------------
 -----
 title
 -----
 Symbolic Z-matrix:
 Charge =  0 Multiplicity = 1

 SCF Done:  E(RHF) =  -344.803126311     A.U. after   14 cycles

 1\1\GINC-SE207\Stability\RHF\Aug-CC-pVDZ\C5H10O2\OHZDE\09-Apr-2025\0\\
 #t hf aug-cc-pvdz symm=none int=(grid=ultrafine) guess=(read,tcheck) s
 table=(opt,rrhf)\\title\\0,1\C,0,-2.12043116,-0.47671869,0.21981688\C,
 0,-2.05430373,1.01096844,0.08329313\O,0,-1.15993302,1.70100098,0.49538
 102\C,0,1.27917772,-1.78146868,-0.26262783\C,0,1.80525554,-0.61426936,
 -0.62212171\C,0,1.66339987,-0.20570151,0.81824634\O,0,1.09584421,-1.53
 506624,1.07988682\H,0,-3.06562513,-0.75739964,0.69173028\H,0,-2.122780
 36,-0.92170182,-0.77945118\H,0,-1.2786639,-0.86297612,0.79281175\H,0,-

 Normal termination of Gaussian 16 at Wed Apr  9 03:33:32 2025.
 Gaussian 16:  ES64L-G16RevC.01  3-Jul-2019

 ----------------------------------------------------------------------
 #t hf aug-cc-pvdz iop(5/13=1,5/36=2,99/5=2) pseudo=read geom=check gue
 ss=(read,tcheck) scf=(maxcycle=1)
 ----------------------------------------------------------------------
 -----
 title
 -----
 Structure from the checkpoint file:  "Grambow2020_wb97xd3_007055_reverse_mol2.chk"
 Charge =  0 Multiplicity = 1

                         Standard orientation:
 ---------------------------------------------------------------------
 Center     Atomic      Atomic             Coordinates (Angstroms)
 Number     Number       Type             X           Y           Z
 ---------------------------------------------------------------------
      1          6           0        1.719090   -1.343740    0.177818
      2          6           0        2.404560   -0.015480    0.132193
      3          8           0        1.972487    0.963698   -0.415882
      4          6           0       -1.876524   -0.716497    0.590840
      5          6           0       -1.748852    0.594357    0.774436
      6          6           0       -1.426681    0.680222   -0.692037
      7          8           0       -1.599012   -0.777139   -0.756743
      8          1           0        2.396625   -2.116140   -0.195304
      9          1           0        1.502299   -1.591833    1.220891
     10          1           0        0.795032   -1.336267   -0.398507
     11          1           0        3.381782    0.035354    0.656273
     12          1           0        0.697110    3.019699    0.665457
     13          1           0       -2.107350   -1.612315    1.151962
     14          1           0       -1.835500    1.288416    1.590715
     15          1           0        0.315226    3.505572    1.083095
     16          1           0       -0.404769    0.951978   -0.957751
     17          1           0       -2.157814    1.169892   -1.335322
 ---------------------------------------------------------------------

 SCF Done:  E(RHF) =  -344.919398822     A.U. after    2 cycles

 The electronic state is 1-A.
 Alpha  occ. eigenvalues --  -20.58450 -20.57632 -11.34960 -11.30405 -11.29295
 Alpha  occ. eigenvalues --  -11.24579 -11.23187  -1.37773  -1.36731  -1.02010
 Alpha  occ. eigenvalues --   -1.01526  -0.92660  -0.80504  -0.73736  -0.71187
 Alpha  occ. eigenvalues --   -0.68998  -0.66917  -0.64165  -0.63008  -0.60951
 Alpha  occ. eigenvalues --   -0.57917  -0.56012  -0.52884  -0.52052  -0.49834
 Alpha  occ. eigenvalues --   -0.49658  -0.44057  -0.34840
 Alpha virt. eigenvalues --    0.03161   0.04109   0.04595   0.04900   0.05768
 Alpha virt. eigenvalues --    0.06300   0.07549   0.08112   0.08958   0.10236
 Alpha virt. eigenvalues --    0.10735   0.11215   0.12360   0.13144   0.13840

 Mulliken charges:
               1
     1  C    0.309399
     2  C    0.434183
     3  O   -0.391589
     4  C    0.560989
     5  C    0.261042
     6  C    1.014166
     7  O   -0.775526
     8  H   -0.001954
     9  H    0.012267
    10  H   -0.177300
    11  H   -0.206750
    12  H   -0.060804
    13  H   -0.297878
    14  H   -0.345122
    15  H    0.062211
    16  H   -0.207935
    17  H   -0.189398
 Sum of Mulliken charges =  -0.00000

 Dipole moment (field-independent basis, Debye):
    X=              0.9159    Y=             -1.5721    Z=              2.3501  Tot=              2.9720

 Test job not archived.
 1\1\GINC-SE207\SP\RHF\Aug-CC-pVDZ\C5H10O2\OHZDE\09-Apr-2025\0\\#t hf a
 ug-cc-pvdz iop(5/13=1,5/36=2,99/5=2) pseudo=read geom=check guess=(rea
 d,tcheck) scf=(maxcycle=1)\\title\\0,1\C,0,-2.12043116,-0.47671869,0.2
 1981688\C,0,-2.05430373,1.01096844,0.08329313\O,0,-1.15993302,1.701000
 98,0.49538102\C,0,1.27917772,-1.78146868,-0.26262783\C,0,1.80525554,-0
 .61426936,-0.62212171\C,0,1.66339987,-0.20570151,0.81824634\O,0,1.0958
 4421,-1.53506624,1.07988682\H,0,-3.06562513,-0.75739964,0.69173028\H,0
 ,-2.12278036,-0.92170182,-0.77945118\H,0,-1.2786639,-0.86297612,0.7928

 Normal termination of Gaussian 16 at Wed Apr  9 03:33:38 2025.
