 Gaussian 16, Revision C.01,

 ----------------------------------------------------------------------
 #t hf aug-cc-pvdz symm=none int=(grid=ultrafine) guess=(read,tcheck) s
 table=(opt,rrhf)
 ----------------------------------------------------------------------
 -----
 title
 -----
 Symbolic Z-matrix:
 Charge =  0 Multiplicity = 1

 SCF Done:  E(RHF) =  -307.666434083     A.U. after   15 cycles

 1\1\GINC-SE114\Stability\RHF\Aug-CC-pVDZ\C6H10O1\OHZDE\09-Apr-2025\0\\
 #t hf aug-cc-pvdz symm=none int=(grid=ultrafine) guess=(read,tcheck) s
 table=(opt,rrhf)\\title\\0,1\C,0,1.8644261,-0.3748202,0.21267947\C,0,0
 .49367354,0.08862001,0.6294734\C,0,-0.05833349,1.41710814,-0.60714806\
 C,0,-1.62890167,1.3017858,-0.59112792\C,0,-1.88711148,0.12090069,0.007
 8683\C,0,-0.71552035,-0.80637623,0.42165557\O,0,-0.44553735,-1.7488825
 ,-0.61168218\H,0,1.84528528,-0.79792225,-0.78946153\H,0,2.58528962,0.4
 4231858,0.25058028\H,0,2.20546864,-1.15467514,0.89803758\H,0,0.5032624

 Normal termination of Gaussian 16 at Wed Apr  9 16:09:16 2025.
 Gaussian 16:  ES64L-G16RevC.01  3-Jul-2019

 ----------------------------------------------------------------------
 #t hf aug-cc-pvdz iop(5/13=1,5/36=2,99/5=2) pseudo=read geom=check gue
 ss=(read,tcheck) scf=(maxcycle=1)
 ----------------------------------------------------------------------
 -----
 title
 -----
 Structure from the checkpoint file:  "Grambow2020_wb97xd3_007815_reverse_mol1.chk"
 Charge =  0 Multiplicity = 1

                         Standard orientation:
 ---------------------------------------------------------------------
 Center     Atomic      Atomic             Coordinates (Angstroms)
 Number     Number       Type             X           Y           Z
 ---------------------------------------------------------------------
      1          6           0       -2.111951   -0.352050   -0.051331
      2          6           0       -0.752016   -0.353933    0.595221
      3          6           0        0.369909   -1.477877   -0.442498
      4          6           0        1.807104   -0.878785   -0.206278
      5          6           0        1.594278    0.339767    0.332048
      6          6           0        0.145838    0.867065    0.498381
      7          8           0       -0.225576    1.649878   -0.632217
      8          1           0       -2.059483    0.028290   -1.069298
      9          1           0       -2.547270   -1.351682   -0.056760
     10          1           0       -2.779923    0.301324    0.515340
     11          1           0       -0.807221   -0.704008    1.631667
     12          1           0       -0.003435   -1.051504   -1.363648
     13          1           0        0.182216   -2.542830   -0.346962
     14          1           0        0.498759   -1.100731    0.624664
     15          1           0        2.392369    1.052270    0.519082
     16          1           0        0.041882    1.485996    1.394666
     17          1           0        0.567740    1.818732   -1.144276
 ---------------------------------------------------------------------

 SCF Done:  E(RHF) =  -307.758458586     A.U. after    2 cycles

 The electronic state is 1-A.
 Alpha  occ. eigenvalues --  -20.57937 -11.31578 -11.30879 -11.29225 -11.26024
 Alpha  occ. eigenvalues --  -11.21761 -11.21048  -1.33694  -1.15869  -1.04025
 Alpha  occ. eigenvalues --   -0.96900  -0.91602  -0.81354  -0.74176  -0.70238
 Alpha  occ. eigenvalues --   -0.68782  -0.64641  -0.62553  -0.60604  -0.58104
 Alpha  occ. eigenvalues --   -0.56085  -0.53925  -0.51438  -0.49717  -0.46273
 Alpha  occ. eigenvalues --   -0.34424  -0.30440
 Alpha virt. eigenvalues --    0.02513   0.03848   0.04287   0.04622   0.06070
 Alpha virt. eigenvalues --    0.06330   0.06773   0.07299   0.07544   0.09689
 Alpha virt. eigenvalues --    0.10837   0.11441   0.12503   0.13220   0.14030

 Mulliken charges:
               1
     1  C    0.664557
     2  C   -0.880356
     3  C    0.291826
     4  C   -0.814052
     5  C    0.575454
     6  C    0.686006
     7  O   -0.698213
     8  H    0.001515
     9  H    0.007073
    10  H    0.024399
    11  H   -0.167404
    12  H    0.005839
    13  H   -0.140259
    14  H    0.725757
    15  H   -0.342217
    16  H   -0.165198
    17  H    0.225273
 Sum of Mulliken charges =  -0.00000

 Dipole moment (field-independent basis, Debye):
    X=             -4.2760    Y=             -0.2582    Z=              1.0520  Tot=              4.4111

 Test job not archived.
 1\1\GINC-SE114\SP\RHF\Aug-CC-pVDZ\C6H10O1\OHZDE\09-Apr-2025\0\\#t hf a
 ug-cc-pvdz iop(5/13=1,5/36=2,99/5=2) pseudo=read geom=check guess=(rea
 d,tcheck) scf=(maxcycle=1)\\title\\0,1\C,0,1.8644261,-0.3748202,0.2126
 7947\C,0,0.49367354,0.08862001,0.6294734\C,0,-0.05833349,1.41710814,-0
 .60714806\C,0,-1.62890167,1.3017858,-0.59112792\C,0,-1.88711148,0.1209
 0069,0.0078683\C,0,-0.71552035,-0.80637623,0.42165557\O,0,-0.44553735,
 -1.7488825,-0.61168218\H,0,1.84528528,-0.79792225,-0.78946153\H,0,2.58
 528962,0.44231858,0.25058028\H,0,2.20546864,-1.15467514,0.89803758\H,0

 Normal termination of Gaussian 16 at Wed Apr  9 16:09:22 2025.
