 Gaussian 16, Revision C.01,

 ----------------------------------------------------------------------
 #t hf aug-cc-pvdz symm=none int=(grid=ultrafine) guess=(read,tcheck) s
 table=(opt,rrhf)
 ----------------------------------------------------------------------
 -----
 title
 -----
 Symbolic Z-matrix:
 Charge =  0 Multiplicity = 1

 SCF Done:  E(RHF) =  -317.561463108     A.U. after   18 cycles
 Normal termination of Gaussian 16 at Wed Apr  9 16:50:59 2025.
 Gaussian 16:  ES64L-G16RevC.01  3-Jul-2019

 ----------------------------------------------------------------------
 #t hf aug-cc-pvdz iop(5/13=1,5/36=2,99/5=2) pseudo=read geom=check gue
 ss=(read,tcheck) scf=(maxcycle=1)
 ----------------------------------------------------------------------
 -----
 title
 -----
 Structure from the checkpoint file:  "Grambow2020_wb97xd3_008977_reverse_mol1.chk"
 Charge =  0 Multiplicity = 1

                         Standard orientation:
 ---------------------------------------------------------------------
 Center     Atomic      Atomic             Coordinates (Angstroms)
 Number     Number       Type             X           Y           Z
 ---------------------------------------------------------------------
      1          7           0       -2.060061    0.147379   -0.449901
      2          6           0       -0.770723    0.065050    0.054813
      3          6           0       -0.168912   -0.949107    0.915737
      4          7           0        0.026721    1.094248    0.435827
      5          6           0        1.345862    0.831553   -0.040450
      6          7           0        1.678022   -0.314547   -0.499514
      7          6           0        0.453549   -1.045601   -0.338201
      8          1           0       -2.776694   -0.133596    0.200022
      9          1           0       -2.252570    1.044840   -0.868054
     10          1           0        0.265915   -0.827106    1.902524
     11          1           0        2.026074    1.676464   -0.051446
     12          1           0        0.065845   -1.661523   -1.139314
 ---------------------------------------------------------------------

 SCF Done:  E(RHF) =  -317.652098554     A.U. after    2 cycles

 The electronic state is 1-A.
 Alpha  occ. eigenvalues --  -15.64417 -15.63709 -15.61606 -11.35957 -11.32786
 Alpha  occ. eigenvalues --  -11.31835 -11.30300  -1.32334  -1.20000  -1.11823
 Alpha  occ. eigenvalues --   -1.08178  -0.85148  -0.81914  -0.79015  -0.70739
 Alpha  occ. eigenvalues --   -0.69735  -0.65505  -0.60111  -0.56448  -0.54169
 Alpha  occ. eigenvalues --   -0.49038  -0.47360  -0.42595  -0.34467  -0.33115
 Alpha virt. eigenvalues --    0.01645   0.03134   0.04298   0.04504   0.04890
 Alpha virt. eigenvalues --    0.06820   0.09168   0.10549   0.10726   0.11154
 Alpha virt. eigenvalues --    0.12660   0.13665   0.14281   0.15057   0.15581

 Mulliken charges:
               1
     1  N   -0.305732
     2  C    0.507863
     3  C    0.248947
     4  N   -0.688960
     5  C    0.593935
     6  N   -0.624280
     7  C    0.834090
     8  H    0.020111
     9  H    0.005432
    10  H   -0.267468
    11  H   -0.208099
    12  H   -0.115839
 Sum of Mulliken charges =  -0.00000

 Dipole moment (field-independent basis, Debye):
    X=             -2.3251    Y=             -0.2457    Z=              0.6660  Tot=              2.4310

 Test job not archived.
 1\1\GINC-SE097\SP\RHF\Aug-CC-pVDZ\C4H5N3\OHZDE\09-Apr-2025\0\\#t hf au
 g-cc-pvdz iop(5/13=1,5/36=2,99/5=2) pseudo=read geom=check guess=(read
 ,tcheck) scf=(maxcycle=1)\\title\\0,1\N,0,-1.65083924,0.06766615,-0.93
 564715\C,0,-0.45447812,0.22417264,-0.25144367\C,0,-0.21704273,0.615362
 04,1.13508976\N,0,0.72119684,0.6802725,-0.75154209\C,0,1.76953182,-0.1
 3627507,-0.23171139\N,0,1.5692726,-0.95380262,0.73066015\C,0,0.1797803
 9,-0.72453926,1.00732876\H,0,-2.3470897,0.76124791,-0.71408654\H,0,-1.
 51455685,-0.03444137,-1.92980524\H,0,0.33211764,1.47237509,1.51146576\

 Normal termination of Gaussian 16 at Wed Apr  9 16:51:03 2025.
