 Gaussian 16, Revision C.01,

 ----------------------------------------------------------------------
 #t hf aug-cc-pvdz symm=none int=(grid=ultrafine) guess=(read,tcheck) s
 table=(opt,rrhf)
 ----------------------------------------------------------------------
 -----
 title
 -----
 Symbolic Z-matrix:
 Charge =  0 Multiplicity = 1

 SCF Done:  E(RHF) =  -307.659394452     A.U. after   17 cycles

 1\1\GINC-SE129\Stability\RHF\Aug-CC-pVDZ\C6H10O1\OHZDE\09-Apr-2025\0\\
 #t hf aug-cc-pvdz symm=none int=(grid=ultrafine) guess=(read,tcheck) s
 table=(opt,rrhf)\\title\\0,1\C,0,-2.04281785,0.26494077,-0.15200838\C,
 0,-0.55347907,0.09185649,0.00234478\C,0,0.402643,0.22145924,-1.1880223
 2\C,0,1.61517279,0.26772849,-0.29317011\O,0,2.57276025,-0.63559763,-0.
 51566929\C,0,0.09539914,-1.09355519,0.62225192\C,0,0.25918568,0.768609
 5,1.07079031\H,0,-2.43931421,-0.45216144,-0.87502359\H,0,-2.54622938,0
 .09555825,0.80273176\H,0,-2.2941528,1.27199561,-0.49405397\H,0,0.31404

 Normal termination of Gaussian 16 at Wed Apr  9 16:17:09 2025.
 Gaussian 16:  ES64L-G16RevC.01  3-Jul-2019

 ----------------------------------------------------------------------
 #t hf aug-cc-pvdz iop(5/13=1,5/36=2,99/5=2) pseudo=read geom=check gue
 ss=(read,tcheck) scf=(maxcycle=1)
 ----------------------------------------------------------------------
 -----
 title
 -----
 Structure from the checkpoint file:  "Grambow2020_wb97xd3_008046_reverse_mol1.chk"
 Charge =  0 Multiplicity = 1

                         Standard orientation:
 ---------------------------------------------------------------------
 Center     Atomic      Atomic             Coordinates (Angstroms)
 Number     Number       Type             X           Y           Z
 ---------------------------------------------------------------------
      1          6           0       -2.342802   -0.379964    0.110026
      2          6           0       -0.875970   -0.046535    0.014408
      3          6           0        0.191127   -1.134463   -0.145766
      4          6           0        1.259770   -0.127792   -0.488906
      5          8           0        2.364905   -0.131515    0.260186
      6          6           0       -0.136193    0.782908    1.001972
      7          6           0       -0.317820    1.009537   -0.898376
      8          1           0       -2.530365   -1.045705    0.956078
      9          1           0       -2.930423    0.529028    0.258611
     10          1           0       -2.700566   -0.870424   -0.798697
     11          1           0        0.032303   -1.818061   -0.985287
     12          1           0        0.332849   -1.710257    0.778833
     13          1           0        3.032297    0.403592   -0.177431
     14          1           0       -0.528928    1.750256    1.296299
     15          1           0        0.546004    0.323088    1.709984
     16          1           0       -0.728470    2.006250   -0.729033
     17          1           0       -0.112618    0.862202   -1.950999
 ---------------------------------------------------------------------

 SCF Done:  E(RHF) =  -307.752534056     A.U. after    2 cycles

 The electronic state is 1-A.
 Alpha  occ. eigenvalues --  -20.60376 -11.28896 -11.28073 -11.25647 -11.25184
 Alpha  occ. eigenvalues --  -11.22887 -11.22470  -1.36763  -1.15701  -0.97384
 Alpha  occ. eigenvalues --   -0.94572  -0.87485  -0.82595  -0.73799  -0.68742
 Alpha  occ. eigenvalues --   -0.65881  -0.63387  -0.61166  -0.58430  -0.56355
 Alpha  occ. eigenvalues --   -0.56072  -0.51527  -0.51202  -0.46739  -0.45425
 Alpha  occ. eigenvalues --   -0.38707  -0.25968
 Alpha virt. eigenvalues --    0.03387   0.03992   0.04341   0.04745   0.06187
 Alpha virt. eigenvalues --    0.06714   0.06864   0.07417   0.07655   0.09303
 Alpha virt. eigenvalues --    0.09663   0.11017   0.12035   0.13278   0.13604

 Mulliken charges:
               1
     1  C    0.781313
     2  C   -1.009948
     3  C    0.602755
     4  C   -0.019851
     5  O   -0.445227
     6  C    0.750821
     7  C    0.690575
     8  H    0.054242
     9  H    0.033799
    10  H    0.034545
    11  H   -0.131435
    12  H   -0.154031
    13  H    0.174120
    14  H   -0.406768
    15  H   -0.350292
    16  H   -0.292664
    17  H   -0.311953
 Sum of Mulliken charges =   0.00000

 Dipole moment (field-independent basis, Debye):
    X=             -0.6237    Y=              0.7691    Z=             -0.3677  Tot=              1.0563

 Test job not archived.
 1\1\GINC-SE129\SP\RHF\Aug-CC-pVDZ\C6H10O1\OHZDE\09-Apr-2025\0\\#t hf a
 ug-cc-pvdz iop(5/13=1,5/36=2,99/5=2) pseudo=read geom=check guess=(rea
 d,tcheck) scf=(maxcycle=1)\\title\\0,1\C,0,-2.04281785,0.26494077,-0.1
 5200838\C,0,-0.55347907,0.09185649,0.00234478\C,0,0.402643,0.22145924,
 -1.18802232\C,0,1.61517279,0.26772849,-0.29317011\O,0,2.57276025,-0.63
 559763,-0.51566929\C,0,0.09539914,-1.09355519,0.62225192\C,0,0.2591856
 8,0.7686095,1.07079031\H,0,-2.43931421,-0.45216144,-0.87502359\H,0,-2.
 54622938,0.09555825,0.80273176\H,0,-2.2941528,1.27199561,-0.49405397\H

 Normal termination of Gaussian 16 at Wed Apr  9 16:17:16 2025.
