 Gaussian 16, Revision C.01,

 ----------------------------------------------------------------------
 #t hf aug-cc-pvdz symm=none int=(grid=ultrafine) guess=(read,tcheck) s
 table=(opt,rrhf)
 ----------------------------------------------------------------------
 -----
 title
 -----
 Symbolic Z-matrix:
 Charge =  0 Multiplicity = 1

 SCF Done:  E(RHF) =  -269.980152690     A.U. after   12 cycles

 1\1\GINC-SE009\Stability\RHF\Aug-CC-pVDZ\C5H10O1\OHZDE\09-Apr-2025\0\\
 #t hf aug-cc-pvdz symm=none int=(grid=ultrafine) guess=(read,tcheck) s
 table=(opt,rrhf)\\title\\0,1\C,0,2.01021981,-1.38059783,0.93627481\O,0
 ,1.82865218,0.01585207,0.88651562\C,0,-0.48904027,1.11336303,-1.314614
 66\C,0,-1.26768989,1.5381358,-0.09033273\C,0,-1.57567738,0.02028099,0.
 09740042\C,0,-0.75330635,-0.18425111,-1.15511377\H,0,2.48507515,-1.769
 42757,0.02784721\H,0,1.0659637,-1.91722065,1.09063944\H,0,2.66494708,-
 1.59458253,1.78081889\H,0,0.06720172,1.67372254,-2.05648565\H,0,-0.681

 Normal termination of Gaussian 16 at Wed Apr  9 14:24:25 2025.
 Gaussian 16:  ES64L-G16RevC.01  3-Jul-2019

 ----------------------------------------------------------------------
 #t hf aug-cc-pvdz iop(5/13=1,5/36=2,99/5=2) pseudo=read geom=check gue
 ss=(read,tcheck) scf=(maxcycle=1)
 ----------------------------------------------------------------------
 -----
 title
 -----
 Structure from the checkpoint file:  "Grambow2020_wb97xd3_006206_reverse_mol2.chk"
 Charge =  0 Multiplicity = 1

                         Standard orientation:
 ---------------------------------------------------------------------
 Center     Atomic      Atomic             Coordinates (Angstroms)
 Number     Number       Type             X           Y           Z
 ---------------------------------------------------------------------
      1          6           0        2.625006    0.344840    0.019405
      2          8           0        1.822956   -0.783428   -0.243731
      3          6           0       -1.373634   -0.591356    0.836143
      4          6           0       -1.736600   -0.588109   -0.631453
      5          6           0       -1.222538    0.884882   -0.636028
      6          6           0       -0.935315    0.668384    0.832833
      7          1           0        2.844862    0.457036    1.087578
      8          1           0        2.165553    1.274147   -0.339348
      9          1           0        3.567750    0.205430   -0.509282
     10          1           0       -1.458504   -1.347625    1.607269
     11          1           0       -1.167627   -1.272776   -1.263111
     12          1           0       -2.799696   -0.703257   -0.850108
     13          1           0       -1.981438    1.636567   -0.860662
     14          1           0       -0.350873    1.059411   -1.269955
     15          1           0        0.987279   -0.671242    0.220756
     16          1           0       -0.532472    1.317885    1.601315
 ---------------------------------------------------------------------

 SCF Done:  E(RHF) =  -270.067801503     A.U. after    2 cycles

 The electronic state is 1-A.
 Alpha  occ. eigenvalues --  -20.55858 -11.27614 -11.24904 -11.24741 -11.24141
 Alpha  occ. eigenvalues --  -11.24067  -1.31094  -1.15152  -0.91760  -0.90713
 Alpha  occ. eigenvalues --   -0.88435  -0.71793  -0.70000  -0.68935  -0.63661
 Alpha  occ. eigenvalues --   -0.61862  -0.59853  -0.54884  -0.51526  -0.50350
 Alpha  occ. eigenvalues --   -0.47668  -0.46836  -0.45324  -0.36858
 Alpha virt. eigenvalues --    0.03320   0.04247   0.04509   0.04802   0.06150
 Alpha virt. eigenvalues --    0.06677   0.07114   0.07283   0.08607   0.09979
 Alpha virt. eigenvalues --    0.12011   0.12594   0.12875   0.13161   0.14245

 Mulliken charges:
               1
     1  C    0.831029
     2  O   -0.454983
     3  C    0.057773
     4  C    0.462443
     5  C    0.489762
     6  C    0.238219
     7  H   -0.119982
     8  H   -0.147219
     9  H   -0.239455
    10  H   -0.293533
    11  H   -0.160652
    12  H   -0.135246
    13  H   -0.136882
    14  H   -0.189641
    15  H    0.179546
    16  H   -0.381181
 Sum of Mulliken charges =  -0.00000

 Dipole moment (field-independent basis, Debye):
    X=             -0.9962    Y=              1.4486    Z=              0.8796  Tot=              1.9658

 Test job not archived.
 1\1\GINC-SE009\SP\RHF\Aug-CC-pVDZ\C5H10O1\OHZDE\09-Apr-2025\0\\#t hf a
 ug-cc-pvdz iop(5/13=1,5/36=2,99/5=2) pseudo=read geom=check guess=(rea
 d,tcheck) scf=(maxcycle=1)\\title\\0,1\C,0,2.01021981,-1.38059783,0.93
 627481\O,0,1.82865218,0.01585207,0.88651562\C,0,-0.48904027,1.11336303
 ,-1.31461466\C,0,-1.26768989,1.5381358,-0.09033273\C,0,-1.57567738,0.0
 2028099,0.09740042\C,0,-0.75330635,-0.18425111,-1.15511377\H,0,2.48507
 515,-1.76942757,0.02784721\H,0,1.0659637,-1.91722065,1.09063944\H,0,2.
 66494708,-1.59458253,1.78081889\H,0,0.06720172,1.67372254,-2.05648565\

 Normal termination of Gaussian 16 at Wed Apr  9 14:24:30 2025.
