 Gaussian 16, Revision C.01,

 ----------------------------------------------------------------------
 #t hf aug-cc-pvdz symm=none int=(grid=ultrafine) guess=(read,tcheck) s
 table=(opt,rrhf)
 ----------------------------------------------------------------------
 -----
 title
 -----
 Symbolic Z-matrix:
 Charge =  0 Multiplicity = 1

 SCF Done:  E(RHF) =  -268.662666467     a.u. after    9 cycles
 Normal termination of Gaussian 16 at Wed Apr  9 03:18:11 2025.
 Gaussian 16:  ES64L-G16RevC.01  3-Jul-2019

 ----------------------------------------------------------------------
 #t hf aug-cc-pvdz iop(5/13=1,5/36=2,99/5=2) pseudo=read geom=check gue
 ss=(read,tcheck) scf=(maxcycle=1)
 ----------------------------------------------------------------------
 -----
 title
 -----
 Structure from the checkpoint file:  "Grambow2020_b97d3_007072_reverse_mol2.chk"
 Charge =  0 Multiplicity = 1

                         Standard orientation:
 ---------------------------------------------------------------------
 Center     Atomic      Atomic             Coordinates (Angstroms)
 Number     Number       Type             X           Y           Z
 ---------------------------------------------------------------------
      1          6           0       -2.202124   -0.010374    0.013998
      2          6           0       -0.717109    0.019027   -0.087567
      3          6           0        0.137308    1.251709   -0.018824
      4          6           0        1.516286    0.666162    0.134447
      5          8           0        1.515916   -0.708024   -0.043295
      6          6           0        0.158186   -1.187285    0.015588
      7          1           0       -2.615347   -0.967661   -0.338242
      8          1           0       -2.661858    0.795367   -0.579692
      9          1           0       -2.552234    0.128215    1.056359
     10          1           0        0.020460    1.883112   -0.927160
     11          1           0       -0.144123    1.908521    0.830306
     12          1           0        2.440867    1.135306   -0.196172
     13          1           0        0.011630   -1.744476    0.963948
     14          1           0        0.017987   -1.909626   -0.808840
 ---------------------------------------------------------------------

 SCF Done:  E(RHF) =  -268.743372435     A.U. after    2 cycles

 The electronic state is 1-A.
 Alpha  occ. eigenvalues --  -20.63817 -11.36281 -11.30125 -11.25269 -11.23101
 Alpha  occ. eigenvalues --  -11.21692  -1.38667  -1.06088  -1.00848  -0.93657
 Alpha  occ. eigenvalues --   -0.81652  -0.76202  -0.69917  -0.67378  -0.62052
 Alpha  occ. eigenvalues --   -0.57597  -0.56859  -0.55005  -0.54173  -0.51621
 Alpha  occ. eigenvalues --   -0.50005  -0.47666  -0.18654
 Alpha virt. eigenvalues --    0.00695   0.03528   0.04197   0.05014   0.05335
 Alpha virt. eigenvalues --    0.06313   0.06827   0.07661   0.07886   0.10060
 Alpha virt. eigenvalues --    0.11531   0.12798   0.13193   0.14802   0.15269

 Mulliken charges:
               1
     1  C    0.485614
     2  C   -0.854153
     3  C   -0.058225
     4  C    0.757255
     5  O   -0.553021
     6  C    0.691952
     7  H   -0.080049
     8  H   -0.045271
     9  H    0.086707
    10  H   -0.035425
    11  H   -0.029962
    12  H   -0.278019
    13  H   -0.036543
    14  H   -0.050860
 Sum of Mulliken charges =   0.00000

 Dipole moment (field-independent basis, Debye):
    X=              0.2573    Y=              0.2901    Z=              0.0515  Tot=              0.3912

 Test job not archived.
 1\1\GINC-SE092\SP\RHF\Aug-CC-pVDZ\C5H8O1\OHZDE\09-Apr-2025\0\\#t hf au
 g-cc-pvdz iop(5/13=1,5/36=2,99/5=2) pseudo=read geom=check guess=(read
 ,tcheck) scf=(maxcycle=1)\\title\\0,1\C,0,-1.77357889,0.42926691,-0.32
 19983\C,0,-0.35445407,0.0201463,-0.13450145\C,0,0.8309083,0.9407991,-0
 .17417451\C,0,1.92539764,0.0623671,0.37207559\O,0,1.51220436,-1.253395
 86,0.50630919\C,0,0.07586754,-1.30589411,0.40253619\H,0,-2.42270547,-0
 .43535674,-0.52763463\H,0,-1.88052962,1.13879693,-1.15756447\H,0,-2.18
 427813,0.93515253,0.57449776\H,0,1.02931816,1.3100753,-1.20454609\H,0,

 Normal termination of Gaussian 16 at Wed Apr  9 03:18:15 2025.
