 Gaussian 16, Revision C.01,

 ----------------------------------------------------------------------
 #t hf aug-cc-pvdz symm=none int=(grid=ultrafine) guess=(read,tcheck) s
 table=(opt,rrhf)
 ----------------------------------------------------------------------
 -----
 title
 -----
 Symbolic Z-matrix:
 Charge =  0 Multiplicity = 1

 SCF Done:  E(RHF) =  -317.653390283     A.U. after   16 cycles
 Normal termination of Gaussian 16 at Wed Apr  9 16:16:46 2025.
 Gaussian 16:  ES64L-G16RevC.01  3-Jul-2019

 ----------------------------------------------------------------------
 #t hf aug-cc-pvdz iop(5/13=1,5/36=2,99/5=2) pseudo=read geom=check gue
 ss=(read,tcheck) scf=(maxcycle=1)
 ----------------------------------------------------------------------
 -----
 title
 -----
 Structure from the checkpoint file:  "Grambow2020_wb97xd3_008058_reverse_mol2.chk"
 Charge =  0 Multiplicity = 1

                         Standard orientation:
 ---------------------------------------------------------------------
 Center     Atomic      Atomic             Coordinates (Angstroms)
 Number     Number       Type             X           Y           Z
 ---------------------------------------------------------------------
      1          7           0        2.532984    0.030113   -0.698383
      2          6           0        1.597818    0.010076   -0.031474
      3          6           0        0.341711    0.016868    0.810759
      4          6           0       -0.591452    1.167002    0.508804
      5          7           0       -1.418550    0.631411   -0.476118
      6          6           0       -1.394710   -0.668113   -0.523699
      7          7           0       -0.531131   -1.109982    0.457024
      8          1           0        0.659828   -0.043367    1.851713
      9          1           0       -2.072299    1.184613   -1.003114
     10          1           0       -0.189856    2.149867    0.303488
     11          1           0       -2.091654   -1.290599   -1.057213
     12          1           0       -0.109340   -2.016302    0.341127
 ---------------------------------------------------------------------

 SCF Done:  E(RHF) =  -317.745856617     A.U. after    2 cycles

 The electronic state is 1-A.
 Alpha  occ. eigenvalues --  -15.72828 -15.67695 -15.62937 -11.35469 -11.32797
 Alpha  occ. eigenvalues --  -11.27033 -11.22151  -1.34106  -1.19559  -1.17624
 Alpha  occ. eigenvalues --   -1.03724  -0.89056  -0.87219  -0.78408  -0.71530
 Alpha  occ. eigenvalues --   -0.67948  -0.63370  -0.61635  -0.57120  -0.55085
 Alpha  occ. eigenvalues --   -0.53581  -0.47305  -0.45712  -0.43906  -0.24778
 Alpha virt. eigenvalues --    0.01895   0.03154   0.04009   0.05729   0.06608
 Alpha virt. eigenvalues --    0.07285   0.09802   0.11167   0.11735   0.11875
 Alpha virt. eigenvalues --    0.12184   0.13243   0.13653   0.14323   0.14823

 Mulliken charges:
               1
     1  N   -0.172531
     2  C   -0.435364
     3  C    1.004597
     4  C    0.433157
     5  N   -0.274412
     6  C    0.927876
     7  N   -0.623595
     8  H   -0.166673
     9  H   -0.047383
    10  H   -0.390687
    11  H   -0.218457
    12  H   -0.036529
 Sum of Mulliken charges =   0.00000

 Dipole moment (field-independent basis, Debye):
    X=             -4.4393    Y=             -2.0768    Z=             -1.2094  Tot=              5.0481

 Test job not archived.
 1\1\GINC-SE042\SP\RHF\Aug-CC-pVDZ\C4H5N3\OHZDE\09-Apr-2025\0\\#t hf au
 g-cc-pvdz iop(5/13=1,5/36=2,99/5=2) pseudo=read geom=check guess=(read
 ,tcheck) scf=(maxcycle=1)\\title\\0,1\N,0,1.97644313,-0.89999221,1.911
 92153\C,0,1.52317108,-0.56966268,0.9093586\C,0,0.8799635,-0.16032132,-
 0.39675382\C,0,-0.33071735,-0.98570732,-0.76792555\N,0,-1.37320858,-0.
 266993,-0.18682281\C,0,-1.05842001,0.96111989,0.10341959\N,0,0.2518006
 9,1.16187284,-0.27849086\H,0,1.66913853,-0.15528459,-1.1488103\H,0,-2.
 31348514,-0.61809751,-0.12557986\H,0,-0.33493379,-2.0517787,-0.5864548

 Normal termination of Gaussian 16 at Wed Apr  9 16:16:51 2025.
