 Gaussian 16, Revision C.01,

 ----------------------------------------------------------------------
 #t hf aug-cc-pvdz symm=none int=(grid=ultrafine) guess=(read,tcheck) s
 table=(opt,rrhf)
 ----------------------------------------------------------------------
 -----
 title
 -----
 Symbolic Z-matrix:
 Charge =  0 Multiplicity = 1

 SCF Done:  E(RHF) =  -306.513732397     A.U. after   15 cycles
 Normal termination of Gaussian 16 at Wed Apr  9 16:25:08 2025.
 Gaussian 16:  ES64L-G16RevC.01  3-Jul-2019

 ----------------------------------------------------------------------
 #t hf aug-cc-pvdz iop(5/13=1,5/36=2,99/5=2) pseudo=read geom=check gue
 ss=(read,tcheck) scf=(maxcycle=1)
 ----------------------------------------------------------------------
 -----
 title
 -----
 Structure from the checkpoint file:  "Grambow2020_wb97xd3_008211_reverse_mol1.chk"
 Charge =  0 Multiplicity = 1

                         Standard orientation:
 ---------------------------------------------------------------------
 Center     Atomic      Atomic             Coordinates (Angstroms)
 Number     Number       Type             X           Y           Z
 ---------------------------------------------------------------------
      1          6           0       -1.087231   -0.725037    0.715906
      2          8           0       -1.771637    0.412051    0.008208
      3          6           0       -0.370485    0.702467   -0.595048
      4          6           0        0.744179    1.241531    0.237092
      5          6           0        1.681551    0.295000    0.329995
      6          6           0        1.266848   -1.035740   -0.282149
      7          6           0       -0.218587   -0.812649   -0.542340
      8          1           0       -0.652340   -0.308366    1.628873
      9          1           0       -1.807013   -1.509885    0.944584
     10          1           0       -0.552524    1.256794   -1.517121
     11          1           0        0.850646    2.266508    0.568381
     12          1           0        2.651756    0.456306    0.789814
     13          1           0        1.839233   -1.228756   -1.194644
     14          1           0        1.472675   -1.872806    0.392009
     15          1           0       -1.726981   -0.349635   -0.858296
 ---------------------------------------------------------------------

 SCF Done:  E(RHF) =  -306.603871860     A.U. after    2 cycles

 The electronic state is 1-A.
 Alpha  occ. eigenvalues --  -20.65024 -11.31059 -11.29927 -11.25540 -11.24142
 Alpha  occ. eigenvalues --  -11.23075 -11.19146  -1.40627  -1.12841  -0.98253
 Alpha  occ. eigenvalues --   -0.94769  -0.91534  -0.79519  -0.73017  -0.72427
 Alpha  occ. eigenvalues --   -0.68052  -0.64386  -0.60403  -0.57836  -0.55078
 Alpha  occ. eigenvalues --   -0.54354  -0.50983  -0.46690  -0.44825  -0.37318
 Alpha  occ. eigenvalues --   -0.29997
 Alpha virt. eigenvalues --    0.03347   0.04212   0.04443   0.04760   0.06095
 Alpha virt. eigenvalues --    0.06551   0.06930   0.07641   0.09214   0.11462
 Alpha virt. eigenvalues --    0.12986   0.13162   0.13781   0.14054   0.14689

 Mulliken charges:
               1
     1  C    0.960235
     2  O   -0.855410
     3  C    0.787749
     4  C    0.231597
     5  C    0.172804
     6  C    0.490531
     7  C   -0.889937
     8  H   -0.220485
     9  H   -0.226252
    10  H   -0.343236
    11  H   -0.294197
    12  H   -0.318962
    13  H   -0.043166
    14  H   -0.025242
    15  H    0.573972
 Sum of Mulliken charges =  -0.00000

 Dipole moment (field-independent basis, Debye):
    X=              0.9076    Y=              0.8408    Z=              1.2041  Tot=              1.7264

 Test job not archived.
 1\1\GINC-SE163\SP\RHF\Aug-CC-pVDZ\C6H8O1\OHZDE\09-Apr-2025\0\\#t hf au
 g-cc-pvdz iop(5/13=1,5/36=2,99/5=2) pseudo=read geom=check guess=(read
 ,tcheck) scf=(maxcycle=1)\\title\\0,1\C,0,-1.32120889,-0.35412839,-0.7
 2998975\O,0,-1.2921728,-1.48927941,0.25632074\C,0,-0.02356208,-0.79136
 736,0.81759744\C,0,1.25945325,-0.76877099,0.05675384\C,0,1.4994234,0.4
 9396939,-0.30535043\C,0,0.35891313,1.44852631,0.01965122\C,0,-0.753281
 97,0.48513994,0.41826506\H,0,-0.65921245,-0.63825667,-1.55296228\H,0,-
 2.33916637,-0.1905864,-1.08124825\H,0,0.07132753,-1.13185794,1.8499243

 Normal termination of Gaussian 16 at Wed Apr  9 16:25:13 2025.
