 Gaussian 16, Revision C.01,

 ----------------------------------------------------------------------
 #t hf aug-cc-pvdz symm=none int=(grid=ultrafine) guess=(read,tcheck) s
 table=(opt,rrhf)
 ----------------------------------------------------------------------
 -----
 title
 -----
 Symbolic Z-matrix:
 Charge =  0 Multiplicity = 1

 SCF Done:  E(RHF) =  -224.754474637     A.U. after   14 cycles
 Normal termination of Gaussian 16 at Wed Apr  9 14:15:58 2025.
 Gaussian 16:  ES64L-G16RevC.01  3-Jul-2019

 ----------------------------------------------------------------------
 #t hf aug-cc-pvdz iop(5/13=1,5/36=2,99/5=2) pseudo=read geom=check gue
 ss=(read,tcheck) scf=(maxcycle=1)
 ----------------------------------------------------------------------
 -----
 title
 -----
 Structure from the checkpoint file:  "Grambow2020_b97d3_006887_reverse_mol2.chk"
 Charge =  0 Multiplicity = 1

                         Standard orientation:
 ---------------------------------------------------------------------
 Center     Atomic      Atomic             Coordinates (Angstroms)
 Number     Number       Type             X           Y           Z
 ---------------------------------------------------------------------
      1          7           0        1.564474   -0.689302    0.049398
      2          6           0        1.071606    0.492775   -0.030929
      3          6           0       -0.388271    0.693516   -0.197639
      4          6           0       -1.259047   -0.443756   -0.469821
      5          7           0       -1.341205   -0.132281    0.747785
      6          1           0        2.584217   -0.643123    0.178247
      7          1           0        1.661747    1.425584    0.008022
      8          1           0       -0.730010    1.709171   -0.408915
      9          1           0       -1.624567   -1.195759   -1.167296
 ---------------------------------------------------------------------

 SCF Done:  E(RHF) =  -224.817954262     A.U. after    2 cycles

 The electronic state is 1-A.
 Alpha  occ. eigenvalues --  -15.67227 -15.62930 -11.31886 -11.30738 -11.29607
 Alpha  occ. eigenvalues --   -1.28406  -1.17635  -0.94085  -0.80182  -0.77117
 Alpha  occ. eigenvalues --   -0.71141  -0.63616  -0.61454  -0.54262  -0.47734
 Alpha  occ. eigenvalues --   -0.44086  -0.42556  -0.38223
 Alpha virt. eigenvalues --    0.03057   0.03640   0.04399   0.06683   0.08058
 Alpha virt. eigenvalues --    0.09785   0.10127   0.12218   0.13024   0.13625
 Alpha virt. eigenvalues --    0.13899   0.14097   0.15379   0.16000   0.17201

 Mulliken charges:
               1
     1  N   -0.441248
     2  C    0.659834
     3  C    0.435781
     4  C    0.510899
     5  N   -0.525443
     6  H    0.049141
     7  H   -0.257666
     8  H   -0.298540
     9  H   -0.132758
 Sum of Mulliken charges =  -0.00000

 Dipole moment (field-independent basis, Debye):
    X=              0.7361    Y=              1.6614    Z=             -2.2196  Tot=              2.8686

 Test job not archived.
 1\1\GINC-SE039\SP\RHF\Aug-CC-pVDZ\C3H4N2\OHZDE\09-Apr-2025\0\\#t hf au
 g-cc-pvdz iop(5/13=1,5/36=2,99/5=2) pseudo=read geom=check guess=(read
 ,tcheck) scf=(maxcycle=1)\\title\\0,1\N,0,-1.43129857,-0.60240001,0.51
 883831\C,0,-0.88661327,0.42989465,-0.01441787\C,0,0.56710278,0.4515962
 4,-0.30694019\C,0,1.43054713,-0.61551554,0.18444466\N,0,1.17422243,-0.
 8082935,-1.03353127\H,0,-2.44241709,-0.45236107,0.63604883\H,0,-1.4233
 4354,1.35628825,-0.28576995\H,0,0.99752482,1.40536319,-0.62005782\H,0,
 1.94814732,-1.09150922,1.01577229\\Version=ES64L-G16RevC.01\State=1-A\

 Normal termination of Gaussian 16 at Wed Apr  9 14:16:01 2025.
