 Gaussian 16, Revision C.01,

 ----------------------------------------------------------------------
 #t hf aug-cc-pvdz symm=none int=(grid=ultrafine) guess=(read,tcheck) s
 table=(opt,rrhf)
 ----------------------------------------------------------------------
 -----
 title
 -----
 Symbolic Z-matrix:
 Charge =  0 Multiplicity = 1

 SCF Done:  E(RHF) =  -343.620642447     A.U. after   14 cycles
 Normal termination of Gaussian 16 at Wed Apr  9 16:22:06 2025.
 Gaussian 16:  ES64L-G16RevC.01  3-Jul-2019

 ----------------------------------------------------------------------
 #t hf aug-cc-pvdz iop(5/13=1,5/36=2,99/5=2) pseudo=read geom=check gue
 ss=(read,tcheck) scf=(maxcycle=1)
 ----------------------------------------------------------------------
 -----
 title
 -----
 Structure from the checkpoint file:  "Grambow2020_wb97xd3_008126_forward_mol1.chk"
 Charge =  0 Multiplicity = 1

                         Standard orientation:
 ---------------------------------------------------------------------
 Center     Atomic      Atomic             Coordinates (Angstroms)
 Number     Number       Type             X           Y           Z
 ---------------------------------------------------------------------
      1          6           0       -0.498645    1.271535    0.089092
      2          8           0       -1.563146    0.431197   -0.529723
      3          6           0       -1.370325   -0.770295   -0.230641
      4          6           0       -0.314453   -1.047361    0.714130
      5          6           0        0.378793    0.308816    0.887288
      6          6           0        1.717553    0.161536    0.088004
      7          8           0        1.415596   -0.419265   -1.080549
      8          1           0       -1.030144    2.042215    0.643729
      9          1           0        0.032443    1.674631   -0.773043
     10          1           0       -2.042695   -1.488810   -0.693819
     11          1           0        0.390382   -1.683667    0.133232
     12          1           0       -0.692238   -1.569684    1.597144
     13          1           0        0.470272    0.608205    1.933403
     14          1           0        2.153166    1.185647    0.016864
     15          1           0        2.421683   -0.409378    0.737420
 ---------------------------------------------------------------------

 SCF Done:  E(RHF) =  -343.726852125     A.U. after    2 cycles

 The electronic state is 1-A.
 Alpha  occ. eigenvalues --  -20.71224 -20.40411 -11.44189 -11.32870 -11.27154
 Alpha  occ. eigenvalues --  -11.24590 -11.23012  -1.50432  -1.18076  -1.09712
 Alpha  occ. eigenvalues --   -1.06699  -0.90222  -0.85415  -0.81306  -0.76314
 Alpha  occ. eigenvalues --   -0.73594  -0.68400  -0.63798  -0.61784  -0.59034
 Alpha  occ. eigenvalues --   -0.54877  -0.54507  -0.50178  -0.48924  -0.46338
 Alpha  occ. eigenvalues --   -0.32158  -0.31399
 Alpha virt. eigenvalues --    0.01521   0.03174   0.03748   0.03997   0.05420
 Alpha virt. eigenvalues --    0.06220   0.07080   0.07456   0.07750   0.10136
 Alpha virt. eigenvalues --    0.11642   0.11950   0.12582   0.13174   0.13466

 Mulliken charges:
               1
     1  C    0.953444
     2  O   -0.464254
     3  C    0.707668
     4  C    0.071169
     5  C   -0.330849
     6  C    0.838085
     7  O   -0.927399
     8  H   -0.189707
     9  H   -0.099032
    10  H   -0.238518
    11  H    0.262911
    12  H   -0.046760
    13  H   -0.193623
    14  H   -0.168219
    15  H   -0.174916
 Sum of Mulliken charges =   0.00000

 Dipole moment (field-independent basis, Debye):
    X=             -7.0125    Y=             -0.1399    Z=              4.3925  Tot=              8.2758

 Test job not archived.
 1\1\GINC-SE087\SP\RHF\Aug-CC-pVDZ\C5H8O2\OHZDE\09-Apr-2025\0\\#t hf au
 g-cc-pvdz iop(5/13=1,5/36=2,99/5=2) pseudo=read geom=check guess=(read
 ,tcheck) scf=(maxcycle=1)\\title\\0,1\C,0,-1.06713125,0.80118254,0.413
 61294\O,0,-1.06342457,1.14837321,-1.03611402\C,0,-0.37273484,0.3109375
 5,-1.66210375\C,0,0.11399414,-0.82431502,-0.91476246\C,0,-0.25047027,-
 0.48420288,0.53481743\C,0,1.11400057,-0.08328448,1.19079586\O,0,1.7398
 4409,0.7299351,0.32997281\H,0,-2.11775132,0.75566034,0.69323014\H,0,-0
 .55339931,1.64561484,0.87277669\H,0,-0.23202612,0.50882293,-2.72225512

 Normal termination of Gaussian 16 at Wed Apr  9 16:22:12 2025.
