 Gaussian 16, Revision C.01,

 ----------------------------------------------------------------------
 #t hf aug-cc-pvdz symm=none int=(grid=ultrafine) guess=(read,tcheck) s
 table=(opt,rrhf)
 ----------------------------------------------------------------------
 -----
 title
 -----
 Symbolic Z-matrix:
 Charge =  0 Multiplicity = 1

 SCF Done:  E(RHF) =  -264.872171410     A.U. after   16 cycles
 Normal termination of Gaussian 16 at Wed Apr  9 14:15:17 2025.
 Gaussian 16:  ES64L-G16RevC.01  3-Jul-2019

 ----------------------------------------------------------------------
 #t hf aug-cc-pvdz iop(5/13=1,5/36=2,99/5=2) pseudo=read geom=check gue
 ss=(read,tcheck) scf=(maxcycle=1)
 ----------------------------------------------------------------------
 -----
 title
 -----
 Structure from the checkpoint file:  "Grambow2020_b97d3_006849_forward_mol1.chk"
 Charge =  0 Multiplicity = 1

                         Standard orientation:
 ---------------------------------------------------------------------
 Center     Atomic      Atomic             Coordinates (Angstroms)
 Number     Number       Type             X           Y           Z
 ---------------------------------------------------------------------
      1          6           0       -1.465500   -1.079925    0.098243
      2          7           0       -0.105858   -1.085106   -0.141396
      3          6           0        0.686478   -0.015581    0.371640
      4          6           0        2.126812   -0.031426   -0.122934
      5          6           0       -0.080614    1.389370    0.030785
      6          7           0       -1.289641    1.289145   -0.153612
      7          1           0       -1.756290   -1.053537    1.148962
      8          1           0       -2.058629   -1.717270   -0.557170
      9          1           0       -2.250658    1.133272   -0.389952
     10          1           0        0.117979   -1.272822   -1.119521
     11          1           0        0.646030   -0.023811    1.470921
     12          1           0        2.642851    0.865949    0.237390
     13          1           0        2.663620   -0.921224    0.230858
     14          1           0        2.160531   -0.013454   -1.222836
 ---------------------------------------------------------------------

 SCF Done:  E(RHF) =  -264.953125388     A.U. after    2 cycles

 The electronic state is 1-A.
 Alpha  occ. eigenvalues --  -15.66911 -15.64152 -11.29180 -11.28922 -11.26996
 Alpha  occ. eigenvalues --  -11.23787  -1.23714  -1.16132  -1.02372  -0.89554
 Alpha  occ. eigenvalues --   -0.84989  -0.80833  -0.68832  -0.65437  -0.63925
 Alpha  occ. eigenvalues --   -0.56934  -0.55011  -0.53324  -0.52768  -0.48081
 Alpha  occ. eigenvalues --   -0.45193  -0.41074  -0.24104
 Alpha virt. eigenvalues --    0.03056   0.03879   0.03950   0.05165   0.06199
 Alpha virt. eigenvalues --    0.06851   0.07240   0.08965   0.09023   0.11198
 Alpha virt. eigenvalues --    0.11844   0.12828   0.13047   0.14805   0.15144

 Mulliken charges:
               1
     1  C    0.583095
     2  N   -0.352121
     3  C    0.227966
     4  C    0.558789
     5  C   -0.218034
     6  N   -0.104942
     7  H   -0.243502
     8  H   -0.259781
     9  H    0.037710
    10  H    0.018323
    11  H   -0.166713
    12  H   -0.039739
    13  H    0.006674
    14  H   -0.047726
 Sum of Mulliken charges =   0.00000

 Dipole moment (field-independent basis, Debye):
    X=             -0.8274    Y=             -2.7998    Z=             -0.6788  Tot=              2.9974

 Test job not archived.
 1\1\GINC-SE018\SP\RHF\Aug-CC-pVDZ\C4H8N2\OHZDE\09-Apr-2025\0\\#t hf au
 g-cc-pvdz iop(5/13=1,5/36=2,99/5=2) pseudo=read geom=check guess=(read
 ,tcheck) scf=(maxcycle=1)\\title\\0,1\C,0,1.795276,-0.08697953,0.37787
 628\N,0,0.56008123,-0.69616476,0.28159893\C,0,-0.45037537,-0.07909863,
 -0.51407249\C,0,-1.81739432,-0.73744293,-0.38270585\C,0,-0.48117655,1.
 51476211,-0.14372476\N,0,0.55829621,1.95630132,0.33620613\H,0,2.310051
 95,0.08141319,-0.56865154\H,0,2.41045103,-0.40664057,1.21868167\H,0,1.
 39383876,2.23752818,0.81211372\H,0,0.19154644,-0.9785484,1.19072411\H,

 Normal termination of Gaussian 16 at Wed Apr  9 14:15:22 2025.
