 Gaussian 16, Revision C.01,

 ----------------------------------------------------------------------
 #t hf aug-cc-pvdz symm=none int=(grid=ultrafine) guess=(read,tcheck) s
 table=(opt,rrhf)
 ----------------------------------------------------------------------
 -----
 title
 -----
 Symbolic Z-matrix:
 Charge =  0 Multiplicity = 1

 SCF Done:  E(RHF) =  -323.750907593     A.U. after   15 cycles
 Normal termination of Gaussian 16 at Wed Apr  9 15:23:08 2025.
 Gaussian 16:  ES64L-G16RevC.01  3-Jul-2019

 ----------------------------------------------------------------------
 #t hf aug-cc-pvdz iop(5/13=1,5/36=2,99/5=2) pseudo=read geom=check gue
 ss=(read,tcheck) scf=(maxcycle=1)
 ----------------------------------------------------------------------
 -----
 title
 -----
 Structure from the checkpoint file:  "Grambow2020_wb97xd3_006867_reverse_mol2.chk"
 Charge =  0 Multiplicity = 1

                         Standard orientation:
 ---------------------------------------------------------------------
 Center     Atomic      Atomic             Coordinates (Angstroms)
 Number     Number       Type             X           Y           Z
 ---------------------------------------------------------------------
      1          6           0       -2.130590    1.030439   -0.063168
      2          7           0       -1.293813    0.059739   -0.188997
      3          6           0       -1.216899   -1.403498   -0.083501
      4          6           0       -0.100629   -0.487470   -0.314597
      5          6           0        1.262517   -0.113476   -0.105284
      6          8           0        2.148449   -0.930974    0.062010
      7          6           0        1.523702    1.378697   -0.107431
      8          1           0       -0.738735    0.346225    2.678456
      9          1           0       -3.176597    0.799867    0.064351
     10          1           0       -1.767566    2.046416   -0.120358
     11          1           0       -1.433282   -1.792059    0.911744
     12          1           0       -1.656803   -1.959178   -0.908676
     13          1           0       -0.142074   -0.082681    2.544719
     14          1           0        2.597089    1.553115   -0.083150
     15          1           0        1.091894    1.853470   -0.990947
     16          1           0        1.066567    1.836281    0.774653
 ---------------------------------------------------------------------

 SCF Done:  E(RHF) =  -323.856034348     A.U. after    2 cycles

 The electronic state is 1-A.
 Alpha  occ. eigenvalues --  -20.52821 -15.75772 -11.33448 -11.31631 -11.30724
 Alpha  occ. eigenvalues --  -11.26458 -11.23768  -1.34792  -1.32185  -1.09308
 Alpha  occ. eigenvalues --   -1.01080  -0.89982  -0.84422  -0.76077  -0.69716
 Alpha  occ. eigenvalues --   -0.69349  -0.66817  -0.62007  -0.60300  -0.59014
 Alpha  occ. eigenvalues --   -0.56651  -0.54158  -0.51672  -0.51067  -0.49959
 Alpha  occ. eigenvalues --   -0.41615  -0.28799
 Alpha virt. eigenvalues --    0.02706   0.03463   0.04175   0.05008   0.06147
 Alpha virt. eigenvalues --    0.06528   0.06938   0.08033   0.08421   0.09090
 Alpha virt. eigenvalues --    0.10739   0.11247   0.11850   0.13114   0.13660

 Mulliken charges:
               1
     1  C    0.575472
     2  N   -0.180966
     3  C    0.939346
     4  C   -0.135349
     5  C    0.178038
     6  O   -0.602374
     7  C    0.266008
     8  H    0.038453
     9  H   -0.317985
    10  H   -0.332102
    11  H   -0.241206
    12  H   -0.189401
    13  H    0.019196
    14  H   -0.095696
    15  H    0.027065
    16  H    0.051502
 Sum of Mulliken charges =  -0.00000

 Dipole moment (field-independent basis, Debye):
    X=             -5.2021    Y=              2.5909    Z=              0.0284  Tot=              5.8117

 Test job not archived.
 1\1\GINC-SE100\SP\RHF\Aug-CC-pVDZ\C5H9N1O1\OHZDE\09-Apr-2025\0\\#t hf
 aug-cc-pvdz iop(5/13=1,5/36=2,99/5=2) pseudo=read geom=check guess=(re
 ad,tcheck) scf=(maxcycle=1)\\title\\0,1\C,0,1.41090067,0.88817133,-1.2
 3345748\N,0,1.08001818,0.18263517,-0.20826281\C,0,1.49293715,-1.014431
 06,0.53647689\C,0,0.29240143,-0.2134156,0.77240239\C,0,-1.08994182,-0.
 12137209,1.12240744\O,0,-1.6245419,-0.89785126,1.89211401\C,0,-1.84194
 946,1.01664693,0.46346859\H,0,-0.54784257,-1.44790186,-2.02592367\H,0,
 2.34630611,0.67752248,-1.72762196\H,0,0.75983867,1.68999082,-1.5504253

 Normal termination of Gaussian 16 at Wed Apr  9 15:23:14 2025.
