 Gaussian 16, Revision C.01,

 ----------------------------------------------------------------------
 #t hf aug-cc-pvdz symm=none int=(grid=ultrafine) guess=(read,tcheck) s
 table=(opt,rrhf)
 ----------------------------------------------------------------------
 -----
 title
 -----
 Symbolic Z-matrix:
 Charge =  0 Multiplicity = 1

 SCF Done:  E(RHF) =  -269.807779753     A.U. after   17 cycles

 1\1\GINC-SE054\Stability\RHF\Aug-CC-pVDZ\C5H10O1\OHZDE\09-Apr-2025\0\\
 #t hf aug-cc-pvdz symm=none int=(grid=ultrafine) guess=(read,tcheck) s
 table=(opt,rrhf)\\title\\0,1\C,0,-1.24421391,-1.19237428,-0.15749268\C
 ,0,-0.38750091,0.05645315,-0.11412722\C,0,-1.16078622,1.34522183,0.057
 43816\C,0,0.99216261,-0.0249714,0.64959712\C,0,1.56069833,-0.1218115,-
 0.67820349\O,0,0.4506536,0.10755481,-1.41285408\H,0,-1.993077,-1.12874
 502,-0.95863527\H,0,-1.77171662,-1.29567882,0.80108248\H,0,-0.62868272
 ,-2.08721219,-0.31181461\H,0,-1.97242934,1.42587472,-0.67846689\H,0,-0

 Normal termination of Gaussian 16 at Wed Apr  9 14:01:15 2025.
 Gaussian 16:  ES64L-G16RevC.01  3-Jul-2019

 ----------------------------------------------------------------------
 #t hf aug-cc-pvdz iop(5/13=1,5/36=2,99/5=2) pseudo=read geom=check gue
 ss=(read,tcheck) scf=(maxcycle=1)
 ----------------------------------------------------------------------
 -----
 title
 -----
 Structure from the checkpoint file:  "Grambow2020_b97d3_006760_forward_mol1.chk"
 Charge =  0 Multiplicity = 1

                         Standard orientation:
 ---------------------------------------------------------------------
 Center     Atomic      Atomic             Coordinates (Angstroms)
 Number     Number       Type             X           Y           Z
 ---------------------------------------------------------------------
      1          6           0        1.136681    1.316954    0.315371
      2          6           0        0.433362   -0.005337    0.086687
      3          6           0        1.356743   -1.197535   -0.033149
      4          6           0       -0.922056   -0.259456    0.855870
      5          6           0       -1.538856    0.055137   -0.415450
      6          8           0       -0.432914    0.127103   -1.187610
      7          1           0        1.862679    1.520334   -0.483527
      8          1           0        1.677950    1.271722    1.270765
      9          1           0        0.416418    2.142924    0.364600
     10          1           0        2.149069   -1.017285   -0.772442
     11          1           0        0.801341   -2.099034   -0.320316
     12          1           0        1.830937   -1.379404    0.942542
     13          1           0       -1.440211    0.308280    1.687850
     14          1           0       -0.949657   -1.299187    1.198945
     15          1           0       -2.495933    0.411421   -0.776032
     16          1           0       -3.184528   -0.335159    1.532523
 ---------------------------------------------------------------------

 SCF Done:  E(RHF) =  -269.892372018     A.U. after    2 cycles

 The electronic state is 1-A.
 Alpha  occ. eigenvalues --  -20.69219 -11.44282 -11.37022 -11.28977 -11.27852
 Alpha  occ. eigenvalues --  -11.27784  -1.45994  -1.11820  -1.06057  -0.98964
 Alpha  occ. eigenvalues --   -0.91182  -0.79028  -0.75609  -0.71646  -0.70201
 Alpha  occ. eigenvalues --   -0.64719  -0.61830  -0.59725  -0.57919  -0.56233
 Alpha  occ. eigenvalues --   -0.55475  -0.53947  -0.51698  -0.22204
 Alpha virt. eigenvalues --    0.01431   0.02050   0.03460   0.03747   0.04343
 Alpha virt. eigenvalues --    0.05714   0.06236   0.06510   0.07421   0.09563
 Alpha virt. eigenvalues --    0.10468   0.11428   0.11927   0.12589   0.12958

 Mulliken charges:
               1
     1  C    0.519188
     2  C   -1.031217
     3  C    0.537431
     4  C    0.722052
     5  C    0.633710
     6  O   -0.675199
     7  H    0.048995
     8  H    0.091642
     9  H   -0.021770
    10  H    0.034714
    11  H    0.020788
    12  H    0.103656
    13  H   -0.138966
    14  H   -0.063966
    15  H   -0.247309
    16  H   -0.533746
 Sum of Mulliken charges =  -0.00000

 Dipole moment (field-independent basis, Debye):
    X=              8.0756    Y=              1.0529    Z=             -3.3206  Tot=              8.7949

 Test job not archived.
 1\1\GINC-SE054\SP\RHF\Aug-CC-pVDZ\C5H10O1\OHZDE\09-Apr-2025\0\\#t hf a
 ug-cc-pvdz iop(5/13=1,5/36=2,99/5=2) pseudo=read geom=check guess=(rea
 d,tcheck) scf=(maxcycle=1)\\title\\0,1\C,0,-1.24421391,-1.19237428,-0.
 15749268\C,0,-0.38750091,0.05645315,-0.11412722\C,0,-1.16078622,1.3452
 2183,0.05743816\C,0,0.99216261,-0.0249714,0.64959712\C,0,1.56069833,-0
 .1218115,-0.67820349\O,0,0.4506536,0.10755481,-1.41285408\H,0,-1.99307
 7,-1.12874502,-0.95863527\H,0,-1.77171662,-1.29567882,0.80108248\H,0,-
 0.62868272,-2.08721219,-0.31181461\H,0,-1.97242934,1.42587472,-0.67846

 Normal termination of Gaussian 16 at Wed Apr  9 14:01:21 2025.
