 Gaussian 16, Revision C.01,

 ----------------------------------------------------------------------
 #t hf aug-cc-pvdz symm=none int=(grid=ultrafine) guess=(read,tcheck) s
 table=(opt,rrhf)
 ----------------------------------------------------------------------
 -----
 title
 -----
 Symbolic Z-matrix:
 Charge =  0 Multiplicity = 1

 SCF Done:  E(RHF) =  -324.999781638     A.U. after   14 cycles
 Normal termination of Gaussian 16 at Wed Apr  9 16:21:24 2025.
 Gaussian 16:  ES64L-G16RevC.01  3-Jul-2019

 ----------------------------------------------------------------------
 #t hf aug-cc-pvdz iop(5/13=1,5/36=2,99/5=2) pseudo=read geom=check gue
 ss=(read,tcheck) scf=(maxcycle=1)
 ----------------------------------------------------------------------
 -----
 title
 -----
 Structure from the checkpoint file:  "Grambow2020_wb97xd3_008118_reverse_mol2.chk"
 Charge =  0 Multiplicity = 1

                         Standard orientation:
 ---------------------------------------------------------------------
 Center     Atomic      Atomic             Coordinates (Angstroms)
 Number     Number       Type             X           Y           Z
 ---------------------------------------------------------------------
      1          6           0       -2.758679   -0.099363   -0.040570
      2          7           0       -1.515950    0.589550    0.265833
      3          6           0       -0.449196    0.006867    0.010912
      4          8           0        0.014751   -1.147816   -0.495854
      5          6           0        0.978879   -0.084595   -0.030574
      6          6           0        1.751297   -0.462223    1.199564
      7          6           0        1.747393    0.564516   -1.144576
      8          1           0       -3.345363    0.517790   -0.722878
      9          1           0       -3.338319   -0.211111    0.877248
     10          1           0       -2.615057   -1.086531   -0.490201
     11          1           0        0.538622    3.077248    1.170963
     12          1           0       -0.062441    2.655017    1.030303
     13          1           0        2.586031   -1.115756    0.937745
     14          1           0        1.114669   -0.969365    1.922734
     15          1           0        2.155348    0.438451    1.665530
     16          1           0        2.162708    1.511596   -0.795361
     17          1           0        2.573964   -0.076772   -1.457664
     18          1           0        1.105321    0.763897   -2.000956
 ---------------------------------------------------------------------

 SCF Done:  E(RHF) =  -325.106717081     A.U. after    2 cycles

 The electronic state is 1-A.
 Alpha  occ. eigenvalues --  -20.60853 -15.61636 -11.35028 -11.32846 -11.25628
 Alpha  occ. eigenvalues --  -11.24928 -11.24909  -1.41836  -1.19176  -1.06511
 Alpha  occ. eigenvalues --   -0.96673  -0.94567  -0.85818  -0.74001  -0.67470
 Alpha  occ. eigenvalues --   -0.66443  -0.64111  -0.62654  -0.58572  -0.58537
 Alpha  occ. eigenvalues --   -0.57509  -0.56603  -0.54635  -0.54115  -0.50323
 Alpha  occ. eigenvalues --   -0.47701  -0.40125  -0.39848
 Alpha virt. eigenvalues --    0.03315   0.04199   0.04288   0.05456   0.06302
 Alpha virt. eigenvalues --    0.06427   0.06802   0.07424   0.08125   0.08664
 Alpha virt. eigenvalues --    0.10249   0.11049   0.13687   0.13824   0.14159

 Mulliken charges:
               1
     1  C    0.777094
     2  N   -0.385289
     3  C   -0.292073
     4  O   -0.744932
     5  C   -0.414402
     6  C    0.636525
     7  C    0.632428
     8  H   -0.142132
     9  H   -0.138277
    10  H   -0.141114
    11  H    0.016221
    12  H    0.035706
    13  H    0.052380
    14  H   -0.053889
    15  H    0.084122
    16  H    0.077193
    17  H    0.055513
    18  H   -0.055075
 Sum of Mulliken charges =   0.00000

 Dipole moment (field-independent basis, Debye):
    X=              1.8518    Y=              0.1852    Z=              0.0856  Tot=              1.8630

 Test job not archived.
 1\1\GINC-SE037\SP\RHF\Aug-CC-pVDZ\C5H11N1O1\OHZDE\09-Apr-2025\0\\#t hf
  aug-cc-pvdz iop(5/13=1,5/36=2,99/5=2) pseudo=read geom=check guess=(r
 ead,tcheck) scf=(maxcycle=1)\\title\\0,1\C,0,2.9087615,0.37742271,0.07
 113194\N,0,1.59366469,0.25961382,-0.53673458\C,0,0.62472154,0.04324631
 ,0.20945716\O,0,0.32621134,-0.14079155,1.50652036\C,0,-0.76650915,-0.1
 7536462,0.4666968\C,0,-1.37096993,-1.53442901,0.26659201\C,0,-1.713827
 1,0.98622735,0.54577\H,0,3.33073796,1.35016509,-0.18641203\H,0,3.56520
 453,-0.38455098,-0.35235137\H,0,2.90102945,0.27157007,1.16018274\H,0,-

 Normal termination of Gaussian 16 at Wed Apr  9 16:21:32 2025.
