 Gaussian 16, Revision C.01,

 ----------------------------------------------------------------------
 #t hf aug-cc-pvdz symm=none int=(grid=ultrafine) guess=(read,tcheck) s
 table=(opt,rrhf)
 ----------------------------------------------------------------------
 -----
 title
 -----
 Symbolic Z-matrix:
 Charge =  0 Multiplicity = 1

 SCF Done:  E(RHF) =  -224.714340124     A.U. after   15 cycles
 Normal termination of Gaussian 16 at Wed Apr  9 14:15:58 2025.
 Gaussian 16:  ES64L-G16RevC.01  3-Jul-2019

 ----------------------------------------------------------------------
 #t hf aug-cc-pvdz iop(5/13=1,5/36=2,99/5=2) pseudo=read geom=check gue
 ss=(read,tcheck) scf=(maxcycle=1)
 ----------------------------------------------------------------------
 -----
 title
 -----
 Structure from the checkpoint file:  "Grambow2020_b97d3_006893_reverse_mol2.chk"
 Charge =  0 Multiplicity = 1

                         Standard orientation:
 ---------------------------------------------------------------------
 Center     Atomic      Atomic             Coordinates (Angstroms)
 Number     Number       Type             X           Y           Z
 ---------------------------------------------------------------------
      1          7           0       -0.699750    0.831415    0.046618
      2          6           0       -1.065357   -0.501411    0.010366
      3          6           0        0.032766   -1.376996   -0.000779
      4          6           0        1.090341   -0.449587   -0.005569
      5          7           0        0.658498    0.864932   -0.050183
      6          1           0       -1.217269    1.669077   -0.226155
      7          1           0       -2.138997   -0.694302   -0.009959
      8          1           0        1.130839    1.722615    0.238945
      9          1           0        2.167697   -0.603852   -0.001980
 ---------------------------------------------------------------------

 SCF Done:  E(RHF) =  -224.779079674     A.U. after    2 cycles

 The electronic state is 1-A.
 Alpha  occ. eigenvalues --  -15.72592 -15.72537 -11.29932 -11.29906 -11.16734
 Alpha  occ. eigenvalues --   -1.35911  -1.10491  -1.04240  -0.83606  -0.80246
 Alpha  occ. eigenvalues --   -0.78439  -0.66150  -0.62695  -0.61477  -0.53542
 Alpha  occ. eigenvalues --   -0.40459  -0.33128  -0.30944
 Alpha virt. eigenvalues --    0.01616   0.02959   0.05021   0.05983   0.08798
 Alpha virt. eigenvalues --    0.09388   0.10438   0.13101   0.13431   0.14894
 Alpha virt. eigenvalues --    0.15494   0.15836   0.16607   0.16705   0.17620

 Mulliken charges:
               1
     1  N   -0.225208
     2  C    0.696402
     3  C   -0.468409
     4  C    0.698905
     5  N   -0.222312
     6  H    0.010923
     7  H   -0.248933
     8  H    0.010349
     9  H   -0.251718
 Sum of Mulliken charges =  -0.00000

 Dipole moment (field-independent basis, Debye):
    X=             -0.1787    Y=              6.9456    Z=              0.0172  Tot=              6.9479

 Test job not archived.
 1\1\GINC-SE054\SP\RHF\Aug-CC-pVDZ\C3H4N2\OHZDE\09-Apr-2025\0\\#t hf au
 g-cc-pvdz iop(5/13=1,5/36=2,99/5=2) pseudo=read geom=check guess=(read
 ,tcheck) scf=(maxcycle=1)\\title\\0,1\N,0,-0.84970358,-0.31809329,-0.3
 7886323\C,0,-0.79202669,0.88405402,0.30152176\C,0,0.5014117,1.21036718
 ,0.74104814\C,0,1.20827881,0.07862231,0.29599919\N,0,0.39535229,-0.865
 81858,-0.30700986\H,0,-1.63698168,-0.94631755,-0.55043536\H,0,-1.74222
 732,1.4090194,0.41039531\H,0,0.62627353,-1.60139639,-0.97628043\H,0,2.
 26490293,-0.1712371,0.37097847\\Version=ES64L-G16RevC.01\State=1-A\HF=

 Normal termination of Gaussian 16 at Wed Apr  9 14:16:01 2025.
