 Gaussian 16, Revision C.01,

 ----------------------------------------------------------------------
 #t hf aug-cc-pvdz symm=none int=(grid=ultrafine) guess=(read,tcheck) s
 table=(opt,rrhf)
 ----------------------------------------------------------------------
 -----
 title
 -----
 Symbolic Z-matrix:
 Charge =  0 Multiplicity = 1

 SCF Done:  E(RHF) =  -322.424901292     A.U. after   17 cycles
 Normal termination of Gaussian 16 at Wed Apr  9 16:47:21 2025.
 Gaussian 16:  ES64L-G16RevC.01  3-Jul-2019

 ----------------------------------------------------------------------
 #t hf aug-cc-pvdz iop(5/13=1,5/36=2,99/5=2) pseudo=read geom=check gue
 ss=(read,tcheck) scf=(maxcycle=1)
 ----------------------------------------------------------------------
 -----
 title
 -----
 Structure from the checkpoint file:  "Grambow2020_wb97xd3_008890_reverse_mol1.chk"
 Charge =  0 Multiplicity = 1

                         Standard orientation:
 ---------------------------------------------------------------------
 Center     Atomic      Atomic             Coordinates (Angstroms)
 Number     Number       Type             X           Y           Z
 ---------------------------------------------------------------------
      1          8           0       -2.183050    0.158815    0.178371
      2          6           0       -1.006957    0.016261    0.091981
      3          6           0       -0.222629   -1.194197   -0.473882
      4          7           0        1.184017   -0.680520   -0.406265
      5          6           0        0.975775    0.723866   -0.721738
      6          6           0        0.162354    0.946775    0.439684
      7          6           0        1.093930   -0.128322    1.073050
      8          1           0       -0.524920   -1.384583   -1.505315
      9          1           0       -0.331529   -2.111569    0.104248
     10          1           0       -0.204391    1.950439   -1.259061
     11          1           0        1.722403    1.336861   -1.204062
     12          1           0       -0.290489    2.139598   -0.323154
     13          1           0        2.063778    0.256489    1.374332
     14          1           0        0.726592   -0.880411    1.775327
 ---------------------------------------------------------------------

 SCF Done:  E(RHF) =  -322.519910340     A.U. after    2 cycles

 The electronic state is 1-A.
 Alpha  occ. eigenvalues --  -20.58353 -15.67640 -11.36682 -11.36351 -11.30698
 Alpha  occ. eigenvalues --  -11.29996 -11.27127  -1.38434  -1.30983  -1.03782
 Alpha  occ. eigenvalues --   -0.98925  -0.94920  -0.81593  -0.74248  -0.71743
 Alpha  occ. eigenvalues --   -0.67908  -0.66096  -0.63766  -0.58829  -0.56445
 Alpha  occ. eigenvalues --   -0.54883  -0.53644  -0.50892  -0.44335  -0.40115
 Alpha  occ. eigenvalues --   -0.33468
 Alpha virt. eigenvalues --    0.02211   0.03262   0.03690   0.04093   0.06183
 Alpha virt. eigenvalues --    0.06400   0.06958   0.08621   0.08821   0.10210
 Alpha virt. eigenvalues --    0.11542   0.12779   0.13033   0.13255   0.14077

 Mulliken charges:
               1
     1  O   -0.432717
     2  C    0.118412
     3  C    0.678969
     4  N   -0.953142
     5  C    0.792161
     6  C   -0.496004
     7  C    0.962946
     8  H   -0.082598
     9  H   -0.098580
    10  H   -0.006510
    11  H   -0.417879
    12  H    0.372645
    13  H   -0.238970
    14  H   -0.198735
 Sum of Mulliken charges =  -0.00000

 Dipole moment (field-independent basis, Debye):
    X=              3.5614    Y=             -1.3656    Z=              0.1946  Tot=              3.8192

 Test job not archived.
 1\1\GINC-SE125\SP\RHF\Aug-CC-pVDZ\C5H7N1O1\OHZDE\09-Apr-2025\0\\#t hf
 aug-cc-pvdz iop(5/13=1,5/36=2,99/5=2) pseudo=read geom=check guess=(re
 ad,tcheck) scf=(maxcycle=1)\\title\\0,1\O,0,-1.55372512,1.41336939,1.2
 1264398\C,0,-0.87196925,0.65084165,0.60870574\C,0,-1.2451922,-0.202062
 46,-0.62977698\N,0,0.07817256,-0.82546464,-0.95713903\C,0,0.98208413,0
 .26235159,-0.61833444\C,0,0.6017686,0.25398574,0.7656925\C,0,0.4264578
 7,-1.27352583,0.51912285\H,0,-1.58796194,0.44586593,-1.43858917\H,0,-2
 .00003286,-0.96496562,-0.44041508\H,0,1.10333573,1.97614647,-0.1344003

 Normal termination of Gaussian 16 at Wed Apr  9 16:47:28 2025.
