 Gaussian 16, Revision C.01,

 ----------------------------------------------------------------------
 #t hf aug-cc-pvdz symm=none int=(grid=ultrafine) guess=(read,tcheck) s
 table=(opt,rrhf)
 ----------------------------------------------------------------------
 -----
 title
 -----
 Symbolic Z-matrix:
 Charge =  0 Multiplicity = 1

 SCF Done:  E(RHF) =  -308.884306079     A.U. after   14 cycles

 1\1\GINC-SE009\Stability\RHF\Aug-CC-pVDZ\C6H12O1\OHZDE\09-Apr-2025\0\\
 #t hf aug-cc-pvdz symm=none int=(grid=ultrafine) guess=(read,tcheck) s
 table=(opt,rrhf)\\title\\0,1\C,0,2.38108665,-0.07223059,-0.08743101\C,
 0,0.94393264,-0.26874154,0.35248322\O,0,0.96276166,-0.59630458,1.73577
 103\C,0,0.09960703,0.95644327,0.10595386\C,0,-0.64516471,1.11950116,-1
 .18682063\C,0,-1.39659666,1.03079493,0.09886603\C,0,-2.09009898,-1.055
 75719,0.12458241\H,0,2.43031933,0.10525858,-1.16305001\H,0,2.97012982,
 -0.95931074,0.14823887\H,0,2.82351565,0.78013332,0.43116842\H,0,0.5188

 Normal termination of Gaussian 16 at Wed Apr  9 15:55:23 2025.
 Gaussian 16:  ES64L-G16RevC.01  3-Jul-2019

 ----------------------------------------------------------------------
 #t hf aug-cc-pvdz iop(5/13=1,5/36=2,99/5=2) pseudo=read geom=check gue
 ss=(read,tcheck) scf=(maxcycle=1)
 ----------------------------------------------------------------------
 -----
 title
 -----
 Structure from the checkpoint file:  "Grambow2020_wb97xd3_007580_forward_mol1.chk"
 Charge =  0 Multiplicity = 1

                         Standard orientation:
 ---------------------------------------------------------------------
 Center     Atomic      Atomic             Coordinates (Angstroms)
 Number     Number       Type             X           Y           Z
 ---------------------------------------------------------------------
      1          6           0       -2.243947    0.441302    0.530464
      2          6           0       -0.925198   -0.229587    0.201280
      3          8           0       -1.218176   -1.396605   -0.555932
      4          6           0        0.003436    0.681856   -0.561380
      5          6           0        0.984444    1.552016    0.168678
      6          6           0        1.476079    0.498232   -0.765850
      7          6           0        2.059995   -1.132369    0.588952
      8          1           0       -2.082197    1.303529    1.179529
      9          1           0       -2.905202   -0.260840    1.039542
     10          1           0       -2.738105    0.775728   -0.383418
     11          1           0       -0.438523   -0.519658    1.141985
     12          1           0       -0.463955   -1.588084   -1.116921
     13          1           0       -0.465034    1.088711   -1.456659
     14          1           0        1.030321    1.404877    1.241909
     15          1           0        1.155094    2.578845   -0.135271
     16          1           0        2.188915   -0.460316   -0.502463
     17          1           0        2.027128   -0.560981    1.506951
     18          1           0        3.040933   -1.589418    0.449651
     19          1           0        1.267168   -1.868254    0.509753
 ---------------------------------------------------------------------

 SCF Done:  E(RHF) =  -308.981176603     A.U. after    2 cycles

 The electronic state is 1-A.
 Alpha  occ. eigenvalues --  -20.56933 -11.29621 -11.27051 -11.26849 -11.24646
 Alpha  occ. eigenvalues --  -11.24461 -11.22360  -1.32595  -1.14983  -1.01628
 Alpha  occ. eigenvalues --   -0.97632  -0.87111  -0.80906  -0.76909  -0.71248
 Alpha  occ. eigenvalues --   -0.67292  -0.62878  -0.60785  -0.59110  -0.58303
 Alpha  occ. eigenvalues --   -0.57232  -0.54737  -0.53285  -0.50007  -0.46576
 Alpha  occ. eigenvalues --   -0.44594  -0.42618  -0.32258
 Alpha virt. eigenvalues --    0.03228   0.04067   0.04438   0.04722   0.06144
 Alpha virt. eigenvalues --    0.06202   0.06670   0.06802   0.07448   0.08938
 Alpha virt. eigenvalues --    0.09152   0.09909   0.10567   0.12236   0.12948

 Mulliken charges:
               1
     1  C    0.513325
     2  C    0.192090
     3  O   -0.635675
     4  C    0.517270
     5  C    0.801703
     6  C   -0.247112
     7  C    0.439792
     8  H    0.030067
     9  H   -0.013228
    10  H    0.035891
    11  H   -0.240168
    12  H    0.189232
    13  H   -0.399291
    14  H   -0.346469
    15  H   -0.324115
    16  H   -0.051804
    17  H   -0.124505
    18  H   -0.261169
    19  H   -0.075832
 Sum of Mulliken charges =   0.00000

 Dipole moment (field-independent basis, Debye):
    X=              1.0776    Y=              0.2740    Z=              1.7886  Tot=              2.1060

 Test job not archived.
 1\1\GINC-SE009\SP\RHF\Aug-CC-pVDZ\C6H12O1\OHZDE\09-Apr-2025\0\\#t hf a
 ug-cc-pvdz iop(5/13=1,5/36=2,99/5=2) pseudo=read geom=check guess=(rea
 d,tcheck) scf=(maxcycle=1)\\title\\0,1\C,0,2.38108665,-0.07223059,-0.0
 8743101\C,0,0.94393264,-0.26874154,0.35248322\O,0,0.96276166,-0.596304
 58,1.73577103\C,0,0.09960703,0.95644327,0.10595386\C,0,-0.64516471,1.1
 1950116,-1.18682063\C,0,-1.39659666,1.03079493,0.09886603\C,0,-2.09009
 898,-1.05575719,0.12458241\H,0,2.43031933,0.10525858,-1.16305001\H,0,2
 .97012982,-0.95931074,0.14823887\H,0,2.82351565,0.78013332,0.43116842\

 Normal termination of Gaussian 16 at Wed Apr  9 15:55:31 2025.
