 Gaussian 16, Revision C.01,

 ----------------------------------------------------------------------
 #t hf aug-cc-pvdz symm=none int=(grid=ultrafine) guess=(read,tcheck) s
 table=(opt,rrhf)
 ----------------------------------------------------------------------
 -----
 title
 -----
 Symbolic Z-matrix:
 Charge =  0 Multiplicity = 1

 SCF Done:  E(RHF) =  -307.773280580     A.U. after   15 cycles

 1\1\GINC-SE163\Stability\RHF\Aug-CC-pVDZ\C6H10O1\OHZDE\09-Apr-2025\0\\
 #t hf aug-cc-pvdz symm=none int=(grid=ultrafine) guess=(read,tcheck) s
 table=(opt,rrhf)\\title\\0,1\C,0,2.52185287,-0.03955427,-0.92393418\C,
 0,1.35547029,-0.0987695,-0.04397076\C,0,0.3393915,0.90495052,-0.386741
 21\C,0,-1.08974929,0.56017612,-0.00416983\O,0,-1.53443751,-0.62112176,
 -0.69517861\C,0,-1.74581442,-1.3178626,0.54549947\C,0,-1.32867088,-0.0
 9292423,1.36268594\H,0,3.44110169,-0.42577057,-0.48432736\H,0,2.692339
 27,0.88884241,-1.48829978\H,0,2.20173615,-0.80363134,-1.65891872\H,0,-

 Normal termination of Gaussian 16 at Wed Apr  9 16:31:16 2025.
 Gaussian 16:  ES64L-G16RevC.01  3-Jul-2019

 ----------------------------------------------------------------------
 #t hf aug-cc-pvdz iop(5/13=1,5/36=2,99/5=2) pseudo=read geom=check gue
 ss=(read,tcheck) scf=(maxcycle=1)
 ----------------------------------------------------------------------
 -----
 title
 -----
 Structure from the checkpoint file:  "Grambow2020_wb97xd3_008501_reverse_mol2.chk"
 Charge =  0 Multiplicity = 1

                         Standard orientation:
 ---------------------------------------------------------------------
 Center     Atomic      Atomic             Coordinates (Angstroms)
 Number     Number       Type             X           Y           Z
 ---------------------------------------------------------------------
      1          6           0        2.821255   -0.474174    0.054657
      2          6           0        1.447176   -0.256577    0.505044
      3          6           0        0.795263    0.859142   -0.193200
      4          6           0       -0.719364    0.789497   -0.286616
      5          8           0       -1.133929   -0.367037   -1.035796
      6          6           0       -1.850841   -0.893958    0.094603
      7          6           0       -1.493630    0.322389    0.952029
      8          1           0        3.466762   -0.958338    0.787009
      9          1           0        3.329694    0.353872   -0.460439
     10          1           0        2.613703   -1.245545   -0.712415
     11          1           0       -0.869922    0.104598    1.816102
     12          1           0        1.073230    1.688899    0.486802
     13          1           0        1.230274    1.120321   -1.171525
     14          1           0       -1.104652    1.704311   -0.750211
     15          1           0       -1.423381   -1.841083    0.432076
     16          1           0       -2.912122   -1.026984   -0.131624
     17          1           0       -2.331307    0.958330    1.231488
 ---------------------------------------------------------------------

 SCF Done:  E(RHF) =  -307.867536459     A.U. after    2 cycles

 The electronic state is 1-A.
 Alpha  occ. eigenvalues --  -20.55509 -11.28966 -11.27861 -11.26562 -11.24247
 Alpha  occ. eigenvalues --  -11.24007 -11.22646  -1.33967  -1.08094  -1.00605
 Alpha  occ. eigenvalues --   -0.97715  -0.88853  -0.77357  -0.71068  -0.69198
 Alpha  occ. eigenvalues --   -0.65852  -0.63413  -0.58926  -0.58672  -0.57635
 Alpha  occ. eigenvalues --   -0.54538  -0.53180  -0.50134  -0.46611  -0.45955
 Alpha  occ. eigenvalues --   -0.41648  -0.34131
 Alpha virt. eigenvalues --    0.03414   0.04042   0.04568   0.04918   0.06114
 Alpha virt. eigenvalues --    0.06353   0.06511   0.07207   0.07669   0.08970
 Alpha virt. eigenvalues --    0.09812   0.10647   0.11949   0.13072   0.13797

 Mulliken charges:
               1
     1  C    0.545893
     2  C   -0.712426
     3  C    0.094010
     4  C    0.594005
     5  O   -0.864816
     6  C    0.977402
     7  C    0.543128
     8  H   -0.082321
     9  H   -0.101091
    10  H    0.127528
    11  H   -0.192981
    12  H    0.166508
    13  H   -0.152773
    14  H   -0.282156
    15  H   -0.247564
    16  H   -0.242069
    17  H   -0.170278
 Sum of Mulliken charges =  -0.00000

 Dipole moment (field-independent basis, Debye):
    X=              0.8381    Y=              1.6219    Z=              0.6803  Tot=              1.9482

 Test job not archived.
 1\1\GINC-SE163\SP\RHF\Aug-CC-pVDZ\C6H10O1\OHZDE\09-Apr-2025\0\\#t hf a
 ug-cc-pvdz iop(5/13=1,5/36=2,99/5=2) pseudo=read geom=check guess=(rea
 d,tcheck) scf=(maxcycle=1)\\title\\0,1\C,0,2.52185287,-0.03955427,-0.9
 2393418\C,0,1.35547029,-0.0987695,-0.04397076\C,0,0.3393915,0.90495052
 ,-0.38674121\C,0,-1.08974929,0.56017612,-0.00416983\O,0,-1.53443751,-0
 .62112176,-0.69517861\C,0,-1.74581442,-1.3178626,0.54549947\C,0,-1.328
 67088,-0.09292423,1.36268594\H,0,3.44110169,-0.42577057,-0.48432736\H,
 0,2.69233927,0.88884241,-1.48829978\H,0,2.20173615,-0.80363134,-1.6589

 Normal termination of Gaussian 16 at Wed Apr  9 16:31:22 2025.
