 Gaussian 16, Revision C.01,

 ----------------------------------------------------------------------
 #t hf aug-cc-pvdz symm=none int=(grid=ultrafine) guess=(read,tcheck) s
 table=(opt,rrhf)
 ----------------------------------------------------------------------
 -----
 title
 -----
 Symbolic Z-matrix:
 Charge =  0 Multiplicity = 1

 SCF Done:  E(RHF) =  -359.757602071     A.U. after   15 cycles
 Normal termination of Gaussian 16 at Wed Apr  9 15:39:59 2025.
 Gaussian 16:  ES64L-G16RevC.01  3-Jul-2019

 ----------------------------------------------------------------------
 #t hf aug-cc-pvdz iop(5/13=1,5/36=2,99/5=2) pseudo=read geom=check gue
 ss=(read,tcheck) scf=(maxcycle=1)
 ----------------------------------------------------------------------
 -----
 title
 -----
 Structure from the checkpoint file:  "Grambow2020_wb97xd3_007283_forward_mol2.chk"
 Charge =  0 Multiplicity = 1

                         Standard orientation:
 ---------------------------------------------------------------------
 Center     Atomic      Atomic             Coordinates (Angstroms)
 Number     Number       Type             X           Y           Z
 ---------------------------------------------------------------------
      1          8           0       -1.769341   -1.041265   -0.152399
      2          6           0       -0.552548   -0.621109    0.381831
      3          6           0        0.680759   -1.295125   -0.204857
      4          7           0        1.731562   -0.352884    0.180961
      5          6           0        1.236900    0.990290   -0.087723
      6          6           0       -0.258630    0.841989    0.089406
      7          8           0       -1.103666    1.680905   -0.064767
      8          1           0       -2.331210   -0.260400   -0.222701
      9          1           0       -0.526828   -0.739914    1.476335
     10          1           0        0.873109   -2.281168    0.216202
     11          1           0        0.540489   -1.395398   -1.291701
     12          1           0        2.616720   -0.547652   -0.259395
     13          1           0        1.403055    1.345846   -1.115645
     14          1           0        1.648903    1.735477    0.595569
 ---------------------------------------------------------------------

 SCF Done:  E(RHF) =  -359.867246412     A.U. after    2 cycles

 The electronic state is 1-A.
 Alpha  occ. eigenvalues --  -20.58366 -20.58328 -15.63173 -11.35324 -11.30623
 Alpha  occ. eigenvalues --  -11.28655 -11.27826  -1.38487  -1.33816  -1.22178
 Alpha  occ. eigenvalues --   -1.01200  -0.98736  -0.84273  -0.78622  -0.72359
 Alpha  occ. eigenvalues --   -0.70427  -0.68989  -0.64152  -0.61455  -0.59380
 Alpha  occ. eigenvalues --   -0.59130  -0.56753  -0.55382  -0.52739  -0.47141
 Alpha  occ. eigenvalues --   -0.42465  -0.39100
 Alpha virt. eigenvalues --    0.02987   0.04120   0.04274   0.04865   0.06895
 Alpha virt. eigenvalues --    0.07027   0.07372   0.09501   0.11105   0.11824
 Alpha virt. eigenvalues --    0.12858   0.13725   0.14183   0.14537   0.14744

 Mulliken charges:
               1
     1  O   -0.578041
     2  C    0.282883
     3  C    0.904988
     4  N   -0.593512
     5  C    0.756031
     6  C   -0.133794
     7  O   -0.522545
     8  H    0.166374
     9  H    0.035409
    10  H   -0.108075
    11  H   -0.127404
    12  H   -0.053530
    13  H    0.008398
    14  H   -0.037183
 Sum of Mulliken charges =   0.00000

 Dipole moment (field-independent basis, Debye):
    X=              3.0737    Y=             -0.7176    Z=             -0.3329  Tot=              3.1738

 Test job not archived.
 1\1\GINC-SE041\SP\RHF\Aug-CC-pVDZ\C4H7N1O2\OHZDE\09-Apr-2025\0\\#t hf
 aug-cc-pvdz iop(5/13=1,5/36=2,99/5=2) pseudo=read geom=check guess=(re
 ad,tcheck) scf=(maxcycle=1)\\title\\0,1\O,0,2.23441204,-0.05366938,0.1
 0371607\C,0,0.87180759,0.0604609,0.37353196\C,0,0.16652525,1.21496916,
 -0.32592041\N,0,-1.23126094,0.79192505,-0.23598789\C,0,-1.28434779,-0.
 62301233,-0.5767682\C,0,0.07231486,-1.12841934,-0.13630278\O,0,0.51382
 624,-2.23953656,-0.24639591\H,0,2.43052048,-0.99561741,0.03541803\H,0,
 0.67684705,0.13699785,1.45466498\H,0,0.31250578,2.17285453,0.1717902\H

 Normal termination of Gaussian 16 at Wed Apr  9 15:40:04 2025.
