 Gaussian 16, Revision C.01,

 ----------------------------------------------------------------------
 #t hf aug-cc-pvdz symm=none int=(grid=ultrafine) guess=(read,tcheck) s
 table=(opt,rrhf)
 ----------------------------------------------------------------------
 -----
 title
 -----
 Symbolic Z-matrix:
 Charge =  0 Multiplicity = 1

 SCF Done:  E(RHF) =  -268.732946298     A.U. after   17 cycles
 Normal termination of Gaussian 16 at Wed Apr  9 14:25:25 2025.
 Gaussian 16:  ES64L-G16RevC.01  3-Jul-2019

 ----------------------------------------------------------------------
 #t hf aug-cc-pvdz iop(5/13=1,5/36=2,99/5=2) pseudo=read geom=check gue
 ss=(read,tcheck) scf=(maxcycle=1)
 ----------------------------------------------------------------------
 -----
 title
 -----
 Structure from the checkpoint file:  "Grambow2020_wb97xd3_006252_forward_mol1.chk"
 Charge =  0 Multiplicity = 1

                         Standard orientation:
 ---------------------------------------------------------------------
 Center     Atomic      Atomic             Coordinates (Angstroms)
 Number     Number       Type             X           Y           Z
 ---------------------------------------------------------------------
      1          6           0        1.804697   -0.954916    0.213580
      2          6           0        1.534926    0.421990   -0.246586
      3          6           0        0.267774    0.957773   -0.459719
      4          6           0       -0.574392    0.650497    0.772583
      5          6           0       -1.618088   -0.181216    0.435419
      6          8           0       -1.710144   -0.663730   -0.727322
      7          1           0        0.897813   -1.556014    0.245206
      8          1           0        2.550391   -1.408842   -0.448115
      9          1           0        2.255086   -0.947631    1.211222
     10          1           0        2.419001    1.036869   -0.425643
     11          1           0       -0.411404    0.205480   -1.096895
     12          1           0        0.230304    1.963230   -0.873981
     13          1           0       -0.334911    1.030121    1.753136
     14          1           0       -2.414623   -0.378147    1.161991
 ---------------------------------------------------------------------

 SCF Done:  E(RHF) =  -268.816563180     A.U. after    2 cycles

 The electronic state is 1-A.
 Alpha  occ. eigenvalues --  -20.50157 -11.36083 -11.28315 -11.27370 -11.24499
 Alpha  occ. eigenvalues --  -11.20475  -1.28435  -1.13107  -1.01272  -0.93328
 Alpha  occ. eigenvalues --   -0.81936  -0.71857  -0.69364  -0.68342  -0.61379
 Alpha  occ. eigenvalues --   -0.60116  -0.58598  -0.56621  -0.51422  -0.50081
 Alpha  occ. eigenvalues --   -0.48894  -0.39006  -0.28721
 Alpha virt. eigenvalues --    0.01721   0.02076   0.03893   0.04116   0.05022
 Alpha virt. eigenvalues --    0.06078   0.06680   0.07758   0.08028   0.11857
 Alpha virt. eigenvalues --    0.12172   0.12695   0.13898   0.14119   0.14271

 Mulliken charges:
               1
     1  C    0.363867
     2  C    0.199441
     3  C    0.152123
     4  C    0.328887
     5  C    0.345873
     6  O   -0.717415
     7  H   -0.070532
     8  H    0.024110
     9  H    0.083744
    10  H   -0.310984
    11  H    0.370846
    12  H   -0.142326
    13  H   -0.456732
    14  H   -0.170902
 Sum of Mulliken charges =   0.00000

 Dipole moment (field-independent basis, Debye):
    X=              6.3240    Y=              1.2147    Z=              1.3906  Tot=              6.5880

 Test job not archived.
 1\1\GINC-SE162\SP\RHF\Aug-CC-pVDZ\C5H8O1\OHZDE\09-Apr-2025\0\\#t hf au
 g-cc-pvdz iop(5/13=1,5/36=2,99/5=2) pseudo=read geom=check guess=(read
 ,tcheck) scf=(maxcycle=1)\\title\\0,1\C,0,-1.3899639,-0.89574032,-0.49
 293772\C,0,-1.0396441,0.53799549,-0.44738472\C,0,0.11627109,1.05866015
 ,0.12788229\C,0,1.29663406,0.25500581,-0.40420229\C,0,1.90950632,-0.42
 162466,0.62598412\O,0,1.41795537,-0.41133401,1.78853838\H,0,-0.7001771
 8,-1.49970682,0.09372797\H,0,-2.41790707,-1.0198019,-0.13532027\H,0,-1
 .38596435,-1.26189051,-1.52449594\H,0,-1.76572527,1.21162196,-0.906471

 Normal termination of Gaussian 16 at Wed Apr  9 14:25:29 2025.
