 Gaussian 16, Revision C.01,

 ----------------------------------------------------------------------
 #t hf aug-cc-pvdz symm=none int=(grid=ultrafine) guess=(read,tcheck) s
 table=(opt,rrhf)
 ----------------------------------------------------------------------
 -----
 title
 -----
 Symbolic Z-matrix:
 Charge =  0 Multiplicity = 1

 SCF Done:  E(RHF) =  -286.694344197     A.U. after   15 cycles
 Normal termination of Gaussian 16 at Wed Apr  9 15:58:10 2025.
 Gaussian 16:  ES64L-G16RevC.01  3-Jul-2019

 ----------------------------------------------------------------------
 #t hf aug-cc-pvdz iop(5/13=1,5/36=2,99/5=2) pseudo=read geom=check gue
 ss=(read,tcheck) scf=(maxcycle=1)
 ----------------------------------------------------------------------
 -----
 title
 -----
 Structure from the checkpoint file:  "Grambow2020_wb97xd3_007641_reverse_mol1.chk"
 Charge =  0 Multiplicity = 1

                         Standard orientation:
 ---------------------------------------------------------------------
 Center     Atomic      Atomic             Coordinates (Angstroms)
 Number     Number       Type             X           Y           Z
 ---------------------------------------------------------------------
      1          6           0        1.798617   -1.046277    0.053646
      2          6           0        0.672929   -0.086136   -0.094875
      3          6           0        0.579976    1.213022   -0.807530
      4          6           0        0.299043    1.144774    0.649537
      5          6           0       -0.662449    0.032127    0.779989
      6          7           0       -1.909196   -0.080797    0.082509
      7          6           0       -1.221449   -1.012542   -0.730378
      8          1           0        1.755707   -1.551950    1.020680
      9          1           0        2.759376   -0.531927   -0.020806
     10          1           0        1.756045   -1.806014   -0.728666
     11          1           0        1.528757    1.666627   -1.074103
     12          1           0       -0.214908    1.377449   -1.530721
     13          1           0        0.810932    1.613069    1.474277
     14          1           0       -0.621344   -0.529088    1.707260
     15          1           0       -2.116307    0.766162   -0.435139
     16          1           0       -1.093899   -1.908559   -0.092674
 ---------------------------------------------------------------------

 SCF Done:  E(RHF) =  -286.778236271     A.U. after    2 cycles

 The electronic state is 1-A.
 Alpha  occ. eigenvalues --  -15.62811 -11.31927 -11.27592 -11.27541 -11.26407
 Alpha  occ. eigenvalues --  -11.25958 -11.24498  -1.27147  -1.17418  -0.98884
 Alpha  occ. eigenvalues --   -0.93756  -0.84253  -0.78040  -0.76392  -0.69173
 Alpha  occ. eigenvalues --   -0.65316  -0.60797  -0.58733  -0.57459  -0.55680
 Alpha  occ. eigenvalues --   -0.55155  -0.49260  -0.46329  -0.44258  -0.35682
 Alpha  occ. eigenvalues --   -0.32180
 Alpha virt. eigenvalues --    0.02915   0.03982   0.04283   0.05027   0.05989
 Alpha virt. eigenvalues --    0.06683   0.06835   0.07323   0.08496   0.10162
 Alpha virt. eigenvalues --    0.12144   0.12346   0.12852   0.13159   0.13779

 Mulliken charges:
               1
     1  C    0.347690
     2  C   -0.504364
     3  C    0.798374
     4  C    0.102753
     5  C    0.969733
     6  N   -0.595455
     7  C    0.149350
     8  H    0.056169
     9  H    0.044219
    10  H    0.030901
    11  H   -0.313393
    12  H   -0.353840
    13  H   -0.399081
    14  H   -0.420081
    15  H    0.114196
    16  H   -0.027170
 Sum of Mulliken charges =   0.00000

 Dipole moment (field-independent basis, Debye):
    X=              2.3497    Y=              1.2036    Z=              1.7785  Tot=              3.1832

 Test job not archived.
 1\1\GINC-SE454\SP\RHF\Aug-CC-pVDZ\C6H9N1\OHZDE\09-Apr-2025\0\\#t hf au
 g-cc-pvdz iop(5/13=1,5/36=2,99/5=2) pseudo=read geom=check guess=(read
 ,tcheck) scf=(maxcycle=1)\\title\\0,1\C,0,1.38765118,-0.50338938,1.098
 29128\C,0,0.42251685,0.00719503,0.08887429\C,0,0.62850686,0.78488093,-
 1.15896502\C,0,-0.24512238,1.32365341,-0.08512896\C,0,-1.15934829,0.20
 815717,0.23003311\N,0,-1.98948637,-0.48319456,-0.71151481\C,0,-1.01174
 61,-1.50252509,-0.62833931\H,0,0.94239848,-0.51119431,2.09548245\H,0,2
 .28346041,0.12091186,1.1287933\H,0,1.68979631,-1.52313809,0.85365753\H

 Normal termination of Gaussian 16 at Wed Apr  9 15:58:16 2025.
