 Gaussian 16, Revision C.01,

 ----------------------------------------------------------------------
 #t hf aug-cc-pvdz symm=none int=(grid=ultrafine) guess=(read,tcheck) s
 table=(opt,rrhf)
 ----------------------------------------------------------------------
 -----
 title
 -----
 Symbolic Z-matrix:
 Charge =  0 Multiplicity = 1

 SCF Done:  E(RHF) =  -308.875250928     A.U. after   16 cycles

 1\1\GINC-SE041\Stability\RHF\Aug-CC-pVDZ\C6H12O1\OHZDE\09-Apr-2025\0\\
 #t hf aug-cc-pvdz symm=none int=(grid=ultrafine) guess=(read,tcheck) s
 table=(opt,rrhf)\\title\\0,1\C,0,1.98235819,-0.92346587,-0.51877631\C,
 0,0.70363841,-0.60834898,0.18344435\O,0,0.78901214,-0.40502339,1.54235
 578\C,0,0.0340662,1.67679718,-0.39878706\C,0,-1.27006879,1.75320217,-0
 .02285801\C,0,-1.7621905,-0.52469247,0.40308145\C,0,-0.54844351,-0.982
 18718,-0.27697857\H,0,2.68063409,-0.08284005,-0.44770549\H,0,1.8029830
 2,-1.11150262,-1.57677044\H,0,2.47581156,-1.80408877,-0.09081622\H,0,1

 Normal termination of Gaussian 16 at Wed Apr  9 16:36:35 2025.
 Gaussian 16:  ES64L-G16RevC.01  3-Jul-2019

 ----------------------------------------------------------------------
 #t hf aug-cc-pvdz iop(5/13=1,5/36=2,99/5=2) pseudo=read geom=check gue
 ss=(read,tcheck) scf=(maxcycle=1)
 ----------------------------------------------------------------------
 -----
 title
 -----
 Structure from the checkpoint file:  "Grambow2020_wb97xd3_008673_reverse_mol1.chk"
 Charge =  0 Multiplicity = 1

                         Standard orientation:
 ---------------------------------------------------------------------
 Center     Atomic      Atomic             Coordinates (Angstroms)
 Number     Number       Type             X           Y           Z
 ---------------------------------------------------------------------
      1          6           0       -2.136815   -0.438606   -0.592541
      2          6           0       -0.896114    0.140603    0.001358
      3          8           0       -0.875198    0.259267    1.372763
      4          6           0        0.898756   -1.521008   -0.162054
      5          6           0        2.037002   -0.812374    0.061916
      6          6           0        1.229212    1.411118   -0.064456
      7          6           0       -0.033024    0.987644   -0.674697
      8          1           0       -2.277829   -1.473196   -0.262345
      9          1           0       -2.073624   -0.447795   -1.680110
     10          1           0       -3.029741    0.128344   -0.303761
     11          1           0       -1.497003   -0.360667    1.756498
     12          1           0        0.356893   -1.972688    0.658925
     13          1           0        0.647738   -1.878444   -1.153796
     14          1           0        2.422032   -0.681625    1.064865
     15          1           0        2.734151   -0.609904   -0.741485
     16          1           0        1.935363    1.962720   -0.670451
     17          1           0        1.256757    1.551481    1.006110
     18          1           0       -0.056008    0.946165   -1.756470
     19          1           0       -0.011249    2.157215   -0.317250
 ---------------------------------------------------------------------

 SCF Done:  E(RHF) =  -308.973693003     A.U. after    2 cycles

 The electronic state is 1-A.
 Alpha  occ. eigenvalues --  -20.58960 -11.29028 -11.25705 -11.25180 -11.23981
 Alpha  occ. eigenvalues --  -11.21569 -11.20942  -1.35163  -1.09149  -1.00035
 Alpha  occ. eigenvalues --   -0.99218  -0.88032  -0.78433  -0.76781  -0.68660
 Alpha  occ. eigenvalues --   -0.65828  -0.62770  -0.62390  -0.60692  -0.56298
 Alpha  occ. eigenvalues --   -0.55419  -0.54762  -0.53679  -0.51885  -0.50568
 Alpha  occ. eigenvalues --   -0.48028  -0.32489  -0.23781
 Alpha virt. eigenvalues --    0.03197   0.04061   0.04611   0.05146   0.06194
 Alpha virt. eigenvalues --    0.06323   0.06396   0.06948   0.07202   0.08784
 Alpha virt. eigenvalues --    0.08997   0.09310   0.12180   0.12261   0.13464

 Mulliken charges:
               1
     1  C    0.502643
     2  C    0.036723
     3  O   -0.606930
     4  C    0.769792
     5  C    0.587762
     6  C    0.389362
     7  C    0.101839
     8  H   -0.064994
     9  H   -0.046422
    10  H    0.066454
    11  H    0.144093
    12  H   -0.339063
    13  H   -0.379180
    14  H   -0.275322
    15  H   -0.291911
    16  H   -0.349334
    17  H   -0.297985
    18  H   -0.257136
    19  H    0.309609
 Sum of Mulliken charges =  -0.00000

 Dipole moment (field-independent basis, Debye):
    X=             -1.7183    Y=              0.4266    Z=             -0.7913  Tot=              1.9392

 Test job not archived.
 1\1\GINC-SE041\SP\RHF\Aug-CC-pVDZ\C6H12O1\OHZDE\09-Apr-2025\0\\#t hf a
 ug-cc-pvdz iop(5/13=1,5/36=2,99/5=2) pseudo=read geom=check guess=(rea
 d,tcheck) scf=(maxcycle=1)\\title\\0,1\C,0,1.98235819,-0.92346587,-0.5
 1877631\C,0,0.70363841,-0.60834898,0.18344435\O,0,0.78901214,-0.405023
 39,1.54235578\C,0,0.0340662,1.67679718,-0.39878706\C,0,-1.27006879,1.7
 5320217,-0.02285801\C,0,-1.7621905,-0.52469247,0.40308145\C,0,-0.54844
 351,-0.98218718,-0.27697857\H,0,2.68063409,-0.08284005,-0.44770549\H,0
 ,1.80298302,-1.11150262,-1.57677044\H,0,2.47581156,-1.80408877,-0.0908

 Normal termination of Gaussian 16 at Wed Apr  9 16:36:43 2025.
