 Gaussian 16, Revision C.01,

 ----------------------------------------------------------------------
 #t hf aug-cc-pvdz symm=none int=(grid=ultrafine) guess=(read,tcheck) s
 table=(opt,rrhf)
 ----------------------------------------------------------------------
 -----
 title
 -----
 Symbolic Z-matrix:
 Charge =  0 Multiplicity = 1

 SCF Done:  E(RHF) =  -289.209670362     A.U. after   12 cycles

 1\1\GINC-SE103\Stability\RHF\Aug-CC-pVDZ\C6H13N1\OHZDE\09-Apr-2025\0\\
 #t hf aug-cc-pvdz symm=none int=(grid=ultrafine) guess=(read,tcheck) s
 table=(opt,rrhf)\\title\\0,1\C,0,-1.00627866,1.68846906,0.52966315\C,0
 ,-0.73149731,0.24630003,0.86367649\N,0,-0.76040578,-0.74456005,-0.1932
 8193\C,0,-1.48173754,-1.97191642,0.05981326\C,0,0.48298752,-0.54579093
 ,0.51866869\C,0,1.73430295,-0.11748028,-0.21793164\C,0,1.57422646,0.88
 333063,-1.3541621\H,0,-2.06395629,1.91277008,0.68454264\H,0,-0.4257015
 4,2.35738618,1.16906089\H,0,-0.76814299,1.90456668,-0.50908015\H,0,-1.

 Normal termination of Gaussian 16 at Wed Apr  9 17:03:08 2025.
 Gaussian 16:  ES64L-G16RevC.01  3-Jul-2019

 ----------------------------------------------------------------------
 #t hf aug-cc-pvdz iop(5/13=1,5/36=2,99/5=2) pseudo=read geom=check gue
 ss=(read,tcheck) scf=(maxcycle=1)
 ----------------------------------------------------------------------
 -----
 title
 -----
 Structure from the checkpoint file:  "Grambow2020_wb97xd3_009126_reverse_mol2.chk"
 Charge =  0 Multiplicity = 1

                         Standard orientation:
 ---------------------------------------------------------------------
 Center     Atomic      Atomic             Coordinates (Angstroms)
 Number     Number       Type             X           Y           Z
 ---------------------------------------------------------------------
      1          6           0        0.004740    2.072567   -0.064838
      2          6           0       -0.653651    0.824193    0.459572
      3          7           0       -0.877250   -0.290715   -0.438640
      4          6           0       -2.178719   -0.920224   -0.412619
      5          6           0       -0.014967   -0.500148    0.703733
      6          6           0        1.426460   -0.922912    0.515642
      7          6           0        2.188560   -0.322321   -0.657712
      8          1           0       -0.754957    2.793472   -0.374896
      9          1           0        0.619764    2.545222    0.704378
     10          1           0        0.630278    1.855482   -0.927375
     11          1           0       -1.475530    1.026795    1.148400
     12          1           0       -2.097426   -1.942961   -0.785498
     13          1           0       -2.616345   -0.953739    0.597170
     14          1           0       -2.862162   -0.373553   -1.065184
     15          1           0        1.960461   -0.722848    1.450215
     16          1           0       -0.482655   -1.040491    1.529558
     17          1           0        1.417781   -2.012795    0.406642
     18          1           0        1.599675   -0.383564   -1.573765
     19          1           0        3.121612   -0.866116   -0.815174
     20          1           0        2.445708    0.723171   -0.486669
 ---------------------------------------------------------------------

 SCF Done:  E(RHF) =  -289.300498151     A.U. after    2 cycles

 The electronic state is 1-A.
 Alpha  occ. eigenvalues --  -15.61167 -11.26005 -11.25798 -11.25220 -11.22827
 Alpha  occ. eigenvalues --  -11.22105 -11.21408  -1.24843  -1.03383  -0.99949
 Alpha  occ. eigenvalues --   -0.94538  -0.87156  -0.78623  -0.75109  -0.67608
 Alpha  occ. eigenvalues --   -0.61885  -0.61365  -0.59119  -0.56928  -0.56305
 Alpha  occ. eigenvalues --   -0.55135  -0.52757  -0.50127  -0.49809  -0.47055
 Alpha  occ. eigenvalues --   -0.42948  -0.42442  -0.36128
 Alpha virt. eigenvalues --    0.03487   0.04030   0.04282   0.04413   0.06203
 Alpha virt. eigenvalues --    0.06506   0.06766   0.06951   0.07549   0.08613
 Alpha virt. eigenvalues --    0.08793   0.09075   0.10412   0.12854   0.13439

 Mulliken charges:
               1
     1  C    0.381249
     2  C    0.117173
     3  N   -0.789484
     4  C    0.807399
     5  C    0.399430
     6  C    0.032063
     7  C    0.622249
     8  H   -0.005985
     9  H    0.092994
    10  H   -0.065873
    11  H   -0.425982
    12  H   -0.207873
    13  H   -0.130291
    14  H   -0.201698
    15  H    0.030167
    16  H   -0.439138
    17  H    0.035990
    18  H   -0.036958
    19  H   -0.150645
    20  H   -0.064787
 Sum of Mulliken charges =   0.00000

 Dipole moment (field-independent basis, Debye):
    X=             -0.3825    Y=             -0.0328    Z=              1.0313  Tot=              1.1004

 Test job not archived.
 1\1\GINC-SE103\SP\RHF\Aug-CC-pVDZ\C6H13N1\OHZDE\09-Apr-2025\0\\#t hf a
 ug-cc-pvdz iop(5/13=1,5/36=2,99/5=2) pseudo=read geom=check guess=(rea
 d,tcheck) scf=(maxcycle=1)\\title\\0,1\C,0,-1.00627866,1.68846906,0.52
 966315\C,0,-0.73149731,0.24630003,0.86367649\N,0,-0.76040578,-0.744560
 05,-0.19328193\C,0,-1.48173754,-1.97191642,0.05981326\C,0,0.48298752,-
 0.54579093,0.51866869\C,0,1.73430295,-0.11748028,-0.21793164\C,0,1.574
 22646,0.88333063,-1.3541621\H,0,-2.06395629,1.91277008,0.68454264\H,0,
 -0.42570154,2.35738618,1.16906089\H,0,-0.76814299,1.90456668,-0.509080

 Normal termination of Gaussian 16 at Wed Apr  9 17:03:17 2025.
