 Gaussian 16, Revision C.01,

 ----------------------------------------------------------------------
 #t hf aug-cc-pvdz symm=none int=(grid=ultrafine) guess=(read,tcheck) s
 table=(opt,rrhf)
 ----------------------------------------------------------------------
 -----
 title
 -----
 Symbolic Z-matrix:
 Charge =  0 Multiplicity = 1

 SCF Done:  E(RHF) =  -343.589579508     A.U. after   15 cycles
 Normal termination of Gaussian 16 at Wed Apr  9 15:25:03 2025.
 Gaussian 16:  ES64L-G16RevC.01  3-Jul-2019

 ----------------------------------------------------------------------
 #t hf aug-cc-pvdz iop(5/13=1,5/36=2,99/5=2) pseudo=read geom=check gue
 ss=(read,tcheck) scf=(maxcycle=1)
 ----------------------------------------------------------------------
 -----
 title
 -----
 Structure from the checkpoint file:  "Grambow2020_wb97xd3_006886_reverse_mol2.chk"
 Charge =  0 Multiplicity = 1

                         Standard orientation:
 ---------------------------------------------------------------------
 Center     Atomic      Atomic             Coordinates (Angstroms)
 Number     Number       Type             X           Y           Z
 ---------------------------------------------------------------------
      1          6           0        1.377027    0.000235    1.291085
      2          6           0        0.920042   -0.047937   -0.118004
      3          6           0        1.561083   -0.404539   -1.208506
      4          6           0       -0.646037    2.061313    0.002706
      5          8           0       -0.431053    0.397603   -0.291687
      6          6           0       -1.452893   -0.502648   -0.070622
      7          8           0       -1.284241   -1.631628    0.232643
      8          1           0        0.795302   -0.690036    1.905899
      9          1           0        1.243986    1.013901    1.671856
     10          1           0        2.427351   -0.278764    1.349453
     11          1           0        2.589729   -0.729654   -1.145762
     12          1           0        1.086152   -0.369940   -2.179032
     13          1           0       -1.073958    2.295950   -0.982980
     14          1           0       -1.499887    1.967167    0.694124
     15          1           0       -2.401654    0.025032   -0.221158
 ---------------------------------------------------------------------

 SCF Done:  E(RHF) =  -343.700968698     A.U. after    2 cycles

 The electronic state is 1-A.
 Alpha  occ. eigenvalues --  -20.68711 -20.61406 -11.43605 -11.33479 -11.25324
 Alpha  occ. eigenvalues --  -11.24596 -11.24299  -1.47564  -1.39113  -1.09786
 Alpha  occ. eigenvalues --   -0.97121  -0.93273  -0.90459  -0.78070  -0.74568
 Alpha  occ. eigenvalues --   -0.71543  -0.71002  -0.65831  -0.61432  -0.59097
 Alpha  occ. eigenvalues --   -0.57154  -0.55894  -0.55290  -0.52010  -0.50485
 Alpha  occ. eigenvalues --   -0.39439  -0.33211
 Alpha virt. eigenvalues --    0.03224   0.04070   0.04372   0.05794   0.05946
 Alpha virt. eigenvalues --    0.06179   0.07106   0.08833   0.09260   0.10334
 Alpha virt. eigenvalues --    0.11098   0.12036   0.13750   0.13876   0.14586

 Mulliken charges:
               1
     1  C    0.037304
     2  C   -0.065777
     3  C    1.214081
     4  C    0.253634
     5  O   -0.420071
     6  C    0.703163
     7  O   -0.360283
     8  H    0.048604
     9  H    0.111399
    10  H   -0.090503
    11  H   -0.323796
    12  H   -0.449776
    13  H   -0.225425
    14  H   -0.247990
    15  H   -0.184564
 Sum of Mulliken charges =   0.00000

 Dipole moment (field-independent basis, Debye):
    X=             -0.3195    Y=             -0.9596    Z=             -0.7336  Tot=              1.2495

 Test job not archived.
 1\1\GINC-SE113\SP\RHF\Aug-CC-pVDZ\C5H8O2\OHZDE\09-Apr-2025\0\\#t hf au
 g-cc-pvdz iop(5/13=1,5/36=2,99/5=2) pseudo=read geom=check guess=(read
 ,tcheck) scf=(maxcycle=1)\\title\\0,1\C,0,-0.4980841,1.54970919,-0.503
 11466\C,0,-0.48156772,0.07080264,-0.59928418\C,0,-1.10301026,-0.734578
 12,-1.43142864\C,0,-0.29691839,-0.39521794,1.98235105\O,0,0.32713911,-
 0.55397215,0.40559271\C,0,1.68488633,-0.65886059,0.184231\O,0,2.224769
 45,-0.28471213,-0.79737402\H,0,0.49950499,1.95612767,-0.68343396\H,0,-
 0.82269405,1.83566062,0.4984164\H,0,-1.18277938,1.96120258,-1.2422326\

 Normal termination of Gaussian 16 at Wed Apr  9 15:25:08 2025.
