 Gaussian 16, Revision C.01,

 ----------------------------------------------------------------------
 #t hf aug-cc-pvdz symm=none int=(grid=ultrafine) guess=(read,tcheck) s
 table=(opt,rrhf)
 ----------------------------------------------------------------------
 -----
 title
 -----
 Symbolic Z-matrix:
 Charge =  0 Multiplicity = 1

 SCF Done:  E(RHF) =  -307.873127227     A.U. after   14 cycles

 1\1\GINC-SE043\Stability\RHF\Aug-CC-pVDZ\C6H10O1\OHZDE\09-Apr-2025\0\\
 #t hf aug-cc-pvdz symm=none int=(grid=ultrafine) guess=(read,tcheck) s
 table=(opt,rrhf)\\title\\0,1\O,0,2.95712644,-0.37384358,1.41153851\C,0
 ,1.89578146,-0.3871824,0.56296687\C,0,-0.59888206,-0.75401871,-1.10219
 172\C,0,-1.66890029,-0.68870432,0.00528493\C,0,-1.43280493,0.83205034,
 0.08764869\C,0,-0.07472744,0.62820113,-0.64264835\C,0,1.09880738,0.636
 06479,0.28791554\H,0,3.0469141,0.50316021,1.79347479\H,0,1.77637646,-1
 .36746601,0.11883619\H,0,0.08612617,-1.60137076,-1.10271343\H,0,-1.046

 Normal termination of Gaussian 16 at Wed Apr  9 16:27:20 2025.
 Gaussian 16:  ES64L-G16RevC.01  3-Jul-2019

 ----------------------------------------------------------------------
 #t hf aug-cc-pvdz iop(5/13=1,5/36=2,99/5=2) pseudo=read geom=check gue
 ss=(read,tcheck) scf=(maxcycle=1)
 ----------------------------------------------------------------------
 -----
 title
 -----
 Structure from the checkpoint file:  "Grambow2020_wb97xd3_008416_reverse_mol2.chk"
 Charge =  0 Multiplicity = 1

                         Standard orientation:
 ---------------------------------------------------------------------
 Center     Atomic      Atomic             Coordinates (Angstroms)
 Number     Number       Type             X           Y           Z
 ---------------------------------------------------------------------
      1          8           0       -2.948161   -0.179748   -0.339712
      2          6           0       -1.655055   -0.344154    0.044414
      3          6           0        1.257377   -0.963440    0.559090
      4          6           0        1.864238   -0.522229   -0.787298
      5          6           0        1.658244    0.942390   -0.354081
      6          6           0        0.644018    0.449109    0.717032
      7          6           0       -0.783230    0.622200    0.297272
      8          1           0       -3.142755    0.758824   -0.405202
      9          1           0       -1.413627   -1.396515    0.126356
     10          1           0        0.593340   -1.827317    0.562628
     11          1           0        2.030562   -1.130638    1.310218
     12          1           0        1.218842   -0.787395   -1.625157
     13          1           0        2.880991   -0.843784   -1.012067
     14          1           0        2.553958    1.362342    0.106288
     15          1           0        1.283469    1.643566   -1.100869
     16          1           0        0.781132    0.899612    1.703592
     17          1           0       -1.114174    1.656032    0.193334
 ---------------------------------------------------------------------

 SCF Done:  E(RHF) =  -307.969383437     A.U. after    2 cycles

 The electronic state is 1-A.
 Alpha  occ. eigenvalues --  -20.59807 -11.29751 -11.23910 -11.22717 -11.22662
 Alpha  occ. eigenvalues --  -11.22574 -11.22446  -1.36082  -1.12997  -1.02141
 Alpha  occ. eigenvalues --   -0.90257  -0.89155  -0.82634  -0.74950  -0.68719
 Alpha  occ. eigenvalues --   -0.66957  -0.65336  -0.61472  -0.59166  -0.55151
 Alpha  occ. eigenvalues --   -0.53918  -0.53445  -0.48863  -0.45866  -0.45015
 Alpha  occ. eigenvalues --   -0.43764  -0.33724
 Alpha virt. eigenvalues --    0.03362   0.04030   0.04570   0.04794   0.06062
 Alpha virt. eigenvalues --    0.06461   0.06722   0.07234   0.08090   0.09010
 Alpha virt. eigenvalues --    0.12114   0.12593   0.13126   0.13797   0.14438

 Mulliken charges:
               1
     1  O   -0.459446
     2  C    0.423956
     3  C    0.725138
     4  C    0.356568
     5  C    0.571887
     6  C   -0.128616
     7  C    0.768497
     8  H    0.125421
     9  H   -0.332695
    10  H   -0.256944
    11  H   -0.165623
    12  H   -0.210315
    13  H   -0.195287
    14  H   -0.226216
    15  H   -0.242335
    16  H   -0.212224
    17  H   -0.541764
 Sum of Mulliken charges =   0.00000

 Dipole moment (field-independent basis, Debye):
    X=              0.8329    Y=              1.1625    Z=              0.2027  Tot=              1.4444

 Test job not archived.
 1\1\GINC-SE043\SP\RHF\Aug-CC-pVDZ\C6H10O1\OHZDE\09-Apr-2025\0\\#t hf a
 ug-cc-pvdz iop(5/13=1,5/36=2,99/5=2) pseudo=read geom=check guess=(rea
 d,tcheck) scf=(maxcycle=1)\\title\\0,1\O,0,2.95712644,-0.37384358,1.41
 153851\C,0,1.89578146,-0.3871824,0.56296687\C,0,-0.59888206,-0.7540187
 1,-1.10219172\C,0,-1.66890029,-0.68870432,0.00528493\C,0,-1.43280493,0
 .83205034,0.08764869\C,0,-0.07472744,0.62820113,-0.64264835\C,0,1.0988
 0738,0.63606479,0.28791554\H,0,3.0469141,0.50316021,1.79347479\H,0,1.7
 7637646,-1.36746601,0.11883619\H,0,0.08612617,-1.60137076,-1.10271343\

 Normal termination of Gaussian 16 at Wed Apr  9 16:27:27 2025.
