 Gaussian 16, Revision C.01,

 ----------------------------------------------------------------------
 #t hf aug-cc-pvdz symm=none int=(grid=ultrafine) guess=(read,tcheck) s
 table=(opt,rrhf)
 ----------------------------------------------------------------------
 -----
 title
 -----
 Symbolic Z-matrix:
 Charge =  0 Multiplicity = 1

 SCF Done:  E(RHF) =  -323.681931979     A.U. after   16 cycles
 Normal termination of Gaussian 16 at Wed Apr  9 15:15:07 2025.
 Gaussian 16:  ES64L-G16RevC.01  3-Jul-2019

 ----------------------------------------------------------------------
 #t hf aug-cc-pvdz iop(5/13=1,5/36=2,99/5=2) pseudo=read geom=check gue
 ss=(read,tcheck) scf=(maxcycle=1)
 ----------------------------------------------------------------------
 -----
 title
 -----
 Structure from the checkpoint file:  "Grambow2020_wb97xd3_006823_forward_mol1.chk"
 Charge =  0 Multiplicity = 1

                         Standard orientation:
 ---------------------------------------------------------------------
 Center     Atomic      Atomic             Coordinates (Angstroms)
 Number     Number       Type             X           Y           Z
 ---------------------------------------------------------------------
      1          6           0       -2.162720   -1.473848    0.224574
      2          6           0       -0.981089    0.304362   -0.714704
      3          6           0       -1.078577    1.469557    0.251410
      4          6           0        0.471151    1.522962    0.083499
      5          6           0        0.377087    0.050987   -0.308002
      6          7           0        1.125197   -0.962174   -0.177210
      7          8           0        2.415406   -0.581576    0.192894
      8          1           0       -2.744864   -0.928733    0.961636
      9          1           0       -1.256838   -1.903039    0.639062
     10          1           0       -2.766149   -2.229237   -0.278889
     11          1           0       -1.918596   -0.763362   -0.679710
     12          1           0       -1.688269    2.309992   -0.076821
     13          1           0       -1.306083    1.220105    1.289525
     14          1           0        1.040379    1.679339    0.998589
     15          1           0        0.830094    2.182016   -0.701985
     16          1           0        2.855580   -1.423379    0.325258
 ---------------------------------------------------------------------

 SCF Done:  E(RHF) =  -323.779662265     A.U. after    2 cycles

 The electronic state is 1-A.
 Alpha  occ. eigenvalues --  -20.60568 -15.67416 -11.28954 -11.27865 -11.26163
 Alpha  occ. eigenvalues --  -11.25766 -11.25717  -1.37650  -1.18491  -1.08441
 Alpha  occ. eigenvalues --   -0.97817  -0.88385  -0.86186  -0.71510  -0.69598
 Alpha  occ. eigenvalues --   -0.66788  -0.64680  -0.59965  -0.58775  -0.58599
 Alpha  occ. eigenvalues --   -0.54434  -0.54176  -0.52571  -0.49866  -0.43506
 Alpha  occ. eigenvalues --   -0.41269  -0.32091
 Alpha virt. eigenvalues --    0.03321   0.04055   0.04342   0.04835   0.06121
 Alpha virt. eigenvalues --    0.06725   0.07037   0.07633   0.08374   0.08801
 Alpha virt. eigenvalues --    0.11269   0.12401   0.13377   0.13883   0.14443

 Mulliken charges:
               1
     1  C    0.415035
     2  C   -0.401552
     3  C    0.553989
     4  C    0.463273
     5  C    0.400874
     6  N   -0.264016
     7  O   -0.520055
     8  H   -0.057644
     9  H   -0.073839
    10  H   -0.118429
    11  H    0.051173
    12  H   -0.179357
    13  H   -0.195554
    14  H   -0.104153
    15  H   -0.143920
    16  H    0.174175
 Sum of Mulliken charges =  -0.00000

 Dipole moment (field-independent basis, Debye):
    X=             -1.1495    Y=              0.1695    Z=              2.0620  Tot=              2.3669

 Test job not archived.
 1\1\GINC-SE226\SP\RHF\Aug-CC-pVDZ\C5H9N1O1\OHZDE\09-Apr-2025\0\\#t hf
 aug-cc-pvdz iop(5/13=1,5/36=2,99/5=2) pseudo=read geom=check guess=(re
 ad,tcheck) scf=(maxcycle=1)\\title\\0,1\C,0,-1.6915185,-1.55545262,-0.
 29075971\C,0,-0.21082402,0.08862467,-1.02905503\C,0,-0.63557975,1.3966
 6292,-0.38938452\C,0,0.86699208,1.49365146,0.01752418\C,0,0.89504117,-
 0.02649658,-0.11360008\N,0,1.52118255,-0.96553015,0.46036266\O,0,2.590
 15915,-0.46635279,1.20506539\H,0,-2.49406212,-0.91986991,0.07153808\H,
 0,-1.01213803,-1.86363002,0.49670324\H,0,-2.08077602,-2.41385547,-0.83

 Normal termination of Gaussian 16 at Wed Apr  9 15:15:13 2025.
