 Gaussian 16, Revision C.01,

 ----------------------------------------------------------------------
 #t hf aug-cc-pvdz symm=none int=(grid=ultrafine) guess=(read,tcheck) s
 table=(opt,rrhf)
 ----------------------------------------------------------------------
 -----
 title
 -----
 Symbolic Z-matrix:
 Charge =  0 Multiplicity = 1

 SCF Done:  E(RHF) =  -308.832168837     A.U. after   14 cycles

 1\1\GINC-SE174\Stability\RHF\Aug-CC-pVDZ\C6H12O1\OHZDE\09-Apr-2025\0\\
 #t hf aug-cc-pvdz symm=none int=(grid=ultrafine) guess=(read,tcheck) s
 table=(opt,rrhf)\\title\\0,1\C,0,1.27540879,-0.11374188,1.41289657\C,0
 ,1.13373198,-0.75838191,0.21947198\C,0,1.61088755,-0.16357993,-1.07682
 963\C,0,-1.15037137,-0.82755071,-0.31099\C,0,-1.93625489,-0.2598522,0.
 61152323\C,0,-1.72041905,0.50403964,-0.62530865\O,0,-0.94409115,1.6799
 2073,-0.55463032\H,0,-0.17560422,0.4343006,1.86756126\H,0,1.32230436,-
 0.67597381,2.33781607\H,0,1.66901809,0.8969781,1.44326403\H,0,1.048679

 Normal termination of Gaussian 16 at Wed Apr  9 16:26:29 2025.
 Gaussian 16:  ES64L-G16RevC.01  3-Jul-2019

 ----------------------------------------------------------------------
 #t hf aug-cc-pvdz iop(5/13=1,5/36=2,99/5=2) pseudo=read geom=check gue
 ss=(read,tcheck) scf=(maxcycle=1)
 ----------------------------------------------------------------------
 -----
 title
 -----
 Structure from the checkpoint file:  "Grambow2020_wb97xd3_008291_forward_mol1.chk"
 Charge =  0 Multiplicity = 1

                         Standard orientation:
 ---------------------------------------------------------------------
 Center     Atomic      Atomic             Coordinates (Angstroms)
 Number     Number       Type             X           Y           Z
 ---------------------------------------------------------------------
      1          6           0        1.621299   -1.015978    0.793311
      2          6           0        1.502460   -0.315141   -0.370562
      3          6           0        1.680995    1.176908   -0.432027
      4          6           0       -0.746853   -0.370504   -1.034511
      5          6           0       -1.536205   -1.068565   -0.209551
      6          6           0       -1.642968    0.395354   -0.136000
      7          8           0       -1.159374    1.040799    1.021547
      8          1           0        0.142093   -1.459907    1.270158
      9          1           0        1.900271   -2.062733    0.777219
     10          1           0        1.769205   -0.492583    1.732240
     11          1           0        1.675321   -0.855519   -1.294524
     12          1           0        2.719860    1.417413   -0.676300
     13          1           0        1.455097    1.630526    0.533276
     14          1           0        1.052030    1.644667   -1.191586
     15          1           0       -0.437029   -0.366118   -2.064497
     16          1           0       -2.183721   -1.930795   -0.203274
     17          1           0       -0.663839   -1.487874    1.041925
     18          1           0       -2.529087    0.894927   -0.534171
     19          1           0       -0.897583    1.929158    0.773201
 ---------------------------------------------------------------------

 SCF Done:  E(RHF) =  -308.933915731     A.U. after    2 cycles

 The electronic state is 1-A.
 Alpha  occ. eigenvalues --  -20.56141 -11.30006 -11.25014 -11.24704 -11.24245
 Alpha  occ. eigenvalues --  -11.23329 -11.22947  -1.31966  -1.14523  -1.05588
 Alpha  occ. eigenvalues --   -0.93146  -0.81642  -0.79217  -0.75886  -0.70375
 Alpha  occ. eigenvalues --   -0.69064  -0.63961  -0.61329  -0.58361  -0.57187
 Alpha  occ. eigenvalues --   -0.56122  -0.53548  -0.52297  -0.49504  -0.46055
 Alpha  occ. eigenvalues --   -0.41100  -0.33767  -0.33101
 Alpha virt. eigenvalues --    0.03277   0.04078   0.04343   0.04604   0.05859
 Alpha virt. eigenvalues --    0.06435   0.06518   0.06818   0.07993   0.09431
 Alpha virt. eigenvalues --    0.09974   0.10829   0.11571   0.12573   0.13092

 Mulliken charges:
               1
     1  C    0.043838
     2  C    0.491167
     3  C    0.408539
     4  C    0.550304
     5  C   -0.020223
     6  C    0.880458
     7  O   -0.618684
     8  H    0.166130
     9  H   -0.225968
    10  H   -0.196662
    11  H   -0.366939
    12  H   -0.053377
    13  H   -0.110437
    14  H   -0.090475
    15  H   -0.491122
    16  H   -0.406989
    17  H    0.187864
    18  H   -0.317351
    19  H    0.169927
 Sum of Mulliken charges =  -0.00000

 Dipole moment (field-independent basis, Debye):
    X=              0.4297    Y=              0.3964    Z=             -2.0187  Tot=              2.1016

 Test job not archived.
 1\1\GINC-SE174\SP\RHF\Aug-CC-pVDZ\C6H12O1\OHZDE\09-Apr-2025\0\\#t hf a
 ug-cc-pvdz iop(5/13=1,5/36=2,99/5=2) pseudo=read geom=check guess=(rea
 d,tcheck) scf=(maxcycle=1)\\title\\0,1\C,0,1.27540879,-0.11374188,1.41
 289657\C,0,1.13373198,-0.75838191,0.21947198\C,0,1.61088755,-0.1635799
 3,-1.07682963\C,0,-1.15037137,-0.82755071,-0.31099\C,0,-1.93625489,-0.
 2598522,0.61152323\C,0,-1.72041905,0.50403964,-0.62530865\O,0,-0.94409
 115,1.67992073,-0.55463032\H,0,-0.17560422,0.4343006,1.86756126\H,0,1.
 32230436,-0.67597381,2.33781607\H,0,1.66901809,0.8969781,1.44326403\H,

 Normal termination of Gaussian 16 at Wed Apr  9 16:26:37 2025.
