 Gaussian 16, Revision C.01,

 ----------------------------------------------------------------------
 #t hf aug-cc-pvdz symm=none int=(grid=ultrafine) guess=(read,tcheck) s
 table=(opt,rrhf)
 ----------------------------------------------------------------------
 -----
 title
 -----
 Symbolic Z-matrix:
 Charge =  0 Multiplicity = 1

 SCF Done:  E(RHF) =  -358.430384758     A.U. after   20 cycles
 Normal termination of Gaussian 16 at Wed Apr  9 03:39:15 2025.
 Gaussian 16:  ES64L-G16RevC.01  3-Jul-2019

 ----------------------------------------------------------------------
 #t hf aug-cc-pvdz iop(5/13=1,5/36=2,99/5=2) pseudo=read geom=check gue
 ss=(read,tcheck) scf=(maxcycle=1)
 ----------------------------------------------------------------------
 -----
 title
 -----
 Structure from the checkpoint file:  "Grambow2020_wb97xd3_007456_forward_mol1.chk"
 Charge =  0 Multiplicity = 1

                         Standard orientation:
 ---------------------------------------------------------------------
 Center     Atomic      Atomic             Coordinates (Angstroms)
 Number     Number       Type             X           Y           Z
 ---------------------------------------------------------------------
      1          8           0        2.748579   -0.358865    0.073003
      2          6           0        1.734611    0.587158    0.163337
      3          6           0        0.326984    0.030038    0.012005
      4          7           0       -0.021409   -1.138219   -0.157613
      5          8           0       -2.437901   -0.728067    0.120002
      6          6           0       -2.111282    0.443235    0.048019
      7          6           0       -0.809921    0.931002   -0.193167
      8          1           0        2.682220   -0.821830   -0.765254
      9          1           0        1.779306    1.030631    1.160162
     10          1           0        1.837898    1.399512   -0.567903
     11          1           0       -2.846297    1.242180    0.267951
     12          1           0       -0.631037    1.863897   -0.716868
 ---------------------------------------------------------------------

 SCF Done:  E(RHF) =  -358.538865971     A.U. after    2 cycles

 The electronic state is 1-A.
 Alpha  occ. eigenvalues --  -20.61571 -20.55355 -15.73789 -11.35256 -11.34443
 Alpha  occ. eigenvalues --  -11.33445 -11.27504  -1.37859  -1.34361  -1.25509
 Alpha  occ. eigenvalues --   -1.02699  -0.99619  -0.83219  -0.77048  -0.72011
 Alpha  occ. eigenvalues --   -0.69584  -0.67388  -0.66672  -0.62663  -0.59151
 Alpha  occ. eigenvalues --   -0.57187  -0.54305  -0.52594  -0.50450  -0.43427
 Alpha  occ. eigenvalues --   -0.33657
 Alpha virt. eigenvalues --   -0.00165   0.02408   0.03807   0.04432   0.05127
 Alpha virt. eigenvalues --    0.06878   0.08907   0.10033   0.10867   0.11413
 Alpha virt. eigenvalues --    0.11857   0.12624   0.13718   0.14398   0.15233

 Mulliken charges:
               1
     1  O   -0.500211
     2  C    0.975215
     3  C   -0.167141
     4  N   -0.333355
     5  O   -0.505325
     6  C    0.578985
     7  C    0.302210
     8  H    0.142996
     9  H    0.053137
    10  H   -0.006984
    11  H   -0.148624
    12  H   -0.390903
 Sum of Mulliken charges =  -0.00000

 Dipole moment (field-independent basis, Debye):
    X=              3.0097    Y=              3.9573    Z=             -1.3944  Tot=              5.1636

 Test job not archived.
 1\1\GINC-SE162\SP\RHF\Aug-CC-pVDZ\C4H5N1O2\OHZDE\09-Apr-2025\0\\#t hf
 aug-cc-pvdz iop(5/13=1,5/36=2,99/5=2) pseudo=read geom=check guess=(re
 ad,tcheck) scf=(maxcycle=1)\\title\\0,1\O,0,-2.5984515,0.4982306,-0.32
 402522\C,0,-1.5435772,-0.25594217,0.17568955\C,0,-0.16283101,0.3281006
 8,-0.08340731\N,0,0.13097387,1.37857175,-0.65363666\O,0,2.53197412,1.3
 1244387,-0.09189301\C,0,2.28195647,0.17249489,0.25713263\C,0,1.0385048
 7,-0.48187914,0.13363758\H,0,-2.48320995,0.62557689,-1.26843854\H,0,-1
 .65283232,-0.30520497,1.26102954\H,0,-1.53251693,-1.28549866,-0.205348

 Normal termination of Gaussian 16 at Wed Apr  9 03:39:19 2025.
