 Gaussian 16, Revision C.01,

 ----------------------------------------------------------------------
 #t hf aug-cc-pvdz symm=none int=(grid=ultrafine) guess=(read,tcheck) s
 table=(opt,rrhf)
 ----------------------------------------------------------------------
 -----
 title
 -----
 Symbolic Z-matrix:
 Charge =  0 Multiplicity = 1

 SCF Done:  E(RHF) =  -307.858668572     A.U. after   13 cycles

 1\1\GINC-SE454\Stability\RHF\Aug-CC-pVDZ\C6H10O1\OHZDE\09-Apr-2025\0\\
 #t hf aug-cc-pvdz symm=none int=(grid=ultrafine) guess=(read,tcheck) s
 table=(opt,rrhf)\\title\\0,1\C,0,2.01635947,0.5193182,-0.15696226\C,0,
 0.88503442,-0.48664256,-0.23461663\C,0,-0.00253449,-0.7188331,1.027370
 19\C,0,-1.22683789,-0.36430919,0.19218861\O,0,-2.426066,-1.0507823,0.2
 4631908\C,0,-1.11324586,1.01443024,-0.36226427\C,0,-0.37390803,-0.1219
 8792,-1.0243433\H,0,2.78608245,0.18793516,0.54377602\H,0,1.66371751,1.
 49704592,0.17902929\H,0,2.48726448,0.65289362,-1.1334606\H,0,1.2721965

 Normal termination of Gaussian 16 at Wed Apr  9 16:34:10 2025.
 Gaussian 16:  ES64L-G16RevC.01  3-Jul-2019

 ----------------------------------------------------------------------
 #t hf aug-cc-pvdz iop(5/13=1,5/36=2,99/5=2) pseudo=read geom=check gue
 ss=(read,tcheck) scf=(maxcycle=1)
 ----------------------------------------------------------------------
 -----
 title
 -----
 Structure from the checkpoint file:  "Grambow2020_wb97xd3_008606_forward_mol2.chk"
 Charge =  0 Multiplicity = 1

                         Standard orientation:
 ---------------------------------------------------------------------
 Center     Atomic      Atomic             Coordinates (Angstroms)
 Number     Number       Type             X           Y           Z
 ---------------------------------------------------------------------
      1          6           0       -2.406472    0.079623   -0.154415
      2          6           0       -1.097673   -0.364708    0.468080
      3          6           0       -0.077528   -1.154289   -0.409512
      4          6           0        0.968124   -0.091854   -0.093319
      5          8           0        2.286166   -0.371417    0.218022
      6          6           0        0.517190    1.253070   -0.550573
      7          6           0       -0.016614    0.683456    0.740554
      8          1           0       -3.025925   -0.780961   -0.417082
      9          1           0       -2.242890    0.658488   -1.066201
     10          1           0       -2.975890    0.703462    0.538212
     11          1           0       -1.300186   -0.927437    1.381434
     12          1           0       -0.330657   -1.281837   -1.465684
     13          1           0        0.176596   -2.122685    0.020042
     14          1           0        2.808386   -0.317917   -0.584904
     15          1           0        1.249830    2.038535   -0.410312
     16          1           0       -0.116742    1.373313   -1.423500
     17          1           0        0.145982    1.196592    1.678924
 ---------------------------------------------------------------------

 SCF Done:  E(RHF) =  -307.953768330     A.U. after    2 cycles

 The electronic state is 1-A.
 Alpha  occ. eigenvalues --  -20.57936 -11.29106 -11.23821 -11.23296 -11.23245
 Alpha  occ. eigenvalues --  -11.22803 -11.22052  -1.33876  -1.17682  -1.01410
 Alpha  occ. eigenvalues --   -0.94330  -0.85586  -0.80586  -0.73117  -0.71007
 Alpha  occ. eigenvalues --   -0.65380  -0.63303  -0.61263  -0.56997  -0.56116
 Alpha  occ. eigenvalues --   -0.54333  -0.53096  -0.49355  -0.47025  -0.44756
 Alpha  occ. eigenvalues --   -0.39613  -0.37817
 Alpha virt. eigenvalues --    0.03392   0.04194   0.04500   0.04813   0.06237
 Alpha virt. eigenvalues --    0.06472   0.06701   0.07141   0.07738   0.09333
 Alpha virt. eigenvalues --    0.11123   0.12787   0.13165   0.14136   0.14554

 Mulliken charges:
               1
     1  C    0.537123
     2  C   -0.473773
     3  C    0.636856
     4  C    0.204353
     5  O   -0.607521
     6  C    0.891321
     7  C    0.500366
     8  H   -0.019533
     9  H   -0.069944
    10  H   -0.031949
    11  H   -0.195114
    12  H   -0.221565
    13  H   -0.129120
    14  H    0.141517
    15  H   -0.313099
    16  H   -0.423996
    17  H   -0.425922
 Sum of Mulliken charges =  -0.00000

 Dipole moment (field-independent basis, Debye):
    X=             -0.4795    Y=              0.2764    Z=             -1.2790  Tot=              1.3936

 Test job not archived.
 1\1\GINC-SE454\SP\RHF\Aug-CC-pVDZ\C6H10O1\OHZDE\09-Apr-2025\0\\#t hf a
 ug-cc-pvdz iop(5/13=1,5/36=2,99/5=2) pseudo=read geom=check guess=(rea
 d,tcheck) scf=(maxcycle=1)\\title\\0,1\C,0,2.01635947,0.5193182,-0.156
 96226\C,0,0.88503442,-0.48664256,-0.23461663\C,0,-0.00253449,-0.718833
 1,1.02737019\C,0,-1.22683789,-0.36430919,0.19218861\O,0,-2.426066,-1.0
 507823,0.24631908\C,0,-1.11324586,1.01443024,-0.36226427\C,0,-0.373908
 03,-0.12198792,-1.0243433\H,0,2.78608245,0.18793516,0.54377602\H,0,1.6
 6371751,1.49704592,0.17902929\H,0,2.48726448,0.65289362,-1.1334606\H,0

 Normal termination of Gaussian 16 at Wed Apr  9 16:34:16 2025.
