 Gaussian 16, Revision C.01,

 ----------------------------------------------------------------------
 #t hf aug-cc-pvdz symm=none int=(grid=ultrafine) guess=(read,tcheck) s
 table=(opt,rrhf)
 ----------------------------------------------------------------------
 -----
 title
 -----
 Symbolic Z-matrix:
 Charge =  0 Multiplicity = 1

 SCF Done:  E(RHF) =  -343.590172947     A.U. after   14 cycles
 Normal termination of Gaussian 16 at Wed Apr  9 15:24:00 2025.
 Gaussian 16:  ES64L-G16RevC.01  3-Jul-2019

 ----------------------------------------------------------------------
 #t hf aug-cc-pvdz iop(5/13=1,5/36=2,99/5=2) pseudo=read geom=check gue
 ss=(read,tcheck) scf=(maxcycle=1)
 ----------------------------------------------------------------------
 -----
 title
 -----
 Structure from the checkpoint file:  "Grambow2020_wb97xd3_006879_forward_mol1.chk"
 Charge =  0 Multiplicity = 1

                         Standard orientation:
 ---------------------------------------------------------------------
 Center     Atomic      Atomic             Coordinates (Angstroms)
 Number     Number       Type             X           Y           Z
 ---------------------------------------------------------------------
      1          6           0        0.612632    1.644014    0.041070
      2          6           0        0.579640    0.152948   -0.129330
      3          6           0        1.031015   -0.784772    0.936130
      4          6           0        1.828323   -0.631354   -0.333974
      5          8           0       -0.498765   -0.303112   -0.972012
      6          6           0       -1.710388   -0.346443   -0.489032
      7          8           0       -1.942820    0.013352    0.724856
      8          1           0       -0.251094    1.995969    0.604154
      9          1           0        0.625783    2.136161   -0.933005
     10          1           0        1.516259    1.931941    0.579783
     11          1           0        1.410985   -0.351748    1.852183
     12          1           0        0.473154   -1.701446    1.066069
     13          1           0        2.767501   -0.094935   -0.300175
     14          1           0        1.787131   -1.443232   -1.047366
     15          1           0       -2.844369   -0.360982    0.006425
 ---------------------------------------------------------------------

 SCF Done:  E(RHF) =  -343.700936905     A.U. after    2 cycles

 The electronic state is 1-A.
 Alpha  occ. eigenvalues --  -20.63221 -20.60084 -11.37637 -11.31498 -11.24523
 Alpha  occ. eigenvalues --  -11.24391 -11.23725  -1.44131  -1.35720  -1.15578
 Alpha  occ. eigenvalues --   -0.98366  -0.88482  -0.84200  -0.76866  -0.74796
 Alpha  occ. eigenvalues --   -0.70366  -0.68531  -0.63008  -0.59892  -0.58604
 Alpha  occ. eigenvalues --   -0.56260  -0.55507  -0.52705  -0.51913  -0.44121
 Alpha  occ. eigenvalues --   -0.42384  -0.38344
 Alpha virt. eigenvalues --    0.03571   0.04510   0.04578   0.04906   0.06038
 Alpha virt. eigenvalues --    0.06958   0.07229   0.07884   0.10140   0.10774
 Alpha virt. eigenvalues --    0.11720   0.13319   0.13715   0.14524   0.14775

 Mulliken charges:
               1
     1  C    0.236851
     2  C   -0.021320
     3  C    0.706492
     4  C    0.933041
     5  O   -0.570666
     6  C    0.072313
     7  O   -0.571580
     8  H    0.028972
     9  H    0.026204
    10  H   -0.049898
    11  H   -0.314215
    12  H   -0.283378
    13  H   -0.360761
    14  H   -0.271556
    15  H    0.439501
 Sum of Mulliken charges =  -0.00000

 Dipole moment (field-independent basis, Debye):
    X=              1.3005    Y=              0.2796    Z=              0.3088  Tot=              1.3656

 Test job not archived.
 1\1\GINC-SE114\SP\RHF\Aug-CC-pVDZ\C5H8O2\OHZDE\09-Apr-2025\0\\#t hf au
 g-cc-pvdz iop(5/13=1,5/36=2,99/5=2) pseudo=read geom=check guess=(read
 ,tcheck) scf=(maxcycle=1)\\title\\0,1\C,0,-0.27590144,1.50371285,-0.20
 760518\C,0,-0.16018332,0.08457779,0.26785893\C,0,-0.82034161,-1.051193
 75,-0.43390857\C,0,-1.30283361,-0.60840731,0.9238633\O,0,1.09824691,-0
 .20238849,0.91211509\C,0,2.16414439,-0.37662104,0.17952869\O,0,2.09571
 551,-0.29358442,-1.1032123\H,0,0.42154992,1.70578772,-1.01981615\H,0,-
 0.0754595,2.19529584,0.61260199\H,0,-1.28847934,1.68846358,-0.56844981

 Normal termination of Gaussian 16 at Wed Apr  9 15:24:05 2025.
