 Gaussian 16, Revision C.01,

 ----------------------------------------------------------------------
 #t hf aug-cc-pvdz symm=none int=(grid=ultrafine) guess=(read,tcheck) s
 table=(opt,rrhf)
 ----------------------------------------------------------------------
 -----
 title
 -----
 Symbolic Z-matrix:
 Charge =  0 Multiplicity = 1

 SCF Done:  E(RHF) =  -301.582087732     A.U. after   16 cycles
 Normal termination of Gaussian 16 at Wed Apr  9 03:46:30 2025.
 Gaussian 16:  ES64L-G16RevC.01  3-Jul-2019

 ----------------------------------------------------------------------
 #t hf aug-cc-pvdz iop(5/13=1,5/36=2,99/5=2) pseudo=read geom=check gue
 ss=(read,tcheck) scf=(maxcycle=1)
 ----------------------------------------------------------------------
 -----
 title
 -----
 Structure from the checkpoint file:  "Grambow2020_wb97xd3_007927_reverse_mol2.chk"
 Charge =  0 Multiplicity = 1

                         Standard orientation:
 ---------------------------------------------------------------------
 Center     Atomic      Atomic             Coordinates (Angstroms)
 Number     Number       Type             X           Y           Z
 ---------------------------------------------------------------------
      1          6           0       -1.519472    0.830407    0.225791
      2          6           0       -1.738875   -0.662508    0.091167
      3          6           0       -0.284359   -0.669764   -0.359717
      4          7           0        0.914525   -1.256794    0.012446
      5          6           0        1.757503   -0.297858    0.168550
      6          6           0        1.137573    1.087321   -0.004802
      7          7           0       -0.232507    0.673199   -0.212924
      8          1           0        1.218976    1.730805    0.868207
      9          1           0       -2.142741    1.672283   -0.051348
     10          1           0       -1.825141   -1.184648    1.045601
     11          1           0       -2.509537   -1.000903   -0.599765
     12          1           0        2.820532   -0.467042    0.288715
     13          1           0        1.549568    1.609087   -0.873998
 ---------------------------------------------------------------------

 SCF Done:  E(RHF) =  -301.668517927     A.U. after    2 cycles

 The electronic state is 1-A.
 Alpha  occ. eigenvalues --  -15.70660 -15.64627 -11.31122 -11.29849 -11.28350
 Alpha  occ. eigenvalues --  -11.25855 -11.25285  -1.34274  -1.19832  -1.07029
 Alpha  occ. eigenvalues --   -0.93253  -0.90126  -0.80825  -0.73796  -0.69447
 Alpha  occ. eigenvalues --   -0.68412  -0.64450  -0.60692  -0.56931  -0.52583
 Alpha  occ. eigenvalues --   -0.52032  -0.47789  -0.45212  -0.42478  -0.23898
 Alpha virt. eigenvalues --    0.02902   0.03859   0.04213   0.04725   0.06350
 Alpha virt. eigenvalues --    0.06563   0.06996   0.08883   0.10569   0.11349
 Alpha virt. eigenvalues --    0.11768   0.12691   0.13250   0.13627   0.14669

 Mulliken charges:
               1
     1  C    0.282450
     2  C    0.560472
     3  C    0.080719
     4  N   -0.565790
     5  C    0.290568
     6  C    0.810988
     7  N   -0.506881
     8  H   -0.114907
     9  H   -0.391407
    10  H    0.071179
    11  H   -0.180076
    12  H   -0.219420
    13  H   -0.117895
 Sum of Mulliken charges =   0.00000

 Dipole moment (field-independent basis, Debye):
    X=              1.2184    Y=              2.4910    Z=             -0.1306  Tot=              2.7760

 Test job not archived.
 1\1\GINC-SE105\SP\RHF\Aug-CC-pVDZ\C5H6N2\OHZDE\09-Apr-2025\0\\#t hf au
 g-cc-pvdz iop(5/13=1,5/36=2,99/5=2) pseudo=read geom=check guess=(read
 ,tcheck) scf=(maxcycle=1)\\title\\0,1\C,0,-1.56554819,-0.33095769,0.09
 968521\C,0,-1.40209811,1.1456942,0.39606005\C,0,0.07663949,0.79498497,
 0.49250689\N,0,1.27170966,1.16391348,-0.10426203\C,0,1.81886166,0.0791
 6246,-0.52672928\C,0,0.94809061,-1.15854957,-0.31957792\N,0,-0.2140530
 4,-0.50002058,0.23512339\H,0,0.6926495,-1.68899412,-1.23402998\H,0,-2.
 29256721,-1.05404234,0.44985425\H,0,-1.56594899,1.79107082,-0.4686124\

 Normal termination of Gaussian 16 at Wed Apr  9 03:46:35 2025.
