 Gaussian 16, Revision C.01,

 ----------------------------------------------------------------------
 #t hf aug-cc-pvdz symm=none int=(grid=ultrafine) guess=(read,tcheck) s
 table=(opt,rrhf)
 ----------------------------------------------------------------------
 -----
 title
 -----
 Symbolic Z-matrix:
 Charge =  0 Multiplicity = 1

 SCF Done:  E(RHF) =  -306.459066221     A.U. after   18 cycles
 Normal termination of Gaussian 16 at Wed Apr  9 16:22:18 2025.
 Gaussian 16:  ES64L-G16RevC.01  3-Jul-2019

 ----------------------------------------------------------------------
 #t hf aug-cc-pvdz iop(5/13=1,5/36=2,99/5=2) pseudo=read geom=check gue
 ss=(read,tcheck) scf=(maxcycle=1)
 ----------------------------------------------------------------------
 -----
 title
 -----
 Structure from the checkpoint file:  "Grambow2020_wb97xd3_008153_reverse_mol1.chk"
 Charge =  0 Multiplicity = 1

                         Standard orientation:
 ---------------------------------------------------------------------
 Center     Atomic      Atomic             Coordinates (Angstroms)
 Number     Number       Type             X           Y           Z
 ---------------------------------------------------------------------
      1          8           0        2.152918   -0.437966   -0.184896
      2          6           0        0.981618    0.130935    0.182106
      3          6           0        0.272456    1.311056   -0.276236
      4          6           0       -1.056054    0.720953    0.439102
      5          6           0       -1.768723   -0.115388   -0.525441
      6          6           0       -0.748040   -1.196322   -0.280817
      7          6           0       -0.107901   -0.468146    0.913483
      8          1           0        2.564589    0.098835   -0.865647
      9          1           0        0.246072    1.549177   -1.350288
     10          1           0        0.469848    2.217830    0.296225
     11          1           0       -1.536663    1.431826    1.107979
     12          1           0       -1.845356   -1.409832    0.126926
     13          1           0       -2.217911    0.174489   -1.467064
     14          1           0       -0.296250   -1.901037   -0.968839
     15          1           0       -0.047810   -0.956086    1.886698
 ---------------------------------------------------------------------

 SCF Done:  E(RHF) =  -306.549708442     A.U. after    2 cycles

 The electronic state is 1-A.
 Alpha  occ. eigenvalues --  -20.61707 -11.31725 -11.26525 -11.26305 -11.25404
 Alpha  occ. eigenvalues --  -11.24658 -11.22275  -1.37813  -1.19859  -1.02570
 Alpha  occ. eigenvalues --   -0.94052  -0.86198  -0.81013  -0.73083  -0.70232
 Alpha  occ. eigenvalues --   -0.67824  -0.66430  -0.64656  -0.58181  -0.54996
 Alpha  occ. eigenvalues --   -0.51783  -0.49666  -0.48335  -0.45443  -0.41398
 Alpha  occ. eigenvalues --   -0.19643
 Alpha virt. eigenvalues --    0.02948   0.04036   0.04533   0.04779   0.06236
 Alpha virt. eigenvalues --    0.06398   0.06987   0.07160   0.08483   0.11149
 Alpha virt. eigenvalues --    0.12052   0.12471   0.12986   0.13595   0.13984

 Mulliken charges:
               1
     1  O   -0.558895
     2  C    0.309225
     3  C    0.313148
     4  C    0.298289
     5  C    0.036977
     6  C    0.147892
     7  C    0.376281
     8  H    0.130563
     9  H   -0.197113
    10  H    0.007080
    11  H   -0.300789
    12  H    0.402507
    13  H   -0.390390
    14  H   -0.297305
    15  H   -0.277469
 Sum of Mulliken charges =  -0.00000

 Dipole moment (field-independent basis, Debye):
    X=              1.5797    Y=              1.4775    Z=             -0.8480  Tot=              2.3233

 Test job not archived.
 1\1\GINC-SE041\SP\RHF\Aug-CC-pVDZ\C6H8O1\OHZDE\09-Apr-2025\0\\#t hf au
 g-cc-pvdz iop(5/13=1,5/36=2,99/5=2) pseudo=read geom=check guess=(read
 ,tcheck) scf=(maxcycle=1)\\title\\0,1\O,0,2.13265814,1.03516315,-0.473
 23825\C,0,1.10323076,0.15736394,-0.47864874\C,0,0.80478442,-1.01704064
 ,0.31971041\C,0,-0.72843335,-0.90516986,-0.19175762\C,0,-1.46589237,-0
 .05171133,0.73854811\C,0,-0.81053455,1.1439117,0.09742095\C,0,-0.20717
 884,0.32636895,-1.05754939\H,0,2.77302008,0.76613954,0.18903995\H,0,1.
 01481391,-1.01048478,1.39990988\H,0,1.13290041,-1.96280155,-0.11248102

 Normal termination of Gaussian 16 at Wed Apr  9 16:22:23 2025.
