 Gaussian 16, Revision C.01,

 ----------------------------------------------------------------------
 #t hf aug-cc-pvdz symm=none int=(grid=ultrafine) guess=(read,tcheck) s
 table=(opt,rrhf)
 ----------------------------------------------------------------------
 -----
 title
 -----
 Symbolic Z-matrix:
 Charge =  0 Multiplicity = 1

 SCF Done:  E(RHF) =  -337.539583283     A.U. after   16 cycles
 Normal termination of Gaussian 16 at Wed Apr  9 16:36:52 2025.
 Gaussian 16:  ES64L-G16RevC.01  3-Jul-2019

 ----------------------------------------------------------------------
 #t hf aug-cc-pvdz iop(5/13=1,5/36=2,99/5=2) pseudo=read geom=check gue
 ss=(read,tcheck) scf=(maxcycle=1)
 ----------------------------------------------------------------------
 -----
 title
 -----
 Structure from the checkpoint file:  "Grambow2020_wb97xd3_008692_reverse_mol2.chk"
 Charge =  0 Multiplicity = 1

                         Standard orientation:
 ---------------------------------------------------------------------
 Center     Atomic      Atomic             Coordinates (Angstroms)
 Number     Number       Type             X           Y           Z
 ---------------------------------------------------------------------
      1          8           0       -2.824686   -0.012423    0.009022
      2          6           0       -1.660054   -0.030610   -0.012264
      3          6           0       -0.354840   -0.009448    0.011454
      4          6           0        0.561122    1.215282    0.005144
      5          7           0        1.904363    0.634804    0.019265
      6          6           0        1.783918   -0.624409    0.000102
      7          7           0        0.501894   -1.151004   -0.097279
      8          1           0        0.425478    1.865071    0.873065
      9          1           0        0.429934    1.824476   -0.892488
     10          1           0        2.625700   -1.308082    0.020887
     11          1           0        0.291707   -1.973575    0.445843
 ---------------------------------------------------------------------

 SCF Done:  E(RHF) =  -337.641612618     A.U. after    2 cycles

 The electronic state is 1-A.
 Alpha  occ. eigenvalues --  -20.64037 -15.67201 -15.62276 -11.38356 -11.33520
 Alpha  occ. eigenvalues --  -11.29500 -11.29089  -1.43242  -1.30176  -1.15009
 Alpha  occ. eigenvalues --   -1.06139  -0.92889  -0.81017  -0.78725  -0.74682
 Alpha  occ. eigenvalues --   -0.67474  -0.65264  -0.64263  -0.62644  -0.58811
 Alpha  occ. eigenvalues --   -0.57157  -0.52661  -0.43593  -0.42408  -0.31389
 Alpha virt. eigenvalues --    0.02637   0.03976   0.04624   0.05215   0.07652
 Alpha virt. eigenvalues --    0.09324   0.09957   0.10041   0.11213   0.11974
 Alpha virt. eigenvalues --    0.12768   0.13450   0.14605   0.15081   0.15491

 Mulliken charges:
               1
     1  O   -0.222960
     2  C   -0.592364
     3  C    0.839692
     4  C    0.684311
     5  N   -0.525909
     6  C    0.756158
     7  N   -0.534254
     8  H   -0.060043
     9  H   -0.056634
    10  H   -0.232992
    11  H   -0.055005
 Sum of Mulliken charges =   0.00000

 Dipole moment (field-independent basis, Debye):
    X=              1.0480    Y=             -1.8642    Z=              0.7889  Tot=              2.2795

 Test job not archived.
 1\1\GINC-SE162\SP\RHF\Aug-CC-pVDZ\C4H4N2O1\OHZDE\09-Apr-2025\0\\#t hf
 aug-cc-pvdz iop(5/13=1,5/36=2,99/5=2) pseudo=read geom=check guess=(re
 ad,tcheck) scf=(maxcycle=1)\\title\\0,1\O,0,-2.89053661,-1.20133224,-0
 .10514468\C,0,-1.80114442,-0.78863816,-0.09737451\C,0,-0.5960945,-0.28
 951587,-0.03970114\C,0,-0.19640169,1.18551187,0.01968363\N,0,1.2659933
 2,1.14019271,0.04792971\C,0,1.61867987,-0.07297554,-0.01783304\N,0,0.6
 2240206,-1.02997685,-0.16599172\H,0,-0.57161453,1.70309064,0.9058208\H
 ,0,-0.5332048,1.74036323,-0.85939269\H,0,2.65298732,-0.3990128,0.00072

 Normal termination of Gaussian 16 at Wed Apr  9 16:36:56 2025.
