 Gaussian 16, Revision C.01,

 ----------------------------------------------------------------------
 #t hf aug-cc-pvdz symm=none int=(grid=ultrafine) guess=(read,tcheck) s
 table=(opt,rrhf)
 ----------------------------------------------------------------------
 -----
 title
 -----
 Symbolic Z-matrix:
 Charge =  0 Multiplicity = 1

 SCF Done:  E(RHF) =  -343.576189370     A.U. after   16 cycles
 Normal termination of Gaussian 16 at Wed Apr  9 15:37:04 2025.
 Gaussian 16:  ES64L-G16RevC.01  3-Jul-2019

 ----------------------------------------------------------------------
 #t hf aug-cc-pvdz iop(5/13=1,5/36=2,99/5=2) pseudo=read geom=check gue
 ss=(read,tcheck) scf=(maxcycle=1)
 ----------------------------------------------------------------------
 -----
 title
 -----
 Structure from the checkpoint file:  "Grambow2020_wb97xd3_007212_forward_mol1.chk"
 Charge =  0 Multiplicity = 1

                         Standard orientation:
 ---------------------------------------------------------------------
 Center     Atomic      Atomic             Coordinates (Angstroms)
 Number     Number       Type             X           Y           Z
 ---------------------------------------------------------------------
      1          8           0       -2.864174   -0.077864   -0.223192
      2          6           0       -1.640885   -0.586870    0.293050
      3          6           0       -0.489420    0.127130   -0.317158
      4          6           0        0.301600    1.111611    0.421794
      5          6           0        1.519058    1.581486   -0.100061
      6          6           0        1.710523   -0.757735   -0.414604
      7          8           0        2.291337   -1.531094    0.184540
      8          1           0       -3.578016   -0.663126    0.037931
      9          1           0       -1.538703   -1.653168    0.052739
     10          1           0       -1.604691   -0.489535    1.385306
     11          1           0       -0.508719    0.236305   -1.395754
     12          1           0       -0.642513    1.693688    0.056396
     13          1           0        0.225843    1.030373    1.504474
     14          1           0        2.200980    2.130284    0.536172
     15          1           0        1.623259    1.733115   -1.166173
 ---------------------------------------------------------------------

 SCF Done:  E(RHF) =  -343.684008160     A.U. after    2 cycles

 The electronic state is 1-A.
 Alpha  occ. eigenvalues --  -20.62778 -20.59175 -11.33991 -11.31612 -11.29583
 Alpha  occ. eigenvalues --  -11.27226 -11.22388  -1.43767  -1.34338  -1.11653
 Alpha  occ. eigenvalues --   -0.99399  -0.87314  -0.79221  -0.77091  -0.73213
 Alpha  occ. eigenvalues --   -0.66844  -0.65909  -0.63266  -0.61950  -0.60119
 Alpha  occ. eigenvalues --   -0.59298  -0.57357  -0.52862  -0.51934  -0.48599
 Alpha  occ. eigenvalues --   -0.46249  -0.25900
 Alpha virt. eigenvalues --    0.02857   0.04298   0.04539   0.05242   0.05946
 Alpha virt. eigenvalues --    0.06449   0.06926   0.07527   0.08778   0.09260
 Alpha virt. eigenvalues --    0.10759   0.12264   0.13270   0.13632   0.14381

 Mulliken charges:
               1
     1  O   -0.546102
     2  C    0.843055
     3  C   -0.425871
     4  C    0.199884
     5  C    0.785356
     6  C    0.295909
     7  O   -0.339437
     8  H    0.131613
     9  H   -0.049188
    10  H   -0.130239
    11  H   -0.279340
    12  H    0.405746
    13  H   -0.279050
    14  H   -0.319616
    15  H   -0.292719
 Sum of Mulliken charges =  -0.00000

 Dipole moment (field-independent basis, Debye):
    X=             -3.0138    Y=             -0.2582    Z=              0.7482  Tot=              3.1160

 Test job not archived.
 1\1\GINC-SE220\SP\RHF\Aug-CC-pVDZ\C5H8O2\OHZDE\09-Apr-2025\0\\#t hf au
 g-cc-pvdz iop(5/13=1,5/36=2,99/5=2) pseudo=read geom=check guess=(read
 ,tcheck) scf=(maxcycle=1)\\title\\0,1\O,0,2.52445914,0.58860003,0.6461
 8918\C,0,1.6639791,-0.29120996,-0.06622704\C,0,0.24804028,-0.03837585,
 0.30688457\C,0,-0.6884152,0.63976545,-0.5898543\C,0,-2.06541121,0.6439
 4437,-0.30845985\C,0,-1.49267514,-1.62817373,0.03360328\O,0,-1.6551346
 1,-2.53236507,-0.63755127\H,0,3.43048581,0.29387821,0.53419335\H,0,1.8
 940457,-1.33546282,0.18234354\H,0,1.7916722,-0.17375566,-1.14960445\H,

 Normal termination of Gaussian 16 at Wed Apr  9 15:37:09 2025.
