 Gaussian 16, Revision C.01,

 ----------------------------------------------------------------------
 #t hf aug-cc-pvdz symm=none int=(grid=ultrafine) guess=(read,tcheck) s
 table=(opt,rrhf)
 ----------------------------------------------------------------------
 -----
 title
 -----
 Symbolic Z-matrix:
 Charge =  0 Multiplicity = 1

 SCF Done:  E(RHF) =  -305.464376070     A.U. after   15 cycles
 Normal termination of Gaussian 16 at Wed Apr  9 16:14:59 2025.
 Gaussian 16:  ES64L-G16RevC.01  3-Jul-2019

 ----------------------------------------------------------------------
 #t hf aug-cc-pvdz iop(5/13=1,5/36=2,99/5=2) pseudo=read geom=check gue
 ss=(read,tcheck) scf=(maxcycle=1)
 ----------------------------------------------------------------------
 -----
 title
 -----
 Structure from the checkpoint file:  "Grambow2020_wb97xd3_008020_reverse_mol2.chk"
 Charge =  0 Multiplicity = 1

                         Standard orientation:
 ---------------------------------------------------------------------
 Center     Atomic      Atomic             Coordinates (Angstroms)
 Number     Number       Type             X           Y           Z
 ---------------------------------------------------------------------
      1          8           0       -1.752062   -1.456754   -0.069127
      2          6           0       -0.355317   -1.419585    0.002783
      3          6           0        0.230488   -0.016101   -0.007869
      4          6           0       -0.524161    1.052374   -0.009078
      5          6           0       -1.297514    2.093740   -0.008781
      6          6           0        1.658887    0.076284    0.000182
      7          6           0        2.857461    0.086349    0.008571
      8          1           0       -2.115386   -0.892437    0.617572
      9          1           0        0.023862   -1.937997    0.893727
     10          1           0        0.020051   -1.958046   -0.869726
     11          1           0       -1.630015    2.541953   -0.938619
     12          1           0       -1.622536    2.552573    0.918588
     13          1           0        3.921453    0.109623    0.016632
 ---------------------------------------------------------------------

 SCF Done:  E(RHF) =  -305.561943651     A.U. after    2 cycles

 The electronic state is 1-A.
 Alpha  occ. eigenvalues --  -20.58129 -11.30680 -11.28520 -11.28283 -11.26389
 Alpha  occ. eigenvalues --  -11.25913 -11.24823  -1.33954  -1.11803  -1.03868
 Alpha  occ. eigenvalues --   -0.99420  -0.91003  -0.78426  -0.72870  -0.70053
 Alpha  occ. eigenvalues --   -0.67715  -0.65355  -0.62597  -0.61355  -0.54294
 Alpha  occ. eigenvalues --   -0.49354  -0.45308  -0.41074  -0.39967  -0.34922
 Alpha virt. eigenvalues --    0.03215   0.03654   0.04690   0.05086   0.06289
 Alpha virt. eigenvalues --    0.06534   0.08752   0.09766   0.09996   0.11233
 Alpha virt. eigenvalues --    0.11506   0.12566   0.12862   0.13334   0.14345

 Mulliken charges:
               1
     1  O   -0.509722
     2  C    0.817629
     3  C    0.031805
     4  C   -0.838662
     5  C    0.938724
     6  C   -0.655219
     7  C    0.870708
     8  H    0.167492
     9  H    0.091440
    10  H    0.061999
    11  H   -0.212745
    12  H   -0.219580
    13  H   -0.543870
 Sum of Mulliken charges =  -0.00000

 Dipole moment (field-independent basis, Debye):
    X=              0.3556    Y=              1.1144    Z=              1.0844  Tot=              1.5951

 Test job not archived.
 1\1\GINC-SE141\SP\RHF\Aug-CC-pVDZ\C6H6O1\OHZDE\09-Apr-2025\0\\#t hf au
 g-cc-pvdz iop(5/13=1,5/36=2,99/5=2) pseudo=read geom=check guess=(read
 ,tcheck) scf=(maxcycle=1)\\title\\0,1\O,0,2.04941378,-0.99345677,0.176
 1941\C,0,1.42263271,0.16459376,0.64896587\C,0,-0.04610496,0.27529669,0
 .2700164\C,0,-0.67060098,-0.67428067,-0.37762719\C,0,-1.26400248,-1.63
 289712,-1.01906915\C,0,-0.71841285,1.47221661,0.67536906\C,0,-1.223853
 52,2.49492994,1.04325233\H,0,1.53377349,-1.75857163,0.44214257\H,0,1.4
 9839665,0.25585463,1.74086333\H,0,1.95694853,1.0121776,0.21512179\H,0,

 Normal termination of Gaussian 16 at Wed Apr  9 16:15:29 2025.
