 Gaussian 16, Revision C.01,

 ----------------------------------------------------------------------
 #t hf aug-cc-pvdz symm=none int=(grid=ultrafine) guess=(read,tcheck) s
 table=(opt,rrhf)
 ----------------------------------------------------------------------
 -----
 title
 -----
 Symbolic Z-matrix:
 Charge =  0 Multiplicity = 1

 SCF Done:  E(RHF) =  -265.042885696     A.U. after   14 cycles
 Normal termination of Gaussian 16 at Wed Apr  9 14:14:20 2025.
 Gaussian 16:  ES64L-G16RevC.01  3-Jul-2019

 ----------------------------------------------------------------------
 #t hf aug-cc-pvdz iop(5/13=1,5/36=2,99/5=2) pseudo=read geom=check gue
 ss=(read,tcheck) scf=(maxcycle=1)
 ----------------------------------------------------------------------
 -----
 title
 -----
 Structure from the checkpoint file:  "Grambow2020_b97d3_006847_forward_mol2.chk"
 Charge =  0 Multiplicity = 1

                         Standard orientation:
 ---------------------------------------------------------------------
 Center     Atomic      Atomic             Coordinates (Angstroms)
 Number     Number       Type             X           Y           Z
 ---------------------------------------------------------------------
      1          6           0       -2.061137    0.294851    0.094512
      2          7           0       -1.012847   -0.648419   -0.309164
      3          6           0        0.270218   -0.439214    0.360796
      4          6           0        1.277317   -1.524508   -0.053722
      5          6           0        0.833425    0.916402    0.105893
      6          7           0        1.206180    1.992899   -0.166001
      7          1           0       -2.278565    0.148750    1.162044
      8          1           0       -2.974098    0.066897   -0.470249
      9          1           0       -1.803323    1.358773   -0.061743
     10          1           0       -0.863660   -0.578597   -1.319078
     11          1           0        0.088180   -0.514796    1.444455
     12          1           0        2.226867   -1.400562    0.481211
     13          1           0        0.852366   -2.508615    0.176444
     14          1           0        1.479965   -1.468394   -1.131798
 ---------------------------------------------------------------------

 SCF Done:  E(RHF) =  -265.123043864     A.U. after    2 cycles

 The electronic state is 1-A.
 Alpha  occ. eigenvalues --  -15.64515 -15.63993 -11.32719 -11.28957 -11.27169
 Alpha  occ. eigenvalues --  -11.25726  -1.21680  -1.17381  -1.04234  -0.91329
 Alpha  occ. eigenvalues --   -0.88202  -0.73546  -0.65367  -0.64483  -0.60549
 Alpha  occ. eigenvalues --   -0.57537  -0.55585  -0.53990  -0.53668  -0.52644
 Alpha  occ. eigenvalues --   -0.46181  -0.45352  -0.40064
 Alpha virt. eigenvalues --    0.03111   0.03746   0.03912   0.05502   0.06644
 Alpha virt. eigenvalues --    0.06868   0.07310   0.09061   0.10257   0.11049
 Alpha virt. eigenvalues --    0.12516   0.13191   0.14349   0.14926   0.15366

 Mulliken charges:
               1
     1  C    0.729901
     2  N   -0.636886
     3  C    0.343343
     4  C    0.543347
     5  C   -0.161869
     6  N   -0.261733
     7  H   -0.102982
     8  H   -0.190656
     9  H   -0.106710
    10  H    0.046071
    11  H   -0.167935
    12  H   -0.002518
    13  H    0.015405
    14  H   -0.046777
 Sum of Mulliken charges =  -0.00000

 Dipole moment (field-independent basis, Debye):
    X=             -1.2811    Y=             -2.8259    Z=              0.3260  Tot=              3.1198

 Test job not archived.
 1\1\GINC-SE037\SP\RHF\Aug-CC-pVDZ\C4H8N2\OHZDE\09-Apr-2025\0\\#t hf au
 g-cc-pvdz iop(5/13=1,5/36=2,99/5=2) pseudo=read geom=check guess=(read
 ,tcheck) scf=(maxcycle=1)\\title\\0,1\C,0,1.92463399,-0.03118252,0.370
 82269\N,0,0.58178534,-0.62006993,0.41072995\C,0,-0.39631808,0.06334739
 ,-0.4349198\C,0,-1.74531202,-0.67355264,-0.40130029\C,0,-0.57643732,1.
 49367039,-0.05861121\N,0,-0.66600457,2.59802035,0.32100124\H,0,2.32436
 193,-0.1269671,-0.64863237\H,0,2.57736575,-0.60106467,1.04431473\H,0,1
 .96416755,1.03619034,0.65712019\H,0,0.2358933,-0.61208503,1.37372146\H

 Normal termination of Gaussian 16 at Wed Apr  9 14:14:24 2025.
