 Gaussian 16, Revision C.01,

 ----------------------------------------------------------------------
 #t hf aug-cc-pvdz symm=none int=(grid=ultrafine) guess=(read,tcheck) s
 table=(opt,rrhf)
 ----------------------------------------------------------------------
 -----
 title
 -----
 Symbolic Z-matrix:
 Charge =  0 Multiplicity = 1

 SCF Done:  E(RHF) =  -323.720075024     A.U. after   17 cycles
 Normal termination of Gaussian 16 at Wed Apr  9 15:39:11 2025.
 Gaussian 16:  ES64L-G16RevC.01  3-Jul-2019

 ----------------------------------------------------------------------
 #t hf aug-cc-pvdz iop(5/13=1,5/36=2,99/5=2) pseudo=read geom=check gue
 ss=(read,tcheck) scf=(maxcycle=1)
 ----------------------------------------------------------------------
 -----
 title
 -----
 Structure from the checkpoint file:  "Grambow2020_wb97xd3_007257_reverse_mol1.chk"
 Charge =  0 Multiplicity = 1

                         Standard orientation:
 ---------------------------------------------------------------------
 Center     Atomic      Atomic             Coordinates (Angstroms)
 Number     Number       Type             X           Y           Z
 ---------------------------------------------------------------------
      1          6           0       -1.576379   -1.009036    0.526975
      2          6           0       -0.559135   -0.022095   -0.033105
      3          6           0       -1.240149    1.251321   -0.558705
      4          6           0        0.498554    0.430877    0.948908
      5          8           0        1.624675    0.670499    0.293204
      6          6           0        1.402244   -0.686198   -0.380876
      7          7           0        0.261029   -0.692910   -1.021410
      8          1           0       -2.262411   -1.301680   -0.266866
      9          1           0       -2.147778   -0.561165    1.343527
     10          1           0       -1.073540   -1.903204    0.897316
     11          1           0       -1.839551    1.730841    0.216817
     12          1           0       -0.500398    1.955975   -0.937665
     13          1           0       -1.896231    0.969236   -1.381864
     14          1           0        0.297270    1.022251    1.843605
     15          1           0        1.094552   -1.147426    0.811788
     16          1           0        2.352681   -1.067656   -0.741608
 ---------------------------------------------------------------------

 SCF Done:  E(RHF) =  -323.818134614     A.U. after    2 cycles

 The electronic state is 1-A.
 Alpha  occ. eigenvalues --  -20.61443 -15.57270 -11.39468 -11.35806 -11.28880
 Alpha  occ. eigenvalues --  -11.24414 -11.23748  -1.42198  -1.19478  -1.06034
 Alpha  occ. eigenvalues --   -0.94759  -0.92820  -0.84488  -0.78723  -0.72778
 Alpha  occ. eigenvalues --   -0.69281  -0.63690  -0.61469  -0.60270  -0.56391
 Alpha  occ. eigenvalues --   -0.55547  -0.53718  -0.50296  -0.50004  -0.46363
 Alpha  occ. eigenvalues --   -0.41436  -0.30551
 Alpha virt. eigenvalues --    0.02862   0.03324   0.04295   0.04672   0.05137
 Alpha virt. eigenvalues --    0.06470   0.06994   0.07360   0.07614   0.08730
 Alpha virt. eigenvalues --    0.10673   0.12361   0.12627   0.13484   0.14216

 Mulliken charges:
               1
     1  C    1.023774
     2  C   -1.717310
     3  C    0.808334
     4  C    0.679062
     5  O   -0.701467
     6  C    0.534895
     7  N   -0.708854
     8  H    0.046320
     9  H    0.024291
    10  H   -0.054838
    11  H    0.045406
    12  H    0.013232
    13  H    0.044868
    14  H   -0.242755
    15  H    0.422264
    16  H   -0.217221
 Sum of Mulliken charges =  -0.00000

 Dipole moment (field-independent basis, Debye):
    X=             -1.1781    Y=              0.8979    Z=              2.7706  Tot=              3.1417

 Test job not archived.
 1\1\GINC-SE219\SP\RHF\Aug-CC-pVDZ\C5H9N1O1\OHZDE\09-Apr-2025\0\\#t hf
 aug-cc-pvdz iop(5/13=1,5/36=2,99/5=2) pseudo=read geom=check guess=(re
 ad,tcheck) scf=(maxcycle=1)\\title\\0,1\C,0,1.00151469,1.06452712,0.74
 418826\C,0,0.20704748,0.08175009,-0.10757309\C,0,1.13254128,-0.8826393
 3,-0.86588729\C,0,-0.77454696,-0.77798216,0.65765361\O,0,-1.81466295,-
 1.04419623,-0.11875158\C,0,-1.8333373,0.45377824,-0.43530867\N,0,-0.69
 541136,0.8190382,-0.96860972\H,0,1.64311284,1.65959096,0.09556323\H,0,
 1.62271837,0.53799068,1.47268522\H,0,0.32742713,1.73703611,1.27604575\

 Normal termination of Gaussian 16 at Wed Apr  9 15:39:18 2025.
