 Gaussian 16, Revision C.01,

 ----------------------------------------------------------------------
 #t hf aug-cc-pvdz symm=none int=(grid=ultrafine) guess=(read,tcheck) s
 table=(opt,rrhf)
 ----------------------------------------------------------------------
 -----
 title
 -----
 Symbolic Z-matrix:
 Charge =  0 Multiplicity = 1

 SCF Done:  E(RHF) =  -343.542945565     A.U. after   16 cycles
 Normal termination of Gaussian 16 at Wed Apr  9 15:38:08 2025.
 Gaussian 16:  ES64L-G16RevC.01  3-Jul-2019

 ----------------------------------------------------------------------
 #t hf aug-cc-pvdz iop(5/13=1,5/36=2,99/5=2) pseudo=read geom=check gue
 ss=(read,tcheck) scf=(maxcycle=1)
 ----------------------------------------------------------------------
 -----
 title
 -----
 Structure from the checkpoint file:  "Grambow2020_wb97xd3_007227_reverse_mol1.chk"
 Charge =  0 Multiplicity = 1

                         Standard orientation:
 ---------------------------------------------------------------------
 Center     Atomic      Atomic             Coordinates (Angstroms)
 Number     Number       Type             X           Y           Z
 ---------------------------------------------------------------------
      1          8           0       -2.548967   -0.338683   -0.177163
      2          6           0       -1.119376    1.076686    0.201263
      3          6           0       -0.144403    0.189631    0.681826
      4          6           0        0.027008   -1.111549   -0.241442
      5          6           0        1.551226   -1.188098    0.113349
      6          6           0        1.312212    0.269205    0.126812
      7          8           0        1.805264    1.206994   -0.447213
      8          1           0       -2.872159   -0.322896   -1.082000
      9          1           0       -1.799102    1.606405    0.854383
     10          1           0       -1.016788    1.455898   -0.809563
     11          1           0       -0.224828   -0.077826    1.733958
     12          1           0       -1.820883   -1.037825   -0.151529
     13          1           0       -0.053433   -0.785289   -1.289090
     14          1           0        2.259923   -1.538384   -0.632728
     15          1           0        1.716896   -1.661822    1.080731
 ---------------------------------------------------------------------

 SCF Done:  E(RHF) =  -343.647447546     A.U. after    2 cycles

 The electronic state is 1-A.
 Alpha  occ. eigenvalues --  -20.62346 -20.54111 -11.37823 -11.35155 -11.25627
 Alpha  occ. eigenvalues --  -11.23557 -11.21354  -1.35396  -1.34283  -1.14565
 Alpha  occ. eigenvalues --   -1.04108  -0.87611  -0.80315  -0.77577  -0.73551
 Alpha  occ. eigenvalues --   -0.69855  -0.66826  -0.64186  -0.62253  -0.60631
 Alpha  occ. eigenvalues --   -0.57437  -0.55911  -0.53006  -0.47473  -0.46804
 Alpha  occ. eigenvalues --   -0.40199  -0.28153
 Alpha virt. eigenvalues --    0.02173   0.02570   0.04149   0.04937   0.05800
 Alpha virt. eigenvalues --    0.06256   0.06757   0.07738   0.08542   0.09563
 Alpha virt. eigenvalues --    0.11671   0.12035   0.13221   0.13531   0.14728

 Mulliken charges:
               1
     1  O   -0.501781
     2  C    0.881833
     3  C    0.282497
     4  C   -0.378882
     5  C    0.786531
     6  C    0.183206
     7  O   -0.568455
     8  H    0.226704
     9  H   -0.211115
    10  H   -0.162490
    11  H   -0.344288
    12  H    0.435506
    13  H   -0.306608
    14  H   -0.140180
    15  H   -0.182478
 Sum of Mulliken charges =  -0.00000

 Dipole moment (field-independent basis, Debye):
    X=             -3.9977    Y=              1.0474    Z=              0.2556  Tot=              4.1406

 Test job not archived.
 1\1\GINC-SE057\SP\RHF\Aug-CC-pVDZ\C5H8O2\OHZDE\09-Apr-2025\0\\#t hf au
 g-cc-pvdz iop(5/13=1,5/36=2,99/5=2) pseudo=read geom=check guess=(read
 ,tcheck) scf=(maxcycle=1)\\title\\0,1\O,0,2.11910084,1.03292216,0.3077
 2916\C,0,1.31597304,-0.8402545,0.11694171\C,0,0.01041328,-0.48965418,0
 .4924082\C,0,-0.51047015,0.84597094,-0.22846758\C,0,-1.97847155,0.2982
 9312,-0.22865871\C,0,-1.19451303,-0.94282569,-0.39013788\O,0,-1.186903
 13,-1.83219628,-1.20316545\H,0,2.55854386,1.34314157,-0.48856611\H,0,2
 .03865527,-1.23492621,0.81776925\H,0,1.52735374,-0.98415791,-0.9369582

 Normal termination of Gaussian 16 at Wed Apr  9 15:38:14 2025.
