 Gaussian 16, Revision C.01,

 ----------------------------------------------------------------------
 #t hf aug-cc-pvdz symm=none int=(grid=ultrafine) guess=(read,tcheck) s
 table=(opt,rrhf)
 ----------------------------------------------------------------------
 -----
 title
 -----
 Symbolic Z-matrix:
 Charge =  0 Multiplicity = 1

 SCF Done:  E(RHF) =  -268.669133871     A.U. after   16 cycles
 Normal termination of Gaussian 16 at Wed Apr  9 03:03:25 2025.
 Gaussian 16:  ES64L-G16RevC.01  3-Jul-2019

 ----------------------------------------------------------------------
 #t hf aug-cc-pvdz iop(5/13=1,5/36=2,99/5=2) pseudo=read geom=check gue
 ss=(read,tcheck) scf=(maxcycle=1)
 ----------------------------------------------------------------------
 -----
 title
 -----
 Structure from the checkpoint file:  "Grambow2020_b97d3_006486_forward_mol1.chk"
 Charge =  0 Multiplicity = 1

                         Standard orientation:
 ---------------------------------------------------------------------
 Center     Atomic      Atomic             Coordinates (Angstroms)
 Number     Number       Type             X           Y           Z
 ---------------------------------------------------------------------
      1          8           0       -2.148578   -0.188586   -0.001651
      2          6           0       -0.926198   -0.088593   -0.028167
      3          6           0        0.041978   -1.176770   -0.195366
      4          6           0        1.440854   -0.983615    0.188581
      5          6           0        1.266695    0.959240   -0.161228
      6          6           0       -0.173606    1.265733    0.183128
      7          1           0       -0.398361   -2.167144   -0.040721
      8          1           0        0.864711    0.051083   -0.978640
      9          1           0        1.774551   -1.288473    1.203924
     10          1           0        2.254022   -1.121182   -0.527312
     11          1           0        1.743289    1.524695   -0.981434
     12          1           0        1.977995    1.048290    0.677542
     13          1           0       -0.319567    1.586233    1.222573
     14          1           0       -0.606368    2.019218   -0.484412
 ---------------------------------------------------------------------

 SCF Done:  E(RHF) =  -268.748965154     A.U. after    2 cycles

 The electronic state is 1-A.
 Alpha  occ. eigenvalues --  -20.51312 -11.34382 -11.32478 -11.29275 -11.25417
 Alpha  occ. eigenvalues --  -11.23390  -1.30313  -1.13164  -1.00765  -0.92715
 Alpha  occ. eigenvalues --   -0.84181  -0.72555  -0.70390  -0.66118  -0.62724
 Alpha  occ. eigenvalues --   -0.61225  -0.56770  -0.55362  -0.54545  -0.49352
 Alpha  occ. eigenvalues --   -0.46433  -0.39611  -0.31011
 Alpha virt. eigenvalues --    0.02029   0.03523   0.03988   0.04886   0.06117
 Alpha virt. eigenvalues --    0.06451   0.07099   0.07401   0.07824   0.09921
 Alpha virt. eigenvalues --    0.12642   0.13424   0.13870   0.14241   0.14674

 Mulliken charges:
               1
     1  O   -0.600747
     2  C   -0.034408
     3  C    0.102907
     4  C    0.440280
     5  C   -0.090760
     6  C    0.070271
     7  H   -0.300561
     8  H    0.789280
     9  H   -0.224216
    10  H   -0.046212
    11  H   -0.097682
    12  H   -0.015279
    13  H   -0.017262
    14  H    0.024389
 Sum of Mulliken charges =  -0.00000

 Dipole moment (field-independent basis, Debye):
    X=              6.9286    Y=              1.1359    Z=              0.5681  Tot=              7.0440

 Test job not archived.
 1\1\GINC-SE165\SP\RHF\Aug-CC-pVDZ\C5H8O1\OHZDE\09-Apr-2025\0\\#t hf au
 g-cc-pvdz iop(5/13=1,5/36=2,99/5=2) pseudo=read geom=check guess=(read
 ,tcheck) scf=(maxcycle=1)\\title\\0,1\O,0,-0.71087591,2.52743922,0.300
 88826\C,0,-0.41714576,1.34858773,0.13075262\C,0,-1.34093342,0.211741,0
 .07037035\C,0,-0.84540384,-1.15127749,0.26584297\C,0,0.93100509,-0.601
 80633,-0.41960404\C,0,1.05757092,0.84326778,0.00786269\H,0,-2.33889207
 ,0.45222871,0.45102326\H,0,-0.17687598,-0.31745617,-1.00803234\H,0,-0.
 88006824,-1.60366235,1.2804166\H,0,-0.98757311,-1.92500418,-0.4916549\

 Normal termination of Gaussian 16 at Wed Apr  9 03:03:30 2025.
