 Gaussian 16, Revision C.01,

 ----------------------------------------------------------------------
 #t hf aug-cc-pvdz symm=none int=(grid=ultrafine) guess=(read,tcheck) s
 table=(opt,rrhf)
 ----------------------------------------------------------------------
 -----
 title
 -----
 Symbolic Z-matrix:
 Charge =  0 Multiplicity = 1

 SCF Done:  E(RHF) =  -359.623520493     A.U. after   15 cycles
 Normal termination of Gaussian 16 at Wed Apr  9 17:13:30 2025.
 Gaussian 16:  ES64L-G16RevC.01  3-Jul-2019

 ----------------------------------------------------------------------
 #t hf aug-cc-pvdz iop(5/13=1,5/36=2,99/5=2) pseudo=read geom=check gue
 ss=(read,tcheck) scf=(maxcycle=1)
 ----------------------------------------------------------------------
 -----
 title
 -----
 Structure from the checkpoint file:  "Grambow2020_wb97xd3_009397_forward_mol1.chk"
 Charge =  0 Multiplicity = 1

                         Standard orientation:
 ---------------------------------------------------------------------
 Center     Atomic      Atomic             Coordinates (Angstroms)
 Number     Number       Type             X           Y           Z
 ---------------------------------------------------------------------
      1          8           0        1.693006   -0.377485   -0.881360
      2          6           0        1.016698    0.088235    0.189824
      3          6           0        0.688777    1.437129    0.239770
      4          8           0       -1.512160    1.001035   -0.127249
      5          6           0       -1.564753   -0.216975   -0.448632
      6          7           0       -0.835243   -1.222578   -0.002272
      7          6           0        0.157847   -0.864838    0.980810
      8          1           0        1.364532   -1.269024   -1.055211
      9          1           0        1.832840    0.861116    0.845758
     10          1           0        0.227126    1.820386    1.133795
     11          1           0        0.999614    2.105642   -0.554206
     12          1           0       -2.293832   -0.515172   -1.217923
     13          1           0       -0.237132   -0.347246    1.863166
     14          1           0        0.715363   -1.747361    1.298765
 ---------------------------------------------------------------------

 SCF Done:  E(RHF) =  -359.733854397     A.U. after    2 cycles

 The electronic state is 1-A.
 Alpha  occ. eigenvalues --  -20.63936 -20.50229 -15.56701 -11.39522 -11.36501
 Alpha  occ. eigenvalues --  -11.30601 -11.28546  -1.41889  -1.29345  -1.16442
 Alpha  occ. eigenvalues --   -1.12196  -0.95553  -0.86220  -0.77409  -0.73872
 Alpha  occ. eigenvalues --   -0.72119  -0.69151  -0.66547  -0.62928  -0.61028
 Alpha  occ. eigenvalues --   -0.59039  -0.56103  -0.52433  -0.49483  -0.40180
 Alpha  occ. eigenvalues --   -0.38233  -0.33806
 Alpha virt. eigenvalues --    0.02063   0.03859   0.04203   0.05153   0.06185
 Alpha virt. eigenvalues --    0.06460   0.06727   0.07630   0.10948   0.11315
 Alpha virt. eigenvalues --    0.12882   0.13088   0.13522   0.13920   0.14345

 Mulliken charges:
               1
     1  O   -0.564168
     2  C    0.381001
     3  C    0.468808
     4  O   -0.615543
     5  C    0.534407
     6  N   -0.648625
     7  C    0.913162
     8  H    0.202761
     9  H    0.268577
    10  H   -0.222353
    11  H   -0.181150
    12  H   -0.271933
    13  H   -0.087745
    14  H   -0.177198
 Sum of Mulliken charges =  -0.00000

 Dipole moment (field-independent basis, Debye):
    X=              5.1014    Y=              1.4707    Z=              1.6914  Tot=              5.5721

 Test job not archived.
 1\1\GINC-SE162\SP\RHF\Aug-CC-pVDZ\C4H7N1O2\OHZDE\09-Apr-2025\0\\#t hf
 aug-cc-pvdz iop(5/13=1,5/36=2,99/5=2) pseudo=read geom=check guess=(re
 ad,tcheck) scf=(maxcycle=1)\\title\\0,1\O,0,-1.06132036,-0.57191053,1.
 47297026\C,0,-0.81832726,-0.05639141,0.24948424\C,0,-0.66898687,1.3185
 56,0.12003163\O,0,1.56639342,1.12497186,-0.2468567\C,0,1.84841413,-0.0
 7463079,0.0196394\N,0,1.12532045,-1.15976819,-0.18595893\C,0,-0.162930
 87,-0.9270519,-0.79168715\H,0,-0.60171885,-1.4203265,1.51677117\H,0,-1
 .87907279,0.613692,-0.09618574\H,0,-0.56234886,1.73250578,-0.8681796\H

 Normal termination of Gaussian 16 at Wed Apr  9 17:13:34 2025.
