 Gaussian 16, Revision C.01,

 ----------------------------------------------------------------------
 #t hf aug-cc-pvdz symm=none int=(grid=ultrafine) guess=(read,tcheck) s
 table=(opt,rrhf)
 ----------------------------------------------------------------------
 -----
 title
 -----
 Symbolic Z-matrix:
 Charge =  0 Multiplicity = 1

 SCF Done:  E(RHF) =  -302.675090901     A.U. after   18 cycles
 Normal termination of Gaussian 16 at Wed Apr  9 03:34:29 2025.
 Gaussian 16:  ES64L-G16RevC.01  3-Jul-2019

 ----------------------------------------------------------------------
 #t hf aug-cc-pvdz iop(5/13=1,5/36=2,99/5=2) pseudo=read geom=check gue
 ss=(read,tcheck) scf=(maxcycle=1)
 ----------------------------------------------------------------------
 -----
 title
 -----
 Structure from the checkpoint file:  "Grambow2020_wb97xd3_007161_reverse_mol1.chk"
 Charge =  0 Multiplicity = 1

                         Standard orientation:
 ---------------------------------------------------------------------
 Center     Atomic      Atomic             Coordinates (Angstroms)
 Number     Number       Type             X           Y           Z
 ---------------------------------------------------------------------
      1          6           0       -1.630026    1.251358    0.434052
      2          6           0       -1.240675   -0.200479    0.537994
      3          6           0       -1.532501   -1.167794   -0.525263
      4          7           0       -0.163301   -0.700024   -0.311182
      5          6           0        2.192950   -0.556605    0.703773
      6          6           0        1.847041    0.395687   -0.187792
      7          7           0        1.219249    1.016420   -0.965775
      8          1           0       -1.626337    1.570788   -0.608051
      9          1           0       -0.925644    1.882366    0.977651
     10          1           0       -2.627838    1.402906    0.850909
     11          1           0       -1.194391   -0.588701    1.553310
     12          1           0       -1.711862   -2.214353   -0.298798
     13          1           0       -1.986555   -0.820202   -1.449332
     14          1           0        2.108833   -0.359892    1.763692
     15          1           0        2.751424   -1.420686    0.372739
 ---------------------------------------------------------------------

 SCF Done:  E(RHF) =  -302.766381234     A.U. after    2 cycles

 The electronic state is 1-A.
 Alpha  occ. eigenvalues --  -15.68714 -15.65194 -11.28899 -11.28258 -11.27917
 Alpha  occ. eigenvalues --  -11.27079 -11.23588  -1.25064  -1.18659  -1.00161
 Alpha  occ. eigenvalues --   -0.98555  -0.84985  -0.79629  -0.70092  -0.67337
 Alpha  occ. eigenvalues --   -0.63828  -0.62950  -0.58113  -0.56254  -0.54953
 Alpha  occ. eigenvalues --   -0.51963  -0.50087  -0.46491  -0.44779  -0.37977
 Alpha  occ. eigenvalues --   -0.29341
 Alpha virt. eigenvalues --    0.00053   0.03057   0.03987   0.04116   0.05124
 Alpha virt. eigenvalues --    0.06271   0.06911   0.07554   0.08274   0.09232
 Alpha virt. eigenvalues --    0.10544   0.12223   0.12874   0.13090   0.13702

 Mulliken charges:
               1
     1  C    0.362354
     2  C    0.283448
     3  C    0.808056
     4  N   -0.506171
     5  C    0.792783
     6  C   -0.216274
     7  N   -0.190193
     8  H   -0.033097
     9  H    0.008415
    10  H   -0.017007
    11  H   -0.346683
    12  H   -0.259932
    13  H   -0.265178
    14  H   -0.223240
    15  H   -0.197280
 Sum of Mulliken charges =  -0.00000

 Dipole moment (field-independent basis, Debye):
    X=             -1.6197    Y=             -1.8506    Z=              2.3601  Tot=              3.4085

 Test job not archived.
 1\1\GINC-SE335\SP\RHF\Aug-CC-pVDZ\C5H8N2\OHZDE\09-Apr-2025\0\\#t hf au
 g-cc-pvdz iop(5/13=1,5/36=2,99/5=2) pseudo=read geom=check guess=(read
 ,tcheck) scf=(maxcycle=1)\\title\\0,1\C,0,-1.55120604,-1.02425424,-0.0
 5709418\C,0,-0.89935003,0.3034017,-0.34456686\C,0,-0.9518271,1.4229934
 1,0.60155022\N,0,0.29225984,0.67774465,0.41128649\C,0,2.52774933,-0.03
 327521,-0.6373601\C,0,2.05054372,-0.79333175,0.37060463\N,0,1.35427058
 ,-1.18855448,1.23297949\H,0,-1.55853767,-1.21823386,1.01544717\H,0,-1.
 00572055,-1.83715263,-0.53820467\H,0,-2.57833101,-1.02591588,-0.427739

 Normal termination of Gaussian 16 at Wed Apr  9 03:34:33 2025.
