 Gaussian 16, Revision C.01,

 ----------------------------------------------------------------------
 #t hf aug-cc-pvdz symm=none int=(grid=ultrafine) guess=(read,tcheck) s
 table=(opt,rrhf)
 ----------------------------------------------------------------------
 -----
 title
 -----
 Symbolic Z-matrix:
 Charge =  0 Multiplicity = 1

 SCF Done:  E(RHF) =  -336.263436563     A.U. after   16 cycles
 Normal termination of Gaussian 16 at Wed Apr  9 03:45:42 2025.
 Gaussian 16:  ES64L-G16RevC.01  3-Jul-2019

 ----------------------------------------------------------------------
 #t hf aug-cc-pvdz iop(5/13=1,5/36=2,99/5=2) pseudo=read geom=check gue
 ss=(read,tcheck) scf=(maxcycle=1)
 ----------------------------------------------------------------------
 -----
 title
 -----
 Structure from the checkpoint file:  "Grambow2020_wb97xd3_007922_reverse_mol2.chk"
 Charge =  0 Multiplicity = 1

                         Standard orientation:
 ---------------------------------------------------------------------
 Center     Atomic      Atomic             Coordinates (Angstroms)
 Number     Number       Type             X           Y           Z
 ---------------------------------------------------------------------
      1          7           0        1.256751    1.481288   -0.000436
      2          6           0        0.861590    0.229677    0.000224
      3          8           0        1.640077   -0.787010    0.000906
      4          6           0       -0.406603   -0.418775   -0.000349
      5          6           0        0.163545   -1.665525   -0.000805
      6          6           0       -2.771593    0.476247    0.000870
      7          7           0       -1.689166    0.039020   -0.000462
      8          1           0        0.583878    2.228217   -0.000656
      9          1           0        2.240783    1.695962    0.000052
 ---------------------------------------------------------------------

 SCF Done:  E(RHF) =  -336.364233055     A.U. after    2 cycles

 The electronic state is 1-A.
 Alpha  occ. eigenvalues --  -20.61605 -15.72581 -15.68971 -11.44037 -11.33877
 Alpha  occ. eigenvalues --  -11.30960 -11.30893  -1.43493  -1.26958  -1.26480
 Alpha  occ. eigenvalues --   -1.09594  -0.90847  -0.89977  -0.80264  -0.75382
 Alpha  occ. eigenvalues --   -0.67836  -0.67269  -0.57192  -0.56950  -0.52550
 Alpha  occ. eigenvalues --   -0.50997  -0.49193  -0.41484  -0.37391
 Alpha virt. eigenvalues --    0.01287   0.04027   0.05703   0.08021   0.08087
 Alpha virt. eigenvalues --    0.08556   0.09042   0.10162   0.10189   0.11181
 Alpha virt. eigenvalues --    0.12744   0.13799   0.13877   0.15006   0.15615

 Mulliken charges:
               1
     1  N   -0.041960
     2  C    0.519169
     3  O   -0.565610
     4  C    0.600951
     5  C    0.011904
     6  C   -0.287910
     7  N   -0.272842
     8  H    0.027929
     9  H    0.008369
 Sum of Mulliken charges =  -0.00000

 Dipole moment (field-independent basis, Debye):
    X=              2.9335    Y=              5.4503    Z=             -0.0005  Tot=              6.1897

 Test job not archived.
 1\1\GINC-SE284\SP\RHF\Aug-CC-pVDZ\C4H2N2O1\OHZDE\09-Apr-2025\0\\#t hf
 aug-cc-pvdz iop(5/13=1,5/36=2,99/5=2) pseudo=read geom=check guess=(re
 ad,tcheck) scf=(maxcycle=1)\\title\\0,1\N,0,-1.38725517,0.57058836,0.4
 1677153\C,0,-0.51682629,-0.38632949,0.63890413\O,0,-0.81267492,-1.6123
 8698,0.86015553\C,0,0.90415204,-0.44790776,0.71527429\C,0,0.8920277,-1
 .79423948,0.97353713\C,0,2.69681041,1.31659555,0.45614673\N,0,1.887537
 48,0.48450688,0.58074038\H,0,-1.07781558,1.51247964,0.25018975\H,0,-2.
 37229967,0.36066028,0.41221253\\Version=ES64L-G16RevC.01\State=1-A\HF=

 Normal termination of Gaussian 16 at Wed Apr  9 03:45:45 2025.
