 Gaussian 16, Revision C.01,

 ----------------------------------------------------------------------
 #t hf aug-cc-pvdz symm=none int=(grid=ultrafine) guess=(read,tcheck) s
 table=(opt,rrhf)
 ----------------------------------------------------------------------
 -----
 title
 -----
 Symbolic Z-matrix:
 Charge =  0 Multiplicity = 1

 SCF Done:  E(RHF) =  -339.763987652     A.U. after   15 cycles
 Normal termination of Gaussian 16 at Wed Apr  9 14:27:46 2025.
 Gaussian 16:  ES64L-G16RevC.01  3-Jul-2019

 ----------------------------------------------------------------------
 #t hf aug-cc-pvdz iop(5/13=1,5/36=2,99/5=2) pseudo=read geom=check gue
 ss=(read,tcheck) scf=(maxcycle=1)
 ----------------------------------------------------------------------
 -----
 title
 -----
 Structure from the checkpoint file:  "Grambow2020_wb97xd3_006549_forward_mol1.chk"
 Charge =  0 Multiplicity = 1

                         Standard orientation:
 ---------------------------------------------------------------------
 Center     Atomic      Atomic             Coordinates (Angstroms)
 Number     Number       Type             X           Y           Z
 ---------------------------------------------------------------------
      1          6           0        0.978306    1.942113    0.036498
      2          7           0        0.057278    1.093073   -0.454374
      3          6           0        0.006822   -0.183861    0.027652
      4          6           0       -1.286755   -0.932064   -0.186719
      5          8           0       -2.395278   -0.118919    0.137425
      6          6           0        1.216519   -0.942719    0.011166
      7          7           0        2.188009   -1.560654    0.015526
      8          1           0        2.002539    1.592134    0.073541
      9          1           0        0.826896    2.993916   -0.169734
     10          1           0        0.698964    1.357432    1.535511
     11          1           0       -0.863978    1.475232   -0.626260
     12          1           0        0.349008    0.528409    1.573319
     13          1           0       -1.259608   -1.852172    0.403849
     14          1           0       -1.421946   -1.215914   -1.233711
     15          1           0       -2.376002    0.044567    1.084441
 ---------------------------------------------------------------------

 SCF Done:  E(RHF) =  -339.869170080     A.U. after    2 cycles

 The electronic state is 1-A.
 Alpha  occ. eigenvalues --  -20.60266 -15.71070 -15.63523 -11.32201 -11.31662
 Alpha  occ. eigenvalues --  -11.31643 -11.28653  -1.35964  -1.28627  -1.19039
 Alpha  occ. eigenvalues --   -1.04875  -0.92989  -0.90608  -0.76309  -0.73217
 Alpha  occ. eigenvalues --   -0.72359  -0.68009  -0.63526  -0.63198  -0.59956
 Alpha  occ. eigenvalues --   -0.55831  -0.54068  -0.50773  -0.48765  -0.46433
 Alpha  occ. eigenvalues --   -0.44247  -0.31560
 Alpha virt. eigenvalues --    0.02614   0.03610   0.04228   0.04954   0.06413
 Alpha virt. eigenvalues --    0.06863   0.07700   0.08019   0.09259   0.10015
 Alpha virt. eigenvalues --    0.11515   0.12086   0.12417   0.13581   0.14525

 Mulliken charges:
               1
     1  C    0.598336
     2  N   -0.285379
     3  C    0.078746
     4  C    0.945380
     5  O   -0.572002
     6  C   -0.437500
     7  N   -0.237441
     8  H   -0.260336
     9  H   -0.260224
    10  H    0.123120
    11  H    0.022436
    12  H    0.218855
    13  H   -0.059496
    14  H   -0.052456
    15  H    0.177961
 Sum of Mulliken charges =   0.00000

 Dipole moment (field-independent basis, Debye):
    X=             -2.6761    Y=              3.0669    Z=             -0.1726  Tot=              4.0740

 Test job not archived.
 1\1\GINC-SE163\SP\RHF\Aug-CC-pVDZ\C4H8N2O1\OHZDE\09-Apr-2025\0\\#t hf
 aug-cc-pvdz iop(5/13=1,5/36=2,99/5=2) pseudo=read geom=check guess=(re
 ad,tcheck) scf=(maxcycle=1)\\title\\0,1\C,0,-1.77488196,0.36738367,0.8
 4705797\N,0,-0.51799705,-0.10447596,0.93484404\C,0,0.17783297,-0.35914
 649,-0.21250856\C,0,1.68064067,-0.42676991,-0.08562658\O,0,2.16661982,
 0.64870286,0.69044054\C,0,-0.43937,-1.20519754,-1.18346805\N,0,-0.9314
 7318,-1.87527764,-1.9800126\H,0,-2.45594726,-0.1607587,0.19121808\H,0,
 -2.19546028,0.79703897,1.74720052\H,0,-1.30983479,1.34003578,-0.379564

 Normal termination of Gaussian 16 at Wed Apr  9 14:27:51 2025.
