 Gaussian 16, Revision C.01,

 ----------------------------------------------------------------------
 #t hf aug-cc-pvdz symm=none int=(grid=ultrafine) guess=(read,tcheck) s
 table=(opt,rrhf)
 ----------------------------------------------------------------------
 -----
 title
 -----
 Symbolic Z-matrix:
 Charge =  0 Multiplicity = 1

 SCF Done:  E(RHF) =  -231.598064130     A.U. after   15 cycles
 Normal termination of Gaussian 16 at Wed Apr  9 14:15:16 2025.
 Gaussian 16:  ES64L-G16RevC.01  3-Jul-2019

 ----------------------------------------------------------------------
 #t hf aug-cc-pvdz iop(5/13=1,5/36=2,99/5=2) pseudo=read geom=check gue
 ss=(read,tcheck) scf=(maxcycle=1)
 ----------------------------------------------------------------------
 -----
 title
 -----
 Structure from the checkpoint file:  "Grambow2020_b97d3_006871_forward_mol1.chk"
 Charge =  0 Multiplicity = 1

                         Standard orientation:
 ---------------------------------------------------------------------
 Center     Atomic      Atomic             Coordinates (Angstroms)
 Number     Number       Type             X           Y           Z
 ---------------------------------------------------------------------
      1          6           0        1.334837   -0.458650   -0.415181
      2          6           0        0.666953    0.909367   -0.391434
      3          6           0       -0.898611    0.751606   -0.265938
      4          6           0       -1.491531   -0.659602   -0.244899
      5          6           0        0.165093   -0.935635    0.556903
      6          6           0       -0.020796    0.584062    0.918964
      7          1           0        2.274218   -0.445467    0.153359
      8          1           0        1.478031   -0.997154   -1.366883
      9          1           0        1.118571    1.853639   -0.693077
     10          1           0       -1.498507    1.640298   -0.453284
     11          1           0       -0.425815   -1.282546   -0.516314
     12          1           0       -1.723546   -1.168644   -1.216608
     13          1           0        0.267822   -1.784531    1.233643
     14          1           0       -0.026444    1.037520    1.908677
 ---------------------------------------------------------------------

 SCF Done:  E(RHF) =  -231.663192236     A.U. after    2 cycles

 The electronic state is 1-A.
 Alpha  occ. eigenvalues --  -11.31244 -11.26305 -11.25487 -11.25328 -11.25006
 Alpha  occ. eigenvalues --  -11.22820  -1.22238  -0.98659  -0.97389  -0.86517
 Alpha  occ. eigenvalues --   -0.75887  -0.73044  -0.70953  -0.63295  -0.59816
 Alpha  occ. eigenvalues --   -0.57798  -0.52844  -0.47905  -0.46571  -0.42946
 Alpha  occ. eigenvalues --   -0.38619  -0.29961
 Alpha virt. eigenvalues --    0.03049   0.03949   0.04190   0.04826   0.06157
 Alpha virt. eigenvalues --    0.06435   0.06904   0.08991   0.10194   0.11859
 Alpha virt. eigenvalues --    0.12084   0.13000   0.13489   0.14329   0.14742

 Mulliken charges:
               1
     1  C    0.334794
     2  C    0.431624
     3  C    0.413629
     4  C   -0.263714
     5  C    0.048102
     6  C    0.511675
     7  H   -0.106560
     8  H   -0.153959
     9  H   -0.406031
    10  H   -0.390173
    11  H    0.464854
    12  H   -0.126831
    13  H   -0.359288
    14  H   -0.398123
 Sum of Mulliken charges =  -0.00000

 Dipole moment (field-independent basis, Debye):
    X=              2.9847    Y=              0.3298    Z=             -0.2252  Tot=              3.0113

 Test job not archived.
 1\1\GINC-SE222\SP\RHF\Aug-CC-pVDZ\C6H8\OHZDE\09-Apr-2025\0\\#t hf aug-
 cc-pvdz iop(5/13=1,5/36=2,99/5=2) pseudo=read geom=check guess=(read,t
 check) scf=(maxcycle=1)\\title\\0,1\C,0,-1.18615122,-0.30766245,0.5989
 3901\C,0,-0.47707657,1.02121518,0.37667897\C,0,1.03302843,0.77699894,-
 0.01264108\C,0,1.55361928,-0.66203276,-0.05360466\C,0,-0.22952411,-0.8
 9329046,-0.53360987\C,0,-0.04838024,0.59430218,-1.01254066\H,0,-2.2105
 6441,-0.2753715,0.20475058\H,0,-1.17937243,-0.78863727,1.5913325\H,0,-
 0.82803579,2.00165494,0.69630495\H,0,1.69306698,1.64212192,0.01301315\

 Normal termination of Gaussian 16 at Wed Apr  9 14:15:20 2025.
