 Gaussian 16, Revision C.01,

 ----------------------------------------------------------------------
 #t hf aug-cc-pvdz symm=none int=(grid=ultrafine) guess=(read,tcheck) s
 table=(opt,rrhf)
 ----------------------------------------------------------------------
 -----
 title
 -----
 Symbolic Z-matrix:
 Charge =  0 Multiplicity = 1

 SCF Done:  E(RHF) =  -323.809766619     A.U. after   15 cycles
 Normal termination of Gaussian 16 at Wed Apr  9 15:39:09 2025.
 Gaussian 16:  ES64L-G16RevC.01  3-Jul-2019

 ----------------------------------------------------------------------
 #t hf aug-cc-pvdz iop(5/13=1,5/36=2,99/5=2) pseudo=read geom=check gue
 ss=(read,tcheck) scf=(maxcycle=1)
 ----------------------------------------------------------------------
 -----
 title
 -----
 Structure from the checkpoint file:  "Grambow2020_wb97xd3_007261_reverse_mol2.chk"
 Charge =  0 Multiplicity = 1

                         Standard orientation:
 ---------------------------------------------------------------------
 Center     Atomic      Atomic             Coordinates (Angstroms)
 Number     Number       Type             X           Y           Z
 ---------------------------------------------------------------------
      1          6           0       -1.101444    0.814912    1.171825
      2          6           0       -0.595527    0.032571   -0.051505
      3          6           0       -1.759394   -0.594343   -0.804494
      4          6           0        0.364263    0.788863   -0.978265
      5          8           0        1.677777    0.513926   -0.372553
      6          6           0        1.595798   -0.537455    0.317803
      7          7           0        0.363713   -1.014089    0.401612
      8          1           0       -1.660897    0.180488    1.868452
      9          1           0       -1.763964    1.616698    0.840950
     10          1           0       -0.264403    1.266154    1.709963
     11          1           0       -2.369600    0.195594   -1.245485
     12          1           0       -1.385576   -1.220451   -1.612616
     13          1           0       -2.402373   -1.185492   -0.143911
     14          1           0        0.119228   -1.747152    1.045690
     15          1           0        0.256688    1.873332   -0.937270
     16          1           0        2.480519   -1.019241    0.711183
 ---------------------------------------------------------------------

 SCF Done:  E(RHF) =  -323.910454126     A.U. after    2 cycles

 The electronic state is 1-A.
 Alpha  occ. eigenvalues --  -20.64089 -15.68598 -11.40357 -11.28097 -11.22442
 Alpha  occ. eigenvalues --  -11.21668 -11.19584  -1.44889  -1.23631  -1.06366
 Alpha  occ. eigenvalues --   -0.94066  -0.93187  -0.85359  -0.80762  -0.76326
 Alpha  occ. eigenvalues --   -0.67455  -0.65888  -0.61815  -0.59853  -0.56730
 Alpha  occ. eigenvalues --   -0.55302  -0.54315  -0.52154  -0.49847  -0.45994
 Alpha  occ. eigenvalues --   -0.44532  -0.24492
 Alpha virt. eigenvalues --    0.02003   0.03603   0.04275   0.05049   0.06434
 Alpha virt. eigenvalues --    0.07024   0.07438   0.07772   0.08128   0.09587
 Alpha virt. eigenvalues --    0.10890   0.12576   0.13261   0.13592   0.14394

 Mulliken charges:
               1
     1  C    0.921755
     2  C   -2.002548
     3  C    1.071309
     4  C    0.451480
     5  O   -0.400322
     6  C    0.800493
     7  N   -0.100510
     8  H   -0.029978
     9  H    0.010156
    10  H   -0.069437
    11  H    0.038058
    12  H   -0.021444
    13  H    0.011616
    14  H   -0.101424
    15  H   -0.325171
    16  H   -0.254032
 Sum of Mulliken charges =  -0.00000

 Dipole moment (field-independent basis, Debye):
    X=              0.3301    Y=             -3.2725    Z=              4.8660  Tot=              5.8733

 Test job not archived.
 1\1\GINC-SE220\SP\RHF\Aug-CC-pVDZ\C5H9N1O1\OHZDE\09-Apr-2025\0\\#t hf
 aug-cc-pvdz iop(5/13=1,5/36=2,99/5=2) pseudo=read geom=check guess=(re
 ad,tcheck) scf=(maxcycle=1)\\title\\0,1\C,0,0.83333545,1.17191108,0.42
 47581\C,0,0.18281285,-0.16530911,0.03334013\C,0,1.22840767,-1.13305697
 ,-0.50032031\C,0,-0.72157217,-0.8043954,1.0943365\O,0,-2.02945842,-0.1
 8948591,0.81305674\C,0,-2.04158382,0.2134427,-0.38118554\N,0,-0.872321
 47,0.08637202,-0.98857052\H,0,1.34462443,1.64806642,-0.419416\H,0,1.57
 064231,1.00014142,1.21098032\H,0,0.0812427,1.86470808,0.80977789\H,0,1

 Normal termination of Gaussian 16 at Wed Apr  9 15:39:15 2025.
