 Gaussian 16, Revision C.01,

 ----------------------------------------------------------------------
 #t hf aug-cc-pvdz symm=none int=(grid=ultrafine) guess=(read,tcheck) s
 table=(opt,rrhf)
 ----------------------------------------------------------------------
 -----
 title
 -----
 Symbolic Z-matrix:
 Charge =  0 Multiplicity = 1

 SCF Done:  E(RHF) =  -344.929172476     A.U. after   14 cycles

 1\1\GINC-SE362\Stability\RHF\Aug-CC-pVDZ\C5H10O2\OHZDE\09-Apr-2025\0\\
 #t hf aug-cc-pvdz symm=none int=(grid=ultrafine) guess=(read,tcheck) s
 table=(opt,rrhf)\\title\\0,1\C,0,-2.25710099,-0.38024214,-0.06718237\C
 ,0,-0.79599162,-0.41511054,-0.48764604\O,0,-0.49476333,0.63967706,-1.3
 8348832\C,0,0.13705006,-0.42368755,0.7226313\C,0,1.60969142,-0.2983886
 1,0.35835286\C,0,2.09848827,1.10758168,0.15133833\O,0,1.43072813,2.101
 47857,0.26678575\H,0,-2.50982366,-1.23912907,0.55910416\H,0,-2.4689801
 8,0.52925921,0.50145814\H,0,-2.90017689,-0.38992689,-0.94733895\H,0,-0

 Normal termination of Gaussian 16 at Wed Apr  9 03:33:27 2025.
 Gaussian 16:  ES64L-G16RevC.01  3-Jul-2019

 ----------------------------------------------------------------------
 #t hf aug-cc-pvdz iop(5/13=1,5/36=2,99/5=2) pseudo=read geom=check gue
 ss=(read,tcheck) scf=(maxcycle=1)
 ----------------------------------------------------------------------
 -----
 title
 -----
 Structure from the checkpoint file:  "Grambow2020_wb97xd3_007087_forward_mol2.chk"
 Charge =  0 Multiplicity = 1

                         Standard orientation:
 ---------------------------------------------------------------------
 Center     Atomic      Atomic             Coordinates (Angstroms)
 Number     Number       Type             X           Y           Z
 ---------------------------------------------------------------------
      1          6           0       -2.498040   -0.051783   -0.453089
      2          6           0       -1.231177    0.123335    0.369857
      3          8           0       -0.691581   -1.128681    0.753448
      4          6           0       -0.204775    0.991889   -0.356451
      5          6           0        1.140244    1.068163    0.352194
      6          6           0        2.081270   -0.066314    0.059003
      7          8           0        1.854645   -0.985451   -0.683217
      8          1           0       -2.959057    0.912265   -0.680825
      9          1           0       -2.272804   -0.552735   -1.398474
     10          1           0       -3.217862   -0.661555    0.093126
     11          1           0       -1.489262    0.612587    1.316031
     12          1           0       -0.186093   -1.484008    0.014750
     13          1           0       -0.055031    0.604628   -1.369455
     14          1           0       -0.619608    1.996903   -0.463262
     15          1           0        1.023646    1.113987    1.441403
     16          1           0        1.684553    1.981229    0.082835
     17          1           0        3.061882   -0.001980    0.572938
 ---------------------------------------------------------------------

 SCF Done:  E(RHF) =  -345.038002304     A.U. after    2 cycles

 The electronic state is 1-A.
 Alpha  occ. eigenvalues --  -20.57979 -20.55841 -11.35245 -11.28830 -11.25717
 Alpha  occ. eigenvalues --  -11.24047 -11.22274  -1.37243  -1.31685  -1.07713
 Alpha  occ. eigenvalues --   -1.00927  -0.91686  -0.82837  -0.78080  -0.70318
 Alpha  occ. eigenvalues --   -0.68235  -0.66291  -0.63379  -0.62634  -0.57983
 Alpha  occ. eigenvalues --   -0.57154  -0.53743  -0.53509  -0.52026  -0.51261
 Alpha  occ. eigenvalues --   -0.46788  -0.44298  -0.43941
 Alpha virt. eigenvalues --    0.03000   0.04064   0.04617   0.04836   0.06234
 Alpha virt. eigenvalues --    0.06373   0.06920   0.07544   0.08676   0.09072
 Alpha virt. eigenvalues --    0.10905   0.11745   0.12121   0.13778   0.14214

 Mulliken charges:
               1
     1  C    0.501381
     2  C    0.045260
     3  O   -0.597178
     4  C    0.497987
     5  C    0.099955
     6  C    0.508212
     7  O   -0.478004
     8  H   -0.006823
     9  H   -0.058017
    10  H   -0.016343
    11  H   -0.259836
    12  H    0.206920
    13  H   -0.145363
    14  H   -0.100612
    15  H   -0.044932
    16  H   -0.004382
    17  H   -0.148226
 Sum of Mulliken charges =  -0.00000

 Dipole moment (field-independent basis, Debye):
    X=              0.4514    Y=              3.5828    Z=              0.2980  Tot=              3.6234

 Test job not archived.
 1\1\GINC-SE362\SP\RHF\Aug-CC-pVDZ\C5H10O2\OHZDE\09-Apr-2025\0\\#t hf a
 ug-cc-pvdz iop(5/13=1,5/36=2,99/5=2) pseudo=read geom=check guess=(rea
 d,tcheck) scf=(maxcycle=1)\\title\\0,1\C,0,-2.25710099,-0.38024214,-0.
 06718237\C,0,-0.79599162,-0.41511054,-0.48764604\O,0,-0.49476333,0.639
 67706,-1.38348832\C,0,0.13705006,-0.42368755,0.7226313\C,0,1.60969142,
 -0.29838861,0.35835286\C,0,2.09848827,1.10758168,0.15133833\O,0,1.4307
 2813,2.10147857,0.26678575\H,0,-2.50982366,-1.23912907,0.55910416\H,0,
 -2.46898018,0.52925921,0.50145814\H,0,-2.90017689,-0.38992689,-0.94733

 Normal termination of Gaussian 16 at Wed Apr  9 03:33:32 2025.
