 Gaussian 16, Revision C.01,

 ----------------------------------------------------------------------
 #t hf aug-cc-pvdz symm=none int=(grid=ultrafine) guess=(read,tcheck) s
 table=(opt,rrhf)
 ----------------------------------------------------------------------
 -----
 title
 -----
 Symbolic Z-matrix:
 Charge =  0 Multiplicity = 1

 SCF Done:  E(RHF) =  -305.356452878     A.U. after   17 cycles
 Normal termination of Gaussian 16 at Wed Apr  9 03:52:38 2025.
 Gaussian 16:  ES64L-G16RevC.01  3-Jul-2019

 ----------------------------------------------------------------------
 #t hf aug-cc-pvdz iop(5/13=1,5/36=2,99/5=2) pseudo=read geom=check gue
 ss=(read,tcheck) scf=(maxcycle=1)
 ----------------------------------------------------------------------
 -----
 title
 -----
 Structure from the checkpoint file:  "Grambow2020_wb97xd3_008342_reverse_mol1.chk"
 Charge =  0 Multiplicity = 1

                         Standard orientation:
 ---------------------------------------------------------------------
 Center     Atomic      Atomic             Coordinates (Angstroms)
 Number     Number       Type             X           Y           Z
 ---------------------------------------------------------------------
      1          8           0       -0.179545    1.473624    0.323741
      2          6           0        0.468602    0.444544    0.710551
      3          6           0       -0.617109   -1.300820    0.543693
      4          6           0       -1.582406   -0.737892   -0.228894
      5          6           0       -2.115968    0.247954   -0.779530
      6          6           0        1.635120    0.033402   -0.062981
      7          6           0        2.603380   -0.291384   -0.689039
      8          1           0       -1.214357    1.074259   -0.356733
      9          1           0        0.561990    0.283257    1.787188
     10          1           0       -0.879590   -1.557573    1.565038
     11          1           0        0.108711   -1.953629    0.073996
     12          1           0       -2.955830    0.554538   -1.371954
     13          1           0        3.465716   -0.564666   -1.250273
 ---------------------------------------------------------------------

 SCF Done:  E(RHF) =  -305.453390997     A.U. after    2 cycles

 The electronic state is 1-A.
 Alpha  occ. eigenvalues --  -20.55782 -11.36693 -11.29616 -11.27040 -11.25738
 Alpha  occ. eigenvalues --  -11.25288 -11.25096  -1.33911  -1.09966  -1.04974
 Alpha  occ. eigenvalues --   -0.97892  -0.89969  -0.74578  -0.73454  -0.69836
 Alpha  occ. eigenvalues --   -0.68986  -0.64561  -0.63449  -0.62333  -0.47885
 Alpha  occ. eigenvalues --   -0.45450  -0.42922  -0.41402  -0.40468  -0.37005
 Alpha virt. eigenvalues --    0.03267   0.03813   0.04149   0.05356   0.05892
 Alpha virt. eigenvalues --    0.06882   0.07943   0.08951   0.09923   0.11182
 Alpha virt. eigenvalues --    0.11612   0.12167   0.13228   0.13904   0.14264

 Mulliken charges:
               1
     1  O   -0.798437
     2  C    0.503903
     3  C    0.391154
     4  C   -0.490892
     5  C    0.337334
     6  C   -0.631221
     7  C    1.177782
     8  H    0.541736
     9  H   -0.044478
    10  H   -0.080234
    11  H   -0.080936
    12  H   -0.312869
    13  H   -0.512842
 Sum of Mulliken charges =   0.00000

 Dipole moment (field-independent basis, Debye):
    X=             -0.1046    Y=             -2.6293    Z=              0.0793  Tot=              2.6326

 Test job not archived.
 1\1\GINC-SE226\SP\RHF\Aug-CC-pVDZ\C6H6O1\OHZDE\09-Apr-2025\0\\#t hf au
 g-cc-pvdz iop(5/13=1,5/36=2,99/5=2) pseudo=read geom=check guess=(read
 ,tcheck) scf=(maxcycle=1)\\title\\0,1\O,0,-0.22782457,0.23314149,1.650
 58485\C,0,0.37318604,-0.54437304,0.83634963\C,0,-0.61186888,-0.7417519
 1,-0.96465334\C,0,-1.44248107,0.30808905,-0.73336511\C,0,-1.90051623,1
 .20829117,0.00122327\C,0,1.66999689,-0.12717003,0.31445221\C,0,2.74307
 445,0.20905743,-0.09836541\H,0,-1.11351317,0.91688108,0.98618322\H,0,0
 .2799874,-1.61990702,1.00493723\H,0,-1.04248533,-1.73749027,-0.9324309

 Normal termination of Gaussian 16 at Wed Apr  9 03:52:43 2025.
