 Gaussian 16, Revision C.01,

 ----------------------------------------------------------------------
 #t hf aug-cc-pvdz symm=none int=(grid=ultrafine) guess=(read,tcheck) s
 table=(opt,rrhf)
 ----------------------------------------------------------------------
 -----
 title
 -----
 Symbolic Z-matrix:
 Charge =  0 Multiplicity = 1

 SCF Done:  E(RHF) =  -323.922136128     A.U. after   13 cycles
 Normal termination of Gaussian 16 at Wed Apr  9 16:48:47 2025.
 Gaussian 16:  ES64L-G16RevC.01  3-Jul-2019

 ----------------------------------------------------------------------
 #t hf aug-cc-pvdz iop(5/13=1,5/36=2,99/5=2) pseudo=read geom=check gue
 ss=(read,tcheck) scf=(maxcycle=1)
 ----------------------------------------------------------------------
 -----
 title
 -----
 Structure from the checkpoint file:  "Grambow2020_wb97xd3_008933_reverse_mol2.chk"
 Charge =  0 Multiplicity = 1

                         Standard orientation:
 ---------------------------------------------------------------------
 Center     Atomic      Atomic             Coordinates (Angstroms)
 Number     Number       Type             X           Y           Z
 ---------------------------------------------------------------------
      1          6           0       -2.263965   -1.211492    0.510036
      2          6           0       -1.771555   -0.268010   -0.585394
      3          6           0       -0.958683    0.857755   -0.029097
      4          7           0        0.239357    1.058846   -0.359714
      5          6           0        0.944032    2.163790    0.246443
      6          6           0        1.701572   -1.741277   -0.180990
      7          8           0        2.672730   -1.258783    0.114993
      8          1           0       -2.848905   -0.677402    1.262907
      9          1           0       -1.423217   -1.690935    1.014878
     10          1           0       -2.897242   -1.995197    0.092576
     11          1           0       -1.162781   -0.801480   -1.316355
     12          1           0       -2.632149    0.156253   -1.114125
     13          1           0       -1.460284    1.506665    0.708357
     14          1           0        1.836385    1.784686    0.749401
     15          1           0        1.284278    2.845240   -0.535907
     16          1           0        0.338173    2.725910    0.970323
 ---------------------------------------------------------------------

 SCF Done:  E(RHF) =  -324.025593943     A.U. after    2 cycles

 The electronic state is 1-A.
 Alpha  occ. eigenvalues --  -20.66634 -15.61835 -11.35860 -11.28314 -11.25445
 Alpha  occ. eigenvalues --  -11.23721 -11.23216  -1.47803  -1.20192  -1.04616
 Alpha  occ. eigenvalues --   -0.94578  -0.85744  -0.80348  -0.75873  -0.65571
 Alpha  occ. eigenvalues --   -0.64671  -0.64428  -0.62886  -0.60313  -0.58623
 Alpha  occ. eigenvalues --   -0.56094  -0.54231  -0.52899  -0.49978  -0.49632
 Alpha  occ. eigenvalues --   -0.40234  -0.39540
 Alpha virt. eigenvalues --    0.03427   0.04122   0.04544   0.05085   0.06735
 Alpha virt. eigenvalues --    0.06989   0.07218   0.07495   0.09074   0.09646
 Alpha virt. eigenvalues --    0.11359   0.11398   0.12287   0.13605   0.14417

 Mulliken charges:
               1
     1  C    0.327241
     2  C   -0.008567
     3  C    0.584131
     4  N   -0.542713
     5  C    0.726589
     6  C    0.227620
     7  O   -0.227052
     8  H   -0.070808
     9  H   -0.069343
    10  H   -0.083899
    11  H   -0.115906
    12  H    0.049504
    13  H   -0.378267
    14  H   -0.156915
    15  H   -0.164170
    16  H   -0.097446
 Sum of Mulliken charges =  -0.00000

 Dipole moment (field-independent basis, Debye):
    X=             -1.7632    Y=              0.4216    Z=              0.7744  Tot=              1.9714

 Test job not archived.
 1\1\GINC-SE273\SP\RHF\Aug-CC-pVDZ\C5H9N1O1\OHZDE\09-Apr-2025\0\\#t hf
 aug-cc-pvdz iop(5/13=1,5/36=2,99/5=2) pseudo=read geom=check guess=(re
 ad,tcheck) scf=(maxcycle=1)\\title\\0,1\C,0,2.24047461,-0.50139355,-0.
 18191198\C,0,1.15107271,0.23844143,-0.95550211\C,0,-0.20809657,-0.3225
 2297,-0.68062864\N,0,-1.13982685,0.3652465,-0.18676996\C,0,-2.41189778
 ,-0.27329195,0.05612683\C,0,0.09555278,1.90647016,2.28490361\O,0,-0.88
 043513,1.87495325,2.84168716\H,0,2.2349479,-1.57026066,-0.40932061\H,0
 ,2.09791865,-0.38551199,0.89411649\H,0,3.22816156,-0.11372422,-0.43428

 Normal termination of Gaussian 16 at Wed Apr  9 16:48:58 2025.
