 Gaussian 16, Revision C.01,

 ----------------------------------------------------------------------
 #t hf aug-cc-pvdz symm=none int=(grid=ultrafine) guess=(read,tcheck) s
 table=(opt,rrhf)
 ----------------------------------------------------------------------
 -----
 title
 -----
 Symbolic Z-matrix:
 Charge =  0 Multiplicity = 1

 SCF Done:  E(RHF) =  -268.686821263     A.U. after   15 cycles
 Normal termination of Gaussian 16 at Wed Apr  9 14:23:20 2025.
 Gaussian 16:  ES64L-G16RevC.01  3-Jul-2019

 ----------------------------------------------------------------------
 #t hf aug-cc-pvdz iop(5/13=1,5/36=2,99/5=2) pseudo=read geom=check gue
 ss=(read,tcheck) scf=(maxcycle=1)
 ----------------------------------------------------------------------
 -----
 title
 -----
 Structure from the checkpoint file:  "Grambow2020_wb97xd3_006194_reverse_mol1.chk"
 Charge =  0 Multiplicity = 1

                         Standard orientation:
 ---------------------------------------------------------------------
 Center     Atomic      Atomic             Coordinates (Angstroms)
 Number     Number       Type             X           Y           Z
 ---------------------------------------------------------------------
      1          6           0        1.711390    0.817768    0.069865
      2          6           0        1.948573   -0.611613   -0.227084
      3          6           0        0.630904   -0.182253    0.407861
      4          6           0       -0.515980   -0.292234   -0.481903
      5          6           0       -1.820226   -0.623936    0.125886
      6          8           0       -1.864108    0.800640    0.011786
      7          1           0        1.514638    1.485941   -0.757312
      8          1           0        2.228304    1.263139    0.909001
      9          1           0        2.622005   -1.173907    0.404899
     10          1           0        1.903494   -0.933411   -1.258228
     11          1           0        0.510276   -0.426102    1.460079
     12          1           0       -1.194947    0.797019   -0.925355
     13          1           0       -2.568592   -1.145169   -0.469375
     14          1           0       -1.830281   -0.919021    1.174252
 ---------------------------------------------------------------------

 SCF Done:  E(RHF) =  -268.769312313     A.U. after    2 cycles

 The electronic state is 1-A.
 Alpha  occ. eigenvalues --  -20.60130 -11.29561 -11.27763 -11.25200 -11.24992
 Alpha  occ. eigenvalues --  -11.24703  -1.35228  -1.15337  -0.97260  -0.87780
 Alpha  occ. eigenvalues --   -0.83237  -0.78649  -0.70058  -0.68330  -0.63464
 Alpha  occ. eigenvalues --   -0.60508  -0.56500  -0.53036  -0.51518  -0.49482
 Alpha  occ. eigenvalues --   -0.44289  -0.41751  -0.36653
 Alpha virt. eigenvalues --    0.03449   0.04358   0.04616   0.04830   0.06342
 Alpha virt. eigenvalues --    0.06921   0.07175   0.08235   0.09836   0.11158
 Alpha virt. eigenvalues --    0.12696   0.13005   0.13285   0.13511   0.15175

 Mulliken charges:
               1
     1  C    0.646131
     2  C    0.691368
     3  C    0.897684
     4  C   -0.919831
     5  C    1.021135
     6  O   -0.752695
     7  H   -0.324737
     8  H   -0.315369
     9  H   -0.314672
    10  H   -0.297340
    11  H   -0.357761
    12  H    0.405374
    13  H   -0.163904
    14  H   -0.215383
 Sum of Mulliken charges =   0.00000

 Dipole moment (field-independent basis, Debye):
    X=              1.4659    Y=             -1.5542    Z=              0.6394  Tot=              2.2300

 Test job not archived.
 1\1\GINC-SE162\SP\RHF\Aug-CC-pVDZ\C5H8O1\OHZDE\09-Apr-2025\0\\#t hf au
 g-cc-pvdz iop(5/13=1,5/36=2,99/5=2) pseudo=read geom=check guess=(read
 ,tcheck) scf=(maxcycle=1)\\title\\0,1\C,0,-1.684527,-0.23940739,-0.167
 17557\C,0,-1.3114196,1.19138886,-0.20147093\C,0,-0.39038541,0.18849633
 ,0.48384545\C,0,0.85670514,-0.04936317,-0.22841025\C,0,2.05498583,-0.3
 5345373,0.57914389\O,0,1.58334208,-1.6465049,0.19193484\H,0,-1.6036288
 2,-0.81087707,-1.08165079\H,0,-2.47492724,-0.55064671,0.50222997\H,0,-
 1.82947425,1.8842389,0.44711658\H,0,-0.96096846,1.6055993,-1.13659618\

 Normal termination of Gaussian 16 at Wed Apr  9 14:23:24 2025.
