 Gaussian 16, Revision C.01,

 ----------------------------------------------------------------------
 #t hf aug-cc-pvdz symm=none int=(grid=ultrafine) guess=(read,tcheck) s
 table=(opt,rrhf)
 ----------------------------------------------------------------------
 -----
 title
 -----
 Symbolic Z-matrix:
 Charge =  0 Multiplicity = 1

 SCF Done:  E(RHF) =  -232.867036050     A.U. after   17 cycles
 Normal termination of Gaussian 16 at Wed Apr  9 14:17:28 2025.
 Gaussian 16:  ES64L-G16RevC.01  3-Jul-2019

 ----------------------------------------------------------------------
 #t hf aug-cc-pvdz iop(5/13=1,5/36=2,99/5=2) pseudo=read geom=check gue
 ss=(read,tcheck) scf=(maxcycle=1)
 ----------------------------------------------------------------------
 -----
 title
 -----
 Structure from the checkpoint file:  "Grambow2020_b97d3_006954_forward_mol1.chk"
 Charge =  0 Multiplicity = 1

                         Standard orientation:
 ---------------------------------------------------------------------
 Center     Atomic      Atomic             Coordinates (Angstroms)
 Number     Number       Type             X           Y           Z
 ---------------------------------------------------------------------
      1          6           0        2.093225    0.691162   -0.171943
      2          6           0        1.127655   -0.257103    0.460878
      3          6           0        0.359491   -1.287124   -0.256001
      4          6           0       -1.096060   -1.032646    0.063016
      5          6           0       -1.742808    0.208316   -0.056604
      6          6           0       -1.209350    1.475334    0.023621
      7          1           0        2.113334    1.679517    0.310362
      8          1           0        1.889626    0.833597   -1.240501
      9          1           0        3.124406    0.286073   -0.084877
     10          1           0        1.032063   -0.253763    1.546988
     11          1           0        0.550765   -1.281962   -1.340709
     12          1           0        0.613500   -2.297726    0.112211
     13          1           0       -1.681550   -1.883752    0.424501
     14          1           0       -2.817784    0.133174   -0.279144
     15          1           0       -1.712869    2.334926   -0.421520
     16          1           0       -0.304403    1.662280    0.594890
 ---------------------------------------------------------------------

 SCF Done:  E(RHF) =  -232.938032252     A.U. after    2 cycles

 The electronic state is 1-A.
 Alpha  occ. eigenvalues --  -11.29832 -11.25520 -11.25327 -11.23744 -11.23605
 Alpha  occ. eigenvalues --  -11.21443  -1.09575  -1.02685  -0.97070  -0.87107
 Alpha  occ. eigenvalues --   -0.79303  -0.72051  -0.65716  -0.62301  -0.59621
 Alpha  occ. eigenvalues --   -0.57675  -0.56725  -0.55954  -0.52167  -0.49863
 Alpha  occ. eigenvalues --   -0.48739  -0.36868  -0.22175
 Alpha virt. eigenvalues --    0.02915   0.03299   0.04376   0.04648   0.04927
 Alpha virt. eigenvalues --    0.06125   0.06373   0.06684   0.07455   0.08500
 Alpha virt. eigenvalues --    0.08819   0.12672   0.13274   0.13745   0.14141

 Mulliken charges:
               1
     1  C    0.228274
     2  C    0.204118
     3  C    0.269555
     4  C    0.272434
     5  C    0.278125
     6  C    0.539056
     7  H   -0.034603
     8  H   -0.029116
     9  H    0.014446
    10  H   -0.357032
    11  H   -0.017805
    12  H    0.072396
    13  H   -0.401641
    14  H   -0.371986
    15  H   -0.334917
    16  H   -0.331305
 Sum of Mulliken charges =  -0.00000

 Dipole moment (field-independent basis, Debye):
    X=              2.2603    Y=             -0.7450    Z=              0.0919  Tot=              2.3817

 Test job not archived.
 1\1\GINC-SE083\SP\RHF\Aug-CC-pVDZ\C6H10\OHZDE\09-Apr-2025\0\\#t hf aug
 -cc-pvdz iop(5/13=1,5/36=2,99/5=2) pseudo=read geom=check guess=(read,
 tcheck) scf=(maxcycle=1)\\title\\0,1\C,0,2.02046557,-0.33962754,-0.083
 65877\C,0,0.6733537,-0.87659931,0.27542845\C,0,-0.41587193,-1.13753181
 ,-0.67874013\C,0,-1.6110005,-0.35380965,-0.18618669\C,0,-1.5971286,1.0
 0866908,0.15445743\C,0,-0.54807194,1.77943865,0.60361608\H,0,2.4516463
 1,0.31040821,0.69184392\H,0,2.00291755,0.21705423,-1.02883329\H,0,2.73
 504345,-1.18116428,-0.21096439\H,0,0.49277078,-1.17963549,1.30709866\H

 Normal termination of Gaussian 16 at Wed Apr  9 14:17:32 2025.
