 Gaussian 16, Revision C.01,

 ----------------------------------------------------------------------
 #t hf aug-cc-pvdz symm=none int=(grid=ultrafine) guess=(read,tcheck) s
 table=(opt,rrhf)
 ----------------------------------------------------------------------
 -----
 title
 -----
 Symbolic Z-matrix:
 Charge =  0 Multiplicity = 1

 SCF Done:  E(RHF) =  -323.765969045     A.U. after   15 cycles
 Normal termination of Gaussian 16 at Wed Apr  9 16:50:18 2025.
 Gaussian 16:  ES64L-G16RevC.01  3-Jul-2019

 ----------------------------------------------------------------------
 #t hf aug-cc-pvdz iop(5/13=1,5/36=2,99/5=2) pseudo=read geom=check gue
 ss=(read,tcheck) scf=(maxcycle=1)
 ----------------------------------------------------------------------
 -----
 title
 -----
 Structure from the checkpoint file:  "Grambow2020_wb97xd3_008940_reverse_mol1.chk"
 Charge =  0 Multiplicity = 1

                         Standard orientation:
 ---------------------------------------------------------------------
 Center     Atomic      Atomic             Coordinates (Angstroms)
 Number     Number       Type             X           Y           Z
 ---------------------------------------------------------------------
      1          6           0       -2.246366   -0.747552    0.440829
      2          6           0       -1.267932   -0.016494   -0.454496
      3          6           0       -0.843636    1.414139   -0.055828
      4          7           0        0.549981    0.892153    0.106825
      5          6           0        2.604080    0.075913    0.277476
      6          6           0        0.214480   -0.311770   -0.221133
      7          8           0        1.022873   -1.255383   -0.264207
      8          1           0       -1.963785   -0.640673    1.490406
      9          1           0       -2.263136   -1.812373    0.203390
     10          1           0       -3.257021   -0.353344    0.318376
     11          1           0       -1.538133   -0.109847   -1.507853
     12          1           0       -0.934850    2.174947   -0.832474
     13          1           0       -1.279185    1.780684    0.875887
     14          1           0        2.931010    0.008403   -0.748464
     15          1           0        2.692526    1.041552    0.743046
     16          1           0        2.815967   -0.776772    0.902481
 ---------------------------------------------------------------------

 SCF Done:  E(RHF) =  -323.866385756     A.U. after    2 cycles

 The electronic state is 1-A.
 Alpha  occ. eigenvalues --  -20.53036 -15.57775 -11.36324 -11.31015 -11.25417
 Alpha  occ. eigenvalues --  -11.24163 -11.22547  -1.32919  -1.19648  -1.01599
 Alpha  occ. eigenvalues --   -0.97016  -0.88833  -0.83599  -0.68287  -0.67285
 Alpha  occ. eigenvalues --   -0.64796  -0.64276  -0.62383  -0.58988  -0.55503
 Alpha  occ. eigenvalues --   -0.53861  -0.53209  -0.49552  -0.48277  -0.40913
 Alpha  occ. eigenvalues --   -0.37950  -0.34905
 Alpha virt. eigenvalues --    0.02180   0.03898   0.04572   0.04843   0.05946
 Alpha virt. eigenvalues --    0.06612   0.06704   0.07418   0.07708   0.08267
 Alpha virt. eigenvalues --    0.11327   0.12278   0.12830   0.14019   0.14278

 Mulliken charges:
               1
     1  C    0.626368
     2  C   -0.506126
     3  C    1.083582
     4  N   -0.642420
     5  C    0.623784
     6  C    0.146689
     7  O   -0.637487
     8  H   -0.061144
     9  H   -0.001755
    10  H   -0.035703
    11  H   -0.113917
    12  H   -0.208929
    13  H   -0.239603
    14  H    0.010209
    15  H   -0.057178
    16  H    0.013630
 Sum of Mulliken charges =  -0.00000

 Dipole moment (field-independent basis, Debye):
    X=              1.2906    Y=              1.7213    Z=              0.4879  Tot=              2.2060

 Test job not archived.
 1\1\GINC-SE057\SP\RHF\Aug-CC-pVDZ\C5H9N1O1\OHZDE\09-Apr-2025\0\\#t hf
 aug-cc-pvdz iop(5/13=1,5/36=2,99/5=2) pseudo=read geom=check guess=(re
 ad,tcheck) scf=(maxcycle=1)\\title\\0,1\C,0,2.19079926,-0.52861042,0.2
 3515734\C,0,1.12132464,0.44509143,-0.21374974\C,0,0.28665965,0.0863469
 8,-1.46287352\N,0,-0.91559595,0.03532985,-0.57232741\C,0,-2.66920699,0
 .02885439,0.78395291\C,0,-0.23443112,0.33145757,0.48496669\O,0,-0.7431
 5658,0.43690559,1.61449732\H,0,1.80816253,-1.55157689,0.23125079\H,0,2
 .52106435,-0.29651507,1.24884357\H,0,3.05868387,-0.48708277,-0.4258040

 Normal termination of Gaussian 16 at Wed Apr  9 16:50:24 2025.
