 Gaussian 16, Revision C.01,

 ----------------------------------------------------------------------
 #t hf aug-cc-pvdz symm=none int=(grid=ultrafine) guess=(read,tcheck) s
 table=(opt,rrhf)
 ----------------------------------------------------------------------
 -----
 title
 -----
 Symbolic Z-matrix:
 Charge =  0 Multiplicity = 1

 SCF Done:  E(RHF) =  -308.942809220     A.U. after   14 cycles

 1\1\GINC-SE163\Stability\RHF\Aug-CC-pVDZ\C6H12O1\OHZDE\09-Apr-2025\0\\
 #t hf aug-cc-pvdz symm=none int=(grid=ultrafine) guess=(read,tcheck) s
 table=(opt,rrhf)\\title\\0,1\C,0,1.56233399,1.16022113,0.32309794\C,0,
 0.72266639,-0.10729793,0.13915318\C,0,1.53638745,-1.19726263,-0.548148
 34\C,0,-0.45860224,0.33752637,-0.70542966\C,0,-1.880261,-0.79015297,-0
 .3739625\C,0,-1.69075678,0.63960982,0.06602449\O,0,-1.67258076,0.74456
 453,1.47293753\H,0,0.99532262,1.95707836,0.81014244\H,0,2.43569578,0.9
 4759109,0.94268982\H,0,1.90315885,1.53833382,-0.64284027\H,0,0.4282418

 Normal termination of Gaussian 16 at Wed Apr  9 16:26:27 2025.
 Gaussian 16:  ES64L-G16RevC.01  3-Jul-2019

 ----------------------------------------------------------------------
 #t hf aug-cc-pvdz iop(5/13=1,5/36=2,99/5=2) pseudo=read geom=check gue
 ss=(read,tcheck) scf=(maxcycle=1)
 ----------------------------------------------------------------------
 -----
 title
 -----
 Structure from the checkpoint file:  "Grambow2020_wb97xd3_008289_forward_mol1.chk"
 Charge =  0 Multiplicity = 1

                         Standard orientation:
 ---------------------------------------------------------------------
 Center     Atomic      Atomic             Coordinates (Angstroms)
 Number     Number       Type             X           Y           Z
 ---------------------------------------------------------------------
      1          6           0       -1.574304    1.354179    0.288630
      2          6           0       -0.947340    0.052754   -0.219987
      3          6           0       -1.997152   -1.047394   -0.320569
      4          6           0        0.125897   -0.278065    0.802415
      5          6           0        1.425003   -1.301694   -0.014380
      6          6           0        1.496959    0.141469    0.416695
      7          8           0        1.724765    0.994213   -0.684070
      8          1           0       -0.836616    2.155665    0.373075
      9          1           0       -2.353575    1.690991   -0.397782
     10          1           0       -2.018020    1.206455    1.275271
     11          1           0       -0.540255    0.249320   -1.219765
     12          1           0       -2.816829   -0.747978   -0.977868
     13          1           0       -2.407796   -1.277588    0.664975
     14          1           0       -1.570442   -1.967210   -0.730334
     15          1           0        0.392191   -1.620227    0.525961
     16          1           0        2.075310   -1.993158    0.510961
     17          1           0        1.369501   -1.421364   -1.091116
     18          1           0        2.190718    0.349967    1.229837
     19          1           0        1.543319    1.893929   -0.407478
 ---------------------------------------------------------------------

 SCF Done:  E(RHF) =  -309.038533549     A.U. after    2 cycles

 The electronic state is 1-A.
 Alpha  occ. eigenvalues --  -20.58128 -11.30055 -11.27493 -11.24279 -11.23385
 Alpha  occ. eigenvalues --  -11.22403 -11.21850  -1.33823  -1.12983  -1.04802
 Alpha  occ. eigenvalues --   -0.92693  -0.86690  -0.84045  -0.76425  -0.70865
 Alpha  occ. eigenvalues --   -0.65807  -0.62643  -0.60159  -0.58667  -0.58326
 Alpha  occ. eigenvalues --   -0.54506  -0.53630  -0.51552  -0.49762  -0.47863
 Alpha  occ. eigenvalues --   -0.47198  -0.43625  -0.32290
 Alpha virt. eigenvalues --    0.03448   0.04019   0.04194   0.05202   0.06076
 Alpha virt. eigenvalues --    0.06184   0.06795   0.07351   0.07697   0.08596
 Alpha virt. eigenvalues --    0.09361   0.10149   0.12499   0.12764   0.13017

 Mulliken charges:
               1
     1  C    0.708841
     2  C   -1.047786
     3  C    0.720100
     4  C   -0.581668
     5  C    0.386951
     6  C    0.983017
     7  O   -0.587991
     8  H   -0.130062
     9  H   -0.052377
    10  H    0.060057
    11  H   -0.124578
    12  H   -0.050407
    13  H    0.022523
    14  H   -0.049990
    15  H    0.131567
    16  H   -0.161352
    17  H   -0.127129
    18  H   -0.271297
    19  H    0.171580
 Sum of Mulliken charges =  -0.00000

 Dipole moment (field-independent basis, Debye):
    X=              0.4935    Y=              0.0108    Z=             -0.4777  Tot=              0.6869

 Test job not archived.
 1\1\GINC-SE163\SP\RHF\Aug-CC-pVDZ\C6H12O1\OHZDE\09-Apr-2025\0\\#t hf a
 ug-cc-pvdz iop(5/13=1,5/36=2,99/5=2) pseudo=read geom=check guess=(rea
 d,tcheck) scf=(maxcycle=1)\\title\\0,1\C,0,1.56233399,1.16022113,0.323
 09794\C,0,0.72266639,-0.10729793,0.13915318\C,0,1.53638745,-1.19726263
 ,-0.54814834\C,0,-0.45860224,0.33752637,-0.70542966\C,0,-1.880261,-0.7
 9015297,-0.3739625\C,0,-1.69075678,0.63960982,0.06602449\O,0,-1.672580
 76,0.74456453,1.47293753\H,0,0.99532262,1.95707836,0.81014244\H,0,2.43
 569578,0.94759109,0.94268982\H,0,1.90315885,1.53833382,-0.64284027\H,0

 Normal termination of Gaussian 16 at Wed Apr  9 16:26:35 2025.
