 Gaussian 16, Revision C.01,

 ----------------------------------------------------------------------
 #t hf aug-cc-pvdz symm=none int=(grid=ultrafine) guess=(read,tcheck) s
 table=(opt,rrhf)
 ----------------------------------------------------------------------
 -----
 title
 -----
 Symbolic Z-matrix:
 Charge =  0 Multiplicity = 1

 SCF Done:  E(RHF) =  -302.746167411     A.U. after   15 cycles
 Normal termination of Gaussian 16 at Wed Apr  9 16:48:40 2025.
 Gaussian 16:  ES64L-G16RevC.01  3-Jul-2019

 ----------------------------------------------------------------------
 #t hf aug-cc-pvdz iop(5/13=1,5/36=2,99/5=2) pseudo=read geom=check gue
 ss=(read,tcheck) scf=(maxcycle=1)
 ----------------------------------------------------------------------
 -----
 title
 -----
 Structure from the checkpoint file:  "Grambow2020_wb97xd3_008920_forward_mol1.chk"
 Charge =  0 Multiplicity = 1

                         Standard orientation:
 ---------------------------------------------------------------------
 Center     Atomic      Atomic             Coordinates (Angstroms)
 Number     Number       Type             X           Y           Z
 ---------------------------------------------------------------------
      1          6           0        2.209390   -0.826114    0.022847
      2          7           0        0.054576   -0.742309   -0.023659
      3          6           0       -1.227261   -1.182720   -0.013216
      4          6           0       -2.078417   -0.087028    0.011252
      5          6           0       -1.267688    1.073462    0.014091
      6          6           0        0.024763    0.589714   -0.009396
      7          7           0        1.341072    1.109329   -0.019263
      8          1           0        3.079673   -0.252162   -0.268677
      9          1           0        2.177795   -1.073676    1.072581
     10          1           0        2.013710   -1.654358   -0.637261
     11          1           0       -1.468410   -2.235247   -0.018172
     12          1           0       -3.158061   -0.120144    0.027274
     13          1           0       -1.588381    2.103591    0.027434
     14          1           0        1.600723    1.617060   -0.856856
     15          1           0        1.608697    1.641903    0.800664
 ---------------------------------------------------------------------

 SCF Done:  E(RHF) =  -302.838362890     A.U. after    2 cycles

 The electronic state is 1-A.
 Alpha  occ. eigenvalues --  -15.67449 -15.57498 -11.36766 -11.24487 -11.20504
 Alpha  occ. eigenvalues --  -11.18371 -11.17644  -1.23747  -1.15289  -0.99334
 Alpha  occ. eigenvalues --   -0.95011  -0.90964  -0.74783  -0.71182  -0.71038
 Alpha  occ. eigenvalues --   -0.67311  -0.64063  -0.63525  -0.55300  -0.53802
 Alpha  occ. eigenvalues --   -0.50385  -0.50305  -0.44264  -0.38305  -0.28836
 Alpha  occ. eigenvalues --   -0.25521
 Alpha virt. eigenvalues --    0.01443   0.02732   0.04090   0.04874   0.06103
 Alpha virt. eigenvalues --    0.06375   0.07109   0.07837   0.07989   0.11122
 Alpha virt. eigenvalues --    0.12375   0.13093   0.13571   0.14764   0.15235

 Mulliken charges:
               1
     1  C    0.906568
     2  N   -0.500597
     3  C    0.169605
     4  C    0.328804
     5  C    0.722114
     6  C   -0.203492
     7  N   -0.256407
     8  H   -0.163579
     9  H   -0.038537
    10  H   -0.038993
    11  H   -0.348733
    12  H   -0.354481
    13  H   -0.418566
    14  H    0.089622
    15  H    0.106673
 Sum of Mulliken charges =  -0.00000

 Dipole moment (field-independent basis, Debye):
    X=              6.5481    Y=              1.0076    Z=              0.1098  Tot=              6.6261

 Test job not archived.
 1\1\GINC-SE138\SP\RHF\Aug-CC-pVDZ\C5H8N2\OHZDE\09-Apr-2025\0\\#t hf au
 g-cc-pvdz iop(5/13=1,5/36=2,99/5=2) pseudo=read geom=check guess=(read
 ,tcheck) scf=(maxcycle=1)\\title\\0,1\C,0,-1.92120917,-0.9220151,0.302
 84745\N,0,0.22117885,-0.67472307,0.26506719\C,0,1.53259185,-1.00255812
 ,0.36455717\C,0,2.29858328,0.08394652,-0.03340288\C,0,1.40256359,1.120
 45216,-0.38953726\C,0,0.15034204,0.5797003,-0.17853332\N,0,-1.20142355
 ,0.97963585,-0.30322174\H,0,-2.8320215,-0.348034,0.41583541\H,0,-1.872
 14489,-1.49277807,-0.61150993\H,0,-1.66285791,-1.47621859,1.18948956\H

 Normal termination of Gaussian 16 at Wed Apr  9 16:48:58 2025.
