 Gaussian 16, Revision C.01,

 ----------------------------------------------------------------------
 #t hf aug-cc-pvdz symm=none int=(grid=ultrafine) guess=(read,tcheck) s
 table=(opt,rrhf)
 ----------------------------------------------------------------------
 -----
 title
 -----
 Symbolic Z-matrix:
 Charge =  0 Multiplicity = 1

 SCF Done:  E(RHF) =  -338.554677485     A.U. after   15 cycles
 Normal termination of Gaussian 16 at Wed Apr  9 03:46:49 2025.
 Gaussian 16:  ES64L-G16RevC.01  3-Jul-2019

 ----------------------------------------------------------------------
 #t hf aug-cc-pvdz iop(5/13=1,5/36=2,99/5=2) pseudo=read geom=check gue
 ss=(read,tcheck) scf=(maxcycle=1)
 ----------------------------------------------------------------------
 -----
 title
 -----
 Structure from the checkpoint file:  "Grambow2020_wb97xd3_007973_forward_mol1.chk"
 Charge =  0 Multiplicity = 1

                         Standard orientation:
 ---------------------------------------------------------------------
 Center     Atomic      Atomic             Coordinates (Angstroms)
 Number     Number       Type             X           Y           Z
 ---------------------------------------------------------------------
      1          7           0        1.538111   -1.544273    0.067675
      2          6           0        0.679099   -0.743869   -0.135236
      3          8           0        1.528610    0.895272   -0.293506
      4          6           0        0.334785    1.349224    0.311667
      5          6           0       -0.514277    0.109272    0.053453
      6          6           0       -1.759848   -0.074693   -0.719287
      7          7           0       -1.715326   -0.311722    0.717947
      8          1           0        2.038509   -0.381904    0.052195
      9          1           0        0.429675    1.548101    1.385617
     10          1           0       -0.052281    2.237103   -0.191935
     11          1           0       -1.819371   -0.923097   -1.391990
     12          1           0       -2.311411    0.806089   -1.024440
     13          1           0       -1.712059   -1.296112    0.955661
 ---------------------------------------------------------------------

 SCF Done:  E(RHF) =  -338.652590823     A.U. after    2 cycles

 The electronic state is 1-A.
 Alpha  occ. eigenvalues --  -20.53463 -15.67140 -15.66851 -11.39454 -11.33441
 Alpha  occ. eigenvalues --  -11.30976 -11.30045  -1.33634  -1.28562  -1.23622
 Alpha  occ. eigenvalues --   -0.99948  -0.91767  -0.87923  -0.77399  -0.72111
 Alpha  occ. eigenvalues --   -0.66431  -0.64668  -0.61461  -0.59426  -0.55964
 Alpha  occ. eigenvalues --   -0.54152  -0.52740  -0.49285  -0.44716  -0.41724
 Alpha  occ. eigenvalues --   -0.40929
 Alpha virt. eigenvalues --    0.02813   0.03890   0.04389   0.05338   0.06680
 Alpha virt. eigenvalues --    0.06974   0.09066   0.10062   0.10582   0.11571
 Alpha virt. eigenvalues --    0.12418   0.13354   0.13763   0.14521   0.14889

 Mulliken charges:
               1
     1  N   -0.536356
     2  C    0.226932
     3  O   -0.944841
     4  C    0.750272
     5  C    0.272800
     6  C    0.996468
     7  N   -0.616996
     8  H    0.318614
     9  H    0.001794
    10  H   -0.075726
    11  H   -0.183755
    12  H   -0.204815
    13  H   -0.004390
 Sum of Mulliken charges =  -0.00000

 Dipole moment (field-independent basis, Debye):
    X=             -3.3749    Y=             -0.8007    Z=             -0.2401  Tot=              3.4769

 Test job not archived.
 1\1\GINC-SE116\SP\RHF\Aug-CC-pVDZ\C4H6N2O1\OHZDE\09-Apr-2025\0\\#t hf
 aug-cc-pvdz iop(5/13=1,5/36=2,99/5=2) pseudo=read geom=check guess=(re
 ad,tcheck) scf=(maxcycle=1)\\title\\0,1\N,0,1.88185041,-1.36377225,-0.
 9178599\C,0,0.94568599,-0.65930362,-0.70097017\O,0,1.62663263,1.049885
 19,-0.4807723\C,0,0.55758869,1.14324856,0.43898388\C,0,-0.2381211,-0.0
 6486565,-0.04306228\C,0,-1.6021187,-0.17365377,-0.59992131\N,0,-1.2407
 2589,-0.81776056,0.65639403\H,0,2.28552994,-0.19379246,-0.65341958\H,0
 ,0.86149854,1.02575228,1.48576889\H,0,0.01252891,2.08154126,0.31947682

 Normal termination of Gaussian 16 at Wed Apr  9 03:46:53 2025.
