 Gaussian 16, Revision C.01,

 ----------------------------------------------------------------------
 #t hf aug-cc-pvdz symm=none int=(grid=ultrafine) guess=(read,tcheck) s
 table=(opt,rrhf)
 ----------------------------------------------------------------------
 -----
 title
 -----
 Symbolic Z-matrix:
 Charge =  0 Multiplicity = 1

 SCF Done:  E(RHF) =  -320.590690383     A.U. after   16 cycles
 Normal termination of Gaussian 16 at Wed Apr  9 14:18:04 2025.
 Gaussian 16:  ES64L-G16RevC.01  3-Jul-2019

 ----------------------------------------------------------------------
 #t hf aug-cc-pvdz iop(5/13=1,5/36=2,99/5=2) pseudo=read geom=check gue
 ss=(read,tcheck) scf=(maxcycle=1)
 ----------------------------------------------------------------------
 -----
 title
 -----
 Structure from the checkpoint file:  "Grambow2020_b97d3_007125_forward_mol1.chk"
 Charge =  0 Multiplicity = 1

                         Standard orientation:
 ---------------------------------------------------------------------
 Center     Atomic      Atomic             Coordinates (Angstroms)
 Number     Number       Type             X           Y           Z
 ---------------------------------------------------------------------
      1          6           0        2.419950    0.218302    0.022141
      2          7           0        0.386240    1.059768   -0.027604
      3          6           0       -0.062346   -0.159524   -0.018027
      4          8           0        0.752046   -1.137832   -0.015745
      5          6           0       -1.559929   -0.467534    0.003344
      6          8           0       -2.418800    0.393279    0.015320
      7          1           0        2.816391   -0.669054   -0.461986
      8          1           0        2.630720    1.152594   -0.484650
      9          1           0        2.489744    0.235708    1.105575
     10          1           0       -0.296199    1.825073   -0.013513
     11          1           0       -1.796358   -1.553735    0.006459
 ---------------------------------------------------------------------

 SCF Done:  E(RHF) =  -320.690648801     A.U. after    2 cycles

 The electronic state is 1-A.
 Alpha  occ. eigenvalues --  -20.59526 -20.54748 -15.60774 -11.38165 -11.35937
 Alpha  occ. eigenvalues --  -11.35094  -1.37233  -1.33100  -1.13317  -0.98674
 Alpha  occ. eigenvalues --   -0.90273  -0.75314  -0.71752  -0.68978  -0.65992
 Alpha  occ. eigenvalues --   -0.65641  -0.60341  -0.58741  -0.53081  -0.51347
 Alpha  occ. eigenvalues --   -0.43591  -0.42097  -0.38396
 Alpha virt. eigenvalues --    0.01591   0.04522   0.04765   0.04951   0.06322
 Alpha virt. eigenvalues --    0.06774   0.07323   0.10419   0.11686   0.12367
 Alpha virt. eigenvalues --    0.13574   0.13860   0.14516   0.15440   0.16014

 Mulliken charges:
               1
     1  C    0.566134
     2  N   -0.408538
     3  C    0.252986
     4  O   -0.650417
     5  C    0.767692
     6  O   -0.451783
     7  H    0.002845
     8  H   -0.012378
     9  H    0.019607
    10  H    0.003851
    11  H   -0.089998
 Sum of Mulliken charges =  -0.00000

 Dipole moment (field-independent basis, Debye):
    X=              4.1807    Y=              0.5934    Z=              0.1484  Tot=              4.2252

 Test job not archived.
 1\1\GINC-SE114\SP\RHF\Aug-CC-pVDZ\C3H5N1O2\OHZDE\09-Apr-2025\0\\#t hf
 aug-cc-pvdz iop(5/13=1,5/36=2,99/5=2) pseudo=read geom=check guess=(re
 ad,tcheck) scf=(maxcycle=1)\\title\\0,1\C,0,-1.47357202,1.2544974,0.09
 141733\N,0,0.65842909,0.72863948,-0.0653066\C,0,0.30369847,-0.51822449
 ,0.02123577\O,0,-0.92376082,-0.82265595,0.1661173\C,0,1.32413485,-1.65
 420927,-0.05833082\O,0,2.51698132,-1.47128494,-0.20819008\H,0,-2.25961
 766,0.79795542,0.68525853\H,0,-1.0411579,2.15410385,0.51318581\H,0,-1.
 63611064,1.26003294,-0.98215357\H,0,1.65337131,0.93918364,-0.19711729\

 Normal termination of Gaussian 16 at Wed Apr  9 14:18:07 2025.
