 Gaussian 16, Revision C.01,

 ----------------------------------------------------------------------
 #t hf aug-cc-pvdz symm=none int=(grid=ultrafine) guess=(read,tcheck) s
 table=(opt,rrhf)
 ----------------------------------------------------------------------
 -----
 title
 -----
 Symbolic Z-matrix:
 Charge =  0 Multiplicity = 1

 SCF Done:  E(RHF) =  -316.394801744     A.U. after   19 cycles
 Normal termination of Gaussian 16 at Wed Apr  9 15:39:41 2025.
 Gaussian 16:  ES64L-G16RevC.01  3-Jul-2019

 ----------------------------------------------------------------------
 #t hf aug-cc-pvdz iop(5/13=1,5/36=2,99/5=2) pseudo=read geom=check gue
 ss=(read,tcheck) scf=(maxcycle=1)
 ----------------------------------------------------------------------
 -----
 title
 -----
 Structure from the checkpoint file:  "Grambow2020_wb97xd3_007271_reverse_mol1.chk"
 Charge =  0 Multiplicity = 1

                         Standard orientation:
 ---------------------------------------------------------------------
 Center     Atomic      Atomic             Coordinates (Angstroms)
 Number     Number       Type             X           Y           Z
 ---------------------------------------------------------------------
      1          7           0       -2.310296    0.004873   -0.493634
      2          6           0       -1.260566   -0.178436   -0.012343
      3          6           0       -0.188840   -1.138700    0.535624
      4          7           0        0.903307   -1.183244   -0.001746
      5          6           0        1.680385   -0.138322   -0.326992
      6          6           0        1.035843    1.056570   -0.080859
      7          7           0       -0.161390    1.006629    0.495967
      8          1           0        2.628505   -0.272522   -0.819419
      9          1           0        1.451174    2.005252   -0.398878
     10          1           0       -0.701955    1.862792    0.521601
 ---------------------------------------------------------------------

 SCF Done:  E(RHF) =  -316.485472238     A.U. after    2 cycles

 The electronic state is 1-A.
 Alpha  occ. eigenvalues --  -15.72348 -15.70772 -15.59807 -11.36551 -11.34894
 Alpha  occ. eigenvalues --  -11.32720 -11.32658  -1.34397  -1.23127  -1.16701
 Alpha  occ. eigenvalues --   -1.05846  -0.90280  -0.86105  -0.77913  -0.70694
 Alpha  occ. eigenvalues --   -0.67312  -0.63003  -0.59099  -0.53640  -0.51808
 Alpha  occ. eigenvalues --   -0.50250  -0.45645  -0.35993  -0.35098
 Alpha virt. eigenvalues --    0.01123   0.01961   0.03425   0.05290   0.07129
 Alpha virt. eigenvalues --    0.07698   0.08749   0.10259   0.10778   0.11582
 Alpha virt. eigenvalues --    0.12450   0.12571   0.12898   0.14485   0.14817

 Mulliken charges:
               1
     1  N   -0.353625
     2  C    0.346637
     3  C    0.069746
     4  N   -0.298650
     5  C    0.548242
     6  C    0.742116
     7  N   -0.533448
     8  H   -0.248135
     9  H   -0.264294
    10  H   -0.008588
 Sum of Mulliken charges =  -0.00000

 Dipole moment (field-independent basis, Debye):
    X=              5.4588    Y=              2.6238    Z=              0.0643  Tot=              6.0569

 Test job not archived.
 1\1\GINC-SE129\SP\RHF\Aug-CC-pVDZ\C4H3N3\OHZDE\09-Apr-2025\0\\#t hf au
 g-cc-pvdz iop(5/13=1,5/36=2,99/5=2) pseudo=read geom=check guess=(read
 ,tcheck) scf=(maxcycle=1)\\title\\0,1\N,0,2.58362982,0.31235009,0.6169
 8609\C,0,1.63651665,-0.1371458,0.09919847\C,0,0.83414287,-1.35298434,-
 0.39970588\N,0,-0.26451226,-1.57853953,0.07528501\C,0,-1.26455296,-0.6
 9804913,0.23700252\C,0,-0.86378919,0.57779635,-0.10268857\N,0,0.360048
 63,0.73022797,-0.60025736\H,0,-2.20061788,-0.98421685,0.68568411\H,0,-
 1.49060229,1.44156284,0.08344912\H,0,0.71192562,1.6757914,-0.6895645\\

 Normal termination of Gaussian 16 at Wed Apr  9 15:39:45 2025.
