 Gaussian 16, Revision C.01,

 ----------------------------------------------------------------------
 #t hf aug-cc-pvdz symm=none int=(grid=ultrafine) guess=(read,tcheck) s
 table=(opt,rrhf)
 ----------------------------------------------------------------------
 -----
 title
 -----
 Symbolic Z-matrix:
 Charge =  0 Multiplicity = 1

 SCF Done:  E(RHF) =  -301.576227989     A.U. after   15 cycles
 Normal termination of Gaussian 16 at Wed Apr  9 16:46:05 2025.
 Gaussian 16:  ES64L-G16RevC.01  3-Jul-2019

 ----------------------------------------------------------------------
 #t hf aug-cc-pvdz iop(5/13=1,5/36=2,99/5=2) pseudo=read geom=check gue
 ss=(read,tcheck) scf=(maxcycle=1)
 ----------------------------------------------------------------------
 -----
 title
 -----
 Structure from the checkpoint file:  "Grambow2020_wb97xd3_008862_reverse_mol2.chk"
 Charge =  0 Multiplicity = 1

                         Standard orientation:
 ---------------------------------------------------------------------
 Center     Atomic      Atomic             Coordinates (Angstroms)
 Number     Number       Type             X           Y           Z
 ---------------------------------------------------------------------
      1          7           0        2.637040   -0.264386    0.270660
      2          6           0        1.519034   -0.133393    0.034050
      3          6           0       -0.489988    1.406371   -0.682306
      4          6           0       -0.801983    0.744444    0.595272
      5          6           0       -1.781753   -0.422984    0.414883
      6          6           0       -0.743271   -1.109626   -0.492511
      7          7           0        0.217655    0.012560   -0.259602
      8          1           0        0.313262    2.128471   -0.481765
      9          1           0       -0.491723    1.075209    1.583630
     10          1           0       -1.979072   -0.986733    1.325176
     11          1           0       -2.711532   -0.134283   -0.068059
     12          1           0       -0.346646   -2.044778   -0.102062
     13          1           0       -0.979386   -1.183977   -1.550651
 ---------------------------------------------------------------------

 SCF Done:  E(RHF) =  -301.664449081     A.U. after    2 cycles

 The electronic state is 1-A.
 Alpha  occ. eigenvalues --  -15.74508 -15.65550 -11.33902 -11.32336 -11.32225
 Alpha  occ. eigenvalues --  -11.27273 -11.24775  -1.34480  -1.21204  -1.06820
 Alpha  occ. eigenvalues --   -1.02994  -0.89754  -0.80820  -0.77334  -0.67988
 Alpha  occ. eigenvalues --   -0.64071  -0.61357  -0.58296  -0.57485  -0.56043
 Alpha  occ. eigenvalues --   -0.52701  -0.50411  -0.46003  -0.44353  -0.33365
 Alpha virt. eigenvalues --    0.02519   0.03537   0.04425   0.04752   0.06784
 Alpha virt. eigenvalues --    0.06927   0.08147   0.08873   0.09991   0.11501
 Alpha virt. eigenvalues --    0.12021   0.12891   0.13360   0.14109   0.14250

 Mulliken charges:
               1
     1  N   -0.110680
     2  C   -0.610695
     3  C   -0.013030
     4  C    0.871662
     5  C    0.480149
     6  C    1.051044
     7  N   -0.442816
     8  H   -0.198512
     9  H   -0.374157
    10  H   -0.136225
    11  H   -0.071124
    12  H   -0.249073
    13  H   -0.196542
 Sum of Mulliken charges =  -0.00000

 Dipole moment (field-independent basis, Debye):
    X=             -3.2884    Y=             -2.0774    Z=              2.0479  Tot=              4.3958

 Test job not archived.
 1\1\GINC-SE229\SP\RHF\Aug-CC-pVDZ\C5H6N2\OHZDE\09-Apr-2025\0\\#t hf au
 g-cc-pvdz iop(5/13=1,5/36=2,99/5=2) pseudo=read geom=check guess=(read
 ,tcheck) scf=(maxcycle=1)\\title\\0,1\N,0,1.4928171,2.6759261,-0.01045
 125\C,0,1.05828844,1.61578399,0.09134913\C,0,1.32466569,-0.98776147,-0
 .17473542\C,0,0.13340955,-0.53222404,-0.91032346\C,0,-1.1656603,-0.857
 0153,-0.16045387\C,0,-0.6782723,0.03207644,0.99939616\N,0,0.55569298,0
 .37899739,0.22874479\H,0,2.20093813,-0.59558152,-0.70877312\H,0,0.1179
 9225,-0.11542734,-1.91459529\H,0,-2.0655397,-0.46899341,-0.63483408\H,

 Normal termination of Gaussian 16 at Wed Apr  9 16:46:09 2025.
