 Gaussian 16, Revision C.01,

 ----------------------------------------------------------------------
 #t hf aug-cc-pvdz symm=none int=(grid=ultrafine) guess=(read,tcheck) s
 table=(opt,rrhf)
 ----------------------------------------------------------------------
 -----
 title
 -----
 Symbolic Z-matrix:
 Charge =  0 Multiplicity = 1

 SCF Done:  E(RHF) =  -307.750311101     A.U. after   15 cycles

 1\1\GINC-SE332\Stability\RHF\Aug-CC-pVDZ\C6H10O1\OHZDE\09-Apr-2025\0\\
 #t hf aug-cc-pvdz symm=none int=(grid=ultrafine) guess=(read,tcheck) s
 table=(opt,rrhf)\\title\\0,1\C,0,-1.93165236,-0.56187363,0.37493816\C,
 0,-0.9563548,-0.58825122,-0.64455147\O,0,-0.70228673,1.31926905,-0.558
 07655\C,0,0.66219361,1.56733985,-0.37007812\C,0,1.39398486,0.2416674,-
 0.20707363\C,0,1.06924327,-0.64312308,0.95653146\C,0,0.47067959,-0.931
 62207,-0.38734534\H,0,-1.42800476,0.74870468,0.29492446\H,0,-1.6765000
 8,-1.00328393,1.331092\H,0,-2.97436886,-0.61512293,0.08787183\H,0,-1.2

 Normal termination of Gaussian 16 at Wed Apr  9 15:26:04 2025.
 Gaussian 16:  ES64L-G16RevC.01  3-Jul-2019

 ----------------------------------------------------------------------
 #t hf aug-cc-pvdz iop(5/13=1,5/36=2,99/5=2) pseudo=read geom=check gue
 ss=(read,tcheck) scf=(maxcycle=1)
 ----------------------------------------------------------------------
 -----
 title
 -----
 Structure from the checkpoint file:  "Grambow2020_wb97xd3_006902_forward_mol1.chk"
 Charge =  0 Multiplicity = 1

                         Standard orientation:
 ---------------------------------------------------------------------
 Center     Atomic      Atomic             Coordinates (Angstroms)
 Number     Number       Type             X           Y           Z
 ---------------------------------------------------------------------
      1          6           0        2.012930   -0.244977   -0.412195
      2          6           0        1.082631   -0.175750    0.646583
      3          8           0        0.304259    1.446947   -0.040187
      4          6           0       -1.074787    1.246173   -0.169070
      5          6           0       -1.405472   -0.197718    0.184942
      6          6           0       -0.844076   -1.309300   -0.646627
      7          6           0       -0.190601   -0.949904    0.653881
      8          1           0        1.162042    0.831025   -0.721854
      9          1           0        1.893108   -1.038563   -1.140232
     10          1           0        3.028362    0.080587   -0.224029
     11          1           0        1.384130    0.230452    1.606462
     12          1           0       -1.603059    1.914230    0.519977
     13          1           0       -1.409502    1.488391   -1.183921
     14          1           0       -2.351390   -0.374879    0.682512
     15          1           0       -0.331211   -1.049674   -1.563983
     16          1           0       -1.394772   -2.239420   -0.690617
     17          1           0       -0.295529   -1.628871    1.492099
 ---------------------------------------------------------------------

 SCF Done:  E(RHF) =  -307.844863448     A.U. after    2 cycles

 The electronic state is 1-A.
 Alpha  occ. eigenvalues --  -20.53225 -11.32894 -11.27534 -11.25786 -11.24852
 Alpha  occ. eigenvalues --  -11.24369 -11.19718  -1.28739  -1.15476  -1.05216
 Alpha  occ. eigenvalues --   -0.91658  -0.88167  -0.79561  -0.75747  -0.71509
 Alpha  occ. eigenvalues --   -0.66208  -0.63865  -0.61001  -0.59021  -0.57592
 Alpha  occ. eigenvalues --   -0.54124  -0.51117  -0.48558  -0.44052  -0.43382
 Alpha  occ. eigenvalues --   -0.41789  -0.33641
 Alpha virt. eigenvalues --    0.03025   0.04198   0.04375   0.04709   0.06055
 Alpha virt. eigenvalues --    0.06373   0.06654   0.07138   0.08626   0.09508
 Alpha virt. eigenvalues --    0.10910   0.12113   0.12709   0.13427   0.13914

 Mulliken charges:
               1
     1  C    0.355171
     2  C    0.390991
     3  O   -0.953283
     4  C    0.839073
     5  C    0.240872
     6  C    0.784714
     7  C    0.290134
     8  H    0.734409
     9  H   -0.251591
    10  H   -0.273845
    11  H   -0.388742
    12  H   -0.167547
    13  H   -0.115777
    14  H   -0.382869
    15  H   -0.401934
    16  H   -0.352542
    17  H   -0.347234
 Sum of Mulliken charges =   0.00000

 Dipole moment (field-independent basis, Debye):
    X=             -1.2919    Y=             -2.2091    Z=              0.9617  Tot=              2.7339

 Test job not archived.
 1\1\GINC-SE332\SP\RHF\Aug-CC-pVDZ\C6H10O1\OHZDE\09-Apr-2025\0\\#t hf a
 ug-cc-pvdz iop(5/13=1,5/36=2,99/5=2) pseudo=read geom=check guess=(rea
 d,tcheck) scf=(maxcycle=1)\\title\\0,1\C,0,-1.93165236,-0.56187363,0.3
 7493816\C,0,-0.9563548,-0.58825122,-0.64455147\O,0,-0.70228673,1.31926
 905,-0.55807655\C,0,0.66219361,1.56733985,-0.37007812\C,0,1.39398486,0
 .2416674,-0.20707363\C,0,1.06924327,-0.64312308,0.95653146\C,0,0.47067
 959,-0.93162207,-0.38734534\H,0,-1.42800476,0.74870468,0.29492446\H,0,
 -1.67650008,-1.00328393,1.331092\H,0,-2.97436886,-0.61512293,0.0878718

 Normal termination of Gaussian 16 at Wed Apr  9 15:26:09 2025.
