 Gaussian 16, Revision C.01,

 ----------------------------------------------------------------------
 #t hf aug-cc-pvdz symm=none int=(grid=ultrafine) guess=(read,tcheck) s
 table=(opt,rrhf)
 ----------------------------------------------------------------------
 -----
 title
 -----
 Symbolic Z-matrix:
 Charge =  0 Multiplicity = 1

 SCF Done:  E(RHF) =  -359.622684292     A.U. after   15 cycles
 Normal termination of Gaussian 16 at Wed Apr  9 14:43:59 2025.
 Gaussian 16:  ES64L-G16RevC.01  3-Jul-2019

 ----------------------------------------------------------------------
 #t hf aug-cc-pvdz iop(5/13=1,5/36=2,99/5=2) pseudo=read geom=check gue
 ss=(read,tcheck) scf=(maxcycle=1)
 ----------------------------------------------------------------------
 -----
 title
 -----
 Structure from the checkpoint file:  "Grambow2020_wb97xd3_006599_reverse_mol1.chk"
 Charge =  0 Multiplicity = 1

                         Standard orientation:
 ---------------------------------------------------------------------
 Center     Atomic      Atomic             Coordinates (Angstroms)
 Number     Number       Type             X           Y           Z
 ---------------------------------------------------------------------
      1          6           0        2.726154   -0.207949    0.111551
      2          7           0        1.508219    0.494915   -0.238909
      3          6           0        0.355918   -0.092406   -0.153640
      4          6           0       -0.284245    1.174373    0.194909
      5          8           0       -2.115758    0.579071   -0.215002
      6          6           0       -2.198380   -0.584325    0.176080
      7          8           0       -0.122451   -1.232763   -0.089534
      8          1           0        2.991056   -0.016852    1.155328
      9          1           0        2.607334   -1.287090   -0.021144
     10          1           0        3.545651    0.149185   -0.512076
     11          1           0       -0.277326    2.005412   -0.490841
     12          1           0       -0.444680    1.382701    1.247173
     13          1           0       -2.666158   -1.342957   -0.460063
     14          1           0       -2.004417   -0.863425    1.216882
 ---------------------------------------------------------------------

 SCF Done:  E(RHF) =  -359.735730760     A.U. after    2 cycles

 The electronic state is 1-A.
 Alpha  occ. eigenvalues --  -20.59762 -20.54109 -15.60531 -11.38076 -11.36273
 Alpha  occ. eigenvalues --  -11.34825 -11.24963  -1.38819  -1.33508  -1.19127
 Alpha  occ. eigenvalues --   -1.02125  -0.90409  -0.88466  -0.74359  -0.72209
 Alpha  occ. eigenvalues --   -0.68774  -0.67226  -0.66162  -0.64607  -0.59373
 Alpha  occ. eigenvalues --   -0.58364  -0.54427  -0.52096  -0.48091  -0.44437
 Alpha  occ. eigenvalues --   -0.40390  -0.35579
 Alpha virt. eigenvalues --    0.03029   0.04234   0.04621   0.04787   0.06316
 Alpha virt. eigenvalues --    0.07186   0.07467   0.07971   0.09912   0.10911
 Alpha virt. eigenvalues --    0.11577   0.13158   0.13637   0.14607   0.15209

 Mulliken charges:
               1
     1  C    0.738583
     2  N   -0.502117
     3  C    0.263859
     4  C    0.747262
     5  O   -0.521121
     6  C    0.788890
     7  O   -0.529618
     8  H   -0.113112
     9  H   -0.118192
    10  H   -0.198184
    11  H   -0.149903
    12  H   -0.133108
    13  H   -0.191288
    14  H   -0.081952
 Sum of Mulliken charges =  -0.00000

 Dipole moment (field-independent basis, Debye):
    X=             -1.4878    Y=              1.0327    Z=              2.1658  Tot=              2.8232

 Test job not archived.
 1\1\GINC-SE114\SP\RHF\Aug-CC-pVDZ\C4H7N1O2\OHZDE\09-Apr-2025\0\\#t hf
 aug-cc-pvdz iop(5/13=1,5/36=2,99/5=2) pseudo=read geom=check guess=(re
 ad,tcheck) scf=(maxcycle=1)\\title\\0,1\C,0,2.45415777,-0.17682481,-0.
 46629488\N,0,1.24682188,0.59955876,-0.26685874\C,0,0.08614536,0.110813
 6,-0.57340679\C,0,-0.5362913,0.85599787,0.51897569\O,0,-2.37561014,0.6
 9038342,-0.16390674\C,0,-2.47532549,-0.4475766,-0.62037704\O,0,-0.4085
 4259,-0.79285397,-1.2604502\H,0,2.72046821,-0.7117228,0.44974261\H,0,2
 .32010125,-0.91042802,-1.26637317\H,0,3.279445,0.48995088,-0.71597708\

 Normal termination of Gaussian 16 at Wed Apr  9 14:44:03 2025.
