 Gaussian 16, Revision C.01,

 ----------------------------------------------------------------------
 #t hf aug-cc-pvdz symm=none int=(grid=ultrafine) guess=(read,tcheck) s
 table=(opt,rrhf)
 ----------------------------------------------------------------------
 -----
 title
 -----
 Symbolic Z-matrix:
 Charge =  0 Multiplicity = 1

 SCF Done:  E(RHF) =  -305.758426065     A.U. after   15 cycles
 Normal termination of Gaussian 16 at Wed Apr  9 03:04:36 2025.
 Gaussian 16:  ES64L-G16RevC.01  3-Jul-2019

 ----------------------------------------------------------------------
 #t hf aug-cc-pvdz iop(5/13=1,5/36=2,99/5=2) pseudo=read geom=check gue
 ss=(read,tcheck) scf=(maxcycle=1)
 ----------------------------------------------------------------------
 -----
 title
 -----
 Structure from the checkpoint file:  "Grambow2020_b97d3_006525_reverse_mol2.chk"
 Charge =  0 Multiplicity = 1

                         Standard orientation:
 ---------------------------------------------------------------------
 Center     Atomic      Atomic             Coordinates (Angstroms)
 Number     Number       Type             X           Y           Z
 ---------------------------------------------------------------------
      1          8           0       -1.555320   -0.820747    0.602049
      2          6           0       -1.517937    0.175916   -0.420146
      3          6           0       -0.483144    1.215971   -0.520641
      4          6           0        0.567172    1.089431    0.518278
      5          6           0        1.640522    0.092296   -0.040532
      6          8           0        1.152128   -1.247947   -0.197670
      7          1           0       -0.657657   -1.220372    0.601702
      8          1           0       -1.550974   -0.283108   -1.440004
      9          1           0       -2.480676    0.721730   -0.379176
     10          1           0        0.843627   -1.347198   -1.116908
     11          1           0        1.107161    2.036519    0.675411
     12          1           0        0.226956    0.682735    1.489417
     13          1           0        2.448484    0.041326    0.698425
     14          1           0        2.048934    0.476235   -0.985659
 ---------------------------------------------------------------------

 SCF Done:  E(RHF) =  -305.851227833     A.U. after    2 cycles

 The electronic state is 1-A.
 Alpha  occ. eigenvalues --  -20.60943 -20.56697 -11.32588 -11.29694 -11.27647
 Alpha  occ. eigenvalues --  -11.25280  -1.35358  -1.31265  -1.07366  -0.97901
 Alpha  occ. eigenvalues --   -0.88442  -0.75591  -0.74027  -0.69052  -0.65715
 Alpha  occ. eigenvalues --   -0.63105  -0.61322  -0.59830  -0.56094  -0.53117
 Alpha  occ. eigenvalues --   -0.50620  -0.48459  -0.45930  -0.36084
 Alpha virt. eigenvalues --    0.03032   0.04039   0.04698   0.05231   0.06238
 Alpha virt. eigenvalues --    0.06762   0.07154   0.07930   0.08086   0.10086
 Alpha virt. eigenvalues --    0.12946   0.13450   0.13999   0.14971   0.15082

 Mulliken charges:
               1
     1  O   -0.534379
     2  C    0.699353
     3  C   -0.480574
     4  C    0.266615
     5  C    0.586460
     6  O   -0.616807
     7  H    0.217316
     8  H    0.006443
     9  H   -0.045750
    10  H    0.211419
    11  H   -0.034244
    12  H   -0.049710
    13  H   -0.162830
    14  H   -0.063312
 Sum of Mulliken charges =  -0.00000

 Dipole moment (field-independent basis, Debye):
    X=              2.1120    Y=              0.3088    Z=             -0.8799  Tot=              2.3087

 Test job not archived.
 1\1\GINC-SE132\SP\RHF\Aug-CC-pVDZ\C4H8O2\OHZDE\09-Apr-2025\0\\#t hf au
 g-cc-pvdz iop(5/13=1,5/36=2,99/5=2) pseudo=read geom=check guess=(read
 ,tcheck) scf=(maxcycle=1)\\title\\0,1\O,0,-1.95086296,0.4480159,-0.365
 28396\C,0,-1.43899463,-0.8636274,-0.12611689\C,0,-0.05133319,-1.269278
 7,-0.39528776\C,0,0.7929654,-0.15329944,-0.88547215\C,0,1.34823706,0.5
 8591527,0.38096448\O,0,0.3323805,1.24046242,1.15496468\H,0,-1.31765136
 ,1.05394256,0.07900646\H,0,-1.62431568,-1.18874453,0.92833014\H,0,-2.0
 6883784,-1.56973073,-0.70159273\H,0,0.05163172,0.62699535,1.85842712\H

 Normal termination of Gaussian 16 at Wed Apr  9 03:05:09 2025.
