 Gaussian 16, Revision C.01,

 ----------------------------------------------------------------------
 #t hf aug-cc-pvdz symm=none int=(grid=ultrafine) guess=(read,tcheck) s
 table=(opt,rrhf)
 ----------------------------------------------------------------------
 -----
 title
 -----
 Symbolic Z-matrix:
 Charge =  0 Multiplicity = 1

 SCF Done:  E(RHF) =  -308.920386522     A.U. after   15 cycles

 1\1\GINC-SE173\Stability\RHF\Aug-CC-pVDZ\C6H12O1\OHZDE\09-Apr-2025\0\\
 #t hf aug-cc-pvdz symm=none int=(grid=ultrafine) guess=(read,tcheck) s
 table=(opt,rrhf)\\title\\0,1\C,0,1.87220429,-0.73962351,-0.47332729\C,
 0,0.49780394,-0.22935969,-0.31224667\O,0,0.72584082,0.12956751,1.92953
 359\C,0,0.03781277,1.11723729,-0.7318584\C,0,-1.08291711,1.11984562,0.
 29041157\C,0,-1.85199182,-0.14449437,-0.01971253\C,0,-0.67834851,-1.12
 474303,-0.17581161\H,0,2.61612512,0.02034361,-0.24556263\H,0,1.9690546
 5,-0.97767677,-1.54300854\H,0,2.05880114,-1.64079514,0.10566482\H,0,1.

 Normal termination of Gaussian 16 at Wed Apr  9 16:36:34 2025.
 Gaussian 16:  ES64L-G16RevC.01  3-Jul-2019

 ----------------------------------------------------------------------
 #t hf aug-cc-pvdz iop(5/13=1,5/36=2,99/5=2) pseudo=read geom=check gue
 ss=(read,tcheck) scf=(maxcycle=1)
 ----------------------------------------------------------------------
 -----
 title
 -----
 Structure from the checkpoint file:  "Grambow2020_wb97xd3_008665_reverse_mol1.chk"
 Charge =  0 Multiplicity = 1

                         Standard orientation:
 ---------------------------------------------------------------------
 Center     Atomic      Atomic             Coordinates (Angstroms)
 Number     Number       Type             X           Y           Z
 ---------------------------------------------------------------------
      1          6           0       -1.980062   -0.741271    0.068253
      2          6           0       -0.533520   -0.456405    0.109002
      3          8           0       -0.781368    1.709072   -0.566045
      4          6           0        0.254283   -0.239850    1.347332
      5          6           0        1.290821    0.591293    0.615302
      6          6           0        1.751234   -0.316230   -0.503014
      7          6           0        0.387256   -0.826228   -0.995109
      8          1           0       -2.532058   -0.140234    0.787210
      9          1           0       -2.077183   -1.791428    0.381310
     10          1           0       -2.404596   -0.630295   -0.926542
     11          1           0       -1.273283    2.339494   -0.031774
     12          1           0       -0.314523    0.289013    2.115386
     13          1           0        0.572515   -1.218536    1.774339
     14          1           0        0.183072    1.536279   -0.102887
     15          1           0        2.021709    1.123608    1.220089
     16          1           0        2.377422   -1.164524   -0.176177
     17          1           0        2.294747    0.200228   -1.295590
     18          1           0        0.311765   -1.915828   -1.134836
     19          1           0        0.071288   -0.368199   -1.932759
 ---------------------------------------------------------------------

 SCF Done:  E(RHF) =  -309.014257845     A.U. after    2 cycles

 The electronic state is 1-A.
 Alpha  occ. eigenvalues --  -20.52350 -11.37053 -11.26890 -11.24972 -11.24130
 Alpha  occ. eigenvalues --  -11.21363 -11.15311  -1.25046  -1.15728  -1.03278
 Alpha  occ. eigenvalues --   -0.97673  -0.89762  -0.76304  -0.74197  -0.68688
 Alpha  occ. eigenvalues --   -0.66347  -0.63453  -0.62493  -0.59696  -0.57468
 Alpha  occ. eigenvalues --   -0.53995  -0.52575  -0.51658  -0.50051  -0.46948
 Alpha  occ. eigenvalues --   -0.45810  -0.44833  -0.25654
 Alpha virt. eigenvalues --    0.02667   0.03938   0.04381   0.04652   0.06125
 Alpha virt. eigenvalues --    0.06344   0.06585   0.06674   0.07203   0.07671
 Alpha virt. eigenvalues --    0.08885   0.09361   0.10948   0.11747   0.13014

 Mulliken charges:
               1
     1  C    0.799306
     2  C   -1.411589
     3  O   -0.479211
     4  C    0.519469
     5  C   -0.220182
     6  C    0.603681
     7  C    0.008635
     8  H   -0.007272
     9  H    0.233252
    10  H    0.037983
    11  H    0.106036
    12  H   -0.143316
    13  H   -0.020443
    14  H    0.593821
    15  H   -0.365699
    16  H   -0.136183
    17  H   -0.176420
    18  H    0.059387
    19  H   -0.001254
 Sum of Mulliken charges =  -0.00000

 Dipole moment (field-independent basis, Debye):
    X=             -2.9418    Y=             -3.0914    Z=              0.9136  Tot=              4.3641

 Test job not archived.
 1\1\GINC-SE173\SP\RHF\Aug-CC-pVDZ\C6H12O1\OHZDE\09-Apr-2025\0\\#t hf a
 ug-cc-pvdz iop(5/13=1,5/36=2,99/5=2) pseudo=read geom=check guess=(rea
 d,tcheck) scf=(maxcycle=1)\\title\\0,1\C,0,1.87220429,-0.73962351,-0.4
 7332729\C,0,0.49780394,-0.22935969,-0.31224667\O,0,0.72584082,0.129567
 51,1.92953359\C,0,0.03781277,1.11723729,-0.7318584\C,0,-1.08291711,1.1
 1984562,0.29041157\C,0,-1.85199182,-0.14449437,-0.01971253\C,0,-0.6783
 4851,-1.12474303,-0.17581161\H,0,2.61612512,0.02034361,-0.24556263\H,0
 ,1.96905465,-0.97767677,-1.54300854\H,0,2.05880114,-1.64079514,0.10566

 Normal termination of Gaussian 16 at Wed Apr  9 16:36:42 2025.
