 Gaussian 16, Revision C.01,

 ----------------------------------------------------------------------
 #t hf aug-cc-pvdz symm=none int=(grid=ultrafine) guess=(read,tcheck) s
 table=(opt,rrhf)
 ----------------------------------------------------------------------
 -----
 title
 -----
 Symbolic Z-matrix:
 Charge =  0 Multiplicity = 1

 SCF Done:  E(RHF) =  -305.329128739     A.U. after   19 cycles
 Normal termination of Gaussian 16 at Wed Apr  9 03:52:40 2025.
 Gaussian 16:  ES64L-G16RevC.01  3-Jul-2019

 ----------------------------------------------------------------------
 #t hf aug-cc-pvdz iop(5/13=1,5/36=2,99/5=2) pseudo=read geom=check gue
 ss=(read,tcheck) scf=(maxcycle=1)
 ----------------------------------------------------------------------
 -----
 title
 -----
 Structure from the checkpoint file:  "Grambow2020_wb97xd3_008358_forward_mol1.chk"
 Charge =  0 Multiplicity = 1

                         Standard orientation:
 ---------------------------------------------------------------------
 Center     Atomic      Atomic             Coordinates (Angstroms)
 Number     Number       Type             X           Y           Z
 ---------------------------------------------------------------------
      1          6           0        2.587992    0.181730   -0.212479
      2          6           0        1.319148    0.348654   -0.002005
      3          6           0        0.224219    1.159538    0.063498
      4          6           0       -1.071794    1.214838    0.044988
      5          6           0       -1.797461   -0.121865   -0.116043
      6          8           0       -0.847168   -1.126886   -0.325631
      7          6           0        0.279939   -0.980399    0.431194
      8          1           0        2.988727   -0.812725   -0.391823
      9          1           0       -1.650654    2.113969    0.206917
     10          1           0       -2.376088   -0.310495    0.797060
     11          1           0       -2.470168   -0.132956   -0.973673
     12          1           0        0.941381   -1.809850    0.212508
     13          1           0        0.091896   -0.847834    1.499141
 ---------------------------------------------------------------------

 SCF Done:  E(RHF) =  -305.422779420     A.U. after    2 cycles

 The electronic state is 1-A.
 Alpha  occ. eigenvalues --  -20.62458 -11.36237 -11.33611 -11.32819 -11.27733
 Alpha  occ. eigenvalues --  -11.26414 -11.21472  -1.40988  -1.12825  -1.06969
 Alpha  occ. eigenvalues --   -0.97114  -0.89026  -0.85666  -0.73621  -0.71405
 Alpha  occ. eigenvalues --   -0.71069  -0.66202  -0.60308  -0.59862  -0.55360
 Alpha  occ. eigenvalues --   -0.54680  -0.48049  -0.46871  -0.34038  -0.29801
 Alpha virt. eigenvalues --    0.01656   0.02813   0.04210   0.04436   0.04886
 Alpha virt. eigenvalues --    0.06311   0.06843   0.09025   0.09620   0.10396
 Alpha virt. eigenvalues --    0.11910   0.12241   0.12484   0.13832   0.14093

 Mulliken charges:
               1
     1  C   -0.199955
     2  C    0.336036
     3  C   -0.624456
     4  C    0.498969
     5  C    0.821787
     6  O   -0.583683
     7  C    0.675590
     8  H   -0.275181
     9  H   -0.247363
    10  H    0.006965
    11  H   -0.129289
    12  H   -0.301708
    13  H    0.022288
 Sum of Mulliken charges =  -0.00000

 Dipole moment (field-independent basis, Debye):
    X=             -4.9867    Y=             -1.0501    Z=              1.3202  Tot=              5.2643

 Test job not archived.
 1\1\GINC-SE328\SP\RHF\Aug-CC-pVDZ\C6H6O1\OHZDE\09-Apr-2025\0\\#t hf au
 g-cc-pvdz iop(5/13=1,5/36=2,99/5=2) pseudo=read geom=check guess=(read
 ,tcheck) scf=(maxcycle=1)\\title\\0,1\C,0,2.62929427,-0.77949109,0.410
 18187\C,0,1.46970763,-0.20675837,0.50746524\C,0,0.70642566,0.88270856,
 0.80938716\C,0,-0.44229357,1.4644009,0.65087076\C,0,-1.45469281,0.7219
 1634,-0.22266563\O,0,-0.83739555,-0.41199574,-0.76140317\C,0,-0.003449
 97,-1.04824045,0.1128627\H,0,2.74405978,-1.69231621,-0.16884572\H,0,-0
 .74165628,2.37817286,1.14598533\H,0,-2.3109743,0.44413575,0.4048429\H,

 Normal termination of Gaussian 16 at Wed Apr  9 03:52:44 2025.
