 Gaussian 16, Revision C.01,

 ----------------------------------------------------------------------
 #t hf aug-cc-pvdz symm=none int=(grid=ultrafine) guess=(read,tcheck) s
 table=(opt,rrhf)
 ----------------------------------------------------------------------
 -----
 title
 -----
 Symbolic Z-matrix:
 Charge =  0 Multiplicity = 1

 SCF Done:  E(RHF) =  -344.906310232     A.U. after   13 cycles

 1\1\GINC-SE219\Stability\RHF\Aug-CC-pVDZ\C5H10O2\OHZDE\09-Apr-2025\0\\
 #t hf aug-cc-pvdz symm=none int=(grid=ultrafine) guess=(read,tcheck) s
 table=(opt,rrhf)\\title\\0,1\C,0,-2.30995439,-0.62885799,-0.65293271\C
 ,0,-1.22706676,0.43792004,-0.74232351\C,0,-0.11692193,0.21822761,0.257
 3358\O,0,0.62633946,-0.99642173,-0.00332042\C,0,1.1620129,1.05346717,0
 .11285024\C,0,1.86415662,-0.2914729,-0.02801258\O,0,2.67714745,-0.5599
 4309,1.06806479\H,0,-3.0859605,-0.46819905,-1.4028145\H,0,-1.88379827,
 -1.62072387,-0.8116566\H,0,-2.7881023,-0.62292348,0.3295318\H,0,-0.792

 Normal termination of Gaussian 16 at Wed Apr  9 16:10:14 2025.
 Gaussian 16:  ES64L-G16RevC.01  3-Jul-2019

 ----------------------------------------------------------------------
 #t hf aug-cc-pvdz iop(5/13=1,5/36=2,99/5=2) pseudo=read geom=check gue
 ss=(read,tcheck) scf=(maxcycle=1)
 ----------------------------------------------------------------------
 -----
 title
 -----
 Structure from the checkpoint file:  "Grambow2020_wb97xd3_007830_reverse_mol2.chk"
 Charge =  0 Multiplicity = 1

                         Standard orientation:
 ---------------------------------------------------------------------
 Center     Atomic      Atomic             Coordinates (Angstroms)
 Number     Number       Type             X           Y           Z
 ---------------------------------------------------------------------
      1          6           0        2.726551   -0.586442   -0.076172
      2          6           0        1.741796    0.544766    0.187034
      3          6           0        0.387098    0.284922   -0.427195
      4          8           0       -0.281287   -0.850055    0.173505
      5          6           0       -0.775601    1.203505   -0.029058
      6          6           0       -1.442132   -0.075907    0.461405
      7          8           0       -2.540953   -0.411631   -0.322367
      8          1           0        3.688286   -0.392344    0.401018
      9          1           0        2.338476   -1.529474    0.312014
     10          1           0        2.904037   -0.712560   -1.146915
     11          1           0        1.612476    0.690816    1.264075
     12          1           0        2.124032    1.487393   -0.219780
     13          1           0        0.481335    0.134165   -1.508599
     14          1           0       -2.862525   -1.274021   -0.049352
     15          1           0       -1.309384    1.694552   -0.839065
     16          1           0       -0.533113    1.919165    0.755213
     17          1           0       -1.691976   -0.149259    1.526202
 ---------------------------------------------------------------------

 SCF Done:  E(RHF) =  -345.016070750     A.U. after    2 cycles

 The electronic state is 1-A.
 Alpha  occ. eigenvalues --  -20.58129 -20.56269 -11.34503 -11.29009 -11.23469
 Alpha  occ. eigenvalues --  -11.23143 -11.22117  -1.38065  -1.31047  -1.05260
 Alpha  occ. eigenvalues --   -1.00511  -0.91868  -0.83532  -0.77214  -0.72845
 Alpha  occ. eigenvalues --   -0.69203  -0.68315  -0.60853  -0.60053  -0.57634
 Alpha  occ. eigenvalues --   -0.56856  -0.54300  -0.51553  -0.49697  -0.49064
 Alpha  occ. eigenvalues --   -0.46894  -0.45295  -0.43437
 Alpha virt. eigenvalues --    0.03548   0.04219   0.04621   0.04622   0.06103
 Alpha virt. eigenvalues --    0.06631   0.06997   0.07252   0.07607   0.09384
 Alpha virt. eigenvalues --    0.11661   0.12423   0.13270   0.13964   0.14207

 Mulliken charges:
               1
     1  C    0.466826
     2  C   -0.001400
     3  C    0.413676
     4  O   -0.892633
     5  C    0.474292
     6  C    1.119516
     7  O   -0.548722
     8  H   -0.053857
     9  H   -0.046761
    10  H   -0.071634
    11  H   -0.052122
    12  H   -0.049363
    13  H   -0.314033
    14  H    0.147157
    15  H   -0.130369
    16  H   -0.178225
    17  H   -0.282346
 Sum of Mulliken charges =  -0.00000

 Dipole moment (field-independent basis, Debye):
    X=              0.3295    Y=              1.0153    Z=              0.8742  Tot=              1.3797

 Test job not archived.
 1\1\GINC-SE219\SP\RHF\Aug-CC-pVDZ\C5H10O2\OHZDE\09-Apr-2025\0\\#t hf a
 ug-cc-pvdz iop(5/13=1,5/36=2,99/5=2) pseudo=read geom=check guess=(rea
 d,tcheck) scf=(maxcycle=1)\\title\\0,1\C,0,-2.30995439,-0.62885799,-0.
 65293271\C,0,-1.22706676,0.43792004,-0.74232351\C,0,-0.11692193,0.2182
 2761,0.2573358\O,0,0.62633946,-0.99642173,-0.00332042\C,0,1.1620129,1.
 05346717,0.11285024\C,0,1.86415662,-0.2914729,-0.02801258\O,0,2.677147
 45,-0.55994309,1.06806479\H,0,-3.0859605,-0.46819905,-1.4028145\H,0,-1
 .88379827,-1.62072387,-0.8116566\H,0,-2.7881023,-0.62292348,0.3295318\

 Normal termination of Gaussian 16 at Wed Apr  9 16:10:20 2025.
