 Gaussian 16, Revision C.01,

 ----------------------------------------------------------------------
 #t hf aug-cc-pvdz symm=none int=(grid=ultrafine) guess=(read,tcheck) s
 table=(opt,rrhf)
 ----------------------------------------------------------------------
 -----
 title
 -----
 Symbolic Z-matrix:
 Charge =  0 Multiplicity = 1

 SCF Done:  E(RHF) =  -285.902240415     A.U. after   17 cycles
 Normal termination of Gaussian 16 at Wed Apr  9 14:22:25 2025.
 Gaussian 16:  ES64L-G16RevC.01  3-Jul-2019

 ----------------------------------------------------------------------
 #t hf aug-cc-pvdz iop(5/13=1,5/36=2,99/5=2) pseudo=read geom=check gue
 ss=(read,tcheck) scf=(maxcycle=1)
 ----------------------------------------------------------------------
 -----
 title
 -----
 Structure from the checkpoint file:  "Grambow2020_wb97xd3_006064_reverse_mol1.chk"
 Charge =  0 Multiplicity = 1

                         Standard orientation:
 ---------------------------------------------------------------------
 Center     Atomic      Atomic             Coordinates (Angstroms)
 Number     Number       Type             X           Y           Z
 ---------------------------------------------------------------------
      1          6           0        2.421643    0.269793    0.146032
      2          6           0        1.298125   -0.551481   -0.506156
      3          6           0        0.114548   -0.756072    0.335455
      4          6           0       -1.070248    0.146588    0.291312
      5          8           0       -0.603655    1.280798   -0.114486
      6          7           0       -2.292983   -0.347591   -0.292106
      7          1           0        3.288251    0.306570   -0.514560
      8          1           0        2.735531   -0.166544    1.096638
      9          1           0        2.059867    1.281378    0.323465
     10          1           0        0.983754   -0.059955   -1.428602
     11          1           0        1.684865   -1.559838   -0.711093
     12          1           0        0.240521   -1.392993    1.213260
     13          1           0       -1.125106    0.157868    1.443890
     14          1           0       -3.059501    0.264032   -0.045383
     15          1           0       -2.512464   -1.296729   -0.016848
 ---------------------------------------------------------------------

 SCF Done:  E(RHF) =  -285.990512750     A.U. after    2 cycles

 The electronic state is 1-A.
 Alpha  occ. eigenvalues --  -20.47139 -15.60910 -11.36412 -11.32507 -11.26728
 Alpha  occ. eigenvalues --  -11.24885  -1.27583  -1.12455  -1.09744  -0.97382
 Alpha  occ. eigenvalues --   -0.87395  -0.76673  -0.69848  -0.66329  -0.65084
 Alpha  occ. eigenvalues --   -0.61683  -0.59765  -0.54976  -0.54374  -0.52213
 Alpha  occ. eigenvalues --   -0.51072  -0.41092  -0.37776  -0.35312
 Alpha virt. eigenvalues --    0.00535   0.02306   0.04013   0.04486   0.04837
 Alpha virt. eigenvalues --    0.06377   0.06534   0.07400   0.07769   0.08477
 Alpha virt. eigenvalues --    0.12802   0.12933   0.13105   0.13989   0.14407

 Mulliken charges:
               1
     1  C    0.244805
     2  C    0.117085
     3  C    0.205337
     4  C    0.838780
     5  O   -0.790662
     6  N   -0.347854
     7  H   -0.051532
     8  H   -0.052315
     9  H    0.000452
    10  H   -0.012690
    11  H    0.052726
    12  H   -0.294044
    13  H    0.087770
    14  H    0.003467
    15  H   -0.001325
 Sum of Mulliken charges =  -0.00000

 Dipole moment (field-independent basis, Debye):
    X=              1.8117    Y=             -5.3470    Z=              2.2202  Tot=              6.0665

 Test job not archived.
 1\1\GINC-SE026\SP\RHF\Aug-CC-pVDZ\C4H9N1O1\OHZDE\09-Apr-2025\0\\#t hf
 aug-cc-pvdz iop(5/13=1,5/36=2,99/5=2) pseudo=read geom=check guess=(re
 ad,tcheck) scf=(maxcycle=1)\\title\\0,1\C,0,2.12718023,0.31709657,-0.3
 7425871\C,0,0.76938844,-0.09622023,-0.96392379\C,0,-0.18615752,-0.6388
 0004,0.00744628\C,0,-1.19947157,0.20739125,0.69856126\O,0,-0.68655614,
 1.39300096,0.70636461\N,0,-2.58731646,0.05590404,0.33716439\H,0,2.7992
 7864,0.63392105,-1.17216228\H,0,2.59885201,-0.50973335,0.16094679\H,0,
 1.97290453,1.14391152,0.31729317\H,0,0.31231132,0.76694898,-1.45111288

 Normal termination of Gaussian 16 at Wed Apr  9 14:22:29 2025.
