 Gaussian 16, Revision C.01,

 ----------------------------------------------------------------------
 #t hf aug-cc-pvdz symm=none int=(grid=ultrafine) guess=(read,tcheck) s
 table=(opt,rrhf)
 ----------------------------------------------------------------------
 -----
 title
 -----
 Symbolic Z-matrix:
 Charge =  0 Multiplicity = 1

 SCF Done:  E(RHF) =  -322.649877209     A.U. after   15 cycles
 Normal termination of Gaussian 16 at Wed Apr  9 03:34:22 2025.
 Gaussian 16:  ES64L-G16RevC.01  3-Jul-2019

 ----------------------------------------------------------------------
 #t hf aug-cc-pvdz iop(5/13=1,5/36=2,99/5=2) pseudo=read geom=check gue
 ss=(read,tcheck) scf=(maxcycle=1)
 ----------------------------------------------------------------------
 -----
 title
 -----
 Structure from the checkpoint file:  "Grambow2020_wb97xd3_007125_reverse_mol2.chk"
 Charge =  0 Multiplicity = 1

                         Standard orientation:
 ---------------------------------------------------------------------
 Center     Atomic      Atomic             Coordinates (Angstroms)
 Number     Number       Type             X           Y           Z
 ---------------------------------------------------------------------
      1          7           0       -0.572077    1.925978    0.015150
      2          6           0        0.030719    0.827464   -0.056366
      3          8           0        1.372168    0.644449    0.011310
      4          6           0        1.631989   -0.770925    0.101572
      5          6           0        0.392459   -1.555938    0.017590
      6          6           0       -2.061483   -0.695177    0.154543
      7          6           0       -0.612013   -0.530708   -0.251835
      8          1           0        0.076152    2.697875    0.150116
      9          1           0        2.081646   -0.991938    1.078749
     10          1           0        2.360873   -1.066428   -0.658485
     11          1           0       -2.159127   -0.571158    1.233035
     12          1           0       -2.678494    0.063848   -0.324018
     13          1           0       -2.418002   -1.688320   -0.114772
     14          1           0       -0.525881   -0.729623   -1.354180
 ---------------------------------------------------------------------

 SCF Done:  E(RHF) =  -322.746482036     A.U. after    2 cycles

 The electronic state is 1-A.
 Alpha  occ. eigenvalues --  -20.61858 -15.60561 -11.35642 -11.31900 -11.29072
 Alpha  occ. eigenvalues --  -11.27713 -11.24143  -1.40790  -1.17947  -1.11648
 Alpha  occ. eigenvalues --   -1.00604  -0.93174  -0.79522  -0.77868  -0.70612
 Alpha  occ. eigenvalues --   -0.69052  -0.66149  -0.61428  -0.59125  -0.55590
 Alpha  occ. eigenvalues --   -0.54171  -0.51976  -0.49865  -0.44978  -0.40895
 Alpha  occ. eigenvalues --   -0.38627
 Alpha virt. eigenvalues --    0.03195   0.04199   0.04357   0.05016   0.06119
 Alpha virt. eigenvalues --    0.06386   0.07201   0.07720   0.09115   0.11600
 Alpha virt. eigenvalues --    0.11864   0.13346   0.13382   0.14304   0.14692

 Mulliken charges:
               1
     1  N   -0.356598
     2  C    0.667465
     3  O   -0.697750
     4  C    0.920642
     5  C   -0.827220
     6  C    0.703668
     7  C   -0.578574
     8  H   -0.009262
     9  H   -0.042668
    10  H   -0.086636
    11  H    0.027170
    12  H    0.029711
    13  H   -0.042206
    14  H    0.292258
 Sum of Mulliken charges =  -0.00000

 Dipole moment (field-independent basis, Debye):
    X=              1.1370    Y=             -0.8587    Z=             -0.2818  Tot=              1.4525

 Test job not archived.
 1\1\GINC-SE095\SP\RHF\Aug-CC-pVDZ\C5H7N1O1\OHZDE\09-Apr-2025\0\\#t hf
 aug-cc-pvdz iop(5/13=1,5/36=2,99/5=2) pseudo=read geom=check guess=(re
 ad,tcheck) scf=(maxcycle=1)\\title\\0,1\N,0,1.30744254,-1.62111814,-1.
 0243655\C,0,0.90497024,-0.49331789,-0.64847552\O,0,1.67278412,0.606711
 77,-0.453647\C,0,0.8011654,1.73389467,-0.23301544\C,0,-0.6119417,1.330
 7725,-0.21419088\C,0,-1.63482681,-0.95733349,-0.92113903\C,0,-0.525934
 8,-0.12362172,-0.31414534\H,0,2.31087563,-1.62183695,-1.18978028\H,0,0
 .9169685,2.44506679,-1.06171115\H,0,1.09347724,2.25929462,0.68065251\H

 Normal termination of Gaussian 16 at Wed Apr  9 03:34:27 2025.
