 Gaussian 16, Revision C.01,

 ----------------------------------------------------------------------
 #t hf aug-cc-pvdz symm=none int=(grid=ultrafine) guess=(read,tcheck) s
 table=(opt,rrhf)
 ----------------------------------------------------------------------
 -----
 title
 -----
 Symbolic Z-matrix:
 Charge =  0 Multiplicity = 1

 SCF Done:  E(RHF) =  -266.753484002     A.U. after   13 cycles
 Normal termination of Gaussian 16 at Wed Apr  9 03:02:33 2025.
 Gaussian 16:  ES64L-G16RevC.01  3-Jul-2019

 ----------------------------------------------------------------------
 #t hf aug-cc-pvdz iop(5/13=1,5/36=2,99/5=2) pseudo=read geom=check gue
 ss=(read,tcheck) scf=(maxcycle=1)
 ----------------------------------------------------------------------
 -----
 title
 -----
 Structure from the checkpoint file:  "Grambow2020_b97d3_006476_reverse_mol2.chk"
 Charge =  0 Multiplicity = 1

                         Standard orientation:
 ---------------------------------------------------------------------
 Center     Atomic      Atomic             Coordinates (Angstroms)
 Number     Number       Type             X           Y           Z
 ---------------------------------------------------------------------
      1          8           0       -1.796998   -0.798030   -0.001374
      2          6           0       -1.379680    0.557525    0.002167
      3          6           0        0.082500    0.912100   -0.004925
      4          6           0        2.193639   -0.155611    0.000791
      5          8           0        0.745833   -0.239553   -0.000095
      6          1           0       -0.971402   -1.321534    0.000628
      7          1           0       -1.805222    1.095533   -0.868958
      8          1           0       -1.787822    1.087230    0.887590
      9          1           0        2.488511    0.899141   -0.017753
     10          1           0        2.551847   -0.655153    0.908531
     11          1           0        2.554652   -0.688633   -0.886488
 ---------------------------------------------------------------------

 SCF Done:  E(RHF) =  -266.838704324     A.U. after    2 cycles

 The electronic state is 1-A.
 Alpha  occ. eigenvalues --  -20.64836 -20.57153 -11.31874 -11.31396 -11.29118
 Alpha  occ. eigenvalues --   -1.41022  -1.31579  -1.02643  -0.93976  -0.80194
 Alpha  occ. eigenvalues --   -0.73247  -0.68269  -0.66817  -0.62923  -0.59726
 Alpha  occ. eigenvalues --   -0.57307  -0.53275  -0.52785  -0.46358  -0.37929
 Alpha virt. eigenvalues --    0.03160   0.04903   0.04939   0.05393   0.06729
 Alpha virt. eigenvalues --    0.07156   0.09379   0.09639   0.11250   0.12707
 Alpha virt. eigenvalues --    0.14557   0.15323   0.16207   0.16533   0.16797

 Mulliken charges:
               1
     1  O   -0.593727
     2  C    0.653487
     3  C   -0.165698
     4  C    0.735553
     5  O   -0.546332
     6  H    0.199894
     7  H   -0.005873
     8  H   -0.001496
     9  H   -0.063819
    10  H   -0.104789
    11  H   -0.107199
 Sum of Mulliken charges =  -0.00000

 Dipole moment (field-independent basis, Debye):
    X=              2.8522    Y=             -0.3029    Z=              0.0169  Tot=              2.8683

 Test job not archived.
 1\1\GINC-SE368\SP\RHF\Aug-CC-pVDZ\C3H6O2\OHZDE\09-Apr-2025\0\\#t hf au
 g-cc-pvdz iop(5/13=1,5/36=2,99/5=2) pseudo=read geom=check guess=(read
 ,tcheck) scf=(maxcycle=1)\\title\\0,1\O,0,-1.98100678,-0.13078758,-0.9
 87086\C,0,-1.33420747,0.97317065,-0.37502221\C,0,0.0324451,0.82189271,
 0.23581232\C,0,1.67262923,-0.84654408,0.586612\O,0,0.37793373,-0.45030
 792,0.06704677\H,0,-1.36137317,-0.88021476,-0.8866679\H,0,-1.23061212,
 1.80916058,-1.09598428\H,0,-1.95904998,1.38368107,0.44485208\H,0,2.158
 56342,0.02718715,1.03411383\H,0,1.50208644,-1.63391504,1.33012391\H,0,

 Normal termination of Gaussian 16 at Wed Apr  9 03:02:35 2025.
