 Gaussian 16, Revision C.01,

 ----------------------------------------------------------------------
 #t hf aug-cc-pvdz symm=none int=(grid=ultrafine) guess=(read,tcheck) s
 table=(opt,rrhf)
 ----------------------------------------------------------------------
 -----
 title
 -----
 Symbolic Z-matrix:
 Charge =  0 Multiplicity = 1

 SCF Done:  E(RHF) =  -344.656060511     A.U. after   16 cycles

 1\1\GINC-SE113\Stability\RHF\Aug-CC-pVDZ\C5H10O2\OHZDE\09-Apr-2025\0\\
 #t hf aug-cc-pvdz symm=none int=(grid=ultrafine) guess=(read,tcheck) s
 table=(opt,rrhf)\\title\\0,1\C,0,2.08743897,1.11545447,-0.57385631\O,0
 ,0.70285685,0.93424407,-0.7069797\C,0,0.31964113,-0.42659252,-0.672182
 01\C,0,0.16858021,-1.02802373,0.72972765\O,0,-1.26412808,-1.1713597,0.
 62584589\C,0,-1.16989484,-0.60839572,-0.86628738\C,0,-2.07898843,0.408
 76633,0.65431939\H,0,2.46327027,0.74107766,0.38844078\H,0,2.63660926,0
 .60708232,-1.37770622\H,0,2.28615516,2.18485619,-0.63277682\H,0,0.9804

 Normal termination of Gaussian 16 at Wed Apr  9 14:59:45 2025.
 Gaussian 16:  ES64L-G16RevC.01  3-Jul-2019

 ----------------------------------------------------------------------
 #t hf aug-cc-pvdz iop(5/13=1,5/36=2,99/5=2) pseudo=read geom=check gue
 ss=(read,tcheck) scf=(maxcycle=1)
 ----------------------------------------------------------------------
 -----
 title
 -----
 Structure from the checkpoint file:  "Grambow2020_wb97xd3_006659_forward_mol1.chk"
 Charge =  0 Multiplicity = 1

                         Standard orientation:
 ---------------------------------------------------------------------
 Center     Atomic      Atomic             Coordinates (Angstroms)
 Number     Number       Type             X           Y           Z
 ---------------------------------------------------------------------
      1          6           0       -2.542625    0.213132   -0.272469
      2          8           0       -1.289364    0.639945    0.190988
      3          6           0       -0.435664   -0.432947    0.537458
      4          6           0        0.319870   -1.072095   -0.633246
      5          8           0        1.609933   -0.594424   -0.195574
      6          6           0        0.893243    0.043857    1.081619
      7          6           0        1.751861    1.166954   -0.393082
      8          1           0       -2.462151   -0.390109   -1.187371
      9          1           0       -3.068040   -0.382598    0.485984
     10          1           0       -3.131938    1.102395   -0.492700
     11          1           0       -0.998588   -1.144782    1.155154
     12          1           0        0.055815   -0.702029   -1.627342
     13          1           0        0.347541   -2.163145   -0.636802
     14          1           0        1.252025   -0.522313    1.944027
     15          1           0        0.867048    1.788901   -0.399058
     16          1           0        2.512267    1.540490    0.276325
     17          1           0        2.141352    0.995617   -1.403212
 ---------------------------------------------------------------------

 SCF Done:  E(RHF) =  -344.765091270     A.U. after    2 cycles

 The electronic state is 1-A.
 Alpha  occ. eigenvalues --  -20.59532 -20.56527 -11.33424 -11.29483 -11.28079
 Alpha  occ. eigenvalues --  -11.28009 -11.21893  -1.35423  -1.32505  -1.01353
 Alpha  occ. eigenvalues --   -0.96629  -0.91020  -0.88884  -0.76025  -0.70428
 Alpha  occ. eigenvalues --   -0.66492  -0.65098  -0.63941  -0.61893  -0.60518
 Alpha  occ. eigenvalues --   -0.58303  -0.56714  -0.52393  -0.49618  -0.48577
 Alpha  occ. eigenvalues --   -0.46786  -0.41756  -0.27722
 Alpha virt. eigenvalues --    0.03306   0.04208   0.04693   0.04845   0.06152
 Alpha virt. eigenvalues --    0.06450   0.06536   0.07054   0.08566   0.09197
 Alpha virt. eigenvalues --    0.11056   0.12117   0.12861   0.13386   0.14320

 Mulliken charges:
               1
     1  C    0.734861
     2  O   -0.755058
     3  C    0.799621
     4  C    0.748209
     5  O   -0.834835
     6  C    0.258243
     7  C    0.688835
     8  H   -0.101736
     9  H   -0.089421
    10  H   -0.259485
    11  H   -0.223867
    12  H   -0.202642
    13  H   -0.227531
    14  H   -0.414181
    15  H    0.075189
    16  H   -0.066603
    17  H   -0.129599
 Sum of Mulliken charges =  -0.00000

 Dipole moment (field-independent basis, Debye):
    X=             -0.9307    Y=             -0.6391    Z=             -1.9458  Tot=              2.2496

 Test job not archived.
 1\1\GINC-SE113\SP\RHF\Aug-CC-pVDZ\C5H10O2\OHZDE\09-Apr-2025\0\\#t hf a
 ug-cc-pvdz iop(5/13=1,5/36=2,99/5=2) pseudo=read geom=check guess=(rea
 d,tcheck) scf=(maxcycle=1)\\title\\0,1\C,0,2.08743897,1.11545447,-0.57
 385631\O,0,0.70285685,0.93424407,-0.7069797\C,0,0.31964113,-0.42659252
 ,-0.67218201\C,0,0.16858021,-1.02802373,0.72972765\O,0,-1.26412808,-1.
 1713597,0.62584589\C,0,-1.16989484,-0.60839572,-0.86628738\C,0,-2.0789
 8843,0.40876633,0.65431939\H,0,2.46327027,0.74107766,0.38844078\H,0,2.
 63660926,0.60708232,-1.37770622\H,0,2.28615516,2.18485619,-0.63277682\

 Normal termination of Gaussian 16 at Wed Apr  9 14:59:51 2025.
