 Gaussian 16, Revision C.01,

 ----------------------------------------------------------------------
 #t hf aug-cc-pvdz symm=none int=(grid=ultrafine) guess=(read,tcheck) s
 table=(opt,rrhf)
 ----------------------------------------------------------------------
 -----
 title
 -----
 Symbolic Z-matrix:
 Charge =  0 Multiplicity = 1

 SCF Done:  E(RHF) =  -284.801797228     A.U. after   13 cycles
 Normal termination of Gaussian 16 at Wed Apr  9 03:05:23 2025.
 Gaussian 16:  ES64L-G16RevC.01  3-Jul-2019

 ----------------------------------------------------------------------
 #t hf aug-cc-pvdz iop(5/13=1,5/36=2,99/5=2) pseudo=read geom=check gue
 ss=(read,tcheck) scf=(maxcycle=1)
 ----------------------------------------------------------------------
 -----
 title
 -----
 Structure from the checkpoint file:  "Grambow2020_b97d3_006550_forward_mol2.chk"
 Charge =  0 Multiplicity = 1

                         Standard orientation:
 ---------------------------------------------------------------------
 Center     Atomic      Atomic             Coordinates (Angstroms)
 Number     Number       Type             X           Y           Z
 ---------------------------------------------------------------------
      1          8           0        1.919166   -0.452087   -0.249418
      2          6           0        0.847458    0.175821    0.426125
      3          6           0       -0.056431    1.233265   -0.281995
      4          7           0       -1.319514    0.520465    0.152012
      5          6           0       -1.248619   -0.791421   -0.511064
      6          6           0       -0.436428   -0.598351    0.713382
      7          1           0        1.539559   -0.920216   -1.016942
      8          1           0        1.285475    0.583903    1.343994
      9          1           0        0.052287    1.304891   -1.374371
     10          1           0       -0.011611    2.236411    0.156894
     11          1           0       -0.774012   -0.866280   -1.495965
     12          1           0       -2.163772   -1.375947   -0.409557
     13          1           0       -0.680539   -1.105204    1.648523
 ---------------------------------------------------------------------

 SCF Done:  E(RHF) =  -284.885128016     A.U. after    2 cycles

 The electronic state is 1-A.
 Alpha  occ. eigenvalues --  -20.58564 -15.63830 -11.30731 -11.28136 -11.27950
 Alpha  occ. eigenvalues --  -11.27279  -1.33586  -1.26430  -0.99886  -0.92679
 Alpha  occ. eigenvalues --   -0.83565  -0.78130  -0.72250  -0.66332  -0.63718
 Alpha  occ. eigenvalues --   -0.61117  -0.57904  -0.57018  -0.54557  -0.45934
 Alpha  occ. eigenvalues --   -0.45127  -0.43349  -0.38557
 Alpha virt. eigenvalues --    0.03303   0.03941   0.04352   0.05206   0.06616
 Alpha virt. eigenvalues --    0.07048   0.07630   0.09809   0.11422   0.12286
 Alpha virt. eigenvalues --    0.13605   0.14289   0.14591   0.14966   0.15348

 Mulliken charges:
               1
     1  O   -0.612500
     2  C    0.664532
     3  C    0.684444
     4  N   -0.916268
     5  C    0.991203
     6  C    0.484773
     7  H    0.145530
     8  H   -0.170039
     9  H   -0.157057
    10  H   -0.184060
    11  H   -0.339344
    12  H   -0.275778
    13  H   -0.315435
 Sum of Mulliken charges =  -0.00000

 Dipole moment (field-independent basis, Debye):
    X=             -0.3926    Y=             -0.8421    Z=             -0.8781  Tot=              1.2784

 Test job not archived.
 1\1\GINC-SE462\SP\RHF\Aug-CC-pVDZ\C4H7N1O1\OHZDE\09-Apr-2025\0\\#t hf
 aug-cc-pvdz iop(5/13=1,5/36=2,99/5=2) pseudo=read geom=check guess=(re
 ad,tcheck) scf=(maxcycle=1)\\title\\0,1\O,0,-1.6177439,-0.87291032,0.9
 2349932\C,0,-1.06301821,-0.04716256,-0.08129256\C,0,-0.20603911,1.2080
 6065,0.27457027\N,0,0.9055941,0.77793804,-0.65875291\C,0,1.38814344,-0
 .49327446,-0.09580888\C,0,0.13833958,-0.52739889,-0.89143682\H,0,-0.87
 469586,-1.21846776,1.45341387\H,0,-1.90445899,0.22172741,-0.7297903\H,
 0,0.11183276,1.29170307,1.32442568\H,0,-0.63661642,2.16054647,-0.05453

 Normal termination of Gaussian 16 at Wed Apr  9 03:05:27 2025.
