 Gaussian 16, Revision C.01,

 ----------------------------------------------------------------------
 #t hf aug-cc-pvdz symm=none int=(grid=ultrafine) guess=(read,tcheck) s
 table=(opt,rrhf)
 ----------------------------------------------------------------------
 -----
 title
 -----
 Symbolic Z-matrix:
 Charge =  0 Multiplicity = 1

 SCF Done:  E(RHF) =  -338.753514059     A.U. after   15 cycles
 Normal termination of Gaussian 16 at Wed Apr  9 16:29:03 2025.
 Gaussian 16:  ES64L-G16RevC.01  3-Jul-2019

 ----------------------------------------------------------------------
 #t hf aug-cc-pvdz iop(5/13=1,5/36=2,99/5=2) pseudo=read geom=check gue
 ss=(read,tcheck) scf=(maxcycle=1)
 ----------------------------------------------------------------------
 -----
 title
 -----
 Structure from the checkpoint file:  "Grambow2020_wb97xd3_008472_reverse_mol2.chk"
 Charge =  0 Multiplicity = 1

                         Standard orientation:
 ---------------------------------------------------------------------
 Center     Atomic      Atomic             Coordinates (Angstroms)
 Number     Number       Type             X           Y           Z
 ---------------------------------------------------------------------
      1          7           0        1.489234   -1.373756   -0.057803
      2          6           0        0.299450   -0.712203   -0.005329
      3          6           0        0.238009    0.760665   -0.004645
      4          8           0        1.386177    1.475534   -0.000334
      5          6           0       -1.049657    1.104973    0.001220
      6          6           0       -1.828049   -0.176904    0.004075
      7          7           0       -0.858663   -1.259112    0.006033
      8          1           0        1.465623   -2.356047    0.150036
      9          1           0        2.312335   -0.869217    0.217139
     10          1           0        1.186093    2.413638    0.013347
     11          1           0       -1.471618    2.100183    0.002637
     12          1           0       -2.476102   -0.259260    0.883365
     13          1           0       -2.478258   -0.262689   -0.873387
 ---------------------------------------------------------------------

 SCF Done:  E(RHF) =  -338.855642274     A.U. after    2 cycles

 The electronic state is 1-A.
 Alpha  occ. eigenvalues --  -20.62123 -15.63537 -15.58713 -11.31877 -11.31249
 Alpha  occ. eigenvalues --  -11.25804 -11.23986  -1.38654  -1.24973  -1.15710
 Alpha  occ. eigenvalues --   -1.02401  -0.94466  -0.83860  -0.76770  -0.73728
 Alpha  occ. eigenvalues --   -0.68432  -0.67152  -0.63873  -0.59294  -0.58908
 Alpha  occ. eigenvalues --   -0.55163  -0.53725  -0.50726  -0.40747  -0.36563
 Alpha  occ. eigenvalues --   -0.33242
 Alpha virt. eigenvalues --    0.02639   0.03796   0.04643   0.05743   0.06285
 Alpha virt. eigenvalues --    0.06999   0.10267   0.11385   0.12393   0.12845
 Alpha virt. eigenvalues --    0.13034   0.14059   0.14206   0.14462   0.15504

 Mulliken charges:
               1
     1  N   -0.196136
     2  C    0.110171
     3  C    0.294498
     4  O   -0.622375
     5  C    0.516890
     6  C    0.760006
     7  N   -0.569676
     8  H   -0.018954
     9  H   -0.005284
    10  H    0.133251
    11  H   -0.288016
    12  H   -0.059509
    13  H   -0.054867
 Sum of Mulliken charges =  -0.00000

 Dipole moment (field-independent basis, Debye):
    X=              0.8849    Y=              2.7731    Z=              0.7421  Tot=              3.0040

 Test job not archived.
 1\1\GINC-SE037\SP\RHF\Aug-CC-pVDZ\C4H6N2O1\OHZDE\09-Apr-2025\0\\#t hf
 aug-cc-pvdz iop(5/13=1,5/36=2,99/5=2) pseudo=read geom=check guess=(re
 ad,tcheck) scf=(maxcycle=1)\\title\\0,1\N,0,2.07356145,0.55054077,-0.0
 6003211\C,0,0.71370126,0.47226327,-0.08544061\C,0,0.01029172,-0.787752
 3,0.21571061\O,0,0.72658757,-1.90664064,0.46939473\C,0,-1.29749586,-0.
 5362162,0.1601525\C,0,-1.43226556,0.91723771,-0.18396784\N,0,-0.085558
 63,1.44515429,-0.32024039\H,0,2.48318669,1.37091001,-0.46973114\H,0,2.
 5885945,-0.30693457,-0.14443835\H,0,0.13395394,-2.64301649,0.63309309\

 Normal termination of Gaussian 16 at Wed Apr  9 16:29:08 2025.
