 Gaussian 16, Revision C.01,

 ----------------------------------------------------------------------
 #t hf aug-cc-pvdz symm=none int=(grid=ultrafine) guess=(read,tcheck) s
 table=(opt,rrhf)
 ----------------------------------------------------------------------
 -----
 title
 -----
 Symbolic Z-matrix:
 Charge =  0 Multiplicity = 1

 SCF Done:  E(RHF) =  -268.710345902     A.U. after   16 cycles
 Normal termination of Gaussian 16 at Wed Apr  9 03:16:34 2025.
 Gaussian 16:  ES64L-G16RevC.01  3-Jul-2019

 ----------------------------------------------------------------------
 #t hf aug-cc-pvdz iop(5/13=1,5/36=2,99/5=2) pseudo=read geom=check gue
 ss=(read,tcheck) scf=(maxcycle=1)
 ----------------------------------------------------------------------
 -----
 title
 -----
 Structure from the checkpoint file:  "Grambow2020_b97d3_007073_reverse_mol1.chk"
 Charge =  0 Multiplicity = 1

                         Standard orientation:
 ---------------------------------------------------------------------
 Center     Atomic      Atomic             Coordinates (Angstroms)
 Number     Number       Type             X           Y           Z
 ---------------------------------------------------------------------
      1          6           0        2.199730    0.052781   -0.119569
      2          6           0        0.709161    0.086625    0.199398
      3          6           0       -0.163034    1.193374   -0.162653
      4          6           0       -1.554138    0.650320    0.025699
      5          8           0       -1.361177   -0.852420   -0.154873
      6          6           0       -0.086335   -1.128544    0.045446
      7          1           0        2.693093   -0.815611    0.341610
      8          1           0        2.681971    0.962607    0.257629
      9          1           0        2.341788    0.011456   -1.205631
     10          1           0        0.055722    2.192905    0.212913
     11          1           0       -2.317089    0.943947   -0.710887
     12          1           0       -2.007301    0.734721    1.045718
     13          1           0        0.218549   -2.171581    0.020916
     14          1           0        0.590377   -0.166417    1.346792
 ---------------------------------------------------------------------

 SCF Done:  E(RHF) =  -268.792322690     A.U. after    2 cycles

 The electronic state is 1-A.
 Alpha  occ. eigenvalues --  -20.65827 -11.40884 -11.30002 -11.27550 -11.24658
 Alpha  occ. eigenvalues --  -11.15104  -1.42076  -1.09920  -1.00658  -0.94350
 Alpha  occ. eigenvalues --   -0.81641  -0.79047  -0.72606  -0.68787  -0.62562
 Alpha  occ. eigenvalues --   -0.60258  -0.58293  -0.54584  -0.53169  -0.51113
 Alpha  occ. eigenvalues --   -0.49078  -0.48187  -0.22404
 Alpha virt. eigenvalues --    0.02666   0.04168   0.04445   0.04771   0.05987
 Alpha virt. eigenvalues --    0.06552   0.06839   0.07397   0.08106   0.11247
 Alpha virt. eigenvalues --    0.11760   0.12857   0.13350   0.13834   0.14181

 Mulliken charges:
               1
     1  C    0.566883
     2  C   -0.780031
     3  C    0.085793
     4  C    0.756305
     5  O   -0.617541
     6  C    0.495159
     7  H   -0.010511
     8  H    0.008966
     9  H    0.073905
    10  H   -0.290141
    11  H   -0.162321
    12  H   -0.141677
    13  H   -0.298938
    14  H    0.314148
 Sum of Mulliken charges =  -0.00000

 Dipole moment (field-independent basis, Debye):
    X=              1.1753    Y=             -3.1465    Z=              1.6182  Tot=              3.7283

 Test job not archived.
 1\1\GINC-SE105\SP\RHF\Aug-CC-pVDZ\C5H8O1\OHZDE\09-Apr-2025\0\\#t hf au
 g-cc-pvdz iop(5/13=1,5/36=2,99/5=2) pseudo=read geom=check guess=(read
 ,tcheck) scf=(maxcycle=1)\\title\\0,1\C,0,-1.86012963,0.22996025,-0.43
 307433\C,0,-0.37810115,-0.05961517,-0.22231507\C,0,0.6487289,0.9710550
 1,-0.22845143\C,0,1.86112678,0.29454099,0.35290574\O,0,1.25559957,-0.8
 1059077,1.21318799\C,0,0.02706463,-1.03486977,0.78657945\H,0,-2.447578
 35,-0.69721638,-0.50686186\H,0,-2.00005063,0.80023811,-1.35926167\H,0,
 -2.23933388,0.82964427,0.40239154\H,0,0.77967387,1.59158417,-1.1148850

 Normal termination of Gaussian 16 at Wed Apr  9 03:16:38 2025.
