 Gaussian 16, Revision C.01,

 ----------------------------------------------------------------------
 #t hf aug-cc-pvdz symm=none int=(grid=ultrafine) guess=(read,tcheck) s
 table=(opt,rrhf)
 ----------------------------------------------------------------------
 -----
 title
 -----
 Symbolic Z-matrix:
 Charge =  0 Multiplicity = 1

 SCF Done:  E(RHF) =  -338.596563091     A.U. after   15 cycles
 Normal termination of Gaussian 16 at Wed Apr  9 03:59:38 2025.
 Gaussian 16:  ES64L-G16RevC.01  3-Jul-2019

 ----------------------------------------------------------------------
 #t hf aug-cc-pvdz iop(5/13=1,5/36=2,99/5=2) pseudo=read geom=check gue
 ss=(read,tcheck) scf=(maxcycle=1)
 ----------------------------------------------------------------------
 -----
 title
 -----
 Structure from the checkpoint file:  "Grambow2020_wb97xd3_008803_forward_mol1.chk"
 Charge =  0 Multiplicity = 1

                         Standard orientation:
 ---------------------------------------------------------------------
 Center     Atomic      Atomic             Coordinates (Angstroms)
 Number     Number       Type             X           Y           Z
 ---------------------------------------------------------------------
      1          7           0       -1.828571   -0.977836    0.012692
      2          6           0       -0.458322   -0.597190   -0.020420
      3          6           0       -0.110805    0.711843   -0.021931
      4          8           0       -0.871565    1.818676    0.013148
      5          7           0        1.262263    0.799562   -0.002895
      6          6           0        1.898924   -0.624864   -0.084141
      7          6           0        0.747699   -1.369928    0.002224
      8          1           0       -2.021449   -1.620536    0.768316
      9          1           0       -2.112979   -1.421580   -0.850298
     10          1           0       -1.785834    1.510027    0.071322
     11          1           0        1.766842    1.585209   -0.384488
     12          1           0        1.855308    0.376310    0.899521
     13          1           0        0.769803   -2.450080    0.067461
 ---------------------------------------------------------------------

 SCF Done:  E(RHF) =  -338.696991150     A.U. after    2 cycles

 The electronic state is 1-A.
 Alpha  occ. eigenvalues --  -20.62262 -15.71543 -15.63871 -11.34080 -11.27306
 Alpha  occ. eigenvalues --  -11.23626 -11.22733  -1.39818  -1.27813  -1.17971
 Alpha  occ. eigenvalues --   -1.03455  -0.97355  -0.82888  -0.79841  -0.75437
 Alpha  occ. eigenvalues --   -0.70536  -0.67708  -0.65801  -0.62776  -0.60670
 Alpha  occ. eigenvalues --   -0.57263  -0.53274  -0.44079  -0.39376  -0.35668
 Alpha  occ. eigenvalues --   -0.30330
 Alpha virt. eigenvalues --    0.02724   0.03717   0.04507   0.04799   0.06360
 Alpha virt. eigenvalues --    0.06796   0.09731   0.11111   0.12426   0.13297
 Alpha virt. eigenvalues --    0.13691   0.14097   0.14434   0.14948   0.15374

 Mulliken charges:
               1
     1  N   -0.400545
     2  C    0.251695
     3  C    0.253140
     4  O   -0.497357
     5  N   -0.452605
     6  C   -0.323502
     7  C    0.953499
     8  H    0.017400
     9  H    0.043225
    10  H    0.152230
    11  H   -0.015467
    12  H    0.444557
    13  H   -0.426270
 Sum of Mulliken charges =  -0.00000

 Dipole moment (field-independent basis, Debye):
    X=             -3.0756    Y=              0.6825    Z=              0.4564  Tot=              3.1833

 Test job not archived.
 1\1\GINC-SE207\SP\RHF\Aug-CC-pVDZ\C4H6N2O1\OHZDE\09-Apr-2025\0\\#t hf
 aug-cc-pvdz iop(5/13=1,5/36=2,99/5=2) pseudo=read geom=check guess=(re
 ad,tcheck) scf=(maxcycle=1)\\title\\0,1\N,0,-1.85313587,0.57109899,-0.
 03420777\C,0,-0.44896202,0.36015333,0.05162095\C,0,0.05891576,-0.89478
 419,0.01249013\O,0,-0.55528355,-2.08334809,-0.11055436\N,0,1.43164218,
 -0.81240923,0.05948665\C,0,1.88109435,0.67339361,0.2364264\C,0,0.65088
 395,1.2750851,0.12485397\H,0,-2.09058538,1.22264914,-0.7692808\H,0,-2.
 22928063,0.93245089,0.83210014\H,0,-1.49739371,-1.88658829,-0.2013833\

 Normal termination of Gaussian 16 at Wed Apr  9 03:59:42 2025.
