 Gaussian 16, Revision C.01,

 ----------------------------------------------------------------------
 #t hf aug-cc-pvdz symm=none int=(grid=ultrafine) guess=(read,tcheck) s
 table=(opt,rrhf)
 ----------------------------------------------------------------------
 -----
 title
 -----
 Symbolic Z-matrix:
 Charge =  0 Multiplicity = 1

 SCF Done:  E(RHF) =  -323.835834996     A.U. after   14 cycles
 Normal termination of Gaussian 16 at Wed Apr  9 15:14:03 2025.
 Gaussian 16:  ES64L-G16RevC.01  3-Jul-2019

 ----------------------------------------------------------------------
 #t hf aug-cc-pvdz iop(5/13=1,5/36=2,99/5=2) pseudo=read geom=check gue
 ss=(read,tcheck) scf=(maxcycle=1)
 ----------------------------------------------------------------------
 -----
 title
 -----
 Structure from the checkpoint file:  "Grambow2020_wb97xd3_006819_reverse_mol2.chk"
 Charge =  0 Multiplicity = 1

                         Standard orientation:
 ---------------------------------------------------------------------
 Center     Atomic      Atomic             Coordinates (Angstroms)
 Number     Number       Type             X           Y           Z
 ---------------------------------------------------------------------
      1          6           0       -2.092147   -1.170239   -0.192394
      2          6           0       -1.526218    0.180681   -0.546713
      3          6           0       -1.336481    1.237208    0.486563
      4          6           0       -0.124930    0.600771   -0.152706
      5          6           0        0.723214   -0.292324    0.650444
      6          7           0        1.955850   -0.543821    0.485554
      7          8           0        2.497654    0.129067   -0.603061
      8          1           0       -3.178803   -1.164306   -0.297605
      9          1           0       -1.866662   -1.450572    0.837518
     10          1           0       -1.694038   -1.949833   -0.845204
     11          1           0       -1.816458    0.535495   -1.529641
     12          1           0       -1.548151    2.269241    0.241460
     13          1           0       -1.546903    0.968966    1.515521
     14          1           0        0.291905   -0.816134    1.498474
     15          1           0        0.411334    1.193824   -0.878867
     16          1           0        3.414964   -0.149044   -0.587206
 ---------------------------------------------------------------------

 SCF Done:  E(RHF) =  -323.935748319     A.U. after    2 cycles

 The electronic state is 1-A.
 Alpha  occ. eigenvalues --  -20.60422 -15.67874 -11.28206 -11.25275 -11.24736
 Alpha  occ. eigenvalues --  -11.24409 -11.23486  -1.37901  -1.16828  -1.12040
 Alpha  occ. eigenvalues --   -0.97277  -0.87406  -0.81042  -0.77304  -0.69730
 Alpha  occ. eigenvalues --   -0.68923  -0.64214  -0.60695  -0.60464  -0.57773
 Alpha  occ. eigenvalues --   -0.55818  -0.54409  -0.50963  -0.45935  -0.43865
 Alpha  occ. eigenvalues --   -0.41829  -0.36647
 Alpha virt. eigenvalues --    0.03401   0.04248   0.04488   0.04669   0.06071
 Alpha virt. eigenvalues --    0.06689   0.07163   0.07332   0.08398   0.10953
 Alpha virt. eigenvalues --    0.13176   0.13570   0.14319   0.14548   0.14715

 Mulliken charges:
               1
     1  C    0.302410
     2  C    0.085850
     3  C    0.786254
     4  C    0.754623
     5  C    0.496183
     6  N   -0.157817
     7  O   -0.512968
     8  H   -0.008294
     9  H   -0.097939
    10  H   -0.001969
    11  H   -0.394876
    12  H   -0.348721
    13  H   -0.359882
    14  H   -0.335515
    15  H   -0.389784
    16  H    0.182445
 Sum of Mulliken charges =  -0.00000

 Dipole moment (field-independent basis, Debye):
    X=             -1.4284    Y=              0.2504    Z=             -0.0981  Tot=              1.4535

 Test job not archived.
 1\1\GINC-SE114\SP\RHF\Aug-CC-pVDZ\C5H9N1O1\OHZDE\09-Apr-2025\0\\#t hf
 aug-cc-pvdz iop(5/13=1,5/36=2,99/5=2) pseudo=read geom=check guess=(re
 ad,tcheck) scf=(maxcycle=1)\\title\\0,1\C,0,-1.70210052,-1.06109854,-0
 .32487042\C,0,-0.80032729,-0.00457638,-0.90913801\C,0,-0.72935453,1.36
 409765,-0.32467125\C,0,0.46862866,0.4503361,-0.21766957\C,0,0.83849509
 ,-0.09556155,1.09656566\N,0,1.98777679,-0.46831251,1.48391494\O,0,2.95
 665155,-0.32483222,0.49795996\H,0,-2.68162621,-1.0303273,-0.80602337\H
 ,0,-1.86058663,-0.91730651,0.74487576\H,0,-1.28632967,-2.06045476,-0.4

 Normal termination of Gaussian 16 at Wed Apr  9 15:14:09 2025.
