 Gaussian 16, Revision C.01,

 ----------------------------------------------------------------------
 #t hf aug-cc-pvdz symm=none int=(grid=ultrafine) guess=(read,tcheck) s
 table=(opt,rrhf)
 ----------------------------------------------------------------------
 -----
 title
 -----
 Symbolic Z-matrix:
 Charge =  0 Multiplicity = 1

 SCF Done:  E(RHF) =  -307.713488212     A.U. after   15 cycles

 1\1\GINC-SE043\Stability\RHF\Aug-CC-pVDZ\C6H10O1\OHZDE\09-Apr-2025\0\\
 #t hf aug-cc-pvdz symm=none int=(grid=ultrafine) guess=(read,tcheck) s
 table=(opt,rrhf)\\title\\0,1\C,0,1.70725212,-0.43574371,-0.26327593\C,
 0,0.62685506,0.18813262,0.5818666\C,0,0.05645858,1.60610539,-0.6315473
 \C,0,-1.02330491,0.83063026,-0.16510931\O,0,-1.51319327,-0.17053774,-0
 .94857254\C,0,-1.2994702,-1.30779637,-0.03106805\C,0,-0.46908844,-0.67
 147098,1.02634858\H,0,2.15572068,-1.23465065,0.33501847\H,0,2.47177223
 ,0.2820021,-0.56060568\H,0,1.28870518,-0.89415301,-1.16050076\H,0,0.98

 Normal termination of Gaussian 16 at Wed Apr  9 16:31:18 2025.
 Gaussian 16:  ES64L-G16RevC.01  3-Jul-2019

 ----------------------------------------------------------------------
 #t hf aug-cc-pvdz iop(5/13=1,5/36=2,99/5=2) pseudo=read geom=check gue
 ss=(read,tcheck) scf=(maxcycle=1)
 ----------------------------------------------------------------------
 -----
 title
 -----
 Structure from the checkpoint file:  "Grambow2020_wb97xd3_008510_forward_mol1.chk"
 Charge =  0 Multiplicity = 1

                         Standard orientation:
 ---------------------------------------------------------------------
 Center     Atomic      Atomic             Coordinates (Angstroms)
 Number     Number       Type             X           Y           Z
 ---------------------------------------------------------------------
      1          6           0        1.688604   -0.915634   -0.547662
      2          6           0        0.880427   -0.319009    0.575563
      3          6           0        0.798830    1.530328   -0.042229
      4          6           0       -0.472254    1.013190    0.276725
      5          8           0       -1.270518    0.541948   -0.721697
      6          6           0       -1.435684   -0.847480   -0.249404
      7          6           0       -0.433794   -0.898409    0.848865
      8          1           0        1.853915   -1.967378   -0.294998
      9          1           0        2.644356   -0.410902   -0.688512
     10          1           0        1.135415   -0.887738   -1.487629
     11          1           0        1.437261   -0.137905    1.487792
     12          1           0        1.248308    2.264506    0.611687
     13          1           0        1.131648    1.482545   -1.066899
     14          1           0       -0.941910    1.361462    1.195180
     15          1           0       -1.265164   -1.474327   -1.131146
     16          1           0       -2.454777   -1.016795    0.106125
     17          1           0       -0.781685   -0.926958    1.870835
 ---------------------------------------------------------------------

 SCF Done:  E(RHF) =  -307.808205209     A.U. after    2 cycles

 The electronic state is 1-A.
 Alpha  occ. eigenvalues --  -20.58529 -11.37177 -11.31014 -11.28784 -11.23612
 Alpha  occ. eigenvalues --  -11.23200 -11.18477  -1.37293  -1.10698  -1.02216
 Alpha  occ. eigenvalues --   -0.96730  -0.88023  -0.81747  -0.74465  -0.70693
 Alpha  occ. eigenvalues --   -0.66031  -0.65665  -0.61580  -0.59676  -0.57512
 Alpha  occ. eigenvalues --   -0.55353  -0.54858  -0.51609  -0.48666  -0.46366
 Alpha  occ. eigenvalues --   -0.43274  -0.23858
 Alpha virt. eigenvalues --    0.03222   0.04143   0.04525   0.05010   0.06128
 Alpha virt. eigenvalues --    0.06339   0.06629   0.07079   0.07830   0.09321
 Alpha virt. eigenvalues --    0.11532   0.12029   0.13171   0.13424   0.13993

 Mulliken charges:
               1
     1  C    0.493802
     2  C   -0.227760
     3  C    0.719571
     4  C    0.852555
     5  O   -0.789413
     6  C    0.988187
     7  C    0.154554
     8  H   -0.048791
     9  H   -0.043134
    10  H   -0.014267
    11  H   -0.399193
    12  H   -0.301233
    13  H   -0.279542
    14  H   -0.258588
    15  H   -0.209524
    16  H   -0.223441
    17  H   -0.413784
 Sum of Mulliken charges =  -0.00000

 Dipole moment (field-independent basis, Debye):
    X=              1.2890    Y=              0.6816    Z=              1.2070  Tot=              1.8929

 Test job not archived.
 1\1\GINC-SE043\SP\RHF\Aug-CC-pVDZ\C6H10O1\OHZDE\09-Apr-2025\0\\#t hf a
 ug-cc-pvdz iop(5/13=1,5/36=2,99/5=2) pseudo=read geom=check guess=(rea
 d,tcheck) scf=(maxcycle=1)\\title\\0,1\C,0,1.70725212,-0.43574371,-0.2
 6327593\C,0,0.62685506,0.18813262,0.5818666\C,0,0.05645858,1.60610539,
 -0.6315473\C,0,-1.02330491,0.83063026,-0.16510931\O,0,-1.51319327,-0.1
 7053774,-0.94857254\C,0,-1.2994702,-1.30779637,-0.03106805\C,0,-0.4690
 8844,-0.67147098,1.02634858\H,0,2.15572068,-1.23465065,0.33501847\H,0,
 2.47177223,0.2820021,-0.56060568\H,0,1.28870518,-0.89415301,-1.1605007

 Normal termination of Gaussian 16 at Wed Apr  9 16:31:24 2025.
