 Gaussian 16, Revision C.01,

 ----------------------------------------------------------------------
 #t hf aug-cc-pvdz symm=none int=(grid=ultrafine) guess=(read,tcheck) s
 table=(opt,rrhf)
 ----------------------------------------------------------------------
 -----
 title
 -----
 Symbolic Z-matrix:
 Charge =  0 Multiplicity = 1

 SCF Done:  E(RHF) =  -358.583721989     A.U. after   15 cycles
 Normal termination of Gaussian 16 at Wed Apr  9 17:07:12 2025.
 Gaussian 16:  ES64L-G16RevC.01  3-Jul-2019

 ----------------------------------------------------------------------
 #t hf aug-cc-pvdz iop(5/13=1,5/36=2,99/5=2) pseudo=read geom=check gue
 ss=(read,tcheck) scf=(maxcycle=1)
 ----------------------------------------------------------------------
 -----
 title
 -----
 Structure from the checkpoint file:  "Grambow2020_wb97xd3_009147_reverse_mol2.chk"
 Charge =  0 Multiplicity = 1

                         Standard orientation:
 ---------------------------------------------------------------------
 Center     Atomic      Atomic             Coordinates (Angstroms)
 Number     Number       Type             X           Y           Z
 ---------------------------------------------------------------------
      1          6           0        1.761159   -1.152652   -0.756273
      2          6           0        1.149480   -0.192436    0.222037
      3          6           0        0.849591    1.186643   -0.332062
      4          8           0       -0.079644    1.859056    0.005423
      5          6           0       -2.075129   -0.658640   -0.504686
      6          8           0       -3.003214   -0.399541    0.071048
      7          7           0        0.875188   -0.398844    1.437407
      8          1           0        2.691022   -0.748807   -1.164043
      9          1           0        1.970323   -2.114169   -0.288890
     10          1           0        1.079330   -1.311428   -1.595947
     11          1           0        1.558513    1.540997   -1.110799
     12          1           0        1.126756   -1.348296    1.711968
 ---------------------------------------------------------------------

 SCF Done:  E(RHF) =  -358.696224317     A.U. after    2 cycles

 The electronic state is 1-A.
 Alpha  occ. eigenvalues --  -20.67253 -20.59121 -15.64052 -11.36368 -11.35655
 Alpha  occ. eigenvalues --  -11.31768 -11.26708  -1.48401  -1.38147  -1.21120
 Alpha  occ. eigenvalues --   -1.01906  -0.90947  -0.80782  -0.77288  -0.69195
 Alpha  occ. eigenvalues --   -0.66614  -0.65029  -0.64945  -0.64900  -0.61542
 Alpha  occ. eigenvalues --   -0.58634  -0.56284  -0.54462  -0.47390  -0.44603
 Alpha  occ. eigenvalues --   -0.42406
 Alpha virt. eigenvalues --    0.02579   0.03882   0.04759   0.05462   0.06537
 Alpha virt. eigenvalues --    0.07191   0.08804   0.09228   0.10051   0.10756
 Alpha virt. eigenvalues --    0.12458   0.13578   0.14297   0.14927   0.15179

 Mulliken charges:
               1
     1  C    0.436823
     2  C    0.004704
     3  C    0.597520
     4  O   -0.426574
     5  C    0.212081
     6  O   -0.218478
     7  N   -0.389006
     8  H    0.019772
     9  H   -0.157002
    10  H    0.061226
    11  H   -0.153499
    12  H    0.012434
 Sum of Mulliken charges =  -0.00000

 Dipole moment (field-independent basis, Debye):
    X=              3.5988    Y=             -3.2691    Z=             -2.6605  Tot=              5.5423

 Test job not archived.
 1\1\GINC-SE163\SP\RHF\Aug-CC-pVDZ\C4H5N1O2\OHZDE\09-Apr-2025\0\\#t hf
 aug-cc-pvdz iop(5/13=1,5/36=2,99/5=2) pseudo=read geom=check guess=(re
 ad,tcheck) scf=(maxcycle=1)\\title\\0,1\C,0,-1.33683585,-0.43252685,-0
 .46475077\C,0,0.09965729,-0.03280376,-0.63785667\C,0,0.40350544,1.4216
 1011,-0.33590461\O,0,1.42846306,1.80871513,0.14276449\C,0,1.14916479,-
 0.40569612,2.50905691\O,0,2.18486323,-0.49239019,2.93303414\N,0,1.0626
 9236,-0.75809244,-1.01399985\H,0,-1.98691056,0.18042755,-1.09379884\H,
 0,-1.48907431,-1.48104053,-0.71803802\H,0,-1.64365596,-0.27383357,0.57

 Normal termination of Gaussian 16 at Wed Apr  9 17:07:17 2025.
