 Gaussian 16, Revision C.01,

 ----------------------------------------------------------------------
 #t hf aug-cc-pvdz symm=none int=(grid=ultrafine) guess=(read,tcheck) s
 table=(opt,rrhf)
 ----------------------------------------------------------------------
 -----
 title
 -----
 Symbolic Z-matrix:
 Charge =  0 Multiplicity = 1

 SCF Done:  E(RHF) =  -322.753768584     A.U. after   14 cycles
 Normal termination of Gaussian 16 at Wed Apr  9 16:06:01 2025.
 Gaussian 16:  ES64L-G16RevC.01  3-Jul-2019

 ----------------------------------------------------------------------
 #t hf aug-cc-pvdz iop(5/13=1,5/36=2,99/5=2) pseudo=read geom=check gue
 ss=(read,tcheck) scf=(maxcycle=1)
 ----------------------------------------------------------------------
 -----
 title
 -----
 Structure from the checkpoint file:  "Grambow2020_wb97xd3_007749_forward_mol2.chk"
 Charge =  0 Multiplicity = 1

                         Standard orientation:
 ---------------------------------------------------------------------
 Center     Atomic      Atomic             Coordinates (Angstroms)
 Number     Number       Type             X           Y           Z
 ---------------------------------------------------------------------
      1          6           0       -2.503774   -0.448181    0.000871
      2          6           0       -1.043250   -0.166244   -0.000889
      3          6           0       -0.015905   -1.007599   -0.001129
      4          6           0        1.236059   -0.244285    0.000021
      5          7           0        2.409323   -0.700410    0.000470
      6          8           0        0.913215    1.086121    0.000559
      7          6           0       -0.498763    1.231982   -0.000691
      8          1           0       -2.981211   -0.008702    0.880386
      9          1           0       -2.983784   -0.010517   -0.878074
     10          1           0       -2.699980   -1.519323    0.002573
     11          1           0       -0.035136   -2.086647   -0.001556
     12          1           0        3.092033    0.052986    0.001743
     13          1           0       -0.805821    1.795855    0.886461
     14          1           0       -0.803296    1.796215   -0.888394
 ---------------------------------------------------------------------

 SCF Done:  E(RHF) =  -322.853516001     A.U. after    2 cycles

 The electronic state is 1-A.
 Alpha  occ. eigenvalues --  -20.60737 -15.59037 -11.34610 -11.31427 -11.27807
 Alpha  occ. eigenvalues --  -11.25999 -11.24938  -1.39759  -1.16445  -1.11479
 Alpha  occ. eigenvalues --   -0.98868  -0.95849  -0.78982  -0.78504  -0.69556
 Alpha  occ. eigenvalues --   -0.69309  -0.65673  -0.61231  -0.59753  -0.57830
 Alpha  occ. eigenvalues --   -0.54559  -0.53848  -0.51634  -0.43765  -0.42743
 Alpha  occ. eigenvalues --   -0.35428
 Alpha virt. eigenvalues --    0.02690   0.04157   0.04517   0.04726   0.06156
 Alpha virt. eigenvalues --    0.07095   0.07183   0.09390   0.10901   0.11466
 Alpha virt. eigenvalues --    0.12422   0.12730   0.13634   0.14226   0.14835

 Mulliken charges:
               1
     1  C    0.651716
     2  C   -1.175107
     3  C    0.626487
     4  C    0.563531
     5  N   -0.458681
     6  O   -0.672735
     7  C    0.844133
     8  H    0.069525
     9  H    0.069560
    10  H   -0.098919
    11  H   -0.354925
    12  H   -0.005783
    13  H   -0.029267
    14  H   -0.029536
 Sum of Mulliken charges =  -0.00000

 Dipole moment (field-independent basis, Debye):
    X=             -4.3025    Y=              1.1905    Z=              0.0002  Tot=              4.4641

 Test job not archived.
 1\1\GINC-SE232\SP\RHF\Aug-CC-pVDZ\C5H7N1O1\OHZDE\09-Apr-2025\0\\#t hf
 aug-cc-pvdz iop(5/13=1,5/36=2,99/5=2) pseudo=read geom=check guess=(re
 ad,tcheck) scf=(maxcycle=1)\\title\\0,1\C,0,-2.01074279,-0.21760804,-0
 .43775058\C,0,-0.56000302,-0.08645707,-0.13646297\C,0,0.44021439,-0.92
 016448,-0.39687625\C,0,1.69349442,-0.34457277,0.10116577\N,0,2.8454326
 3,-0.84770783,0.03413891\O,0,1.39972091,0.86617119,0.66862069\C,0,0.00
 571681,1.1131842,0.56519584\H,0,-2.60123062,-0.18100435,0.48128063\H,0
 ,-2.35067034,0.60543266,-1.07143582\H,0,-2.22582375,-1.15569454,-0.947

 Normal termination of Gaussian 16 at Wed Apr  9 16:06:05 2025.
