 Gaussian 16, Revision C.01,

 ----------------------------------------------------------------------
 #t hf aug-cc-pvdz symm=none int=(grid=ultrafine) guess=(read,tcheck) s
 table=(opt,rrhf)
 ----------------------------------------------------------------------
 -----
 title
 -----
 Symbolic Z-matrix:
 Charge =  0 Multiplicity = 1

 SCF Done:  E(RHF) =  -283.710764861     A.U. after   14 cycles
 Normal termination of Gaussian 16 at Wed Apr  9 14:25:10 2025.
 Gaussian 16:  ES64L-G16RevC.01  3-Jul-2019

 ----------------------------------------------------------------------
 #t hf aug-cc-pvdz iop(5/13=1,5/36=2,99/5=2) pseudo=read geom=check gue
 ss=(read,tcheck) scf=(maxcycle=1)
 ----------------------------------------------------------------------
 -----
 title
 -----
 Structure from the checkpoint file:  "Grambow2020_wb97xd3_006236_reverse_mol2.chk"
 Charge =  0 Multiplicity = 1

                         Standard orientation:
 ---------------------------------------------------------------------
 Center     Atomic      Atomic             Coordinates (Angstroms)
 Number     Number       Type             X           Y           Z
 ---------------------------------------------------------------------
      1          8           0        2.025467   -0.106240   -0.000096
      2          6           0        0.682479    0.062216   -0.000052
      3          6           0       -0.122320    1.167809    0.000099
      4          6           0       -1.464330    0.680707   -0.000003
      5          6           0       -1.417567   -0.680695   -0.000343
      6          7           0       -0.089669   -1.051114   -0.000103
      7          1           0        0.202377    2.196261   -0.002300
      8          1           0        2.443141    0.756383    0.002431
      9          1           0       -2.360807    1.279763    0.001824
     10          1           0       -2.201698   -1.418465    0.001090
     11          1           0        0.271369   -1.986448    0.000240
 ---------------------------------------------------------------------

 SCF Done:  E(RHF) =  -283.798712665     A.U. after    2 cycles

 The electronic state is 1-A.
 Alpha  occ. eigenvalues --  -20.61523 -15.66584 -11.33179 -11.25580 -11.22146
 Alpha  occ. eigenvalues --  -11.21255  -1.38622  -1.25857  -1.03899  -0.96870
 Alpha  occ. eigenvalues --   -0.81893  -0.79326  -0.75930  -0.66740  -0.63379
 Alpha  occ. eigenvalues --   -0.62167  -0.59693  -0.55292  -0.53486  -0.52936
 Alpha  occ. eigenvalues --   -0.35287  -0.28797
 Alpha virt. eigenvalues --    0.03238   0.03697   0.04475   0.06329   0.06566
 Alpha virt. eigenvalues --    0.10075   0.11721   0.12827   0.13664   0.13815
 Alpha virt. eigenvalues --    0.14538   0.14718   0.14906   0.15281   0.16403

 Mulliken charges:
               1
     1  O   -0.516778
     2  C    0.339622
     3  C    0.638105
     4  C    0.303352
     5  C    0.556910
     6  N   -0.326182
     7  H   -0.386768
     8  H    0.135143
     9  H   -0.330019
    10  H   -0.296331
    11  H   -0.117054
 Sum of Mulliken charges =  -0.00000

 Dipole moment (field-independent basis, Debye):
    X=              0.6771    Y=             -0.2934    Z=              0.0052  Tot=              0.7380

 Test job not archived.
 1\1\GINC-SE057\SP\RHF\Aug-CC-pVDZ\C4H5N1O1\OHZDE\09-Apr-2025\0\\#t hf
 aug-cc-pvdz iop(5/13=1,5/36=2,99/5=2) pseudo=read geom=check guess=(re
 ad,tcheck) scf=(maxcycle=1)\\title\\0,1\O,0,-1.49756084,1.59872631,0.3
 8651204\C,0,-0.62303351,0.59759176,0.13170664\C,0,-0.76625577,-0.66374
 224,-0.37678064\C,0,0.54298838,-1.23262773,-0.39933785\C,0,1.41291751,
 -0.30530758,0.08943789\N,0,0.68357579,0.81867418,0.41385955\H,0,-1.687
 49829,-1.12467829,-0.69615343\H,0,-2.37763833,1.30682983,0.14394831\H,
 0,0.80330708,-2.22188083,-0.74015293\H,0,2.47867899,-0.33992567,0.2381

 Normal termination of Gaussian 16 at Wed Apr  9 14:25:13 2025.
