 Gaussian 16, Revision C.01,

 ----------------------------------------------------------------------
 #t hf aug-cc-pvdz symm=none int=(grid=ultrafine) guess=(read,tcheck) s
 table=(opt,rrhf)
 ----------------------------------------------------------------------
 -----
 title
 -----
 Symbolic Z-matrix:
 Charge =  0 Multiplicity = 1

 SCF Done:  E(RHF) =  -343.566217628     A.U. after   15 cycles
 Normal termination of Gaussian 16 at Wed Apr  9 16:22:07 2025.
 Gaussian 16:  ES64L-G16RevC.01  3-Jul-2019

 ----------------------------------------------------------------------
 #t hf aug-cc-pvdz iop(5/13=1,5/36=2,99/5=2) pseudo=read geom=check gue
 ss=(read,tcheck) scf=(maxcycle=1)
 ----------------------------------------------------------------------
 -----
 title
 -----
 Structure from the checkpoint file:  "Grambow2020_wb97xd3_008130_reverse_mol2.chk"
 Charge =  0 Multiplicity = 1

                         Standard orientation:
 ---------------------------------------------------------------------
 Center     Atomic      Atomic             Coordinates (Angstroms)
 Number     Number       Type             X           Y           Z
 ---------------------------------------------------------------------
      1          6           0       -1.626096   -0.794724    0.784937
      2          8           0       -1.467121   -0.439557   -0.501348
      3          6           0       -0.735261    0.496101   -0.942578
      4          6           0        1.803004   -0.892680   -0.667439
      5          6           0        1.353715   -0.544665    0.531168
      6          6           0        0.855020    0.830734    0.836674
      7          8           0       -0.100270    1.345039   -0.153387
      8          1           0       -2.397773   -1.541238    0.884962
      9          1           0       -1.535746    0.002617    1.508538
     10          1           0       -0.729897    0.647643   -2.010735
     11          1           0        1.889102   -0.173742   -1.475136
     12          1           0        2.105266   -1.909629   -0.881932
     13          1           0        1.273967   -1.272084    1.330663
     14          1           0        0.376076    0.864336    1.813433
     15          1           0        1.655840    1.569641    0.811520
 ---------------------------------------------------------------------

 SCF Done:  E(RHF) =  -343.678242185     A.U. after    2 cycles

 The electronic state is 1-A.
 Alpha  occ. eigenvalues --  -20.69091 -20.62800 -11.39451 -11.31720 -11.25222
 Alpha  occ. eigenvalues --  -11.24274 -11.23260  -1.47870  -1.38066  -1.07884
 Alpha  occ. eigenvalues --   -1.02223  -0.95645  -0.83354  -0.78729  -0.75913
 Alpha  occ. eigenvalues --   -0.72136  -0.69948  -0.66851  -0.64223  -0.60871
 Alpha  occ. eigenvalues --   -0.59599  -0.58660  -0.52821  -0.50882  -0.49710
 Alpha  occ. eigenvalues --   -0.38238  -0.24077
 Alpha virt. eigenvalues --    0.03299   0.04295   0.04667   0.04843   0.06125
 Alpha virt. eigenvalues --    0.06629   0.06785   0.07442   0.09515   0.10288
 Alpha virt. eigenvalues --    0.11595   0.12065   0.12458   0.13407   0.14705

 Mulliken charges:
               1
     1  C    0.532565
     2  O   -0.188591
     3  C    0.819298
     4  C    0.418668
     5  C    0.562999
     6  C    0.836623
     7  O   -0.566538
     8  H   -0.386176
     9  H   -0.278762
    10  H   -0.371687
    11  H   -0.325316
    12  H   -0.314206
    13  H   -0.417896
    14  H   -0.174085
    15  H   -0.146896
 Sum of Mulliken charges =  -0.00000

 Dipole moment (field-independent basis, Debye):
    X=              1.7090    Y=              1.1361    Z=             -1.0103  Tot=              2.2874

 Test job not archived.
 1\1\GINC-SE131\SP\RHF\Aug-CC-pVDZ\C5H8O2\OHZDE\09-Apr-2025\0\\#t hf au
 g-cc-pvdz iop(5/13=1,5/36=2,99/5=2) pseudo=read geom=check guess=(read
 ,tcheck) scf=(maxcycle=1)\\title\\0,1\C,0,-1.55327317,1.27593811,0.321
 33909\O,0,-0.96424466,1.22218719,-0.88535127\C,0,0.26555975,1.02461612
 ,-1.11838495\C,0,0.25321383,-1.84029226,-0.62915024\C,0,0.14305821,-1.
 19148045,0.52260626\C,0,1.03654862,-0.05258556,0.89455471\O,0,1.176341
 26,0.95697187,-0.16306579\H,0,-2.58476796,1.57740855,0.23241006\H,0,-0
 .93963417,1.64819738,1.12904171\H,0,0.57008024,1.01785491,-2.15336092\

 Normal termination of Gaussian 16 at Wed Apr  9 16:22:12 2025.
