 Gaussian 16, Revision C.01,

 ----------------------------------------------------------------------
 #t hf aug-cc-pvdz symm=none int=(grid=ultrafine) guess=(read,tcheck) s
 table=(opt,rrhf)
 ----------------------------------------------------------------------
 -----
 title
 -----
 Symbolic Z-matrix:
 Charge =  0 Multiplicity = 1

 SCF Done:  E(RHF) =  -322.716607172     A.U. after   14 cycles
 Normal termination of Gaussian 16 at Wed Apr  9 15:30:57 2025.
 Gaussian 16:  ES64L-G16RevC.01  3-Jul-2019

 ----------------------------------------------------------------------
 #t hf aug-cc-pvdz iop(5/13=1,5/36=2,99/5=2) pseudo=read geom=check gue
 ss=(read,tcheck) scf=(maxcycle=1)
 ----------------------------------------------------------------------
 -----
 title
 -----
 Structure from the checkpoint file:  "Grambow2020_wb97xd3_006939_forward_mol2.chk"
 Charge =  0 Multiplicity = 1

                         Standard orientation:
 ---------------------------------------------------------------------
 Center     Atomic      Atomic             Coordinates (Angstroms)
 Number     Number       Type             X           Y           Z
 ---------------------------------------------------------------------
      1          8           0        2.407462    0.163490   -0.727209
      2          6           0        1.849090   -0.715172   -0.111194
      3          7           0        0.780683   -0.529581    0.698377
      4          6           0        0.128381    0.755204    0.809947
      5          6           0       -0.891500    1.005795   -0.307102
      6          6           0       -1.976735    0.028930   -0.289732
      7          6           0       -2.848705   -0.791044   -0.242679
      8          1           0        2.181498   -1.767606   -0.143459
      9          1           0        0.308164   -1.343327    1.051109
     10          1           0        0.899678    1.523470    0.766041
     11          1           0       -0.360655    0.812067    1.783190
     12          1           0       -1.305168    2.011585   -0.199636
     13          1           0       -0.377589    0.970041   -1.270413
     14          1           0       -3.633595   -1.509369   -0.213247
 ---------------------------------------------------------------------

 SCF Done:  E(RHF) =  -322.819397433     A.U. after    2 cycles

 The electronic state is 1-A.
 Alpha  occ. eigenvalues --  -20.54394 -15.65799 -11.36582 -11.28968 -11.26921
 Alpha  occ. eigenvalues --  -11.25450 -11.24196  -1.35590  -1.21454  -1.07728
 Alpha  occ. eigenvalues --   -1.00329  -0.90844  -0.80841  -0.75444  -0.72822
 Alpha  occ. eigenvalues --   -0.67293  -0.64949  -0.63060  -0.61689  -0.57036
 Alpha  occ. eigenvalues --   -0.55165  -0.53766  -0.45077  -0.41607  -0.40004
 Alpha  occ. eigenvalues --   -0.39122
 Alpha virt. eigenvalues --    0.02825   0.03843   0.04102   0.04807   0.06399
 Alpha virt. eigenvalues --    0.07089   0.07361   0.09540   0.10497   0.11029
 Alpha virt. eigenvalues --    0.12197   0.12585   0.13304   0.13678   0.14192

 Mulliken charges:
               1
     1  O   -0.476801
     2  C    0.673888
     3  N   -0.276683
     4  C    0.651926
     5  C   -0.054642
     6  C   -0.548109
     7  C    1.010820
     8  H   -0.197564
     9  H   -0.039846
    10  H   -0.113129
    11  H   -0.153732
    12  H    0.037823
    13  H    0.015306
    14  H   -0.529259
 Sum of Mulliken charges =   0.00000

 Dipole moment (field-independent basis, Debye):
    X=             -2.3901    Y=             -1.6893    Z=              2.2700  Tot=              3.7040

 Test job not archived.
 1\1\GINC-SE100\SP\RHF\Aug-CC-pVDZ\C5H7N1O1\OHZDE\09-Apr-2025\0\\#t hf
 aug-cc-pvdz iop(5/13=1,5/36=2,99/5=2) pseudo=read geom=check guess=(re
 ad,tcheck) scf=(maxcycle=1)\\title\\0,1\O,0,-2.52792098,-0.39692801,-0
 .73850517\C,0,-2.11365605,0.51753886,-0.06364604\N,0,-1.07538092,0.429
 37081,0.79980895\C,0,-0.27929325,-0.77196557,0.90776361\C,0,0.82156795
 ,-0.85609016,-0.15608787\C,0,1.77813371,0.2416177,-0.04508822\C,0,2.54
 070875,1.15713551,0.07824162\H,0,-2.56877525,1.52337299,-0.08144376\H,
 0,-0.7243078,1.27936553,1.20494056\H,0,-0.94850449,-1.62431789,0.79502

 Normal termination of Gaussian 16 at Wed Apr  9 15:31:02 2025.
