 Gaussian 16, Revision C.01,

 ----------------------------------------------------------------------
 #t hf aug-cc-pvdz symm=none int=(grid=ultrafine) guess=(read,tcheck) s
 table=(opt,rrhf)
 ----------------------------------------------------------------------
 -----
 title
 -----
 Symbolic Z-matrix:
 Charge =  0 Multiplicity = 1

 SCF Done:  E(RHF) =  -359.504824272     A.U. after   21 cycles
 Normal termination of Gaussian 16 at Wed Apr  9 15:40:09 2025.
 Gaussian 16:  ES64L-G16RevC.01  3-Jul-2019

 ----------------------------------------------------------------------
 #t hf aug-cc-pvdz iop(5/13=1,5/36=2,99/5=2) pseudo=read geom=check gue
 ss=(read,tcheck) scf=(maxcycle=1)
 ----------------------------------------------------------------------
 -----
 title
 -----
 Structure from the checkpoint file:  "Grambow2020_wb97xd3_007281_forward_mol1.chk"
 Charge =  0 Multiplicity = 1

                         Standard orientation:
 ---------------------------------------------------------------------
 Center     Atomic      Atomic             Coordinates (Angstroms)
 Number     Number       Type             X           Y           Z
 ---------------------------------------------------------------------
      1          8           0       -1.145425   -1.182590   -1.070249
      2          6           0        0.272453    1.089656   -0.590568
      3          6           0       -1.032568    1.134045    0.070422
      4          7           0       -1.128808   -0.140020    0.693593
      5          6           0        0.184842   -0.586540    1.073329
      6          6           0        1.085236    0.080774    0.022336
      7          8           0        2.246759   -0.221327   -0.181205
      8          1           0       -0.463962   -0.897383   -1.687196
      9          1           0        0.632364    1.827276   -1.291292
     10          1           0       -1.001052    1.891428    0.880644
     11          1           0       -1.897643    1.347227   -0.555147
     12          1           0       -1.951725   -0.410582    1.208114
     13          1           0        0.260837   -1.670048    1.086644
     14          1           0        0.452383   -0.184059    2.061610
 ---------------------------------------------------------------------

 SCF Done:  E(RHF) =  -359.613164035     A.U. after    2 cycles

 The electronic state is 1-A.
 Alpha  occ. eigenvalues --  -20.60610 -20.52620 -15.73414 -11.32848 -11.31077
 Alpha  occ. eigenvalues --  -11.29713 -11.25864  -1.32712  -1.29080  -1.23056
 Alpha  occ. eigenvalues --   -1.04556  -1.00971  -0.85528  -0.77439  -0.73379
 Alpha  occ. eigenvalues --   -0.70192  -0.64956  -0.63369  -0.62291  -0.60949
 Alpha  occ. eigenvalues --   -0.59058  -0.56888  -0.51895  -0.51445  -0.43383
 Alpha  occ. eigenvalues --   -0.41105  -0.28454
 Alpha virt. eigenvalues --   -0.04663   0.02051   0.03558   0.04093   0.04782
 Alpha virt. eigenvalues --    0.06470   0.06980   0.07604   0.09652   0.11443
 Alpha virt. eigenvalues --    0.12509   0.13045   0.13510   0.14166   0.14869

 Mulliken charges:
               1
     1  O   -0.471239
     2  C    0.129081
     3  C    0.872825
     4  N   -0.192942
     5  C    0.774585
     6  C   -0.038934
     7  O   -0.572712
     8  H    0.204610
     9  H   -0.310289
    10  H    0.044209
    11  H   -0.178928
    12  H   -0.121593
    13  H   -0.127993
    14  H   -0.010678
 Sum of Mulliken charges =  -0.00000

 Dipole moment (field-independent basis, Debye):
    X=             -4.8061    Y=              2.6568    Z=              3.0668  Tot=              6.2898

 Test job not archived.
 1\1\GINC-SE174\SP\RHF\Aug-CC-pVDZ\C4H7N1O2\OHZDE\09-Apr-2025\0\\#t hf
 aug-cc-pvdz iop(5/13=1,5/36=2,99/5=2) pseudo=read geom=check guess=(re
 ad,tcheck) scf=(maxcycle=1)\\title\\0,1\O,0,1.1452638,-0.1514941,-1.86
 947458\C,0,0.76175461,0.05330154,0.81651832\C,0,0.1891514,1.20236469,0
 .11385154\N,0,-0.52692061,0.60720995,-0.96033514\C,0,-1.02243407,-0.67
 92255,-0.54947473\C,0,0.02044549,-1.12787297,0.48576401\O,0,0.12625928
 ,-2.26440779,0.90875659\H,0,1.7393707,-0.60032445,-1.25960003\H,0,1.49
 552953,0.1179002,1.60520951\H,0,-0.55813492,1.69190378,0.7718759\H,0,0

 Normal termination of Gaussian 16 at Wed Apr  9 15:40:13 2025.
