 Gaussian 16, Revision C.01,

 ----------------------------------------------------------------------
 #t hf aug-cc-pvdz symm=none int=(grid=ultrafine) guess=(read,tcheck) s
 table=(opt,rrhf)
 ----------------------------------------------------------------------
 -----
 title
 -----
 Symbolic Z-matrix:
 Charge =  0 Multiplicity = 1

 SCF Done:  E(RHF) =  -308.926096709     A.U. after   15 cycles

 1\1\GINC-SE226\Stability\RHF\Aug-CC-pVDZ\C6H12O1\OHZDE\09-Apr-2025\0\\
 #t hf aug-cc-pvdz symm=none int=(grid=ultrafine) guess=(read,tcheck) s
 table=(opt,rrhf)\\title\\0,1\C,0,1.76364718,-0.50457547,-1.1221355\C,0
 ,1.15457017,0.18312033,0.02914721\O,0,0.5911857,2.02400124,-0.35318036
 \C,0,-0.56833673,1.54766304,0.35265948\C,0,-0.3381512,0.03038224,0.301
 61293\C,0,-0.58025604,-0.70824699,1.61618877\C,0,-1.16612379,-0.594813
 8,-0.82079498\H,0,2.75362131,-0.12092482,-1.36512222\H,0,1.90104467,-1
 .53500535,-0.76000673\H,0,1.14759878,-0.56320793,-2.02412683\H,0,1.368

 Normal termination of Gaussian 16 at Wed Apr  9 14:34:03 2025.
 Gaussian 16:  ES64L-G16RevC.01  3-Jul-2019

 ----------------------------------------------------------------------
 #t hf aug-cc-pvdz iop(5/13=1,5/36=2,99/5=2) pseudo=read geom=check gue
 ss=(read,tcheck) scf=(maxcycle=1)
 ----------------------------------------------------------------------
 -----
 title
 -----
 Structure from the checkpoint file:  "Grambow2020_wb97xd3_006572_reverse_mol1.chk"
 Charge =  0 Multiplicity = 1

                         Standard orientation:
 ---------------------------------------------------------------------
 Center     Atomic      Atomic             Coordinates (Angstroms)
 Number     Number       Type             X           Y           Z
 ---------------------------------------------------------------------
      1          6           0       -1.799505   -1.146969   -0.162855
      2          6           0       -0.802428   -0.188952   -0.670192
      3          8           0       -0.956337    1.605075    0.110960
      4          6           0        0.466808    1.413877    0.198731
      5          6           0        0.570990   -0.103404   -0.012780
      6          6           0        1.666790   -0.551338   -0.977598
      7          6           0        0.719355   -0.817789    1.330294
      8          1           0       -2.804712   -0.939874   -0.527477
      9          1           0       -1.487488   -2.101896   -0.612923
     10          1           0       -1.811964   -1.294428    0.920955
     11          1           0       -1.118642    1.119257   -0.878626
     12          1           0        0.811065    1.750428    1.177310
     13          1           0        0.983522    1.990574   -0.576111
     14          1           0        1.583509   -0.031529   -1.932607
     15          1           0        1.603369   -1.625829   -1.168922
     16          1           0        2.655519   -0.351727   -0.556870
     17          1           0        0.628338   -1.902316    1.229775
     18          1           0       -0.028459   -0.477436    2.049287
     19          1           0        1.704582   -0.608374    1.754928
 ---------------------------------------------------------------------

 SCF Done:  E(RHF) =  -309.020769677     A.U. after    2 cycles

 The electronic state is 1-A.
 Alpha  occ. eigenvalues --  -20.56519 -11.28353 -11.27905 -11.25125 -11.24038
 Alpha  occ. eigenvalues --  -11.23173 -11.22877  -1.31458  -1.09556  -1.01241
 Alpha  occ. eigenvalues --   -0.93928  -0.91014  -0.85660  -0.70828  -0.67874
 Alpha  occ. eigenvalues --   -0.64525  -0.63747  -0.59476  -0.58553  -0.57204
 Alpha  occ. eigenvalues --   -0.56061  -0.54335  -0.53720  -0.50267  -0.49104
 Alpha  occ. eigenvalues --   -0.46880  -0.43304  -0.33922
 Alpha virt. eigenvalues --    0.03336   0.04224   0.04673   0.04850   0.06301
 Alpha virt. eigenvalues --    0.06376   0.06491   0.06838   0.07518   0.09305
 Alpha virt. eigenvalues --    0.09360   0.09784   0.10386   0.12698   0.13247

 Mulliken charges:
               1
     1  C    0.492156
     2  C   -0.643211
     3  O   -0.781090
     4  C    1.133725
     5  C   -1.893980
     6  C    0.816579
     7  C    0.976445
     8  H   -0.078123
     9  H    0.108793
    10  H    0.010995
    11  H    0.380179
    12  H   -0.239669
    13  H   -0.148913
    14  H   -0.031262
    15  H   -0.013748
    16  H   -0.018986
    17  H   -0.029537
    18  H    0.021474
    19  H   -0.061827
 Sum of Mulliken charges =  -0.00000

 Dipole moment (field-independent basis, Debye):
    X=              1.4690    Y=             -2.1357    Z=              0.1384  Tot=              2.5958

 Test job not archived.
 1\1\GINC-SE226\SP\RHF\Aug-CC-pVDZ\C6H12O1\OHZDE\09-Apr-2025\0\\#t hf a
 ug-cc-pvdz iop(5/13=1,5/36=2,99/5=2) pseudo=read geom=check guess=(rea
 d,tcheck) scf=(maxcycle=1)\\title\\0,1\C,0,1.76364718,-0.50457547,-1.1
 221355\C,0,1.15457017,0.18312033,0.02914721\O,0,0.5911857,2.02400124,-
 0.35318036\C,0,-0.56833673,1.54766304,0.35265948\C,0,-0.3381512,0.0303
 8224,0.30161293\C,0,-0.58025604,-0.70824699,1.61618877\C,0,-1.16612379
 ,-0.5948138,-0.82079498\H,0,2.75362131,-0.12092482,-1.36512222\H,0,1.9
 0104467,-1.53500535,-0.76000673\H,0,1.14759878,-0.56320793,-2.02412683

 Normal termination of Gaussian 16 at Wed Apr  9 14:34:11 2025.
