 Gaussian 16, Revision C.01,

 ----------------------------------------------------------------------
 #t hf aug-cc-pvdz symm=none int=(grid=ultrafine) guess=(read,tcheck) s
 table=(opt,rrhf)
 ----------------------------------------------------------------------
 -----
 title
 -----
 Symbolic Z-matrix:
 Charge =  0 Multiplicity = 1

 SCF Done:  E(RHF) =  -342.444801504     A.U. after   17 cycles
 Normal termination of Gaussian 16 at Wed Apr  9 16:54:13 2025.
 Gaussian 16:  ES64L-G16RevC.01  3-Jul-2019

 ----------------------------------------------------------------------
 #t hf aug-cc-pvdz iop(5/13=1,5/36=2,99/5=2) pseudo=read geom=check gue
 ss=(read,tcheck) scf=(maxcycle=1)
 ----------------------------------------------------------------------
 -----
 title
 -----
 Structure from the checkpoint file:  "Grambow2020_wb97xd3_009061_reverse_mol1.chk"
 Charge =  0 Multiplicity = 1

                         Standard orientation:
 ---------------------------------------------------------------------
 Center     Atomic      Atomic             Coordinates (Angstroms)
 Number     Number       Type             X           Y           Z
 ---------------------------------------------------------------------
      1          8           0        2.372364   -0.472586   -0.106915
      2          6           0        1.220089   -0.187702    0.044751
      3          6           0        0.692998    1.246372    0.203983
      4          6           0       -0.703980    1.144002   -0.204903
      5          6           0       -1.189402   -0.221274   -0.328475
      6          8           0       -2.338791   -0.400958    0.256158
      7          6           0        0.027871   -1.111899    0.103719
      8          1           0        1.285545    2.023901   -0.280376
      9          1           0        0.707882    1.480367    1.283620
     10          1           0       -1.164014   -0.292276   -1.480300
     11          1           0       -1.403704    1.969947   -0.279462
     12          1           0        0.163170   -2.007236   -0.495739
     13          1           0       -0.142917   -1.403344    1.143865
 ---------------------------------------------------------------------

 SCF Done:  E(RHF) =  -342.547080143     A.U. after    2 cycles

 The electronic state is 1-A.
 Alpha  occ. eigenvalues --  -20.59826 -20.45800 -11.40043 -11.37896 -11.31879
 Alpha  occ. eigenvalues --  -11.31145 -11.25916  -1.39530  -1.25779  -1.16189
 Alpha  occ. eigenvalues --   -1.02123  -0.96711  -0.81757  -0.78387  -0.72783
 Alpha  occ. eigenvalues --   -0.69235  -0.66723  -0.64920  -0.62267  -0.58827
 Alpha  occ. eigenvalues --   -0.58029  -0.53818  -0.52373  -0.45925  -0.37079
 Alpha  occ. eigenvalues --   -0.36325
 Alpha virt. eigenvalues --   -0.01695   0.01674   0.03485   0.04381   0.04691
 Alpha virt. eigenvalues --    0.06159   0.06733   0.08765   0.09483   0.10219
 Alpha virt. eigenvalues --    0.11591   0.12949   0.13396   0.14054   0.14346

 Mulliken charges:
               1
     1  O   -0.455666
     2  C    0.275095
     3  C    0.167517
     4  C   -0.040680
     5  C    0.439399
     6  O   -0.859981
     7  C    0.211201
     8  H   -0.041079
     9  H    0.249809
    10  H    0.235780
    11  H   -0.211315
    12  H   -0.037137
    13  H    0.067057
 Sum of Mulliken charges =  -0.00000

 Dipole moment (field-independent basis, Debye):
    X=              2.9671    Y=              5.0167    Z=             -0.8007  Tot=              5.8832

 Test job not archived.
 1\1\GINC-SE229\SP\RHF\Aug-CC-pVDZ\C5H6O2\OHZDE\09-Apr-2025\0\\#t hf au
 g-cc-pvdz iop(5/13=1,5/36=2,99/5=2) pseudo=read geom=check guess=(read
 ,tcheck) scf=(maxcycle=1)\\title\\0,1\O,0,0.54430819,-2.42072297,-0.21
 477848\C,0,0.30484816,-1.24830945,-0.2173185\C,0,-1.10141912,-0.648758
 52,-0.3679777\C,0,-0.97530799,0.67352143,0.23607889\C,0,0.39671862,1.0
 8365203,0.48949627\O,0,0.64315754,2.29471296,0.0798919\C,0,1.26875528,
 -0.09631135,-0.06637966\H,0,-1.92151481,-1.27157409,-0.00768541\H,0,-1
 .27990445,-0.50566091,-1.44883745\H,0,0.40750009,0.89711412,1.6285634\

 Normal termination of Gaussian 16 at Wed Apr  9 16:54:17 2025.
