 Gaussian 16, Revision C.01,

 ----------------------------------------------------------------------
 #t hf aug-cc-pvdz symm=none int=(grid=ultrafine) guess=(read,tcheck) s
 table=(opt,rrhf)
 ----------------------------------------------------------------------
 -----
 title
 -----
 Symbolic Z-matrix:
 Charge =  0 Multiplicity = 1

 SCF Done:  E(RHF) =  -320.646303307     A.U. after   15 cycles
 Normal termination of Gaussian 16 at Wed Apr  9 14:19:04 2025.
 Gaussian 16:  ES64L-G16RevC.01  3-Jul-2019

 ----------------------------------------------------------------------
 #t hf aug-cc-pvdz iop(5/13=1,5/36=2,99/5=2) pseudo=read geom=check gue
 ss=(read,tcheck) scf=(maxcycle=1)
 ----------------------------------------------------------------------
 -----
 title
 -----
 Structure from the checkpoint file:  "Grambow2020_b97d3_007147_reverse_mol2.chk"
 Charge =  0 Multiplicity = 1

                         Standard orientation:
 ---------------------------------------------------------------------
 Center     Atomic      Atomic             Coordinates (Angstroms)
 Number     Number       Type             X           Y           Z
 ---------------------------------------------------------------------
      1          8           0        1.476596   -1.276652   -0.044058
      2          6           0        0.545699   -0.507228   -0.007561
      3          7           0        0.779988    0.912582    0.294094
      4          6           0        0.301471    2.019090   -0.265577
      5          6           0       -1.870227   -0.158428    0.216300
      6          8           0       -0.715973   -0.871735   -0.290047
      7          1           0        1.610415    0.998302    0.889816
      8          1           0       -1.602620    0.528633    1.025997
      9          1           0       -0.516737    1.685481   -0.947539
     10          1           0       -2.344141    0.395467   -0.601727
     11          1           0       -2.553467   -0.929466    0.588667
 ---------------------------------------------------------------------

 SCF Done:  E(RHF) =  -320.748264537     A.U. after    2 cycles

 The electronic state is 1-A.
 Alpha  occ. eigenvalues --  -20.64791 -20.58717 -15.71426 -11.45958 -11.33419
 Alpha  occ. eigenvalues --  -11.30038  -1.44711  -1.35794  -1.24200  -1.00818
 Alpha  occ. eigenvalues --   -0.91660  -0.83799  -0.75997  -0.71490  -0.70315
 Alpha  occ. eigenvalues --   -0.64745  -0.62632  -0.59868  -0.56344  -0.52849
 Alpha  occ. eigenvalues --   -0.51402  -0.48564  -0.38311
 Alpha virt. eigenvalues --    0.02775   0.04168   0.04740   0.05377   0.06757
 Alpha virt. eigenvalues --    0.07883   0.08671   0.10359   0.11004   0.12740
 Alpha virt. eigenvalues --    0.13944   0.14974   0.15016   0.15793   0.16376

 Mulliken charges:
               1
     1  O   -0.398067
     2  C    0.814379
     3  N   -0.266831
     4  C    0.075446
     5  C    0.793368
     6  O   -0.534032
     7  H    0.022961
     8  H   -0.077834
     9  H   -0.135511
    10  H   -0.115409
    11  H   -0.178471
 Sum of Mulliken charges =  -0.00000

 Dipole moment (field-independent basis, Debye):
    X=             -3.2666    Y=              0.7559    Z=              1.3195  Tot=              3.6032

 Test job not archived.
 1\1\GINC-SE015\SP\RHF\Aug-CC-pVDZ\C3H5N1O2\OHZDE\09-Apr-2025\0\\#t hf
 aug-cc-pvdz iop(5/13=1,5/36=2,99/5=2) pseudo=read geom=check guess=(re
 ad,tcheck) scf=(maxcycle=1)\\title\\0,1\O,0,2.4628428,0.07807104,-0.09
 11522\C,0,1.25671673,0.0524488,-0.0239355\N,0,0.57985483,-1.11663594,0
 .55645045\C,0,-0.42846245,-1.20891332,1.41746705\C,0,-0.89934761,0.912
 6733,-0.81125485\O,0,0.48090133,1.08038954,-0.40593934\H,0,1.15733662,
 -1.95051286,0.40477513\H,0,-1.1439437,-0.13753575,-1.00233153\H,0,-0.8
 4317789,-0.17694138,1.51168304\H,0,-1.55890213,1.31389988,-0.03371649\

 Normal termination of Gaussian 16 at Wed Apr  9 14:19:07 2025.
