 Gaussian 16, Revision C.01,

 ----------------------------------------------------------------------
 #t hf aug-cc-pvdz symm=none int=(grid=ultrafine) guess=(read,tcheck) s
 table=(opt,rrhf)
 ----------------------------------------------------------------------
 -----
 title
 -----
 Symbolic Z-matrix:
 Charge =  0 Multiplicity = 1

 SCF Done:  E(RHF) =  -344.823293235     A.U. after   13 cycles

 1\1\GINC-SE226\Stability\RHF\Aug-CC-pVDZ\C5H10O2\OHZDE\09-Apr-2025\0\\
 #t hf aug-cc-pvdz symm=none int=(grid=ultrafine) guess=(read,tcheck) s
 table=(opt,rrhf)\\title\\0,1\C,0,2.38069959,1.50867582,-0.16099605\O,0
 ,1.45917872,1.43042124,0.90297417\C,0,-0.60477214,-0.56602341,-0.58462
 261\C,0,-0.29617431,-1.65879224,0.42368591\O,0,-1.70232642,-1.95620927
 ,0.58743523\C,0,-2.02836329,-1.00322576,-0.41152896\C,0,-1.64019528,0.
 36669433,0.0116931\H,0,3.32791162,1.85159164,0.2543422\H,0,2.54822001,
 0.53452537,-0.63637218\H,0,2.06647798,2.22445401,-0.9295852\H,0,-0.048

 Normal termination of Gaussian 16 at Wed Apr  9 15:03:05 2025.
 Gaussian 16:  ES64L-G16RevC.01  3-Jul-2019

 ----------------------------------------------------------------------
 #t hf aug-cc-pvdz iop(5/13=1,5/36=2,99/5=2) pseudo=read geom=check gue
 ss=(read,tcheck) scf=(maxcycle=1)
 ----------------------------------------------------------------------
 -----
 title
 -----
 Structure from the checkpoint file:  "Grambow2020_wb97xd3_006664_reverse_mol2.chk"
 Charge =  0 Multiplicity = 1

                         Standard orientation:
 ---------------------------------------------------------------------
 Center     Atomic      Atomic             Coordinates (Angstroms)
 Number     Number       Type             X           Y           Z
 ---------------------------------------------------------------------
      1          6           0       -3.085565   -0.131825    0.427290
      2          8           0       -2.343535    0.027991   -0.760653
      3          6           0        0.557493    0.129967    0.664922
      4          6           0        0.947164   -1.176889   -0.003168
      5          8           0        2.236130   -0.641349   -0.383033
      6          6           0        1.945283    0.566174    0.302317
      7          6           0        0.787915    1.263695   -0.314477
      8          1           0       -4.058166   -0.537736    0.150537
      9          1           0       -2.607834   -0.832382    1.122996
     10          1           0       -3.248544    0.820449    0.945378
     11          1           0        0.012061    0.241934    1.590427
     12          1           0        0.355175   -1.500202   -0.863081
     13          1           0        1.074667   -2.001210    0.701191
     14          1           0        2.731673    1.040920    0.873404
     15          1           0        0.572411    2.251013    0.075034
     16          1           0        0.598551    1.124300   -1.374240
     17          1           0       -1.484491    0.393043   -0.533454
 ---------------------------------------------------------------------

 SCF Done:  E(RHF) =  -344.935219126     A.U. after    2 cycles

 The electronic state is 1-A.
 Alpha  occ. eigenvalues --  -20.57605 -20.56755 -11.30812 -11.30095 -11.28315
 Alpha  occ. eigenvalues --  -11.25869 -11.25516  -1.37155  -1.31950  -1.12244
 Alpha  occ. eigenvalues --   -0.95964  -0.92520  -0.84196  -0.76634  -0.73293
 Alpha  occ. eigenvalues --   -0.70566  -0.66284  -0.65699  -0.62816  -0.60621
 Alpha  occ. eigenvalues --   -0.58042  -0.56013  -0.53139  -0.50908  -0.49614
 Alpha  occ. eigenvalues --   -0.46140  -0.42344  -0.40045
 Alpha virt. eigenvalues --    0.02946   0.04077   0.04341   0.04918   0.05797
 Alpha virt. eigenvalues --    0.06728   0.06890   0.07386   0.07717   0.09415
 Alpha virt. eigenvalues --    0.11701   0.12003   0.12893   0.13633   0.13937

 Mulliken charges:
               1
     1  C    0.837201
     2  O   -0.448558
     3  C    0.300147
     4  C    0.833091
     5  O   -0.816865
     6  C    0.914515
     7  C    0.648638
     8  H   -0.236097
     9  H   -0.140769
    10  H   -0.131388
    11  H   -0.548514
    12  H   -0.192876
    13  H   -0.204776
    14  H   -0.376034
    15  H   -0.339129
    16  H   -0.314777
    17  H    0.216193
 Sum of Mulliken charges =  -0.00000

 Dipole moment (field-independent basis, Debye):
    X=             -0.6403    Y=              1.1332    Z=              2.9106  Tot=              3.1884

 Test job not archived.
 1\1\GINC-SE226\SP\RHF\Aug-CC-pVDZ\C5H10O2\OHZDE\09-Apr-2025\0\\#t hf a
 ug-cc-pvdz iop(5/13=1,5/36=2,99/5=2) pseudo=read geom=check guess=(rea
 d,tcheck) scf=(maxcycle=1)\\title\\0,1\C,0,2.38069959,1.50867582,-0.16
 099605\O,0,1.45917872,1.43042124,0.90297417\C,0,-0.60477214,-0.5660234
 1,-0.58462261\C,0,-0.29617431,-1.65879224,0.42368591\O,0,-1.70232642,-
 1.95620927,0.58743523\C,0,-2.02836329,-1.00322576,-0.41152896\C,0,-1.6
 4019528,0.36669433,0.0116931\H,0,3.32791162,1.85159164,0.2543422\H,0,2
 .54822001,0.53452537,-0.63637218\H,0,2.06647798,2.22445401,-0.9295852\

 Normal termination of Gaussian 16 at Wed Apr  9 15:03:11 2025.
