 Gaussian 16, Revision C.01,

 ----------------------------------------------------------------------
 #t hf aug-cc-pvdz symm=none int=(grid=ultrafine) guess=(read,tcheck) s
 table=(opt,rrhf)
 ----------------------------------------------------------------------
 -----
 title
 -----
 Symbolic Z-matrix:
 Charge =  0 Multiplicity = 1

 SCF Done:  E(RHF) =  -305.868127589     A.U. after   13 cycles
 Normal termination of Gaussian 16 at Wed Apr  9 13:56:57 2025.
 Gaussian 16:  ES64L-G16RevC.01  3-Jul-2019

 ----------------------------------------------------------------------
 #t hf aug-cc-pvdz iop(5/13=1,5/36=2,99/5=2) pseudo=read geom=check gue
 ss=(read,tcheck) scf=(maxcycle=1)
 ----------------------------------------------------------------------
 -----
 title
 -----
 Structure from the checkpoint file:  "Grambow2020_b97d3_006751_reverse_mol2.chk"
 Charge =  0 Multiplicity = 1

                         Standard orientation:
 ---------------------------------------------------------------------
 Center     Atomic      Atomic             Coordinates (Angstroms)
 Number     Number       Type             X           Y           Z
 ---------------------------------------------------------------------
      1          6           0       -2.523217   -0.141886   -0.199442
      2          6           0       -1.139078   -0.698987    0.004038
      3          6           0       -0.006844    0.008330    0.187188
      4          8           0        0.086381    1.387387    0.193593
      5          6           0        1.356414   -0.588020    0.422954
      6          8           0        2.311779   -0.170165   -0.552120
      7          1           0       -3.248387   -0.640334    0.461240
      8          1           0       -2.874770   -0.288432   -1.233627
      9          1           0       -2.593109    0.936130    0.018469
     10          1           0       -0.775651    1.760806   -0.069801
     11          1           0       -1.041101   -1.784423   -0.010032
     12          1           0        1.690689   -0.319861    1.444359
     13          1           0        1.296337   -1.680427    0.360878
     14          1           0        2.237060    0.802143   -0.591695
 ---------------------------------------------------------------------

 SCF Done:  E(RHF) =  -305.964729632     A.U. after    2 cycles

 The electronic state is 1-A.
 Alpha  occ. eigenvalues --  -20.61103 -20.57155 -11.31111 -11.29591 -11.25089
 Alpha  occ. eigenvalues --  -11.24042  -1.36737  -1.31284  -1.06200  -0.98288
 Alpha  occ. eigenvalues --   -0.88403  -0.80844  -0.70869  -0.68447  -0.65679
 Alpha  occ. eigenvalues --   -0.61874  -0.59099  -0.58197  -0.56979  -0.56037
 Alpha  occ. eigenvalues --   -0.52655  -0.51497  -0.46145  -0.34456
 Alpha virt. eigenvalues --    0.03012   0.04531   0.04602   0.05275   0.06306
 Alpha virt. eigenvalues --    0.06588   0.07220   0.09147   0.11559   0.11773
 Alpha virt. eigenvalues --    0.12496   0.13826   0.14386   0.15038   0.16072

 Mulliken charges:
               1
     1  C    0.025046
     2  C    0.441912
     3  C    0.294565
     4  O   -0.615283
     5  C    0.656476
     6  O   -0.586549
     7  H    0.037701
     8  H    0.087017
     9  H   -0.152048
    10  H    0.154522
    11  H   -0.400958
    12  H    0.050209
    13  H   -0.176544
    14  H    0.183932
 Sum of Mulliken charges =   0.00000

 Dipole moment (field-independent basis, Debye):
    X=             -2.7893    Y=              0.5575    Z=              0.5664  Tot=              2.9003

 Test job not archived.
 1\1\GINC-SE054\SP\RHF\Aug-CC-pVDZ\C4H8O2\OHZDE\09-Apr-2025\0\\#t hf au
 g-cc-pvdz iop(5/13=1,5/36=2,99/5=2) pseudo=read geom=check guess=(read
 ,tcheck) scf=(maxcycle=1)\\title\\0,1\C,0,-2.1601678,0.0545211,-0.1200
 8719\C,0,-0.80071533,-0.43173447,0.30775683\C,0,0.38268829,0.15713026,
 0.04585664\O,0,0.55908205,1.31134008,-0.69388182\C,0,1.72143042,-0.342
 97706,0.52267099\O,0,2.62384966,-0.59953612,-0.55339245\H,0,-2.8620772
 4,0.054462,0.72734773\H,0,-2.59703335,-0.58857683,-0.90122521\H,0,-2.1
 4829472,1.08347282,-0.5145569\H,0,-0.29630485,1.56346852,-1.08968743\H

 Normal termination of Gaussian 16 at Wed Apr  9 13:57:01 2025.
