 Gaussian 16, Revision C.01,

 ----------------------------------------------------------------------
 #t hf aug-cc-pvdz symm=none int=(grid=ultrafine) guess=(read,tcheck) s
 table=(opt,rrhf)
 ----------------------------------------------------------------------
 -----
 title
 -----
 Symbolic Z-matrix:
 Charge =  0 Multiplicity = 1

 SCF Done:  E(RHF) =  -316.480006139     A.U. after   16 cycles
 Normal termination of Gaussian 16 at Wed Apr  9 15:39:42 2025.
 Gaussian 16:  ES64L-G16RevC.01  3-Jul-2019

 ----------------------------------------------------------------------
 #t hf aug-cc-pvdz iop(5/13=1,5/36=2,99/5=2) pseudo=read geom=check gue
 ss=(read,tcheck) scf=(maxcycle=1)
 ----------------------------------------------------------------------
 -----
 title
 -----
 Structure from the checkpoint file:  "Grambow2020_wb97xd3_007274_reverse_mol1.chk"
 Charge =  0 Multiplicity = 1

                         Standard orientation:
 ---------------------------------------------------------------------
 Center     Atomic      Atomic             Coordinates (Angstroms)
 Number     Number       Type             X           Y           Z
 ---------------------------------------------------------------------
      1          7           0       -2.867858   -0.022733    0.012230
      2          6           0       -1.722964   -0.079394    0.000751
      3          6           0       -0.287611   -0.088356   -0.009660
      4          7           0        0.445708   -1.152476   -0.010287
      5          6           0        1.742095   -0.631623   -0.031614
      6          6           0        1.791465    0.801117   -0.093825
      7          7           0        0.441781    1.066500   -0.008356
      8          1           0        2.591810   -1.286990   -0.163314
      9          1           0        2.081683    0.044502    0.987379
     10          1           0        0.051177    1.992977    0.026911
 ---------------------------------------------------------------------

 SCF Done:  E(RHF) =  -316.569848798     A.U. after    2 cycles

 The electronic state is 1-A.
 Alpha  occ. eigenvalues --  -15.71932 -15.68692 -15.67091 -11.40019 -11.32813
 Alpha  occ. eigenvalues --  -11.32736 -11.29585  -1.37138  -1.23640  -1.18967
 Alpha  occ. eigenvalues --   -1.09048  -0.91893  -0.85554  -0.80964  -0.70228
 Alpha  occ. eigenvalues --   -0.66622  -0.62491  -0.58825  -0.53752  -0.51934
 Alpha  occ. eigenvalues --   -0.50585  -0.46445  -0.42847  -0.40234
 Alpha virt. eigenvalues --    0.02847   0.03482   0.04927   0.06512   0.06767
 Alpha virt. eigenvalues --    0.08662   0.09603   0.10495   0.11082   0.11483
 Alpha virt. eigenvalues --    0.12672   0.13239   0.14255   0.14877   0.15113

 Mulliken charges:
               1
     1  N   -0.049536
     2  C   -0.517035
     3  C    0.945818
     4  N   -0.566338
     5  C    0.696575
     6  C   -0.232558
     7  N   -0.232289
     8  H   -0.182704
     9  H    0.212473
    10  H   -0.074406
 Sum of Mulliken charges =  -0.00000

 Dipole moment (field-independent basis, Debye):
    X=              1.6535    Y=              0.9137    Z=              0.6840  Tot=              2.0091

 Test job not archived.
 1\1\GINC-SE141\SP\RHF\Aug-CC-pVDZ\C4H3N3\OHZDE\09-Apr-2025\0\\#t hf au
 g-cc-pvdz iop(5/13=1,5/36=2,99/5=2) pseudo=read geom=check guess=(read
 ,tcheck) scf=(maxcycle=1)\\title\\0,1\N,0,3.25111665,-0.53574412,-0.06
 671936\C,0,2.11042632,-0.43718559,-0.00983149\C,0,0.68850871,-0.252190
 04,0.05616955\N,0,-0.18032265,-1.20746048,0.10812489\C,0,-1.39310216,-
 0.51614376,0.16820414\C,0,-1.24715799,0.91097161,0.20126212\N,0,0.1212
 5884,0.99036,0.05803669\H,0,-2.31692924,-1.04861791,0.34675365\H,0,-1.
 68054057,0.18298478,-0.85131021\H,0,0.63087209,1.85495153,-0.01231798\

 Normal termination of Gaussian 16 at Wed Apr  9 15:39:45 2025.
