 Gaussian 16, Revision C.01,

 ----------------------------------------------------------------------
 #t hf aug-cc-pvdz symm=none int=(grid=ultrafine) guess=(read,tcheck) s
 table=(opt,rrhf)
 ----------------------------------------------------------------------
 -----
 title
 -----
 Symbolic Z-matrix:
 Charge =  0 Multiplicity = 1

 SCF Done:  E(RHF) =  -308.838077789     A.U. after   16 cycles

 1\1\GINC-SE226\Stability\RHF\Aug-CC-pVDZ\C6H12O1\OHZDE\09-Apr-2025\0\\
 #t hf aug-cc-pvdz symm=none int=(grid=ultrafine) guess=(read,tcheck) s
 table=(opt,rrhf)\\title\\0,1\C,0,1.74434747,0.63021469,-1.53613855\C,0
 ,1.11476364,-0.33109104,0.15341096\O,0,1.11140524,1.26587369,-0.035222
 88\C,0,-0.33517779,1.21286684,-0.05208766\C,0,-0.40494033,-0.25446358,
 0.38972867\C,0,-0.809982,-0.39433166,1.85420282\C,0,-1.25241385,-1.163
 65571,-0.49003886\H,0,2.76874278,0.32701281,-1.37493739\H,0,1.21454314
 ,-0.08763389,-2.14822853\H,0,1.68546718,1.63650397,-1.97496298\H,0,1.6

 Normal termination of Gaussian 16 at Wed Apr  9 14:38:10 2025.
 Gaussian 16:  ES64L-G16RevC.01  3-Jul-2019

 ----------------------------------------------------------------------
 #t hf aug-cc-pvdz iop(5/13=1,5/36=2,99/5=2) pseudo=read geom=check gue
 ss=(read,tcheck) scf=(maxcycle=1)
 ----------------------------------------------------------------------
 -----
 title
 -----
 Structure from the checkpoint file:  "Grambow2020_wb97xd3_006580_forward_mol1.chk"
 Charge =  0 Multiplicity = 1

                         Standard orientation:
 ---------------------------------------------------------------------
 Center     Atomic      Atomic             Coordinates (Angstroms)
 Number     Number       Type             X           Y           Z
 ---------------------------------------------------------------------
      1          6           0        2.222705    0.505174   -0.221068
      2          6           0        0.428072   -0.093136   -0.993324
      3          8           0        1.205220   -0.856218    0.189738
      4          6           0        0.155304   -0.429008    1.090219
      5          6           0       -0.759891    0.082721   -0.029459
      6          6           0       -1.921576   -0.868593   -0.301112
      7          6           0       -1.263639    1.510027    0.137473
      8          1           0        2.739409    0.280903   -1.143034
      9          1           0        1.879057    1.530969   -0.203578
     10          1           0        2.849181    0.288153    0.655905
     11          1           0        0.251827   -0.849383   -1.766067
     12          1           0        0.523529    0.336470    1.780678
     13          1           0       -0.203080   -1.285112    1.665431
     14          1           0       -1.567860   -1.895615   -0.414917
     15          1           0       -2.437384   -0.587028   -1.222682
     16          1           0       -2.654916   -0.848040    0.512083
     17          1           0       -1.721404    1.862728   -0.789618
     18          1           0       -0.449110    2.193729    0.383321
     19          1           0       -2.016847    1.578860    0.928194
 ---------------------------------------------------------------------

 SCF Done:  E(RHF) =  -308.934041567     A.U. after    2 cycles

 The electronic state is 1-A.
 Alpha  occ. eigenvalues --  -20.59578 -11.33531 -11.28965 -11.23130 -11.21682
 Alpha  occ. eigenvalues --  -11.21591 -11.21570  -1.34320  -1.06868  -0.96682
 Alpha  occ. eigenvalues --   -0.92488  -0.90051  -0.87703  -0.70008  -0.67248
 Alpha  occ. eigenvalues --   -0.65861  -0.63539  -0.59966  -0.58555  -0.57319
 Alpha  occ. eigenvalues --   -0.55114  -0.53736  -0.52796  -0.50303  -0.47663
 Alpha  occ. eigenvalues --   -0.44763  -0.42675  -0.26992
 Alpha virt. eigenvalues --    0.03329   0.04211   0.04632   0.04840   0.06168
 Alpha virt. eigenvalues --    0.06316   0.06596   0.06925   0.07448   0.09174
 Alpha virt. eigenvalues --    0.09324   0.09696   0.11217   0.12592   0.13406

 Mulliken charges:
               1
     1  C    0.731804
     2  C    0.485475
     3  O   -0.814936
     4  C    1.229377
     5  C   -1.766330
     6  C    0.845576
     7  C    0.662189
     8  H   -0.078461
     9  H    0.040422
    10  H   -0.148396
    11  H   -0.437987
    12  H   -0.227451
    13  H   -0.265282
    14  H   -0.067531
    15  H   -0.019742
    16  H   -0.026075
    17  H   -0.028927
    18  H   -0.127403
    19  H    0.013679
 Sum of Mulliken charges =  -0.00000

 Dipole moment (field-independent basis, Debye):
    X=              0.4828    Y=              0.9898    Z=              1.3736  Tot=              1.7606

 Test job not archived.
 1\1\GINC-SE226\SP\RHF\Aug-CC-pVDZ\C6H12O1\OHZDE\09-Apr-2025\0\\#t hf a
 ug-cc-pvdz iop(5/13=1,5/36=2,99/5=2) pseudo=read geom=check guess=(rea
 d,tcheck) scf=(maxcycle=1)\\title\\0,1\C,0,1.74434747,0.63021469,-1.53
 613855\C,0,1.11476364,-0.33109104,0.15341096\O,0,1.11140524,1.26587369
 ,-0.03522288\C,0,-0.33517779,1.21286684,-0.05208766\C,0,-0.40494033,-0
 .25446358,0.38972867\C,0,-0.809982,-0.39433166,1.85420282\C,0,-1.25241
 385,-1.16365571,-0.49003886\H,0,2.76874278,0.32701281,-1.37493739\H,0,
 1.21454314,-0.08763389,-2.14822853\H,0,1.68546718,1.63650397,-1.974962

 Normal termination of Gaussian 16 at Wed Apr  9 14:38:18 2025.
