 Gaussian 16, Revision C.01,

 ----------------------------------------------------------------------
 #t hf aug-cc-pvdz symm=none int=(grid=ultrafine) guess=(read,tcheck) s
 table=(opt,rrhf)
 ----------------------------------------------------------------------
 -----
 title
 -----
 Symbolic Z-matrix:
 Charge =  0 Multiplicity = 1

 SCF Done:  E(RHF) =  -308.945425536     A.U. after   14 cycles

 1\1\GINC-SE043\Stability\RHF\Aug-CC-pVDZ\C6H12O1\OHZDE\09-Apr-2025\0\\
 #t hf aug-cc-pvdz symm=none int=(grid=ultrafine) guess=(read,tcheck) s
 table=(opt,rrhf)\\title\\0,1\C,0,1.62121574,1.08781256,0.08206378\C,0,
 0.75568254,-0.1654193,0.09023947\C,0,1.55277842,-1.38263032,-0.3986966
 \C,0,-0.39925431,-0.08050332,-0.88157933\C,0,-1.60539051,-0.79086287,-
 0.38736859\C,0,-1.90394671,0.61447954,0.09969746\O,0,-1.88113065,0.723
 72141,1.48590153\H,0,1.07078618,1.95209181,0.46467969\H,0,2.5080073,0.
 96006449,0.7075574\H,0,1.940997,1.32211831,-0.93541007\H,0,0.43303216,

 Normal termination of Gaussian 16 at Wed Apr  9 16:26:26 2025.
 Gaussian 16:  ES64L-G16RevC.01  3-Jul-2019

 ----------------------------------------------------------------------
 #t hf aug-cc-pvdz iop(5/13=1,5/36=2,99/5=2) pseudo=read geom=check gue
 ss=(read,tcheck) scf=(maxcycle=1)
 ----------------------------------------------------------------------
 -----
 title
 -----
 Structure from the checkpoint file:  "Grambow2020_wb97xd3_008300_forward_mol1.chk"
 Charge =  0 Multiplicity = 1

                         Standard orientation:
 ---------------------------------------------------------------------
 Center     Atomic      Atomic             Coordinates (Angstroms)
 Number     Number       Type             X           Y           Z
 ---------------------------------------------------------------------
      1          6           0        1.540551    1.440980   -0.339161
      2          6           0        0.979647    0.131899    0.200746
      3          6           0        2.102217   -0.889254    0.431193
      4          6           0        0.064761   -0.558841   -0.784843
      5          6           0       -1.039133   -1.289380   -0.113018
      6          6           0       -1.725692    0.033929   -0.393813
      7          8           0       -2.019654    0.747926    0.762824
      8          1           0        0.750825    2.186235   -0.470592
      9          1           0        2.281797    1.864725    0.342716
     10          1           0        2.010487    1.280611   -1.311711
     11          1           0        0.498621    0.319590    1.171633
     12          1           0        2.830377   -0.484378    1.136370
     13          1           0        2.616369   -1.116093   -0.505075
     14          1           0        1.719384   -1.825346    0.842522
     15          1           0       -0.929669    0.565516   -1.077731
     16          1           0       -1.462582   -2.141475   -0.636733
     17          1           0       -0.966036   -1.460166    0.963282
     18          1           0       -2.552337   -0.055839   -1.100585
     19          1           0       -2.174117    1.667216    0.536690
 ---------------------------------------------------------------------

 SCF Done:  E(RHF) =  -309.041327125     A.U. after    2 cycles

 The electronic state is 1-A.
 Alpha  occ. eigenvalues --  -20.60001 -11.32663 -11.24989 -11.23745 -11.23296
 Alpha  occ. eigenvalues --  -11.22362 -11.21836  -1.35889  -1.12109  -1.04314
 Alpha  occ. eigenvalues --   -0.92650  -0.86869  -0.83432  -0.77115  -0.71630
 Alpha  occ. eigenvalues --   -0.66266  -0.62704  -0.60578  -0.58419  -0.57067
 Alpha  occ. eigenvalues --   -0.54928  -0.53616  -0.52109  -0.49095  -0.47894
 Alpha  occ. eigenvalues --   -0.46564  -0.44582  -0.32475
 Alpha virt. eigenvalues --    0.03075   0.04130   0.04307   0.05166   0.05990
 Alpha virt. eigenvalues --    0.06213   0.06871   0.07342   0.07775   0.08631
 Alpha virt. eigenvalues --    0.09248   0.09867   0.12163   0.13269   0.13424

 Mulliken charges:
               1
     1  C    0.628435
     2  C   -1.153786
     3  C    0.793213
     4  C   -0.570933
     5  C    0.743116
     6  C    0.653793
     7  O   -0.570901
     8  H   -0.077687
     9  H   -0.027834
    10  H    0.019367
    11  H   -0.117787
    12  H   -0.051988
    13  H    0.056002
    14  H   -0.069385
    15  H    0.072854
    16  H   -0.212638
    17  H   -0.103071
    18  H   -0.193448
    19  H    0.182676
 Sum of Mulliken charges =  -0.00000

 Dipole moment (field-independent basis, Debye):
    X=             -1.1657    Y=              1.2751    Z=              0.3988  Tot=              1.7731

 Test job not archived.
 1\1\GINC-SE043\SP\RHF\Aug-CC-pVDZ\C6H12O1\OHZDE\09-Apr-2025\0\\#t hf a
 ug-cc-pvdz iop(5/13=1,5/36=2,99/5=2) pseudo=read geom=check guess=(rea
 d,tcheck) scf=(maxcycle=1)\\title\\0,1\C,0,1.62121574,1.08781256,0.082
 06378\C,0,0.75568254,-0.1654193,0.09023947\C,0,1.55277842,-1.38263032,
 -0.3986966\C,0,-0.39925431,-0.08050332,-0.88157933\C,0,-1.60539051,-0.
 79086287,-0.38736859\C,0,-1.90394671,0.61447954,0.09969746\O,0,-1.8811
 3065,0.72372141,1.48590153\H,0,1.07078618,1.95209181,0.46467969\H,0,2.
 5080073,0.96006449,0.7075574\H,0,1.940997,1.32211831,-0.93541007\H,0,0

 Normal termination of Gaussian 16 at Wed Apr  9 16:26:35 2025.
