 Gaussian 16, Revision C.01,

 ----------------------------------------------------------------------
 #t hf aug-cc-pvdz symm=none int=(grid=ultrafine) guess=(read,tcheck) s
 table=(opt,rrhf)
 ----------------------------------------------------------------------
 -----
 title
 -----
 Symbolic Z-matrix:
 Charge =  0 Multiplicity = 1

 SCF Done:  E(RHF) =  -305.751173674     A.U. after   15 cycles
 Normal termination of Gaussian 16 at Wed Apr  9 13:55:58 2025.
 Gaussian 16:  ES64L-G16RevC.01  3-Jul-2019

 ----------------------------------------------------------------------
 #t hf aug-cc-pvdz iop(5/13=1,5/36=2,99/5=2) pseudo=read geom=check gue
 ss=(read,tcheck) scf=(maxcycle=1)
 ----------------------------------------------------------------------
 -----
 title
 -----
 Structure from the checkpoint file:  "Grambow2020_b97d3_006750_reverse_mol1.chk"
 Charge =  0 Multiplicity = 1

                         Standard orientation:
 ---------------------------------------------------------------------
 Center     Atomic      Atomic             Coordinates (Angstroms)
 Number     Number       Type             X           Y           Z
 ---------------------------------------------------------------------
      1          6           0        2.382935    0.119548    0.486927
      2          6           0        1.358879   -0.538405   -0.455420
      3          6           0       -0.037468   -0.001689   -0.223760
      4          8           0       -0.286649    1.240010   -0.260491
      5          6           0       -1.126231   -0.896598   -0.006990
      6          8           0       -2.364995    0.055549    0.344876
      7          1           0        2.353740    1.209926    0.374293
      8          1           0        3.397594   -0.232316    0.257502
      9          1           0        2.164922   -0.122717    1.536183
     10          1           0        1.366521   -1.632856   -0.340806
     11          1           0        1.632959   -0.322018   -1.499896
     12          1           0       -2.275587   -0.531822   -0.629758
     13          1           0       -1.100195   -1.754319    0.660431
     14          1           0       -1.795490    0.924512    0.162430
 ---------------------------------------------------------------------

 SCF Done:  E(RHF) =  -305.845611198     A.U. after    2 cycles

 The electronic state is 1-A.
 Alpha  occ. eigenvalues --  -20.64172 -20.55923 -11.35196 -11.28611 -11.25992
 Alpha  occ. eigenvalues --  -11.24153  -1.38329  -1.31873  -1.06061  -0.97552
 Alpha  occ. eigenvalues --   -0.87149  -0.78827  -0.73283  -0.70666  -0.64462
 Alpha  occ. eigenvalues --   -0.62604  -0.60826  -0.58047  -0.55671  -0.53410
 Alpha  occ. eigenvalues --   -0.51647  -0.49999  -0.45506  -0.36006
 Alpha virt. eigenvalues --    0.03224   0.04255   0.04646   0.04931   0.06502
 Alpha virt. eigenvalues --    0.07139   0.07374   0.07700   0.10830   0.11371
 Alpha virt. eigenvalues --    0.12254   0.13377   0.13956   0.14461   0.15157

 Mulliken charges:
               1
     1  C    0.327732
     2  C    0.135624
     3  C    0.212461
     4  O   -0.817498
     5  C    0.292906
     6  O   -0.692902
     7  H   -0.012818
     8  H   -0.055170
     9  H   -0.055229
    10  H   -0.044327
    11  H    0.068104
    12  H    0.469238
    13  H   -0.220763
    14  H    0.392641
 Sum of Mulliken charges =  -0.00000

 Dipole moment (field-independent basis, Debye):
    X=              1.2066    Y=             -2.3937    Z=             -0.1515  Tot=              2.6849

 Test job not archived.
 1\1\GINC-SE131\SP\RHF\Aug-CC-pVDZ\C4H8O2\OHZDE\09-Apr-2025\0\\#t hf au
 g-cc-pvdz iop(5/13=1,5/36=2,99/5=2) pseudo=read geom=check guess=(read
 ,tcheck) scf=(maxcycle=1)\\title\\0,1\C,0,-1.9735069,0.32743835,-0.474
 79074\C,0,-0.93482362,-0.57039114,0.22137703\C,0,0.42131342,0.09832878
 ,0.29362973\O,0,0.56826691,1.24958095,0.80183997\C,0,1.58572602,-0.582
 87379,-0.16828347\O,0,2.75584425,0.50566676,-0.06420389\H,0,-2.0362674
 2,1.29683108,0.03393397\H,0,-2.96424074,-0.14594453,-0.45657362\H,0,-1
 .69864396,0.50757669,-1.52319982\H,0,-0.85019477,-1.54149938,-0.289314

 Normal termination of Gaussian 16 at Wed Apr  9 13:56:01 2025.
