 Gaussian 16, Revision C.01,

 ----------------------------------------------------------------------
 #t hf aug-cc-pvdz symm=none int=(grid=ultrafine) guess=(read,tcheck) s
 table=(opt,rrhf)
 ----------------------------------------------------------------------
 -----
 title
 -----
 Symbolic Z-matrix:
 Charge =  0 Multiplicity = 1

 SCF Done:  E(RHF) =  -302.697527727     A.U. after   16 cycles
 Normal termination of Gaussian 16 at Wed Apr  9 15:38:10 2025.
 Gaussian 16:  ES64L-G16RevC.01  3-Jul-2019

 ----------------------------------------------------------------------
 #t hf aug-cc-pvdz iop(5/13=1,5/36=2,99/5=2) pseudo=read geom=check gue
 ss=(read,tcheck) scf=(maxcycle=1)
 ----------------------------------------------------------------------
 -----
 title
 -----
 Structure from the checkpoint file:  "Grambow2020_wb97xd3_007232_reverse_mol1.chk"
 Charge =  0 Multiplicity = 1

                         Standard orientation:
 ---------------------------------------------------------------------
 Center     Atomic      Atomic             Coordinates (Angstroms)
 Number     Number       Type             X           Y           Z
 ---------------------------------------------------------------------
      1          6           0       -2.315616   -0.299279    0.246458
      2          7           0       -0.936071   -0.055713   -0.105993
      3          6           0       -0.205490    1.148219    0.207012
      4          7           0        0.949624    1.163685   -0.430544
      5          6           0        1.194990   -0.187189   -0.489139
      6          6           0        1.978815   -0.657916    0.564561
      7          6           0       -0.050018   -0.891125   -0.567567
      8          1           0       -2.981431    0.277951   -0.395788
      9          1           0       -2.542545   -1.358667    0.142488
     10          1           0       -2.469070   -0.006518    1.285021
     11          1           0       -0.798891    2.024581    0.448241
     12          1           0        2.714299    0.007078    0.997746
     13          1           0        0.506173    0.288471    1.475636
     14          1           0        2.108087   -1.720915    0.741741
     15          1           0       -0.247586   -1.944045   -0.707278
 ---------------------------------------------------------------------

 SCF Done:  E(RHF) =  -302.787308098     A.U. after    2 cycles

 The electronic state is 1-A.
 Alpha  occ. eigenvalues --  -15.72042 -15.57120 -11.32888 -11.32268 -11.31182
 Alpha  occ. eigenvalues --  -11.26520 -11.26336  -1.33956  -1.17749  -1.04526
 Alpha  occ. eigenvalues --   -0.99824  -0.90435  -0.80074  -0.78681  -0.72055
 Alpha  occ. eigenvalues --   -0.67996  -0.64064  -0.62468  -0.60303  -0.59013
 Alpha  occ. eigenvalues --   -0.54638  -0.53136  -0.44379  -0.39094  -0.34437
 Alpha  occ. eigenvalues --   -0.27275
 Alpha virt. eigenvalues --    0.02114   0.03360   0.04027   0.04909   0.06248
 Alpha virt. eigenvalues --    0.06768   0.07637   0.08336   0.09111   0.09951
 Alpha virt. eigenvalues --    0.10558   0.11874   0.13077   0.13505   0.13738

 Mulliken charges:
               1
     1  C    0.753342
     2  N   -0.491493
     3  C    0.463753
     4  N   -0.739158
     5  C    0.020009
     6  C    0.737867
     7  C    0.598237
     8  H   -0.073922
     9  H   -0.214106
    10  H   -0.081761
    11  H   -0.293467
    12  H   -0.239022
    13  H    0.162104
    14  H   -0.289780
    15  H   -0.312603
 Sum of Mulliken charges =  -0.00000

 Dipole moment (field-independent basis, Debye):
    X=             -4.7765    Y=             -3.3624    Z=             -0.0246  Tot=              5.8414

 Test job not archived.
 1\1\GINC-SE129\SP\RHF\Aug-CC-pVDZ\C5H8N2\OHZDE\09-Apr-2025\0\\#t hf au
 g-cc-pvdz iop(5/13=1,5/36=2,99/5=2) pseudo=read geom=check guess=(read
 ,tcheck) scf=(maxcycle=1)\\title\\0,1\C,0,-2.07050684,-0.03310404,-0.5
 2573349\N,0,-0.76346961,0.27007832,0.00945256\C,0,-0.22840473,-0.27182
 577,1.23469505\N,0,0.88404019,0.35499576,1.56721124\C,0,1.34461519,0.6
 8076684,0.31411809\C,0,2.23360836,-0.25560287,-0.21422991\C,0,0.229408
 37,0.89160617,-0.55971344\H,0,-2.8452267,0.47938146,0.04536361\H,0,-2.
 12488922,0.27745297,-1.56746633\H,0,-2.23091431,-1.10970726,-0.4703636

 Normal termination of Gaussian 16 at Wed Apr  9 15:38:15 2025.
