 Gaussian 16, Revision C.01,

 ----------------------------------------------------------------------
 #t hf aug-cc-pvdz symm=none int=(grid=ultrafine) guess=(read,tcheck) s
 table=(opt,rrhf)
 ----------------------------------------------------------------------
 -----
 title
 -----
 Symbolic Z-matrix:
 Charge =  0 Multiplicity = 1

 SCF Done:  E(RHF) =  -309.099257096     A.U. after   12 cycles

 1\1\GINC-SE163\Stability\RHF\Aug-CC-pVDZ\C6H12O1\OHZDE\09-Apr-2025\0\\
 #t hf aug-cc-pvdz symm=none int=(grid=ultrafine) guess=(read,tcheck) s
 table=(opt,rrhf)\\title\\0,1\C,0,1.87155366,-0.76120625,-0.58062983\C,
 0,0.64800065,-0.23851536,0.15386424\O,0,0.91267993,-0.18870196,1.55940
 947\C,0,0.16511992,1.13310481,-0.32926801\C,0,-1.24548455,1.23826858,0
 .24288544\C,0,-1.8191267,-0.17938671,0.07113983\C,0,-0.59689887,-1.122
 11284,-0.00022431\H,0,2.72762489,-0.09706272,-0.42973769\H,0,1.6876253
 1,-0.83034753,-1.65454975\H,0,2.14177269,-1.75127901,-0.20945109\H,0,1

 Normal termination of Gaussian 16 at Wed Apr  9 16:36:25 2025.
 Gaussian 16:  ES64L-G16RevC.01  3-Jul-2019

 ----------------------------------------------------------------------
 #t hf aug-cc-pvdz iop(5/13=1,5/36=2,99/5=2) pseudo=read geom=check gue
 ss=(read,tcheck) scf=(maxcycle=1)
 ----------------------------------------------------------------------
 -----
 title
 -----
 Structure from the checkpoint file:  "Grambow2020_wb97xd3_008664_forward_mol2.chk"
 Charge =  0 Multiplicity = 1

                         Standard orientation:
 ---------------------------------------------------------------------
 Center     Atomic      Atomic             Coordinates (Angstroms)
 Number     Number       Type             X           Y           Z
 ---------------------------------------------------------------------
      1          6           0       -1.998736    0.221929   -0.673669
      2          6           0       -0.659144    0.010571    0.012327
      3          8           0       -0.868235   -0.329574    1.386618
      4          6           0        0.225582   -1.049088   -0.652741
      5          6           0        1.606804   -0.785877   -0.060145
      6          6           0        1.696900    0.749387   -0.003967
      7          6           0        0.237339    1.255702    0.027520
      8          1           0       -2.596419   -0.693948   -0.648017
      9          1           0       -1.866206    0.505132   -1.719683
     10          1           0       -2.562678    1.008299   -0.169063
     11          1           0       -1.348393   -1.160041    1.421693
     12          1           0       -0.145689   -2.063427   -0.481307
     13          1           0        0.234812   -0.881843   -1.734861
     14          1           0        1.653805   -1.201677    0.947663
     15          1           0        2.413122   -1.235057   -0.641591
     16          1           0        2.208356    1.130241   -0.890521
     17          1           0        2.269461    1.088067    0.859500
     18          1           0        0.021920    1.874831   -0.845409
     19          1           0        0.011324    1.850277    0.912697
 ---------------------------------------------------------------------

 SCF Done:  E(RHF) =  -309.194237842     A.U. after    2 cycles

 The electronic state is 1-A.
 Alpha  occ. eigenvalues --  -20.56305 -11.28566 -11.22365 -11.22345 -11.22033
 Alpha  occ. eigenvalues --  -11.21915 -11.21815  -1.32012  -1.10369  -0.99847
 Alpha  occ. eigenvalues --   -0.96050  -0.89438  -0.78948  -0.76195  -0.67183
 Alpha  occ. eigenvalues --   -0.65102  -0.64805  -0.59638  -0.58100  -0.56557
 Alpha  occ. eigenvalues --   -0.53686  -0.51066  -0.50040  -0.47876  -0.47162
 Alpha  occ. eigenvalues --   -0.45659  -0.44791  -0.43389
 Alpha virt. eigenvalues --    0.03410   0.04323   0.04598   0.04955   0.06262
 Alpha virt. eigenvalues --    0.06328   0.06700   0.06806   0.07230   0.08907
 Alpha virt. eigenvalues --    0.09226   0.09545   0.12228   0.13955   0.14247

 Mulliken charges:
               1
     1  C    1.033655
     2  C   -1.977553
     3  O   -0.538150
     4  C    0.773045
     5  C    0.442666
     6  C    0.268624
     7  C    0.577743
     8  H   -0.025840
     9  H    0.034158
    10  H    0.032550
    11  H    0.127308
    12  H   -0.090108
    13  H   -0.118824
    14  H   -0.106943
    15  H   -0.103199
    16  H   -0.125850
    17  H   -0.082652
    18  H   -0.073407
    19  H   -0.047222
 Sum of Mulliken charges =  -0.00000

 Dipole moment (field-independent basis, Debye):
    X=             -0.3933    Y=             -0.8122    Z=             -1.4040  Tot=              1.6690

 Test job not archived.
 1\1\GINC-SE163\SP\RHF\Aug-CC-pVDZ\C6H12O1\OHZDE\09-Apr-2025\0\\#t hf a
 ug-cc-pvdz iop(5/13=1,5/36=2,99/5=2) pseudo=read geom=check guess=(rea
 d,tcheck) scf=(maxcycle=1)\\title\\0,1\C,0,1.87155366,-0.76120625,-0.5
 8062983\C,0,0.64800065,-0.23851536,0.15386424\O,0,0.91267993,-0.188701
 96,1.55940947\C,0,0.16511992,1.13310481,-0.32926801\C,0,-1.24548455,1.
 23826858,0.24288544\C,0,-1.8191267,-0.17938671,0.07113983\C,0,-0.59689
 887,-1.12211284,-0.00022431\H,0,2.72762489,-0.09706272,-0.42973769\H,0
 ,1.68762531,-0.83034753,-1.65454975\H,0,2.14177269,-1.75127901,-0.2094

 Normal termination of Gaussian 16 at Wed Apr  9 16:36:33 2025.
