 Gaussian 16, Revision C.01,

 ----------------------------------------------------------------------
 #t hf aug-cc-pvdz symm=none int=(grid=ultrafine) guess=(read,tcheck) s
 table=(opt,rrhf)
 ----------------------------------------------------------------------
 -----
 title
 -----
 Symbolic Z-matrix:
 Charge =  0 Multiplicity = 1

 SCF Done:  E(RHF) =  -332.444402433     A.U. after   16 cycles
 Normal termination of Gaussian 16 at Wed Apr  9 16:50:53 2025.
 Gaussian 16:  ES64L-G16RevC.01  3-Jul-2019

 ----------------------------------------------------------------------
 #t hf aug-cc-pvdz iop(5/13=1,5/36=2,99/5=2) pseudo=read geom=check gue
 ss=(read,tcheck) scf=(maxcycle=1)
 ----------------------------------------------------------------------
 -----
 title
 -----
 Structure from the checkpoint file:  "Grambow2020_wb97xd3_009006_reverse_mol2.chk"
 Charge =  0 Multiplicity = 1

                         Standard orientation:
 ---------------------------------------------------------------------
 Center     Atomic      Atomic             Coordinates (Angstroms)
 Number     Number       Type             X           Y           Z
 ---------------------------------------------------------------------
      1          7           0       -2.797035   -0.016860    0.000241
      2          6           0       -1.652677    0.033601   -0.000052
      3          6           0        0.443161    1.257970   -0.000026
      4          6           0        1.710542    0.686773    0.000047
      5          7           0        1.586254   -0.665168    0.000320
      6          7           0        0.362747   -1.075467   -0.000324
      7          7           0       -0.294550    0.093447   -0.000248
      8          1           0        2.683577    1.148391   -0.000151
      9          1           0        2.308360   -1.370122    0.000418
 ---------------------------------------------------------------------

 SCF Done:  E(RHF) =  -332.538833670     A.U. after    2 cycles

 The electronic state is 1-A.
 Alpha  occ. eigenvalues --  -15.80472 -15.79354 -15.77457 -15.66525 -11.34476
 Alpha  occ. eigenvalues --  -11.31123 -11.26921  -1.48633  -1.28730  -1.20663
 Alpha  occ. eigenvalues --   -1.12548  -0.99910  -0.90130  -0.78521  -0.76974
 Alpha  occ. eigenvalues --   -0.72362  -0.64341  -0.57486  -0.57027  -0.56892
 Alpha  occ. eigenvalues --   -0.49602  -0.44835  -0.39346  -0.38089
 Alpha virt. eigenvalues --    0.01038   0.03827   0.04943   0.07140   0.07636
 Alpha virt. eigenvalues --    0.09657   0.10146   0.10927   0.11417   0.12709
 Alpha virt. eigenvalues --    0.13627   0.14578   0.15220   0.15808   0.16631

 Mulliken charges:
               1
     1  N   -0.103936
     2  C   -0.145469
     3  C   -0.071801
     4  C    0.743244
     5  N   -0.099896
     6  N   -0.193805
     7  N    0.062485
     8  H   -0.201991
     9  H    0.011169
 Sum of Mulliken charges =  -0.00000

 Dipole moment (field-independent basis, Debye):
    X=              6.4160    Y=             -3.1566    Z=             -0.0001  Tot=              7.1504

 Test job not archived.
 1\1\GINC-SE273\SP\RHF\Aug-CC-pVDZ\C3H2N4\OHZDE\09-Apr-2025\0\\#t hf au
 g-cc-pvdz iop(5/13=1,5/36=2,99/5=2) pseudo=read geom=check guess=(read
 ,tcheck) scf=(maxcycle=1)\\title\\0,1\N,0,2.75070504,1.62069428,0.7248
 0606\C,0,1.80912078,1.03009208,0.44783911\C,0,0.661564,-0.74950038,-0.
 73866048\C,0,-0.70072898,-1.0173866,-0.66856461\N,0,-1.28455571,-0.123
 6091,0.17018473\N,0,-0.45958875,0.72803749,0.67954044\N,0,0.69164957,0
 .32909735,0.11927493\H,0,-1.28797343,-1.777639,-1.15544221\H,0,-2.2541
 1951,-0.04239711,0.43804203\\Version=ES64L-G16RevC.01\State=1-A\HF=-33

 Normal termination of Gaussian 16 at Wed Apr  9 16:50:57 2025.
