 Gaussian 16, Revision C.01,

 ----------------------------------------------------------------------
 #t hf aug-cc-pvdz symm=none int=(grid=ultrafine) guess=(read,tcheck) s
 table=(opt,rrhf)
 ----------------------------------------------------------------------
 -----
 title
 -----
 Symbolic Z-matrix:
 Charge =  0 Multiplicity = 1

 SCF Done:  E(RHF) =  -323.932639338     A.U. after   13 cycles
 Normal termination of Gaussian 16 at Wed Apr  9 03:52:17 2025.
 Gaussian 16:  ES64L-G16RevC.01  3-Jul-2019

 ----------------------------------------------------------------------
 #t hf aug-cc-pvdz iop(5/13=1,5/36=2,99/5=2) pseudo=read geom=check gue
 ss=(read,tcheck) scf=(maxcycle=1)
 ----------------------------------------------------------------------
 -----
 title
 -----
 Structure from the checkpoint file:  "Grambow2020_wb97xd3_008324_reverse_mol2.chk"
 Charge =  0 Multiplicity = 1

                         Standard orientation:
 ---------------------------------------------------------------------
 Center     Atomic      Atomic             Coordinates (Angstroms)
 Number     Number       Type             X           Y           Z
 ---------------------------------------------------------------------
      1          7           0        0.842007    1.882677   -0.012169
      2          6           0        0.112229    0.862838    0.066832
      3          6           0        1.964023   -0.857617   -0.149195
      4          6           0        0.582853   -0.537941    0.390028
      5          6           0       -0.568105   -1.389133   -0.145115
      6          6           0       -1.759651   -0.459982    0.036627
      7          8           0       -1.232984    0.861642   -0.126636
      8          1           0        0.291072    2.710256   -0.226214
      9          1           0        1.971492   -0.807253   -1.239901
     10          1           0        2.692570   -0.137591    0.221799
     11          1           0        0.596752   -0.608473    1.484540
     12          1           0        2.274640   -1.859703    0.152274
     13          1           0       -0.411414   -1.602738   -1.205758
     14          1           0       -0.690504   -2.335901    0.380034
     15          1           0       -2.193868   -0.543220    1.037818
     16          1           0       -2.549012   -0.596242   -0.701379
 ---------------------------------------------------------------------

 SCF Done:  E(RHF) =  -324.033111787     A.U. after    2 cycles

 The electronic state is 1-A.
 Alpha  occ. eigenvalues --  -20.60520 -15.59058 -11.34143 -11.30488 -11.25564
 Alpha  occ. eigenvalues --  -11.24963 -11.22919  -1.39279  -1.16595  -1.09272
 Alpha  occ. eigenvalues --   -0.99077  -0.91464  -0.83809  -0.75350  -0.71397
 Alpha  occ. eigenvalues --   -0.69230  -0.65620  -0.61454  -0.58670  -0.57551
 Alpha  occ. eigenvalues --   -0.53878  -0.53430  -0.50500  -0.48484  -0.47842
 Alpha  occ. eigenvalues --   -0.42389  -0.39463
 Alpha virt. eigenvalues --    0.03047   0.04170   0.04358   0.04912   0.06352
 Alpha virt. eigenvalues --    0.06555   0.06682   0.07381   0.08745   0.11480
 Alpha virt. eigenvalues --    0.11542   0.12826   0.13530   0.14397   0.14753

 Mulliken charges:
               1
     1  N   -0.379162
     2  C    0.646371
     3  C    0.656788
     4  C   -0.832922
     5  C    0.277606
     6  C    0.961448
     7  O   -0.698545
     8  H   -0.020022
     9  H    0.005885
    10  H   -0.001091
    11  H   -0.063436
    12  H   -0.026909
    13  H   -0.145994
    14  H   -0.025979
    15  H   -0.176817
    16  H   -0.177223
 Sum of Mulliken charges =  -0.00000

 Dipole moment (field-independent basis, Debye):
    X=             -1.6105    Y=             -3.0448    Z=              0.2710  Tot=              3.4551

 Test job not archived.
 1\1\GINC-SE393\SP\RHF\Aug-CC-pVDZ\C5H9N1O1\OHZDE\09-Apr-2025\0\\#t hf
 aug-cc-pvdz iop(5/13=1,5/36=2,99/5=2) pseudo=read geom=check guess=(re
 ad,tcheck) scf=(maxcycle=1)\\title\\0,1\N,0,2.25317879,0.47540958,0.39
 719175\C,0,1.00692598,0.59454268,0.2897215\C,0,0.51128367,-1.8345938,-
 0.24824737\C,0,0.00281145,-0.53533782,0.34671088\C,0,-1.21550418,0.090
 372,-0.33137843\C,0,-1.05444142,1.5614049,0.02394328\O,0,0.35924049,1.
 77500146,0.10519674\H,0,2.71268415,1.38097088,0.34200244\H,0,0.7294867
 5,-1.71079094,-1.31092885\H,0,1.43136824,-2.14424996,0.24613378\H,0,-0

 Normal termination of Gaussian 16 at Wed Apr  9 03:52:23 2025.
