 Gaussian 16, Revision C.01,

 ----------------------------------------------------------------------
 #t hf aug-cc-pvdz symm=none int=(grid=ultrafine) guess=(read,tcheck) s
 table=(opt,rrhf)
 ----------------------------------------------------------------------
 -----
 title
 -----
 Symbolic Z-matrix:
 Charge =  0 Multiplicity = 1

 SCF Done:  E(RHF) =  -302.911040141     A.U. after   14 cycles
 Normal termination of Gaussian 16 at Wed Apr  9 16:46:05 2025.
 Gaussian 16:  ES64L-G16RevC.01  3-Jul-2019

 ----------------------------------------------------------------------
 #t hf aug-cc-pvdz iop(5/13=1,5/36=2,99/5=2) pseudo=read geom=check gue
 ss=(read,tcheck) scf=(maxcycle=1)
 ----------------------------------------------------------------------
 -----
 title
 -----
 Structure from the checkpoint file:  "Grambow2020_wb97xd3_008877_reverse_mol2.chk"
 Charge =  0 Multiplicity = 1

                         Standard orientation:
 ---------------------------------------------------------------------
 Center     Atomic      Atomic             Coordinates (Angstroms)
 Number     Number       Type             X           Y           Z
 ---------------------------------------------------------------------
      1          6           0        0.305753    1.912449   -0.428347
      2          7           0       -1.517673    0.442631    0.301976
      3          6           0       -1.598888   -0.772819   -0.097324
      4          6           0       -0.328891   -1.457623   -0.267680
      5          6           0        0.613913   -0.552993    0.070276
      6          7           0        1.974782   -0.649329    0.048040
      7          6           0       -0.095964    0.726846    0.440439
      8          1           0       -0.277027    2.788771   -0.147479
      9          1           0        1.367194    2.144786   -0.320147
     10          1           0        0.107375    1.685187   -1.476807
     11          1           0       -2.567572   -1.230334   -0.281675
     12          1           0       -0.186760   -2.476610   -0.596814
     13          1           0        2.382409   -1.563998   -0.026203
     14          1           0        2.502220    0.002325    0.599892
     15          1           0        0.096853    0.961600    1.494931
 ---------------------------------------------------------------------

 SCF Done:  E(RHF) =  -303.001219257     A.U. after    2 cycles

 The electronic state is 1-A.
 Alpha  occ. eigenvalues --  -15.65001 -15.59151 -11.29692 -11.27408 -11.26624
 Alpha  occ. eigenvalues --  -11.22890 -11.21553  -1.23894  -1.18599  -1.01730
 Alpha  occ. eigenvalues --   -0.99907  -0.88451  -0.77074  -0.77028  -0.70556
 Alpha  occ. eigenvalues --   -0.67615  -0.62605  -0.58944  -0.57529  -0.54891
 Alpha  occ. eigenvalues --   -0.52329  -0.48994  -0.48665  -0.42893  -0.40105
 Alpha  occ. eigenvalues --   -0.30271
 Alpha virt. eigenvalues --    0.02554   0.03558   0.04572   0.04887   0.06049
 Alpha virt. eigenvalues --    0.06702   0.07582   0.08523   0.10488   0.11875
 Alpha virt. eigenvalues --    0.12469   0.12763   0.12882   0.13858   0.14568

 Mulliken charges:
               1
     1  C    0.609136
     2  N   -0.561944
     3  C    0.205732
     4  C    1.097081
     5  C   -0.289243
     6  N   -0.316831
     7  C    0.175279
     8  H   -0.015137
     9  H   -0.060748
    10  H   -0.010368
    11  H   -0.256476
    12  H   -0.413154
    13  H   -0.051575
    14  H   -0.057382
    15  H   -0.054371
 Sum of Mulliken charges =  -0.00000

 Dipole moment (field-independent basis, Debye):
    X=              3.4493    Y=             -1.4158    Z=              0.3420  Tot=              3.7442

 Test job not archived.
 1\1\GINC-SE400\SP\RHF\Aug-CC-pVDZ\C5H8N2\OHZDE\09-Apr-2025\0\\#t hf au
 g-cc-pvdz iop(5/13=1,5/36=2,99/5=2) pseudo=read geom=check guess=(read
 ,tcheck) scf=(maxcycle=1)\\title\\0,1\C,0,1.36790294,1.10916324,0.4818
 9349\N,0,1.22691208,-1.0171136,-0.73370809\C,0,0.36731682,-1.91386264,
 -0.4170175\C,0,-0.91973758,-1.41073264,0.03156093\C,0,-0.81878576,-0.0
 6617739,-0.02698864\N,0,-1.71543526,0.90029769,0.32470028\C,0,0.573689
 54,0.26473149,-0.50703597\H,0,2.37658866,1.26847408,0.10290273\H,0,0.8
 9548618,2.07963374,0.64728427\H,0,1.43479754,0.59029048,1.43926866\H,0

 Normal termination of Gaussian 16 at Wed Apr  9 16:46:10 2025.
