 Gaussian 16, Revision C.01,

 ----------------------------------------------------------------------
 #t hf aug-cc-pvdz symm=none int=(grid=ultrafine) guess=(read,tcheck) s
 table=(opt,rrhf)
 ----------------------------------------------------------------------
 -----
 title
 -----
 Symbolic Z-matrix:
 Charge =  0 Multiplicity = 1

 SCF Done:  E(RHF) =  -279.886198909     A.U. after   14 cycles
 Normal termination of Gaussian 16 at Wed Apr  9 03:15:53 2025.
 Gaussian 16:  ES64L-G16RevC.01  3-Jul-2019

 ----------------------------------------------------------------------
 #t hf aug-cc-pvdz iop(5/13=1,5/36=2,99/5=2) pseudo=read geom=check gue
 ss=(read,tcheck) scf=(maxcycle=1)
 ----------------------------------------------------------------------
 -----
 title
 -----
 Structure from the checkpoint file:  "Grambow2020_b97d3_007052_reverse_mol2.chk"
 Charge =  0 Multiplicity = 1

                         Standard orientation:
 ---------------------------------------------------------------------
 Center     Atomic      Atomic             Coordinates (Angstroms)
 Number     Number       Type             X           Y           Z
 ---------------------------------------------------------------------
      1          7           0       -2.102458   -0.490773    0.046903
      2          6           0       -0.866349    0.149220    0.000276
      3          6           0        0.295842   -0.845751    0.039362
      4          6           0        1.617453   -0.221768    0.000569
      5          7           0        2.701337    0.213167   -0.035341
      6          7           0       -0.620940    1.406966    0.010220
      7          1           0       -2.156487   -1.431422   -0.335102
      8          1           0       -2.907503    0.080553   -0.194843
      9          1           0        0.215223   -1.545080   -0.809607
     10          1           0        0.213483   -1.455842    0.953000
     11          1           0       -1.491963    1.956057   -0.007156
 ---------------------------------------------------------------------

 SCF Done:  E(RHF) =  -279.968132889     A.U. after    2 cycles

 The electronic state is 1-A.
 Alpha  occ. eigenvalues --  -15.67225 -15.63935 -15.61870 -11.36418 -11.31409
 Alpha  occ. eigenvalues --  -11.29151  -1.25622  -1.18078  -1.13370  -1.04818
 Alpha  occ. eigenvalues --   -0.82582  -0.73342  -0.72491  -0.66782  -0.65823
 Alpha  occ. eigenvalues --   -0.59550  -0.54081  -0.53415  -0.45280  -0.45052
 Alpha  occ. eigenvalues --   -0.44244  -0.39296
 Alpha virt. eigenvalues --    0.01551   0.03250   0.04385   0.04912   0.07163
 Alpha virt. eigenvalues --    0.09449   0.10324   0.11214   0.12412   0.13165
 Alpha virt. eigenvalues --    0.13798   0.14394   0.14834   0.15248   0.16362

 Mulliken charges:
               1
     1  N   -0.293656
     2  C    0.614505
     3  C    0.177940
     4  C   -0.096229
     5  N   -0.219040
     6  N   -0.384762
     7  H    0.012877
     8  H    0.000280
     9  H    0.078394
    10  H    0.130012
    11  H   -0.020322
 Sum of Mulliken charges =  -0.00000

 Dipole moment (field-independent basis, Debye):
    X=             -6.1409    Y=             -3.5168    Z=             -0.8233  Tot=              7.1244

 Test job not archived.
 1\1\GINC-SE284\SP\RHF\Aug-CC-pVDZ\C3H5N3\OHZDE\09-Apr-2025\0\\#t hf au
 g-cc-pvdz iop(5/13=1,5/36=2,99/5=2) pseudo=read geom=check guess=(read
 ,tcheck) scf=(maxcycle=1)\\title\\0,1\N,0,-1.58460016,-0.22285634,0.46
 521109\C,0,-0.3880658,0.36101356,0.05639198\C,0,0.75863892,-0.65164817
 ,0.01434421\C,0,2.04043556,-0.08506817,-0.40218659\N,0,3.09100137,0.30
 317434,-0.73511856\N,0,-0.14939611,1.59533606,-0.19207211\H,0,-1.71583
 845,-1.21053134,0.26286466\H,0,-2.4240653,0.32773203,0.30677825\H,0,0.
 50190542,-1.47567755,-0.67222146\H,0,0.87319684,-1.10354982,1.01253691

 Normal termination of Gaussian 16 at Wed Apr  9 03:15:57 2025.
