 Gaussian 16, Revision C.01,

 ----------------------------------------------------------------------
 #t hf aug-cc-pvdz symm=none int=(grid=ultrafine) guess=(read,tcheck) s
 table=(opt,rrhf)
 ----------------------------------------------------------------------
 -----
 title
 -----
 Symbolic Z-matrix:
 Charge =  0 Multiplicity = 1

 SCF Done:  E(RHF) =  -318.785477959     A.U. after   15 cycles
 Normal termination of Gaussian 16 at Wed Apr  9 15:29:56 2025.
 Gaussian 16:  ES64L-G16RevC.01  3-Jul-2019

 ----------------------------------------------------------------------
 #t hf aug-cc-pvdz iop(5/13=1,5/36=2,99/5=2) pseudo=read geom=check gue
 ss=(read,tcheck) scf=(maxcycle=1)
 ----------------------------------------------------------------------
 -----
 title
 -----
 Structure from the checkpoint file:  "Grambow2020_wb97xd3_006931_reverse_mol1.chk"
 Charge =  0 Multiplicity = 1

                         Standard orientation:
 ---------------------------------------------------------------------
 Center     Atomic      Atomic             Coordinates (Angstroms)
 Number     Number       Type             X           Y           Z
 ---------------------------------------------------------------------
      1          7           0       -2.377416   -0.423271   -0.207746
      2          6           0       -1.094382   -0.398199    0.118469
      3          6           0        0.095047   -1.056666    0.210843
      4          6           0        1.123084   -0.046491    0.011583
      5          7           0        2.462274   -0.363668   -0.017328
      6          6           0        0.580097    1.192662   -0.127900
      7          7           0       -0.846147    1.047735    0.114583
      8          1           0       -1.972324    0.884101   -0.467015
      9          1           0       -2.861842   -1.293922   -0.349272
     10          1           0        0.246696   -2.122561    0.153155
     11          1           0        3.065570    0.306188   -0.461657
     12          1           0        2.677701   -1.313897   -0.263158
     13          1           0        1.040189    2.164861   -0.155279
     14          1           0       -1.090036    1.401814    1.038686
 ---------------------------------------------------------------------

 SCF Done:  E(RHF) =  -318.879746429     A.U. after    2 cycles

 The electronic state is 1-A.
 Alpha  occ. eigenvalues --  -15.68155 -15.63616 -15.58959 -11.32690 -11.29789
 Alpha  occ. eigenvalues --  -11.23305 -11.20828  -1.28974  -1.19392  -1.12000
 Alpha  occ. eigenvalues --   -1.02724  -0.93201  -0.79413  -0.78476  -0.71114
 Alpha  occ. eigenvalues --   -0.70099  -0.66098  -0.62828  -0.58628  -0.54669
 Alpha  occ. eigenvalues --   -0.54095  -0.50654  -0.45223  -0.43528  -0.34452
 Alpha  occ. eigenvalues --   -0.25857
 Alpha virt. eigenvalues --    0.03135   0.03662   0.04042   0.05386   0.06335
 Alpha virt. eigenvalues --    0.06535   0.08666   0.11543   0.11978   0.12509
 Alpha virt. eigenvalues --    0.12927   0.13737   0.15007   0.15337   0.15446

 Mulliken charges:
               1
     1  N   -0.552550
     2  C    0.091266
     3  C    1.062555
     4  C    0.041297
     5  N   -0.374549
     6  C    0.731316
     7  N   -0.623449
     8  H    0.451165
     9  H   -0.103988
    10  H   -0.428465
    11  H   -0.023140
    12  H   -0.033155
    13  H   -0.331605
    14  H    0.093303
 Sum of Mulliken charges =  -0.00000

 Dipole moment (field-independent basis, Debye):
    X=              1.5255    Y=              0.2376    Z=             -0.3296  Tot=              1.5787

 Test job not archived.
 1\1\GINC-SE100\SP\RHF\Aug-CC-pVDZ\C4H7N3\OHZDE\09-Apr-2025\0\\#t hf au
 g-cc-pvdz iop(5/13=1,5/36=2,99/5=2) pseudo=read geom=check guess=(read
 ,tcheck) scf=(maxcycle=1)\\title\\0,1\N,0,-2.45706604,-0.38670411,-0.1
 3396536\C,0,-1.18255623,-0.29852505,0.21398684\C,0,-0.01974544,-0.9298
 605,0.53977764\C,0,1.04790339,-0.05290363,0.08360735\N,0,2.37540041,-0
 .39897166,0.19698683\C,0,0.55255633,1.10129079,-0.43817555\N,0,-0.8835
 5315,1.0728749,-0.21288677\H,0,-1.99980676,0.77196218,-0.75762246\H,0,
 -2.96812858,-1.24683534,-0.02570876\H,0,0.09568846,-1.96767086,0.80825

 Normal termination of Gaussian 16 at Wed Apr  9 15:30:01 2025.
