 Gaussian 16, Revision C.01,

 ----------------------------------------------------------------------
 #t hf aug-cc-pvdz symm=none int=(grid=ultrafine) guess=(read,tcheck) s
 table=(opt,rrhf)
 ----------------------------------------------------------------------
 -----
 title
 -----
 Symbolic Z-matrix:
 Charge =  0 Multiplicity = 1

 SCF Done:  E(RHF) =  -263.865139064     A.U. after   15 cycles
 Normal termination of Gaussian 16 at Wed Apr  9 14:15:04 2025.
 Gaussian 16:  ES64L-G16RevC.01  3-Jul-2019

 ----------------------------------------------------------------------
 #t hf aug-cc-pvdz iop(5/13=1,5/36=2,99/5=2) pseudo=read geom=check gue
 ss=(read,tcheck) scf=(maxcycle=1)
 ----------------------------------------------------------------------
 -----
 title
 -----
 Structure from the checkpoint file:  "Grambow2020_b97d3_006855_forward_mol2.chk"
 Charge =  0 Multiplicity = 1

                         Standard orientation:
 ---------------------------------------------------------------------
 Center     Atomic      Atomic             Coordinates (Angstroms)
 Number     Number       Type             X           Y           Z
 ---------------------------------------------------------------------
      1          6           0       -2.185300   -0.024537    0.003263
      2          6           0       -0.681528    0.001894   -0.005250
      3          6           0        0.174729   -1.090997   -0.004187
      4          7           0        1.443100   -0.590655    0.002065
      5          7           0        1.488913    0.757827    0.002615
      6          6           0        0.197476    1.119097   -0.003092
      7          1           0       -2.609569    0.536256   -0.842564
      8          1           0       -2.560933   -1.055324   -0.064125
      9          1           0       -2.595727    0.413672    0.925682
     10          1           0       -0.030376   -2.156733   -0.002561
     11          1           0        2.310886   -1.111921    0.009026
     12          1           0       -0.070626    2.171103   -0.002625
 ---------------------------------------------------------------------

 SCF Done:  E(RHF) =  -263.942254777     A.U. after    2 cycles

 The electronic state is 1-A.
 Alpha  occ. eigenvalues --  -15.70100 -15.65416 -11.28359 -11.26100 -11.24190
 Alpha  occ. eigenvalues --  -11.23820  -1.32688  -1.06935  -1.05910  -0.94304
 Alpha  occ. eigenvalues --   -0.80994  -0.77494  -0.72530  -0.60985  -0.60661
 Alpha  occ. eigenvalues --   -0.58039  -0.56076  -0.56041  -0.52838  -0.44875
 Alpha  occ. eigenvalues --   -0.35434  -0.33287
 Alpha virt. eigenvalues --    0.02979   0.03666   0.04675   0.05883   0.06015
 Alpha virt. eigenvalues --    0.07457   0.10288   0.10515   0.11741   0.12281
 Alpha virt. eigenvalues --    0.13414   0.14913   0.15132   0.16372   0.16617

 Mulliken charges:
               1
     1  C    0.175802
     2  C   -0.408876
     3  C    0.949297
     4  N   -0.258962
     5  N   -0.628312
     6  C    0.853774
     7  H    0.052050
     8  H   -0.072063
     9  H    0.070575
    10  H   -0.373974
    11  H   -0.022385
    12  H   -0.336925
 Sum of Mulliken charges =  -0.00000

 Dipole moment (field-independent basis, Debye):
    X=             -0.9334    Y=             -2.2683    Z=              0.0191  Tot=              2.4529

 Test job not archived.
 1\1\GINC-SE043\SP\RHF\Aug-CC-pVDZ\C4H6N2\OHZDE\09-Apr-2025\0\\#t hf au
 g-cc-pvdz iop(5/13=1,5/36=2,99/5=2) pseudo=read geom=check guess=(read
 ,tcheck) scf=(maxcycle=1)\\title\\0,1\C,0,-1.73066758,-0.31579454,0.04
 388286\C,0,-0.26721304,0.03040395,0.02045051\C,0,0.7890188,-0.81902952
 ,-0.2802604\N,0,1.9283136,-0.07954423,-0.16062257\N,0,1.70228984,1.201
 97452,0.19592456\C,0,0.36744938,1.27015981,0.30506227\H,0,-2.31711737,
 0.33924282,-0.61711509\H,0,-1.89540397,-1.35056117,-0.2882063\H,0,-2.1
 5508285,-0.22522384,1.05531906\H,0,0.80276169,-1.86820856,-0.55756632\

 Normal termination of Gaussian 16 at Wed Apr  9 14:15:09 2025.
