 Gaussian 16, Revision C.01,

 ----------------------------------------------------------------------
 #t hf aug-cc-pvdz symm=none int=(grid=ultrafine) guess=(read,tcheck) s
 table=(opt,rrhf)
 ----------------------------------------------------------------------
 -----
 title
 -----
 Symbolic Z-matrix:
 Charge =  0 Multiplicity = 1

 SCF Done:  E(RHF) =  -302.170146201     A.U. after   17 cycles
 Normal termination of Gaussian 16 at Wed Apr  9 13:50:39 2025.
 Gaussian 16:  ES64L-G16RevC.01  3-Jul-2019

 ----------------------------------------------------------------------
 #t hf aug-cc-pvdz iop(5/13=1,5/36=2,99/5=2) pseudo=read geom=check gue
 ss=(read,tcheck) scf=(maxcycle=1)
 ----------------------------------------------------------------------
 -----
 title
 -----
 Structure from the checkpoint file:  "Grambow2020_b97d3_006708_reverse_mol1.chk"
 Charge =  0 Multiplicity = 1

                         Standard orientation:
 ---------------------------------------------------------------------
 Center     Atomic      Atomic             Coordinates (Angstroms)
 Number     Number       Type             X           Y           Z
 ---------------------------------------------------------------------
      1          8           0       -0.233025   -1.481542    0.071029
      2          6           0       -1.205873   -0.699570   -0.143801
      3          6           0       -0.940220    0.671441   -0.080151
      4          6           0       -0.770262    1.942033    0.041038
      5          6           0        0.974579    0.045114    0.395709
      6          8           0        1.856644    0.148405   -0.372502
      7          1           0       -2.205854   -1.111571   -0.346104
      8          1           0        0.867558    0.022555    1.481117
 ---------------------------------------------------------------------

 SCF Done:  E(RHF) =  -302.260131966     A.U. after    2 cycles

 The electronic state is 1-A.
 Alpha  occ. eigenvalues --  -20.66169 -20.63201 -11.48216 -11.41750 -11.30861
 Alpha  occ. eigenvalues --  -11.24942  -1.45864  -1.39887  -1.06931  -0.93554
 Alpha  occ. eigenvalues --   -0.89890  -0.78618  -0.75115  -0.71304  -0.64960
 Alpha  occ. eigenvalues --   -0.63986  -0.60752  -0.51106  -0.46080  -0.41383
 Alpha  occ. eigenvalues --   -0.40692
 Alpha virt. eigenvalues --    0.02025   0.02699   0.02894   0.05033   0.07089
 Alpha virt. eigenvalues --    0.08058   0.09483   0.10040   0.10924   0.11506
 Alpha virt. eigenvalues --    0.13176   0.14324   0.14684   0.14791   0.15558

 Mulliken charges:
               1
     1  O   -0.573951
     2  C    0.675680
     3  C   -0.256175
     4  C   -0.197245
     5  C    0.805756
     6  O   -0.375561
     7  H   -0.112215
     8  H    0.033710
 Sum of Mulliken charges =  -0.00000

 Dipole moment (field-independent basis, Debye):
    X=             -1.7799    Y=             -1.9360    Z=              1.8979  Tot=              3.2431

 Test job not archived.
 1\1\GINC-SE054\SP\RHF\Aug-CC-pVDZ\C4H2O2\OHZDE\09-Apr-2025\0\\#t hf au
 g-cc-pvdz iop(5/13=1,5/36=2,99/5=2) pseudo=read geom=check guess=(read
 ,tcheck) scf=(maxcycle=1)\\title\\0,1\O,0,-0.90236258,0.55397821,0.896
 96126\C,0,-1.22516979,-0.20873754,-0.06122718\C,0,-0.18831663,-0.67287
 143,-0.87597164\C,0,0.71580397,-1.06790051,-1.70331491\C,0,0.99684063,
 0.48459142,0.36534501\O,0,1.71252976,-0.00793979,1.15531717\H,0,-2.283
 43358,-0.4573799,-0.23119263\H,0,0.96908523,1.41117655,-0.20975908\\Ve
 rsion=ES64L-G16RevC.01\State=1-A\HF=-302.260132\RMSD=5.163e-03\Dipole=

 Normal termination of Gaussian 16 at Wed Apr  9 13:50:42 2025.
