 Gaussian 16, Revision C.01,

 ----------------------------------------------------------------------
 #t hf aug-cc-pvdz symm=none int=(grid=ultrafine) guess=(read,tcheck) s
 table=(opt,rrhf)
 ----------------------------------------------------------------------
 -----
 title
 -----
 Symbolic Z-matrix:
 Charge =  0 Multiplicity = 1

 SCF Done:  E(RHF) =  -234.062787541     A.U. after   14 cycles
 Normal termination of Gaussian 16 at Wed Apr  9 14:13:29 2025.
 Gaussian 16:  ES64L-G16RevC.01  3-Jul-2019

 ----------------------------------------------------------------------
 #t hf aug-cc-pvdz iop(5/13=1,5/36=2,99/5=2) pseudo=read geom=check gue
 ss=(read,tcheck) scf=(maxcycle=1)
 ----------------------------------------------------------------------
 -----
 title
 -----
 Structure from the checkpoint file:  "Grambow2020_b97d3_006826_reverse_mol1.chk"
 Charge =  0 Multiplicity = 1

                         Standard orientation:
 ---------------------------------------------------------------------
 Center     Atomic      Atomic             Coordinates (Angstroms)
 Number     Number       Type             X           Y           Z
 ---------------------------------------------------------------------
      1          6           0       -0.817569    1.452558   -0.229369
      2          6           0       -0.427769   -0.014017    0.054683
      3          6           0       -1.674501   -0.913666   -0.081727
      4          6           0        0.741855   -0.459964   -0.860480
      5          6           0        1.977547   -0.009676   -0.064780
      6          6           0        0.236409   -0.276894    1.419895
      7          1           0       -1.563974    1.799445    0.500754
      8          1           0        0.052687    2.120934   -0.161993
      9          1           0       -1.254221    1.564431   -1.234657
     10          1           0       -2.466083   -0.597022    0.614020
     11          1           0       -1.425532   -1.959534    0.136954
     12          1           0       -2.080664   -0.846379   -1.102515
     13          1           0        0.743229   -1.556527   -0.927886
     14          1           0        0.688377   -0.050417   -1.878888
     15          1           0        2.130295    1.073745   -0.049722
     16          1           0        2.918425   -0.528736   -0.291519
     17          1           0        0.323183    0.704364    1.949414
     18          1           0        1.718443   -0.394361    1.016701
 ---------------------------------------------------------------------

 SCF Done:  E(RHF) =  -234.132864820     A.U. after    2 cycles

 The electronic state is 1-A.
 Alpha  occ. eigenvalues --  -11.26533 -11.25590 -11.24869 -11.24160 -11.22796
 Alpha  occ. eigenvalues --  -11.22462  -1.11481  -0.99816  -0.92682  -0.88176
 Alpha  occ. eigenvalues --   -0.85853  -0.70324  -0.64068  -0.62387  -0.60004
 Alpha  occ. eigenvalues --   -0.57791  -0.55245  -0.54288  -0.51476  -0.50708
 Alpha  occ. eigenvalues --   -0.48460  -0.45988  -0.43833  -0.33950
 Alpha virt. eigenvalues --    0.03405   0.04078   0.04541   0.04960   0.06370
 Alpha virt. eigenvalues --    0.06613   0.06743   0.07004   0.07531   0.09052
 Alpha virt. eigenvalues --    0.09312   0.09407   0.10032   0.12765   0.13588

 Mulliken charges:
               1
     1  C    0.704387
     2  C   -2.372659
     3  C    1.068669
     4  C    0.728062
     5  C    0.396687
     6  C   -0.052659
     7  H   -0.022529
     8  H   -0.065286
     9  H   -0.018488
    10  H   -0.014034
    11  H   -0.042897
    12  H    0.047401
    13  H   -0.138638
    14  H   -0.098885
    15  H   -0.143451
    16  H   -0.076285
    17  H   -0.055592
    18  H    0.156196
 Sum of Mulliken charges =  -0.00000

 Dipole moment (field-independent basis, Debye):
    X=              0.3837    Y=              1.2856    Z=             -1.5346  Tot=              2.0384

 Test job not archived.
 1\1\GINC-SE138\SP\RHF\Aug-CC-pVDZ\C6H12\OHZDE\09-Apr-2025\0\\#t hf aug
 -cc-pvdz iop(5/13=1,5/36=2,99/5=2) pseudo=read geom=check guess=(read,
 tcheck) scf=(maxcycle=1)\\title\\0,1\C,0,-1.08737925,-1.08191794,0.491
 29049\C,0,-0.37281467,0.09837657,-0.20136723\C,0,-1.4090331,1.17931074
 ,-0.57572876\C,0,0.77549625,0.64421399,0.68624539\C,0,1.95619504,-0.25
 944561,0.29614053\C,0,0.45427094,-0.26098253,-1.45069922\H,0,-1.819907
 64,-1.54002973,-0.18993306\H,0,-0.37513766,-1.86352024,0.79199049\H,0,
 -1.62817319,-0.75092059,1.39227277\H,0,-2.18230834,0.76879365,-1.24239

 Normal termination of Gaussian 16 at Wed Apr  9 14:13:35 2025.
