 Gaussian 16, Revision C.01,

 ----------------------------------------------------------------------
 #t hf aug-cc-pvdz symm=none int=(grid=ultrafine) guess=(read,tcheck) s
 table=(opt,rrhf)
 ----------------------------------------------------------------------
 -----
 title
 -----
 Symbolic Z-matrix:
 Charge =  0 Multiplicity = 1

 SCF Done:  E(RHF) =  -245.675883684     A.U. after   15 cycles
 Normal termination of Gaussian 16 at Wed Apr  9 14:20:01 2025.
 Gaussian 16:  ES64L-G16RevC.01  3-Jul-2019

 ----------------------------------------------------------------------
 #t hf aug-cc-pvdz iop(5/13=1,5/36=2,99/5=2) pseudo=read geom=check gue
 ss=(read,tcheck) scf=(maxcycle=1)
 ----------------------------------------------------------------------
 -----
 title
 -----
 Structure from the checkpoint file:  "Grambow2020_b97d3_007200_forward_mol1.chk"
 Charge =  0 Multiplicity = 1

                         Standard orientation:
 ---------------------------------------------------------------------
 Center     Atomic      Atomic             Coordinates (Angstroms)
 Number     Number       Type             X           Y           Z
 ---------------------------------------------------------------------
      1          8           0       -1.943392   -0.330445    0.230944
      2          6           0       -1.097727    0.537944   -0.019164
      3          6           0        0.131675    0.138173   -0.713174
      4          6           0        1.666887    0.360856    0.323185
      5          7           0        0.968697   -0.873894   -0.153699
      6          1           0       -1.318692    1.629626    0.042307
      7          1           0        1.199570    1.178453   -0.397867
      8          1           0        2.719112    0.385663    0.019497
      9          1           0        1.465139    0.644677    1.357973
     10          1           0        0.496114   -1.299440    0.661352
 ---------------------------------------------------------------------

 SCF Done:  E(RHF) =  -245.747340596     A.U. after    2 cycles

 The electronic state is 1-A.
 Alpha  occ. eigenvalues --  -20.58102 -15.66704 -11.35849 -11.33681 -11.32212
 Alpha  occ. eigenvalues --   -1.35238  -1.25521  -0.95220  -0.94400  -0.78888
 Alpha  occ. eigenvalues --   -0.72506  -0.67015  -0.64723  -0.58997  -0.57309
 Alpha  occ. eigenvalues --   -0.55245  -0.48083  -0.46135  -0.34683
 Alpha virt. eigenvalues --    0.02321   0.03945   0.04229   0.05739   0.07265
 Alpha virt. eigenvalues --    0.07550   0.09236   0.10392   0.11839   0.12039
 Alpha virt. eigenvalues --    0.14059   0.14976   0.15173   0.15777   0.16489

 Mulliken charges:
               1
     1  O   -0.541303
     2  C    0.756172
     3  C   -0.251601
     4  C    0.646975
     5  N   -0.567874
     6  H   -0.086888
     7  H    0.158619
     8  H   -0.151028
     9  H   -0.097823
    10  H    0.134751
 Sum of Mulliken charges =  -0.00000

 Dipole moment (field-independent basis, Debye):
    X=              3.3867    Y=              2.8942    Z=              2.2693  Tot=              4.9996

 Test job not archived.
 1\1\GINC-SE015\SP\RHF\Aug-CC-pVDZ\C3H5N1O1\OHZDE\09-Apr-2025\0\\#t hf
 aug-cc-pvdz iop(5/13=1,5/36=2,99/5=2) pseudo=read geom=check guess=(re
 ad,tcheck) scf=(maxcycle=1)\\title\\0,1\O,0,1.75814922,0.15473515,1.65
 42848\C,0,1.40847865,-0.29505304,0.55554652\C,0,0.60019456,0.55679026,
 -0.32418923\C,0,-1.11423151,-0.11435691,-0.62552617\N,0,-0.64340042,1.
 0826444,0.13932719\H,0,1.86406173,-1.20857552,0.10577623\H,0,-0.156482
 39,-0.35480182,-1.28254042\H,0,-1.8430046,0.14876906,-1.39991203\H,0,-
 1.35883019,-0.99092562,-0.02233261\H,0,-0.75217703,0.87232304,1.145639

 Normal termination of Gaussian 16 at Wed Apr  9 14:20:03 2025.
