 Gaussian 16, Revision C.01,

 ----------------------------------------------------------------------
 #t hf aug-cc-pvdz symm=none int=(grid=ultrafine) guess=(read,tcheck) s
 table=(opt,rrhf)
 ----------------------------------------------------------------------
 -----
 title
 -----
 Symbolic Z-matrix:
 Charge =  0 Multiplicity = 1

 SCF Done:  E(RHF) =  -227.672751589     A.U. after   15 cycles
 Normal termination of Gaussian 16 at Wed Apr  9 14:18:57 2025.
 Gaussian 16:  ES64L-G16RevC.01  3-Jul-2019

 ----------------------------------------------------------------------
 #t hf aug-cc-pvdz iop(5/13=1,5/36=2,99/5=2) pseudo=read geom=check gue
 ss=(read,tcheck) scf=(maxcycle=1)
 ----------------------------------------------------------------------
 -----
 title
 -----
 Structure from the checkpoint file:  "Grambow2020_b97d3_007158_forward_mol1.chk"
 Charge =  0 Multiplicity = 1

                         Standard orientation:
 ---------------------------------------------------------------------
 Center     Atomic      Atomic             Coordinates (Angstroms)
 Number     Number       Type             X           Y           Z
 ---------------------------------------------------------------------
      1          6           0       -1.484382   -0.474918    0.072460
      2          8           0       -0.730183    0.696192   -0.196982
      3          6           0        1.108624    0.484118    0.121804
      4          8           0        1.607882   -0.553408   -0.074510
      5          1           0       -0.842256   -1.326320    0.369763
      6          1           0       -2.029582   -0.774736   -0.837289
      7          1           0       -2.221219   -0.294924    0.873697
      8          1           0        0.326010    1.198504    0.600180
 ---------------------------------------------------------------------

 SCF Done:  E(RHF) =  -227.746376404     A.U. after    2 cycles

 The electronic state is 1-A.
 Alpha  occ. eigenvalues --  -20.68909 -20.54894 -11.44715 -11.27428  -1.47491
 Alpha  occ. eigenvalues --   -1.26814  -0.93096  -0.84124  -0.76243  -0.68517
 Alpha  occ. eigenvalues --   -0.65315  -0.60192  -0.58652  -0.54423  -0.43928
 Alpha  occ. eigenvalues --   -0.41156
 Alpha virt. eigenvalues --    0.03702   0.04585   0.05130   0.06490   0.06751
 Alpha virt. eigenvalues --    0.09160   0.10010   0.11977   0.14386   0.14667
 Alpha virt. eigenvalues --    0.15744   0.16386   0.18463   0.19160   0.20900

 Mulliken charges:
               1
     1  C    0.724564
     2  O   -0.897060
     3  C    0.386407
     4  O   -0.205922
     5  H   -0.163537
     6  H   -0.155338
     7  H   -0.111418
     8  H    0.422304
 Sum of Mulliken charges =  -0.00000

 Dipole moment (field-independent basis, Debye):
    X=              0.9737    Y=              0.3656    Z=              1.4521  Tot=              1.7862

 Test job not archived.
 1\1\GINC-SE083\SP\RHF\Aug-CC-pVDZ\C2H4O2\OHZDE\09-Apr-2025\0\\#t hf au
 g-cc-pvdz iop(5/13=1,5/36=2,99/5=2) pseudo=read geom=check guess=(read
 ,tcheck) scf=(maxcycle=1)\\title\\0,1\C,0,-0.98494242,-0.22695248,0.06
 040523\O,0,0.2738572,-0.67825078,0.53439532\C,0,1.70786843,0.39441338,
 -0.03201016\O,0,1.54580634,1.54345415,-0.16504653\H,0,-0.90153494,0.71
 517917,-0.51494734\H,0,-1.64892569,-0.03201692,0.91825403\H,0,-1.46206
 024,-0.98799653,-0.5802799\H,0,1.46993232,-0.72783099,-0.22077064\\Ver
 sion=ES64L-G16RevC.01\State=1-A\HF=-227.7463764\RMSD=2.380e-03\Dipole=

 Normal termination of Gaussian 16 at Wed Apr  9 14:18:59 2025.
