 Gaussian 16, Revision C.01,

 ----------------------------------------------------------------------
 #t hf aug-cc-pvdz symm=none int=(grid=ultrafine) guess=(read,tcheck) s
 table=(opt,rrhf)
 ----------------------------------------------------------------------
 -----
 title
 -----
 Symbolic Z-matrix:
 Charge =  0 Multiplicity = 1

 SCF Done:  E(RHF) =  -325.042815986     A.U. after   14 cycles
 Normal termination of Gaussian 16 at Wed Apr  9 16:26:20 2025.
 Gaussian 16:  ES64L-G16RevC.01  3-Jul-2019

 ----------------------------------------------------------------------
 #t hf aug-cc-pvdz iop(5/13=1,5/36=2,99/5=2) pseudo=read geom=check gue
 ss=(read,tcheck) scf=(maxcycle=1)
 ----------------------------------------------------------------------
 -----
 title
 -----
 Structure from the checkpoint file:  "Grambow2020_wb97xd3_008230_reverse_mol2.chk"
 Charge =  0 Multiplicity = 1

                         Standard orientation:
 ---------------------------------------------------------------------
 Center     Atomic      Atomic             Coordinates (Angstroms)
 Number     Number       Type             X           Y           Z
 ---------------------------------------------------------------------
      1          6           0        1.992505    0.113667   -1.133753
      2          6           0        1.971040   -0.147578    0.340182
      3          6           0        0.933336    0.051766    1.154824
      4          7           0       -0.321662    0.558192    0.790667
      5          6           0       -1.118575   -0.150392    0.106691
      6          8           0       -0.874153   -1.405839   -0.318127
      7          6           0       -2.464249    0.336685   -0.310273
      8          1           0        2.830628    0.763705   -1.394442
      9          1           0        2.121150   -0.811226   -1.703585
     10          1           0        1.074499    0.594524   -1.471730
     11          1           0        2.896478   -0.483707    0.796366
     12          1           0       -0.095640    3.538138   -0.769119
     13          1           0        0.018462   -1.650285   -0.032332
     14          1           0        1.053154   -0.113718    2.222008
     15          1           0       -0.140345    2.935221   -0.329660
     16          1           0       -2.550261    0.303568   -1.397487
     17          1           0       -2.610676    1.353183    0.043484
     18          1           0       -3.236933   -0.314921    0.100821
 ---------------------------------------------------------------------

 SCF Done:  E(RHF) =  -325.149325834     A.U. after    2 cycles

 The electronic state is 1-A.
 Alpha  occ. eigenvalues --  -20.61566 -15.61123 -11.36159 -11.27253 -11.24393
 Alpha  occ. eigenvalues --  -11.24031 -11.23382  -1.39616  -1.20020  -1.06442
 Alpha  occ. eigenvalues --   -1.00457  -0.93076  -0.82709  -0.79010  -0.68279
 Alpha  occ. eigenvalues --   -0.67440  -0.65739  -0.62740  -0.58140  -0.57279
 Alpha  occ. eigenvalues --   -0.57078  -0.56458  -0.55712  -0.53559  -0.51691
 Alpha  occ. eigenvalues --   -0.46240  -0.40610  -0.33818
 Alpha virt. eigenvalues --    0.03361   0.04008   0.04343   0.05135   0.06112
 Alpha virt. eigenvalues --    0.06449   0.06967   0.07268   0.08591   0.09136
 Alpha virt. eigenvalues --    0.10503   0.11436   0.13116   0.13939   0.14172

 Mulliken charges:
               1
     1  C    0.324373
     2  C   -0.027356
     3  C    0.867154
     4  N   -0.386357
     5  C   -0.098059
     6  O   -0.505418
     7  C    0.511415
     8  H   -0.020404
     9  H    0.023076
    10  H   -0.163455
    11  H   -0.396173
    12  H   -0.044754
    13  H    0.210403
    14  H   -0.343287
    15  H    0.063506
    16  H    0.016690
    17  H   -0.048767
    18  H    0.017413
 Sum of Mulliken charges =  -0.00000

 Dipole moment (field-independent basis, Debye):
    X=              0.3270    Y=             -0.9294    Z=             -0.4225  Tot=              1.0720

 Test job not archived.
 1\1\GINC-SE105\SP\RHF\Aug-CC-pVDZ\C5H11N1O1\OHZDE\09-Apr-2025\0\\#t hf
  aug-cc-pvdz iop(5/13=1,5/36=2,99/5=2) pseudo=read geom=check guess=(r
 ead,tcheck) scf=(maxcycle=1)\\title\\0,1\C,0,-1.72494925,0.71687653,-0
 .93408137\C,0,-1.54467968,1.2623701,0.44835632\C,0,-0.63712055,0.85528
 727,1.33764148\N,0,0.30323875,-0.16752731,1.15413459\C,0,1.28661351,0.
 00595834,0.37447956\O,0,1.53771242,1.13205705,-0.32209201\C,0,2.315813
 15,-1.04648271,0.13984107\H,0,-2.76044719,0.40662024,-1.09042552\H,0,-
 1.50282598,1.47056004,-1.6952041\H,0,-1.08322874,-0.14560104,-1.114401

 Normal termination of Gaussian 16 at Wed Apr  9 16:26:27 2025.
