 Gaussian 16, Revision C.01,

 ----------------------------------------------------------------------
 #t hf aug-cc-pvdz symm=none int=(grid=ultrafine) guess=(read,tcheck) s
 table=(opt,rrhf)
 ----------------------------------------------------------------------
 -----
 title
 -----
 Symbolic Z-matrix:
 Charge =  0 Multiplicity = 1

 SCF Done:  E(RHF) =  -279.867044994     A.U. after   15 cycles
 Normal termination of Gaussian 16 at Wed Apr  9 03:15:50 2025.
 Gaussian 16:  ES64L-G16RevC.01  3-Jul-2019

 ----------------------------------------------------------------------
 #t hf aug-cc-pvdz iop(5/13=1,5/36=2,99/5=2) pseudo=read geom=check gue
 ss=(read,tcheck) scf=(maxcycle=1)
 ----------------------------------------------------------------------
 -----
 title
 -----
 Structure from the checkpoint file:  "Grambow2020_b97d3_007048_forward_mol2.chk"
 Charge =  0 Multiplicity = 1

                         Standard orientation:
 ---------------------------------------------------------------------
 Center     Atomic      Atomic             Coordinates (Angstroms)
 Number     Number       Type             X           Y           Z
 ---------------------------------------------------------------------
      1          7           0       -2.066216   -0.011117   -0.088205
      2          6           0       -0.667678    0.082897   -0.004984
      3          6           0        0.206194    1.166007    0.008985
      4          6           0        1.498610    0.578965    0.008257
      5          7           0        1.453226   -0.757397    0.004167
      6          7           0        0.119123   -1.031306   -0.007936
      7          1           0       -2.495064    0.911199   -0.043155
      8          1           0       -2.470417   -0.591244    0.648751
      9          1           0       -0.067469    2.215743    0.034028
     10          1           0        2.457183    1.087299    0.025420
     11          1           0       -0.189923   -1.991469   -0.094772
 ---------------------------------------------------------------------

 SCF Done:  E(RHF) =  -279.948082403     A.U. after    2 cycles

 The electronic state is 1-A.
 Alpha  occ. eigenvalues --  -15.69265 -15.65614 -15.64343 -11.33037 -11.26582
 Alpha  occ. eigenvalues --  -11.22519  -1.32557  -1.19205  -1.05973  -1.01278
 Alpha  occ. eigenvalues --   -0.80994  -0.80146  -0.73428  -0.67540  -0.61636
 Alpha  occ. eigenvalues --   -0.60427  -0.59287  -0.56701  -0.47963  -0.44387
 Alpha  occ. eigenvalues --   -0.36024  -0.31431
 Alpha virt. eigenvalues --    0.02478   0.03542   0.04533   0.05986   0.06751
 Alpha virt. eigenvalues --    0.10407   0.11887   0.12399   0.13190   0.13802
 Alpha virt. eigenvalues --    0.13838   0.14612   0.15482   0.16159   0.17046

 Mulliken charges:
               1
     1  N   -0.310711
     2  C    0.249766
     3  C    0.976575
     4  C    0.360108
     5  N   -0.571317
     6  N   -0.154803
     7  H    0.063110
     8  H    0.008707
     9  H   -0.353985
    10  H   -0.215871
    11  H   -0.051577
 Sum of Mulliken charges =   0.00000

 Dipole moment (field-independent basis, Debye):
    X=             -3.2492    Y=              0.6188    Z=              1.0218  Tot=              3.4619

 Test job not archived.
 1\1\GINC-SE058\SP\RHF\Aug-CC-pVDZ\C3H5N3\OHZDE\09-Apr-2025\0\\#t hf au
 g-cc-pvdz iop(5/13=1,5/36=2,99/5=2) pseudo=read geom=check guess=(read
 ,tcheck) scf=(maxcycle=1)\\title\\0,1\N,0,-1.86483048,-0.02826174,0.20
 159222\C,0,-0.46815846,0.02111228,0.06541959\C,0,0.51558772,-0.9633749
 ,0.06710468\C,0,1.73691053,-0.24444993,-0.01337188\N,0,1.54888333,1.07
 814246,-0.07110608\N,0,0.19442105,1.21051715,-0.01713686\H,0,-2.193803
 09,-0.99164477,0.21824691\H,0,-2.35500821,0.46722273,-0.54489966\H,0,0
 .3551685,-2.03594683,0.10340752\H,0,2.74316253,-0.64938136,-0.0457541\

 Normal termination of Gaussian 16 at Wed Apr  9 03:15:54 2025.
