 Gaussian 16, Revision C.01,

 ----------------------------------------------------------------------
 #t hf aug-cc-pvdz symm=none int=(grid=ultrafine) guess=(read,tcheck) s
 table=(opt,rrhf)
 ----------------------------------------------------------------------
 -----
 title
 -----
 Symbolic Z-matrix:
 Charge =  0 Multiplicity = 1

 SCF Done:  E(RHF) =  -321.501299623     A.U. after   17 cycles
 Normal termination of Gaussian 16 at Wed Apr  9 03:39:13 2025.
 Gaussian 16:  ES64L-G16RevC.01  3-Jul-2019

 ----------------------------------------------------------------------
 #t hf aug-cc-pvdz iop(5/13=1,5/36=2,99/5=2) pseudo=read geom=check gue
 ss=(read,tcheck) scf=(maxcycle=1)
 ----------------------------------------------------------------------
 -----
 title
 -----
 Structure from the checkpoint file:  "Grambow2020_wb97xd3_007491_reverse_mol2.chk"
 Charge =  0 Multiplicity = 1

                         Standard orientation:
 ---------------------------------------------------------------------
 Center     Atomic      Atomic             Coordinates (Angstroms)
 Number     Number       Type             X           Y           Z
 ---------------------------------------------------------------------
      1          8           0        2.590206   -0.961434    0.012568
      2          6           0        1.797205   -0.115114   -0.029575
      3          6           0        1.067891    0.947499   -0.096998
      4          6           0       -0.113434    1.534061   -0.087232
      5          6           0       -1.375119   -0.599741    0.414277
      6          6           0       -1.447823    0.857977    0.059531
      7          7           0       -1.848512   -1.568962   -0.238777
      8          1           0       -0.169104    2.615950   -0.207541
      9          1           0       -0.860252   -0.831221    1.350282
     10          1           0       -2.009647    0.999969   -0.870992
     11          1           0       -2.012926    1.390532    0.834531
     12          1           0       -2.302448   -1.249121   -1.095400
 ---------------------------------------------------------------------

 SCF Done:  E(RHF) =  -321.600481004     A.U. after    2 cycles

 The electronic state is 1-A.
 Alpha  occ. eigenvalues --  -20.63901 -15.63225 -11.39903 -11.32517 -11.30824
 Alpha  occ. eigenvalues --  -11.28287 -11.25232  -1.43606  -1.20334  -1.11607
 Alpha  occ. eigenvalues --   -1.02117  -0.91431  -0.82302  -0.74985  -0.71143
 Alpha  occ. eigenvalues --   -0.66328  -0.65590  -0.63479  -0.62899  -0.61360
 Alpha  occ. eigenvalues --   -0.57232  -0.44958  -0.42994  -0.41111  -0.36258
 Alpha virt. eigenvalues --    0.02423   0.03509   0.03960   0.04486   0.05268
 Alpha virt. eigenvalues --    0.06795   0.08194   0.09302   0.10579   0.10849
 Alpha virt. eigenvalues --    0.12374   0.13421   0.14265   0.14400   0.14734

 Mulliken charges:
               1
     1  O   -0.254926
     2  C   -0.426855
     3  C    0.229061
     4  C    0.278478
     5  C    0.707306
     6  C    0.235859
     7  N   -0.343807
     8  H   -0.334345
     9  H   -0.243879
    10  H    0.001476
    11  H    0.149250
    12  H    0.002382
 Sum of Mulliken charges =  -0.00000

 Dipole moment (field-independent basis, Debye):
    X=             -3.0668    Y=              3.9263    Z=             -0.1236  Tot=              4.9836

 Test job not archived.
 1\1\GINC-SE341\SP\RHF\Aug-CC-pVDZ\C5H5N1O1\OHZDE\09-Apr-2025\0\\#t hf
 aug-cc-pvdz iop(5/13=1,5/36=2,99/5=2) pseudo=read geom=check guess=(re
 ad,tcheck) scf=(maxcycle=1)\\title\\0,1\O,0,1.55828115,1.47752751,2.60
 960691\C,0,1.47453156,0.7208744,1.73362387\C,0,1.55639948,-0.18596336,
 0.81900135\C,0,1.05640708,-0.8095612,-0.23019453\C,0,-0.94503946,0.724
 83945,-0.42071224\C,0,-0.25636004,-0.52001026,-0.90252303\N,0,-2.09460
 41,0.81242421,0.08997401\H,0,1.6170027,-1.63164151,-0.67513493\H,0,-0.
 37929421,1.65230986,-0.54116222\H,0,-0.90726137,-1.3930441,-0.77673942

 Normal termination of Gaussian 16 at Wed Apr  9 03:39:18 2025.
