 Gaussian 16, Revision C.01,

 ----------------------------------------------------------------------
 #t hf aug-cc-pvdz symm=none int=(grid=ultrafine) guess=(read,tcheck) s
 table=(opt,rrhf)
 ----------------------------------------------------------------------
 -----
 title
 -----
 Symbolic Z-matrix:
 Charge =  0 Multiplicity = 1

 SCF Done:  E(RHF) =  -299.556803715     A.U. after   16 cycles
 Normal termination of Gaussian 16 at Wed Apr  9 03:20:50 2025.
 Gaussian 16:  ES64L-G16RevC.01  3-Jul-2019

 ----------------------------------------------------------------------
 #t hf aug-cc-pvdz iop(5/13=1,5/36=2,99/5=2) pseudo=read geom=check gue
 ss=(read,tcheck) scf=(maxcycle=1)
 ----------------------------------------------------------------------
 -----
 title
 -----
 Structure from the checkpoint file:  "Grambow2020_wb97xd3_006148_reverse_mol2.chk"
 Charge =  0 Multiplicity = 1

                         Standard orientation:
 ---------------------------------------------------------------------
 Center     Atomic      Atomic             Coordinates (Angstroms)
 Number     Number       Type             X           Y           Z
 ---------------------------------------------------------------------
      1          7           0       -1.876309   -0.773580    0.146943
      2          6           0       -0.922797    0.170345   -0.007270
      3          6           0       -0.433632    1.242874   -0.531760
      4          6           0        0.336894    0.647649    0.605234
      5          7           0        1.601426   -0.065986    0.340390
      6          8           0        1.524406   -0.894847   -0.518061
      7          1           0       -1.586512   -1.626733    0.591397
      8          1           0       -2.512862   -0.899637   -0.621503
      9          1           0       -0.446081    2.069333   -1.215335
     10          1           0        0.391605    1.127575    1.581378
 ---------------------------------------------------------------------

 SCF Done:  E(RHF) =  -299.648231495     A.U. after    2 cycles

 The electronic state is 1-A.
 Alpha  occ. eigenvalues --  -20.62835 -15.74967 -15.66350 -11.31642 -11.28948
 Alpha  occ. eigenvalues --  -11.25476  -1.46359  -1.23273  -1.15259  -0.98155
 Alpha  occ. eigenvalues --   -0.79972  -0.78793  -0.72910  -0.71410  -0.70662
 Alpha  occ. eigenvalues --   -0.63118  -0.60395  -0.53253  -0.51719  -0.44796
 Alpha  occ. eigenvalues --   -0.40350  -0.34097
 Alpha virt. eigenvalues --    0.02814   0.03751   0.04263   0.06166   0.08923
 Alpha virt. eigenvalues --    0.09464   0.10568   0.11855   0.12160   0.13220
 Alpha virt. eigenvalues --    0.13623   0.14405   0.15962   0.16955   0.17495

 Mulliken charges:
               1
     1  N   -0.213485
     2  C    0.076290
     3  C    0.522158
     4  C    0.721962
     5  N   -0.306987
     6  O   -0.383267
     7  H    0.028830
     8  H    0.018503
     9  H   -0.254443
    10  H   -0.209560
 Sum of Mulliken charges =  -0.00000

 Dipole moment (field-independent basis, Debye):
    X=             -3.2400    Y=              0.2649    Z=              0.1695  Tot=              3.2552

 Test job not archived.
 1\1\GINC-SE364\SP\RHF\Aug-CC-pVDZ\C3H4N2O1\OHZDE\09-Apr-2025\0\\#t hf
 aug-cc-pvdz iop(5/13=1,5/36=2,99/5=2) pseudo=read geom=check guess=(re
 ad,tcheck) scf=(maxcycle=1)\\title\\0,1\N,0,1.57413362,-0.28593872,-0.
 66613342\C,0,0.32713566,0.16286753,-0.4062638\C,0,-0.58758152,1.071797
 79,-0.36350754\C,0,-1.02493517,-0.32654489,-0.0567215\N,0,-1.33250604,
 -0.71025089,1.33490624\O,0,-0.48225303,-0.41576756,2.12245358\H,0,1.83
 067631,-1.15535899,-0.23290684\H,0,2.30617752,0.40360188,-0.68174694\H
 ,0,-0.94942947,2.07570163,-0.47171277\H,0,-1.65641088,-0.89761379,-0.7

 Normal termination of Gaussian 16 at Wed Apr  9 03:20:54 2025.
