 Gaussian 16, Revision C.01,

 ----------------------------------------------------------------------
 #t hf aug-cc-pvdz symm=none int=(grid=ultrafine) guess=(read,tcheck) s
 table=(opt,rrhf)
 ----------------------------------------------------------------------
 -----
 title
 -----
 Symbolic Z-matrix:
 Charge =  0 Multiplicity = 1

 SCF Done:  E(RHF) =  -308.833915773     A.U. after   15 cycles

 1\1\GINC-SE226\Stability\RHF\Aug-CC-pVDZ\C6H12O1\OHZDE\09-Apr-2025\0\\
 #t hf aug-cc-pvdz symm=none int=(grid=ultrafine) guess=(read,tcheck) s
 table=(opt,rrhf)\\title\\0,1\C,0,-1.94267621,-1.03860337,-0.41841937\C
 ,0,-0.87624757,0.01520383,-0.13608995\C,0,-1.38367558,1.10650417,0.803
 30926\C,0,0.34166272,-0.63051607,0.46936246\O,0,1.18561844,-1.42146373
 ,-0.4110548\C,0,1.67883115,-0.24617809,0.07428924\C,0,2.36786482,0.862
 17977,-0.44576147\H,0,-2.82051545,-0.58262321,-0.87956376\H,0,-1.56606
 494,-1.80838028,-1.09348625\H,0,-2.26704575,-1.5246362,0.50604027\H,0,

 Normal termination of Gaussian 16 at Wed Apr  9 16:02:26 2025.
 Gaussian 16:  ES64L-G16RevC.01  3-Jul-2019

 ----------------------------------------------------------------------
 #t hf aug-cc-pvdz iop(5/13=1,5/36=2,99/5=2) pseudo=read geom=check gue
 ss=(read,tcheck) scf=(maxcycle=1)
 ----------------------------------------------------------------------
 -----
 title
 -----
 Structure from the checkpoint file:  "Grambow2020_wb97xd3_007705_reverse_mol1.chk"
 Charge =  0 Multiplicity = 1

                         Standard orientation:
 ---------------------------------------------------------------------
 Center     Atomic      Atomic             Coordinates (Angstroms)
 Number     Number       Type             X           Y           Z
 ---------------------------------------------------------------------
      1          6           0       -2.105008   -0.912789   -0.356299
      2          6           0       -1.020188    0.157456   -0.283980
      3          6           0       -1.548470    1.471071    0.287180
      4          6           0        0.126234   -0.324445    0.564737
      5          8           0        0.997678   -1.339438   -0.003917
      6          6           0        1.501760   -0.086524    0.186401
      7          6           0        2.268430    0.827244   -0.555842
      8          1           0       -2.929968   -0.581204   -0.989281
      9          1           0       -1.712880   -1.843092   -0.769676
     10          1           0       -2.511857   -1.125384    0.636347
     11          1           0       -0.631346    0.336438   -1.289592
     12          1           0       -1.934971    1.331878    1.300647
     13          1           0       -2.364808    1.853532   -0.327323
     14          1           0       -0.767801    2.233237    0.325423
     15          1           0       -0.093739   -0.498415    1.615885
     16          1           0        2.200492   -0.380012    1.524341
     17          1           0        3.096378    0.447641   -1.138097
     18          1           0        2.518117    0.376339    0.906205
     19          1           0        1.814405    1.772462   -0.816731
 ---------------------------------------------------------------------

 SCF Done:  E(RHF) =  -308.934192038     A.U. after    2 cycles

 The electronic state is 1-A.
 Alpha  occ. eigenvalues --  -20.61985 -11.38872 -11.32392 -11.25638 -11.23992
 Alpha  occ. eigenvalues --  -11.23513 -11.19991  -1.43174  -1.09481  -1.04551
 Alpha  occ. eigenvalues --   -0.94415  -0.93402  -0.83241  -0.77709  -0.74538
 Alpha  occ. eigenvalues --   -0.66893  -0.65536  -0.61091  -0.60152  -0.58193
 Alpha  occ. eigenvalues --   -0.56182  -0.55264  -0.51704  -0.50554  -0.49556
 Alpha  occ. eigenvalues --   -0.47953  -0.45868  -0.29022
 Alpha virt. eigenvalues --    0.03232   0.03864   0.04443   0.04717   0.06007
 Alpha virt. eigenvalues --    0.06359   0.06618   0.06984   0.07255   0.08885
 Alpha virt. eigenvalues --    0.09277   0.09579   0.12162   0.12858   0.13453

 Mulliken charges:
               1
     1  C    0.783767
     2  C   -1.370514
     3  C    0.759565
     4  C    1.194206
     5  O   -0.725952
     6  C   -0.472314
     7  C    0.421377
     8  H   -0.052896
     9  H   -0.025514
    10  H    0.009674
    11  H   -0.009012
    12  H    0.032594
    13  H   -0.062562
    14  H   -0.059970
    15  H   -0.280176
    16  H    0.097296
    17  H   -0.187015
    18  H    0.135384
    19  H   -0.187939
 Sum of Mulliken charges =  -0.00000

 Dipole moment (field-independent basis, Debye):
    X=             -2.2157    Y=              1.1405    Z=              0.9176  Tot=              2.6556

 Test job not archived.
 1\1\GINC-SE226\SP\RHF\Aug-CC-pVDZ\C6H12O1\OHZDE\09-Apr-2025\0\\#t hf a
 ug-cc-pvdz iop(5/13=1,5/36=2,99/5=2) pseudo=read geom=check guess=(rea
 d,tcheck) scf=(maxcycle=1)\\title\\0,1\C,0,-1.94267621,-1.03860337,-0.
 41841937\C,0,-0.87624757,0.01520383,-0.13608995\C,0,-1.38367558,1.1065
 0417,0.80330926\C,0,0.34166272,-0.63051607,0.46936246\O,0,1.18561844,-
 1.42146373,-0.4110548\C,0,1.67883115,-0.24617809,0.07428924\C,0,2.3678
 6482,0.86217977,-0.44576147\H,0,-2.82051545,-0.58262321,-0.87956376\H,
 0,-1.56606494,-1.80838028,-1.09348625\H,0,-2.26704575,-1.5246362,0.506

 Normal termination of Gaussian 16 at Wed Apr  9 16:02:34 2025.
