 Gaussian 16, Revision C.01,

 ----------------------------------------------------------------------
 #t hf aug-cc-pvdz symm=none int=(grid=ultrafine) guess=(read,tcheck) s
 table=(opt,rrhf)
 ----------------------------------------------------------------------
 -----
 title
 -----
 Symbolic Z-matrix:
 Charge =  0 Multiplicity = 1

 SCF Done:  E(RHF) =  -338.591880859     A.U. after   17 cycles
 Normal termination of Gaussian 16 at Wed Apr  9 16:32:59 2025.
 Gaussian 16:  ES64L-G16RevC.01  3-Jul-2019

 ----------------------------------------------------------------------
 #t hf aug-cc-pvdz iop(5/13=1,5/36=2,99/5=2) pseudo=read geom=check gue
 ss=(read,tcheck) scf=(maxcycle=1)
 ----------------------------------------------------------------------
 -----
 title
 -----
 Structure from the checkpoint file:  "Grambow2020_wb97xd3_008548_forward_mol1.chk"
 Charge =  0 Multiplicity = 1

                         Standard orientation:
 ---------------------------------------------------------------------
 Center     Atomic      Atomic             Coordinates (Angstroms)
 Number     Number       Type             X           Y           Z
 ---------------------------------------------------------------------
      1          6           0       -2.548638   -0.386572   -0.085436
      2          6           0       -1.085566   -0.111777   -0.002163
      3          7           0       -0.652344    1.121996   -0.047889
      4          8           0        0.676569    1.134628    0.010719
      5          6           0        1.093620   -0.230747    0.209199
      6          7           0        2.416638   -0.507693   -0.144616
      7          6           0       -0.036809   -1.107804    0.092549
      8          1           0       -3.108162    0.538924   -0.214899
      9          1           0       -2.756215   -1.052437   -0.923895
     10          1           0       -2.891316   -0.889003    0.820058
     11          1           0        3.052835    0.241097    0.081257
     12          1           0        2.507403   -0.782461   -1.109717
     13          1           0        0.897198   -0.411865    1.324082
 ---------------------------------------------------------------------

 SCF Done:  E(RHF) =  -338.691603027     A.U. after    2 cycles

 The electronic state is 1-A.
 Alpha  occ. eigenvalues --  -20.65486 -15.73066 -15.64451 -11.35780 -11.29236
 Alpha  occ. eigenvalues --  -11.27625 -11.24509  -1.46690  -1.20846  -1.15517
 Alpha  occ. eigenvalues --   -1.04856  -0.97973  -0.82050  -0.80676  -0.73015
 Alpha  occ. eigenvalues --   -0.70766  -0.67128  -0.63050  -0.58747  -0.56645
 Alpha  occ. eigenvalues --   -0.55790  -0.52710  -0.48489  -0.43523  -0.40559
 Alpha  occ. eigenvalues --   -0.39145
 Alpha virt. eigenvalues --    0.02738   0.03758   0.04252   0.04653   0.06077
 Alpha virt. eigenvalues --    0.06707   0.07092   0.09269   0.10998   0.11814
 Alpha virt. eigenvalues --    0.12826   0.13571   0.13691   0.15615   0.15742

 Mulliken charges:
               1
     1  C    0.593973
     2  C   -0.004739
     3  N   -0.197984
     4  O   -0.698971
     5  C    1.244389
     6  N   -0.397341
     7  C   -0.915770
     8  H   -0.079214
     9  H    0.034159
    10  H    0.064468
    11  H    0.037160
    12  H    0.036249
    13  H    0.283620
 Sum of Mulliken charges =  -0.00000

 Dipole moment (field-independent basis, Debye):
    X=              0.4592    Y=              0.2408    Z=             -0.4166  Tot=              0.6651

 Test job not archived.
 1\1\GINC-SE026\SP\RHF\Aug-CC-pVDZ\C4H6N2O1\OHZDE\09-Apr-2025\0\\#t hf
 aug-cc-pvdz iop(5/13=1,5/36=2,99/5=2) pseudo=read geom=check guess=(re
 ad,tcheck) scf=(maxcycle=1)\\title\\0,1\C,0,-2.3687065,-0.01124782,-0.
 0075484\C,0,-0.88545646,0.01291335,-0.15725475\N,0,-0.34919074,-0.1367
 1498,-1.34131415\O,0,0.97706407,-0.11393227,-1.24064666\C,0,1.28108116
 ,0.17566245,0.13822308\N,0,2.5630623,-0.19074843,0.55598732\C,0,0.0760
 4282,0.15481673,0.9180655\H,0,-2.85026905,-0.19526214,-0.96703081\H,0,
 -2.66012649,-0.79157943,0.69646644\H,0,-2.72374823,0.93808633,0.395557

 Normal termination of Gaussian 16 at Wed Apr  9 16:33:03 2025.
