 Gaussian 16, Revision C.01,

 ----------------------------------------------------------------------
 #t hf aug-cc-pvdz symm=none int=(grid=ultrafine) guess=(read,tcheck) s
 table=(opt,rrhf)
 ----------------------------------------------------------------------
 -----
 title
 -----
 Symbolic Z-matrix:
 Charge =  0 Multiplicity = 1

 SCF Done:  E(RHF) =  -283.520872911     A.U. after   17 cycles
 Normal termination of Gaussian 16 at Wed Apr  9 03:08:43 2025.
 Gaussian 16:  ES64L-G16RevC.01  3-Jul-2019

 ----------------------------------------------------------------------
 #t hf aug-cc-pvdz iop(5/13=1,5/36=2,99/5=2) pseudo=read geom=check gue
 ss=(read,tcheck) scf=(maxcycle=1)
 ----------------------------------------------------------------------
 -----
 title
 -----
 Structure from the checkpoint file:  "Grambow2020_b97d3_006671_forward_mol1.chk"
 Charge =  0 Multiplicity = 1

                         Standard orientation:
 ---------------------------------------------------------------------
 Center     Atomic      Atomic             Coordinates (Angstroms)
 Number     Number       Type             X           Y           Z
 ---------------------------------------------------------------------
      1          7           0       -2.118940   -0.412269    0.086885
      2          6           0       -0.988748   -0.011629   -0.005333
      3          6           0       -0.123508    1.292557    0.100848
      4          6           0        1.189970    0.684822   -0.208045
      5          6           0        1.331156   -0.622697    0.449234
      6          8           0        0.253981   -0.988630   -0.464476
      7          1           0       -0.195680    1.701230    1.117006
      8          1           0       -0.460177    2.038358   -0.627494
      9          1           0        1.733454    0.879502   -1.132066
     10          1           0        2.232435   -1.200130    0.226286
     11          1           0        1.037478   -0.682360    1.503654
 ---------------------------------------------------------------------

 SCF Done:  E(RHF) =  -283.602303541     A.U. after    2 cycles

 The electronic state is 1-A.
 Alpha  occ. eigenvalues --  -20.62139 -15.55952 -11.40391 -11.35030 -11.30327
 Alpha  occ. eigenvalues --  -11.29727  -1.35910  -1.11891  -1.10003  -0.98064
 Alpha  occ. eigenvalues --   -0.86418  -0.76903  -0.68531  -0.68193  -0.63275
 Alpha  occ. eigenvalues --   -0.61493  -0.59304  -0.54439  -0.49597  -0.46554
 Alpha  occ. eigenvalues --   -0.39081  -0.31886
 Alpha virt. eigenvalues --   -0.00185   0.02200   0.03270   0.03665   0.05694
 Alpha virt. eigenvalues --    0.06267   0.08725   0.09800   0.11284   0.11585
 Alpha virt. eigenvalues --    0.12270   0.13133   0.13943   0.14251   0.15215

 Mulliken charges:
               1
     1  N   -0.525368
     2  C    0.383106
     3  C   -0.015012
     4  C    0.576446
     5  C    0.881308
     6  O   -0.804188
     7  H    0.086801
     8  H   -0.018214
     9  H   -0.226794
    10  H   -0.173205
    11  H   -0.164880
 Sum of Mulliken charges =  -0.00000

 Dipole moment (field-independent basis, Debye):
    X=              8.1957    Y=              4.2497    Z=              0.7386  Tot=              9.2615

 Test job not archived.
 1\1\GINC-SE051\SP\RHF\Aug-CC-pVDZ\C4H5N1O1\OHZDE\09-Apr-2025\0\\#t hf
 aug-cc-pvdz iop(5/13=1,5/36=2,99/5=2) pseudo=read geom=check guess=(re
 ad,tcheck) scf=(maxcycle=1)\\title\\0,1\N,0,1.73016333,0.14981228,-1.7
 9977478\C,0,0.9159382,-0.06614096,-0.94143254\C,0,0.6447734,-0.9724394
 4,0.30993005\C,0,-0.68740388,-0.43213954,0.66115563\C,0,-0.7196286,1.0
 2922302,0.50324471\O,0,-0.54413907,0.69321607,-0.90579126\H,0,1.413335
 69,-0.7887558,1.07175173\H,0,0.64412441,-2.03051692,0.02617309\H,0,-1.
 60932441,-1.00186045,0.54903855\H,0,-1.67985498,1.52833438,0.65910163\

 Normal termination of Gaussian 16 at Wed Apr  9 03:08:47 2025.
