 Gaussian 16, Revision C.01,

 ----------------------------------------------------------------------
 #t hf aug-cc-pvdz symm=none int=(grid=ultrafine) guess=(read,tcheck) s
 table=(opt,rrhf)
 ----------------------------------------------------------------------
 -----
 title
 -----
 Symbolic Z-matrix:
 Charge =  0 Multiplicity = 1

 SCF Done:  E(RHF) =  -271.022411119     A.U. after   15 cycles

 1\1\GINC-SE043\Stability\RHF\Aug-CC-pVDZ\C5H12O1\OHZDE\09-Apr-2025\0\\
 #t hf aug-cc-pvdz symm=none int=(grid=ultrafine) guess=(read,tcheck) s
 table=(opt,rrhf)\\title\\0,1\C,0,-1.86539338,0.85530581,0.56595858\C,0
 ,-1.20240942,-0.28749221,-0.17623838\C,0,-0.32733951,-1.13710142,0.491
 73779\O,0,0.0519233,-2.36899305,0.00858564\C,0,1.7745966,0.10623094,0.
 46527892\C,0,1.83984139,0.91944315,-0.65415214\H,0,-2.18014736,1.64853
 553,-0.12594815\H,0,-2.75528447,0.5168578,1.11890111\H,0,-1.16633001,1
 .30056094,1.28696338\H,0,-1.7888219,-0.73187815,-0.99022164\H,0,-0.333

 Normal termination of Gaussian 16 at Wed Apr  9 14:11:28 2025.
 Gaussian 16:  ES64L-G16RevC.01  3-Jul-2019

 ----------------------------------------------------------------------
 #t hf aug-cc-pvdz iop(5/13=1,5/36=2,99/5=2) pseudo=read geom=check gue
 ss=(read,tcheck) scf=(maxcycle=1)
 ----------------------------------------------------------------------
 -----
 title
 -----
 Structure from the checkpoint file:  "Grambow2020_b97d3_006801_reverse_mol1.chk"
 Charge =  0 Multiplicity = 1

                         Standard orientation:
 ---------------------------------------------------------------------
 Center     Atomic      Atomic             Coordinates (Angstroms)
 Number     Number       Type             X           Y           Z
 ---------------------------------------------------------------------
      1          6           0        1.705654   -1.458355    0.247691
      2          6           0        1.161592   -0.214736   -0.425956
      3          6           0        0.572100    0.788452    0.335547
      4          8           0        0.359495    2.067281   -0.127302
      5          6           0       -1.703473   -0.035260    0.664145
      6          6           0       -2.088743   -0.827324   -0.404919
      7          1           0        1.758119   -2.300390   -0.456043
      8          1           0        2.716680   -1.291334    0.650345
      9          1           0        1.054192   -1.759661    1.079317
     10          1           0        1.689374    0.106524   -1.332689
     11          1           0        0.022158   -0.826908   -1.239885
     12          1           0        0.536705    0.754093    1.418991
     13          1           0        0.507840    2.065474   -1.092367
     14          1           0       -1.438123   -0.493614    1.616143
     15          1           0       -1.916317    1.030757    0.675965
     16          1           0       -2.667790   -0.396527   -1.224390
     17          1           0       -0.828214   -1.036802   -1.298538
     18          1           0       -2.193363   -1.906526   -0.277484
 ---------------------------------------------------------------------

 SCF Done:  E(RHF) =  -271.112182922     A.U. after    2 cycles

 The electronic state is 1-A.
 Alpha  occ. eigenvalues --  -20.60153 -11.31149 -11.24359 -11.24348 -11.23790
 Alpha  occ. eigenvalues --  -11.22934  -1.35343  -1.05315  -1.00989  -0.91754
 Alpha  occ. eigenvalues --   -0.82726  -0.79088  -0.69059  -0.65467  -0.63264
 Alpha  occ. eigenvalues --   -0.62844  -0.58049  -0.57218  -0.56163  -0.54255
 Alpha  occ. eigenvalues --   -0.52709  -0.51172  -0.50001  -0.33301  -0.29964
 Alpha virt. eigenvalues --    0.03380   0.04146   0.04628   0.04855   0.06145
 Alpha virt. eigenvalues --    0.06721   0.06825   0.07164   0.07371   0.09391
 Alpha virt. eigenvalues --    0.10039   0.10964   0.12632   0.13262   0.13719

 Mulliken charges:
               1
     1  C    0.377558
     2  C   -0.248803
     3  C    0.780426
     4  O   -0.558832
     5  C    0.565009
     6  C    0.162472
     7  H   -0.049758
     8  H   -0.012451
     9  H   -0.055656
    10  H   -0.324604
    11  H    0.696285
    12  H   -0.282337
    13  H    0.157237
    14  H   -0.282716
    15  H   -0.253025
    16  H   -0.158955
    17  H   -0.360341
    18  H   -0.151510
 Sum of Mulliken charges =  -0.00000

 Dipole moment (field-independent basis, Debye):
    X=              0.9929    Y=             -0.6928    Z=             -0.7369  Tot=              1.4173

 Test job not archived.
 1\1\GINC-SE043\SP\RHF\Aug-CC-pVDZ\C5H12O1\OHZDE\09-Apr-2025\0\\#t hf a
 ug-cc-pvdz iop(5/13=1,5/36=2,99/5=2) pseudo=read geom=check guess=(rea
 d,tcheck) scf=(maxcycle=1)\\title\\0,1\C,0,-1.86539338,0.85530581,0.56
 595858\C,0,-1.20240942,-0.28749221,-0.17623838\C,0,-0.32733951,-1.1371
 0142,0.49173779\O,0,0.0519233,-2.36899305,0.00858564\C,0,1.7745966,0.1
 0623094,0.46527892\C,0,1.83984139,0.91944315,-0.65415214\H,0,-2.180147
 36,1.64853553,-0.12594815\H,0,-2.75528447,0.5168578,1.11890111\H,0,-1.
 16633001,1.30056094,1.28696338\H,0,-1.7888219,-0.73187815,-0.99022164\

 Normal termination of Gaussian 16 at Wed Apr  9 14:11:34 2025.
