 Gaussian 16, Revision C.01,

 ----------------------------------------------------------------------
 #t hf aug-cc-pvdz symm=none int=(grid=ultrafine) guess=(read,tcheck) s
 table=(opt,rrhf)
 ----------------------------------------------------------------------
 -----
 title
 -----
 Symbolic Z-matrix:
 Charge =  0 Multiplicity = 1

 SCF Done:  E(RHF) =  -306.885362229     A.U. after   16 cycles

 1\1\GINC-SE021\Stability\RHF\Aug-CC-pVDZ\C4H10O2\OHZDE\09-Apr-2025\0\\
 #t hf aug-cc-pvdz symm=none int=(grid=ultrafine) guess=(read,tcheck) s
 table=(opt,rrhf)\\title\\0,1\C,0,2.56568973,-0.91693926,-0.14604151\O,
 0,1.7442387,0.07755932,0.43951083\C,0,-0.25052054,0.51753631,-1.033376
 27\C,0,-0.99158275,0.2530843,0.20578483\C,0,-2.52652275,0.5312784,0.08
 675855\O,0,-0.62902686,-0.74362058,0.98612618\H,0,2.03125764,-1.523503
 ,-0.90365495\H,0,3.41224798,-0.41849363,-0.63657801\H,0,2.95828945,-1.
 61592716,0.61327116\H,0,0.41875499,-0.20055189,-1.49989229\H,0,-0.3327

 Normal termination of Gaussian 16 at Wed Apr  9 03:06:31 2025.
 Gaussian 16:  ES64L-G16RevC.01  3-Jul-2019

 ----------------------------------------------------------------------
 #t hf aug-cc-pvdz iop(5/13=1,5/36=2,99/5=2) pseudo=read geom=check gue
 ss=(read,tcheck) scf=(maxcycle=1)
 ----------------------------------------------------------------------
 -----
 title
 -----
 Structure from the checkpoint file:  "Grambow2020_b97d3_006574_forward_mol1.chk"
 Charge =  0 Multiplicity = 1

                         Standard orientation:
 ---------------------------------------------------------------------
 Center     Atomic      Atomic             Coordinates (Angstroms)
 Number     Number       Type             X           Y           Z
 ---------------------------------------------------------------------
      1          6           0       -2.663958    0.012125    0.301949
      2          8           0       -1.621966   -0.051941   -0.655563
      3          6           0        0.391693    1.205949    0.184038
      4          6           0        1.074241   -0.060485   -0.107340
      5          6           0        2.629136    0.018514    0.046477
      6          8           0        0.504126   -1.202038    0.217661
      7          1           0       -2.300536    0.276932    1.314528
      8          1           0       -3.380058    0.779713   -0.020146
      9          1           0       -3.194194   -0.952619    0.387934
     10          1           0       -0.435549    1.297446    0.882977
     11          1           0        0.691732    2.108673   -0.351827
     12          1           0        0.920130    0.147712   -1.237784
     13          1           0        3.055375   -0.850090   -0.467002
     14          1           0        2.870162   -0.044437    1.114025
     15          1           0        3.057880    0.941429   -0.366938
     16          1           0       -0.928897   -0.729531   -0.303289
 ---------------------------------------------------------------------

 SCF Done:  E(RHF) =  -306.982655207     A.U. after    2 cycles

 The electronic state is 1-A.
 Alpha  occ. eigenvalues --  -20.54642 -20.47101 -11.38935 -11.31665 -11.27669
 Alpha  occ. eigenvalues --  -11.25276  -1.29425  -1.24872  -1.05904  -0.96205
 Alpha  occ. eigenvalues --   -0.90530  -0.80666  -0.70416  -0.69070  -0.64167
 Alpha  occ. eigenvalues --   -0.61795  -0.59981  -0.58747  -0.55763  -0.54257
 Alpha  occ. eigenvalues --   -0.52307  -0.49845  -0.44384  -0.39254  -0.37148
 Alpha virt. eigenvalues --   -0.00509   0.02729   0.03990   0.04811   0.05004
 Alpha virt. eigenvalues --    0.06322   0.06495   0.06965   0.07693   0.08551
 Alpha virt. eigenvalues --    0.10851   0.11472   0.13023   0.13930   0.14669

 Mulliken charges:
               1
     1  C    0.770673
     2  O   -0.609896
     3  C    0.546762
     4  C    0.045056
     5  C    0.446873
     6  O   -0.951633
     7  H   -0.136380
     8  H   -0.195394
     9  H   -0.137814
    10  H   -0.197861
    11  H   -0.187828
    12  H    0.213065
    13  H   -0.001646
    14  H    0.047804
    15  H   -0.032483
    16  H    0.380701
 Sum of Mulliken charges =  -0.00000

 Dipole moment (field-independent basis, Debye):
    X=              1.2889    Y=              5.7924    Z=              0.9329  Tot=              6.0070

 Test job not archived.
 1\1\GINC-SE021\SP\RHF\Aug-CC-pVDZ\C4H10O2\OHZDE\09-Apr-2025\0\\#t hf a
 ug-cc-pvdz iop(5/13=1,5/36=2,99/5=2) pseudo=read geom=check guess=(rea
 d,tcheck) scf=(maxcycle=1)\\title\\0,1\C,0,2.56568973,-0.91693926,-0.1
 4604151\O,0,1.7442387,0.07755932,0.43951083\C,0,-0.25052054,0.51753631
 ,-1.03337627\C,0,-0.99158275,0.2530843,0.20578483\C,0,-2.52652275,0.53
 12784,0.08675855\O,0,-0.62902686,-0.74362058,0.98612618\H,0,2.03125764
 ,-1.523503,-0.90365495\H,0,3.41224798,-0.41849363,-0.63657801\H,0,2.95
 828945,-1.61592716,0.61327116\H,0,0.41875499,-0.20055189,-1.49989229\H

 Normal termination of Gaussian 16 at Wed Apr  9 03:06:36 2025.
