 Gaussian 16, Revision C.01,

 ----------------------------------------------------------------------
 #t hf aug-cc-pvdz symm=none int=(grid=ultrafine) guess=(read,tcheck) s
 table=(opt,rrhf)
 ----------------------------------------------------------------------
 -----
 title
 -----
 Symbolic Z-matrix:
 Charge =  0 Multiplicity = 1

 SCF Done:  E(RHF) =  -295.819904189     A.U. after   15 cycles
 Normal termination of Gaussian 16 at Wed Apr  9 14:06:55 2025.
 Gaussian 16:  ES64L-G16RevC.01  3-Jul-2019

 ----------------------------------------------------------------------
 #t hf aug-cc-pvdz iop(5/13=1,5/36=2,99/5=2) pseudo=read geom=check gue
 ss=(read,tcheck) scf=(maxcycle=1)
 ----------------------------------------------------------------------
 -----
 title
 -----
 Structure from the checkpoint file:  "Grambow2020_b97d3_006780_reverse_mol2.chk"
 Charge =  0 Multiplicity = 1

                         Standard orientation:
 ---------------------------------------------------------------------
 Center     Atomic      Atomic             Coordinates (Angstroms)
 Number     Number       Type             X           Y           Z
 ---------------------------------------------------------------------
      1          7           0        1.713868   -0.873109   -0.112832
      2          6           0        0.438543   -0.311046    0.007787
      3          7           0       -0.634932   -1.029622    0.036268
      4          7           0       -1.858089   -0.413780    0.093764
      5          6           0        0.072920    2.228113    0.001696
      6          7           0        0.396894    1.078901   -0.010218
      7          1           0        2.389438   -0.465610    0.534191
      8          1           0        1.659944   -1.883743    0.009120
      9          1           0       -1.889410    0.530373   -0.312051
     10          1           0       -2.552939   -1.020153   -0.337026
 ---------------------------------------------------------------------

 SCF Done:  E(RHF) =  -295.907390971     A.U. after    2 cycles

 The electronic state is 1-A.
 Alpha  occ. eigenvalues --  -15.69205 -15.67499 -15.66207 -15.65958 -11.39143
 Alpha  occ. eigenvalues --  -11.33516  -1.32066  -1.23847  -1.19450  -1.04784
 Alpha  occ. eigenvalues --   -0.93078  -0.76067  -0.73078  -0.67546  -0.64501
 Alpha  occ. eigenvalues --   -0.61521  -0.53012  -0.51183  -0.50615  -0.47933
 Alpha  occ. eigenvalues --   -0.45530  -0.33185
 Alpha virt. eigenvalues --    0.02959   0.03784   0.04987   0.06628   0.07462
 Alpha virt. eigenvalues --    0.09457   0.10143   0.10673   0.12684   0.13105
 Alpha virt. eigenvalues --    0.14473   0.14983   0.16175   0.16827   0.17804

 Mulliken charges:
               1
     1  N   -0.339980
     2  C    0.959933
     3  N   -0.241670
     4  N   -0.102754
     5  C   -0.186296
     6  N   -0.292561
     7  H    0.026204
     8  H    0.065352
     9  H    0.018294
    10  H    0.093479
 Sum of Mulliken charges =  -0.00000

 Dipole moment (field-independent basis, Debye):
    X=              0.6823    Y=             -1.5000    Z=             -0.0679  Tot=              1.6493

 Test job not archived.
 1\1\GINC-SE054\SP\RHF\Aug-CC-pVDZ\C2H4N4\OHZDE\09-Apr-2025\0\\#t hf au
 g-cc-pvdz iop(5/13=1,5/36=2,99/5=2) pseudo=read geom=check guess=(read
 ,tcheck) scf=(maxcycle=1)\\title\\0,1\N,0,1.79378007,0.10080632,-0.527
 15454\C,0,0.47149215,0.05914957,-0.07247181\N,0,-0.27436869,-0.9872985
 3,-0.20719079\N,0,-1.58100357,-0.94239626,0.20435586\C,0,-0.68406142,2
 .12383985,0.91888974\N,0,-0.01918376,1.25507188,0.44038104\H,0,2.43388
 903,0.51228753,0.15257484\H,0,2.09892735,-0.83531334,-0.79121253\H,0,-
 2.00959471,-0.00793404,0.19088258\H,0,-2.12382945,-1.60164099,-0.34955

 Normal termination of Gaussian 16 at Wed Apr  9 14:06:59 2025.
