 Gaussian 16, Revision C.01,

 ----------------------------------------------------------------------
 #t hf aug-cc-pvdz symm=none int=(grid=ultrafine) guess=(read,tcheck) s
 table=(opt,rrhf)
 ----------------------------------------------------------------------
 -----
 title
 -----
 Symbolic Z-matrix:
 Charge =  0 Multiplicity = 1

 SCF Done:  E(RHF) =  -269.984571334     A.U. after   13 cycles

 1\1\GINC-SE113\Stability\RHF\Aug-CC-pVDZ\C5H10O1\OHZDE\09-Apr-2025\0\\
 #t hf aug-cc-pvdz symm=none int=(grid=ultrafine) guess=(read,tcheck) s
 table=(opt,rrhf)\\title\\0,1\C,0,1.92289485,-0.21145557,0.12849156\O,0
 ,0.88092586,-1.00622828,0.65877954\C,0,0.11973235,-1.64582804,-0.25664
 933\C,0,-0.72985361,2.63410463,0.01961802\C,0,-1.42654472,1.50980597,0
 .02849427\C,0,-0.8572639,-2.47347504,0.08053951\H,0,1.52690735,0.56683
 39,-0.53089039\H,0,2.64621679,-0.82421222,-0.41862011\H,0,2.42094275,0
 .25776136,0.97445921\H,0,0.35487774,-1.42524472,-1.29635024\H,0,0.0319

 Normal termination of Gaussian 16 at Wed Apr  9 14:23:24 2025.
 Gaussian 16:  ES64L-G16RevC.01  3-Jul-2019

 ----------------------------------------------------------------------
 #t hf aug-cc-pvdz iop(5/13=1,5/36=2,99/5=2) pseudo=read geom=check gue
 ss=(read,tcheck) scf=(maxcycle=1)
 ----------------------------------------------------------------------
 -----
 title
 -----
 Structure from the checkpoint file:  "Grambow2020_wb97xd3_006204_reverse_mol2.chk"
 Charge =  0 Multiplicity = 1

                         Standard orientation:
 ---------------------------------------------------------------------
 Center     Atomic      Atomic             Coordinates (Angstroms)
 Number     Number       Type             X           Y           Z
 ---------------------------------------------------------------------
      1          6           0       -0.526068    1.815730    0.145512
      2          8           0       -1.043391    0.658578   -0.480544
      3          6           0       -1.445972   -0.320928    0.359103
      4          6           0        2.901234   -0.022395    0.000469
      5          6           0        1.990629   -0.978859   -0.073566
      6          6           0       -2.006768   -1.441573   -0.068542
      7          1           0        0.343365    1.572662    0.763840
      8          1           0       -1.288502    2.305777    0.759145
      9          1           0       -0.219747    2.492138   -0.649797
     10          1           0       -1.266497   -0.133407    1.416247
     11          1           0        2.883513    0.830261   -0.669409
     12          1           0        3.704962   -0.054330    0.727540
     13          1           0        2.008821   -1.833324    0.593484
     14          1           0        1.184531   -0.944274   -0.797149
     15          1           0       -2.180032   -1.619049   -1.122029
     16          1           0       -2.301612   -2.196923    0.644620
 ---------------------------------------------------------------------

 SCF Done:  E(RHF) =  -270.076884213     A.U. after    2 cycles

 The electronic state is 1-A.
 Alpha  occ. eigenvalues --  -20.59518 -11.30162 -11.29338 -11.23763 -11.23560
 Alpha  occ. eigenvalues --  -11.21874  -1.37056  -1.03699  -1.02807  -0.93068
 Alpha  occ. eigenvalues --   -0.79931  -0.78843  -0.69900  -0.66601  -0.65887
 Alpha  occ. eigenvalues --   -0.64164  -0.59001  -0.56950  -0.55108  -0.51662
 Alpha  occ. eigenvalues --   -0.50795  -0.50036  -0.38032  -0.34594
 Alpha virt. eigenvalues --    0.03455   0.04447   0.04765   0.04899   0.06189
 Alpha virt. eigenvalues --    0.06418   0.07028   0.07565   0.07726   0.08902
 Alpha virt. eigenvalues --    0.11463   0.12175   0.12873   0.13440   0.15107

 Mulliken charges:
               1
     1  C    0.780151
     2  O   -0.716739
     3  C    0.921392
     4  C    0.520447
     5  C    0.662701
     6  C    0.485128
     7  H   -0.090813
     8  H   -0.055833
     9  H   -0.268671
    10  H   -0.420659
    11  H   -0.316696
    12  H   -0.263956
    13  H   -0.298579
    14  H   -0.302422
    15  H   -0.350192
    16  H   -0.285259
 Sum of Mulliken charges =  -0.00000

 Dipole moment (field-independent basis, Debye):
    X=              0.4569    Y=              1.0311    Z=              1.4096  Tot=              1.8053

 Test job not archived.
 1\1\GINC-SE113\SP\RHF\Aug-CC-pVDZ\C5H10O1\OHZDE\09-Apr-2025\0\\#t hf a
 ug-cc-pvdz iop(5/13=1,5/36=2,99/5=2) pseudo=read geom=check guess=(rea
 d,tcheck) scf=(maxcycle=1)\\title\\0,1\C,0,1.92289485,-0.21145557,0.12
 849156\O,0,0.88092586,-1.00622828,0.65877954\C,0,0.11973235,-1.6458280
 4,-0.25664933\C,0,-0.72985361,2.63410463,0.01961802\C,0,-1.42654472,1.
 50980597,0.02849427\C,0,-0.8572639,-2.47347504,0.08053951\H,0,1.526907
 35,0.5668339,-0.53089039\H,0,2.64621679,-0.82421222,-0.41862011\H,0,2.
 42094275,0.25776136,0.97445921\H,0,0.35487774,-1.42524472,-1.29635024\

 Normal termination of Gaussian 16 at Wed Apr  9 14:23:29 2025.
