 Gaussian 16, Revision C.01,

 ----------------------------------------------------------------------
 #t hf aug-cc-pvdz symm=none int=(grid=ultrafine) guess=(read,tcheck) s
 table=(opt,rrhf)
 ----------------------------------------------------------------------
 -----
 title
 -----
 Symbolic Z-matrix:
 Charge =  0 Multiplicity = 1

 SCF Done:  E(RHF) =  -305.670130814     A.U. after   15 cycles
 Normal termination of Gaussian 16 at Wed Apr  9 14:24:21 2025.
 Gaussian 16:  ES64L-G16RevC.01  3-Jul-2019

 ----------------------------------------------------------------------
 #t hf aug-cc-pvdz iop(5/13=1,5/36=2,99/5=2) pseudo=read geom=check gue
 ss=(read,tcheck) scf=(maxcycle=1)
 ----------------------------------------------------------------------
 -----
 title
 -----
 Structure from the checkpoint file:  "Grambow2020_wb97xd3_006211_forward_mol1.chk"
 Charge =  0 Multiplicity = 1

                         Standard orientation:
 ---------------------------------------------------------------------
 Center     Atomic      Atomic             Coordinates (Angstroms)
 Number     Number       Type             X           Y           Z
 ---------------------------------------------------------------------
      1          6           0        2.047973    0.029576   -0.406938
      2          8           0        0.987793   -0.764857    0.138034
      3          6           0        0.189264   -0.088574    0.883280
      4          6           0       -0.459930    1.304008   -0.369043
      5          6           0       -1.177605    0.161442    0.373469
      6          8           0       -1.736543   -0.832486   -0.418133
      7          1           0        2.589544    0.545900    0.396384
      8          1           0        0.792661    1.089646   -0.623846
      9          1           0        2.703768   -0.630681   -0.973484
     10          1           0        0.604976    0.561341    1.652738
     11          1           0       -0.769365    1.299339   -1.414004
     12          1           0       -0.600426    2.273700    0.096412
     13          1           0       -1.903345    0.469099    1.121468
     14          1           0       -1.026025   -1.268310   -0.899483
 ---------------------------------------------------------------------

 SCF Done:  E(RHF) =  -305.767944465     A.U. after    2 cycles

 The electronic state is 1-A.
 Alpha  occ. eigenvalues --  -20.63709 -20.59599 -11.37395 -11.33400 -11.24251
 Alpha  occ. eigenvalues --  -11.24102  -1.43087  -1.35579  -1.08857  -0.95242
 Alpha  occ. eigenvalues --   -0.86776  -0.84254  -0.76488  -0.72098  -0.67140
 Alpha  occ. eigenvalues --   -0.64521  -0.63148  -0.59838  -0.56331  -0.54731
 Alpha  occ. eigenvalues --   -0.52026  -0.46601  -0.45893  -0.27907
 Alpha virt. eigenvalues --    0.03042   0.04147   0.04642   0.04796   0.06454
 Alpha virt. eigenvalues --    0.06981   0.07604   0.07749   0.08479   0.11229
 Alpha virt. eigenvalues --    0.12508   0.12772   0.14231   0.14405   0.14891

 Mulliken charges:
               1
     1  C    0.330573
     2  O   -0.630993
     3  C    0.687722
     4  C    0.080173
     5  C    0.939087
     6  O   -0.590063
     7  H   -0.218836
     8  H    0.258100
     9  H   -0.359805
    10  H   -0.212793
    11  H   -0.091351
    12  H   -0.151035
    13  H   -0.220190
    14  H    0.179410
 Sum of Mulliken charges =  -0.00000

 Dipole moment (field-independent basis, Debye):
    X=             -0.5288    Y=              1.2601    Z=              1.9676  Tot=              2.3956

 Test job not archived.
 1\1\GINC-SE037\SP\RHF\Aug-CC-pVDZ\C4H8O2\OHZDE\09-Apr-2025\0\\#t hf au
 g-cc-pvdz iop(5/13=1,5/36=2,99/5=2) pseudo=read geom=check guess=(read
 ,tcheck) scf=(maxcycle=1)\\title\\0,1\C,0,1.58443052,-0.50768331,-0.99
 788321\O,0,0.3422297,0.13813396,-1.30112418\C,0,-0.65020779,-0.3593822
 6,-0.65463657\C,0,-0.08693654,-0.09628237,1.22753133\C,0,-1.26129095,0
 .47025716,0.40791881\O,0,-1.26247097,1.8428158,0.20050803\H,0,1.501481
 3,-1.59014371,-1.16102596\H,0,0.9637462,-0.40784945,0.53554101\H,0,2.3
 5471201,-0.06444401,-1.62811117\H,0,-0.78354856,-1.44068554,-0.6380762

 Normal termination of Gaussian 16 at Wed Apr  9 14:24:25 2025.
