 Gaussian 16, Revision C.01,

 ----------------------------------------------------------------------
 #t hf aug-cc-pvdz symm=none int=(grid=ultrafine) guess=(read,tcheck) s
 table=(opt,rrhf)
 ----------------------------------------------------------------------
 -----
 title
 -----
 Symbolic Z-matrix:
 Charge =  0 Multiplicity = 1

 SCF Done:  E(RHF) =  -271.824763224     A.U. after   17 cycles
 Normal termination of Gaussian 16 at Wed Apr  9 15:53:34 2025.
 Gaussian 16:  ES64L-G16RevC.01  3-Jul-2019

 ----------------------------------------------------------------------
 #t hf aug-cc-pvdz iop(5/13=1,5/36=2,99/5=2) pseudo=read geom=check gue
 ss=(read,tcheck) scf=(maxcycle=1)
 ----------------------------------------------------------------------
 -----
 title
 -----
 Structure from the checkpoint file:  "Grambow2020_wb97xd3_007425_forward_mol1.chk"
 Charge =  0 Multiplicity = 1

                         Standard orientation:
 ---------------------------------------------------------------------
 Center     Atomic      Atomic             Coordinates (Angstroms)
 Number     Number       Type             X           Y           Z
 ---------------------------------------------------------------------
      1          6           0       -2.366115    0.350400    0.116407
      2          6           0       -1.268829   -0.368370   -0.600161
      3          6           0       -0.150778   -0.896048    0.255252
      4          6           0        1.215794   -1.067820   -0.445255
      5          6           0        1.625750    0.277885    0.218275
      6          6           0        0.879774    1.363633   -0.526714
      7          6           0        0.476371    0.083223    1.146057
      8          1           0       -3.115866    0.724365   -0.582439
      9          1           0       -1.949075    1.197559    0.681788
     10          1           0       -2.891219   -0.274400    0.851238
     11          1           0       -1.607842   -1.053968   -1.381020
     12          1           0       -0.247178    0.888549   -0.778158
     13          1           0       -0.529467   -1.770849    0.806488
     14          1           0        1.216836   -1.090905   -1.536783
     15          1           0        1.778052   -1.909987   -0.044285
     16          1           0        2.655866    0.458021    0.526683
     17          1           0        0.894781    2.316965   -0.007844
     18          1           0        1.166770    1.484255   -1.574855
     19          1           0        0.156538    0.572971    2.056024
 ---------------------------------------------------------------------

 SCF Done:  E(RHF) =  -271.906544433     A.U. after    2 cycles

 The electronic state is 1-A.
 Alpha  occ. eigenvalues --  -11.28928 -11.25444 -11.24380 -11.23460 -11.22647
 Alpha  occ. eigenvalues --  -11.21444 -11.21127  -1.17890  -1.01567  -0.95789
 Alpha  occ. eigenvalues --   -0.89718  -0.86808  -0.77181  -0.71853  -0.70075
 Alpha  occ. eigenvalues --   -0.62832  -0.59700  -0.58720  -0.55203  -0.53386
 Alpha  occ. eigenvalues --   -0.52124  -0.49652  -0.47653  -0.46497  -0.45373
 Alpha  occ. eigenvalues --   -0.43249  -0.22142
 Alpha virt. eigenvalues --    0.03100   0.03368   0.04251   0.04293   0.05146
 Alpha virt. eigenvalues --    0.06150   0.06499   0.06627   0.06804   0.07194
 Alpha virt. eigenvalues --    0.08965   0.09451   0.10374   0.12404   0.12532

 Mulliken charges:
               1
     1  C    0.403411
     2  C   -0.080939
     3  C    0.133510
     4  C    0.911683
     5  C    0.176378
     6  C    0.516524
     7  C    0.184290
     8  H   -0.087384
     9  H   -0.167350
    10  H   -0.047701
    11  H   -0.394511
    12  H    0.165073
    13  H   -0.211163
    14  H   -0.244043
    15  H   -0.231666
    16  H   -0.321452
    17  H   -0.256331
    18  H   -0.052379
    19  H   -0.395950
 Sum of Mulliken charges =  -0.00000

 Dipole moment (field-independent basis, Debye):
    X=              0.9811    Y=             -0.2935    Z=              1.0978  Tot=              1.5013

 Test job not archived.
 1\1\GINC-SE100\SP\RHF\Aug-CC-pVDZ\C7H12\OHZDE\09-Apr-2025\0\\#t hf aug
 -cc-pvdz iop(5/13=1,5/36=2,99/5=2) pseudo=read geom=check guess=(read,
 tcheck) scf=(maxcycle=1)\\title\\0,1\C,0,2.06558442,-0.49094292,-0.824
 91935\C,0,1.05334911,0.58775319,-0.61060469\C,0,0.35818833,0.59126304,
 0.72241937\C,0,-1.04454702,1.23862737,0.75386308\C,0,-1.61613813,-0.20
 679781,0.69652685\C,0,-1.38711184,-0.69859872,-0.71627672\C,0,-0.26437
 143,-0.67647807,1.11110091\H,0,2.49570652,-0.4360301,-1.82608908\H,0,1
 .59369083,-1.47617604,-0.69116677\H,0,2.89980097,-0.4558327,-0.1115213

 Normal termination of Gaussian 16 at Wed Apr  9 15:53:41 2025.
