 Gaussian 16, Revision C.01,

 ----------------------------------------------------------------------
 #t hf aug-cc-pvdz symm=none int=(grid=ultrafine) guess=(read,tcheck) s
 table=(opt,rrhf)
 ----------------------------------------------------------------------
 -----
 title
 -----
 Symbolic Z-matrix:
 Charge =  0 Multiplicity = 1

 SCF Done:  E(RHF) =  -286.637571694     A.U. after   18 cycles
 Normal termination of Gaussian 16 at Wed Apr  9 03:40:43 2025.
 Gaussian 16:  ES64L-G16RevC.01  3-Jul-2019

 ----------------------------------------------------------------------
 #t hf aug-cc-pvdz iop(5/13=1,5/36=2,99/5=2) pseudo=read geom=check gue
 ss=(read,tcheck) scf=(maxcycle=1)
 ----------------------------------------------------------------------
 -----
 title
 -----
 Structure from the checkpoint file:  "Grambow2020_wb97xd3_007554_forward_mol1.chk"
 Charge =  0 Multiplicity = 1

                         Standard orientation:
 ---------------------------------------------------------------------
 Center     Atomic      Atomic             Coordinates (Angstroms)
 Number     Number       Type             X           Y           Z
 ---------------------------------------------------------------------
      1          6           0        0.213196    1.647386   -0.060657
      2          6           0        0.001923    0.144004   -0.000932
      3          6           0       -0.808798   -0.353371    1.179194
      4          6           0       -1.909685   -0.389385    0.164707
      5          6           0       -1.444758   -0.229833   -0.998068
      6          6           0        1.113800   -0.834541   -0.533405
      7          7           0        2.076686   -0.367905    0.336847
      8          1           0       -0.754510    2.148483   -0.021362
      9          1           0        0.705789    1.927103   -0.993011
     10          1           0        0.820071    1.994315    0.772071
     11          1           0       -0.936550    0.340138    2.006790
     12          1           0       -0.531024   -1.340494    1.538406
     13          1           0       -1.495168   -0.190763   -2.069614
     14          1           0        0.771547   -1.858627   -0.347778
     15          1           0        1.251469   -0.687288   -1.613837
     16          1           0        2.637504    0.336909   -0.134629
 ---------------------------------------------------------------------

 SCF Done:  E(RHF) =  -286.722363754     A.U. after    2 cycles

 The electronic state is 1-A.
 Alpha  occ. eigenvalues --  -15.54110 -11.33141 -11.31268 -11.30313 -11.29380
 Alpha  occ. eigenvalues --  -11.27348 -11.25134  -1.20677  -1.10954  -1.00167
 Alpha  occ. eigenvalues --   -0.96467  -0.86972  -0.77120  -0.76371  -0.66378
 Alpha  occ. eigenvalues --   -0.64290  -0.62736  -0.59144  -0.59050  -0.55075
 Alpha  occ. eigenvalues --   -0.52910  -0.50574  -0.46632  -0.42989  -0.36639
 Alpha  occ. eigenvalues --   -0.25451
 Alpha virt. eigenvalues --    0.01608   0.02827   0.04046   0.04530   0.05155
 Alpha virt. eigenvalues --    0.06332   0.06433   0.06893   0.07951   0.09169
 Alpha virt. eigenvalues --    0.09456   0.10708   0.12122   0.12624   0.12777

 Mulliken charges:
               1
     1  C    0.478838
     2  C   -1.554982
     3  C    0.965436
     4  C   -0.624960
     5  C    1.080119
     6  C    0.996017
     7  N   -0.594633
     8  H   -0.007371
     9  H   -0.019280
    10  H    0.062983
    11  H   -0.197509
    12  H   -0.064299
    13  H   -0.193060
    14  H   -0.151414
    15  H   -0.169275
    16  H   -0.006609
 Sum of Mulliken charges =  -0.00000

 Dipole moment (field-independent basis, Debye):
    X=             -3.2027    Y=              1.4933    Z=             -2.1597  Tot=              4.1414

 Test job not archived.
 1\1\GINC-SE462\SP\RHF\Aug-CC-pVDZ\C6H9N1\OHZDE\09-Apr-2025\0\\#t hf au
 g-cc-pvdz iop(5/13=1,5/36=2,99/5=2) pseudo=read geom=check guess=(read
 ,tcheck) scf=(maxcycle=1)\\title\\0,1\C,0,-0.15843731,1.49935873,0.262
 04177\C,0,0.08815163,0.00429695,0.15092854\C,0,0.51601964,-0.48522777,
 -1.21824646\C,0,1.87652901,-0.4585455,-0.59315918\C,0,1.78636139,-0.29
 360193,0.65516885\C,0,-0.76253436,-1.00529776,1.00790016\N,0,-1.965825
 72,-0.59356384,0.47423072\H,0,0.72768124,2.0363392,-0.07787328\H,0,-0.
 35106889,1.77865794,1.29889132\H,0,-1.00671899,1.80591737,-0.34502834\

 Normal termination of Gaussian 16 at Wed Apr  9 03:40:48 2025.
