 Gaussian 16, Revision C.01,

 ----------------------------------------------------------------------
 #t hf aug-cc-pvdz symm=none int=(grid=ultrafine) guess=(read,tcheck) s
 table=(opt,rrhf)
 ----------------------------------------------------------------------
 -----
 title
 -----
 Symbolic Z-matrix:
 Charge =  0 Multiplicity = 1

 SCF Done:  E(RHF) =  -268.787987784     A.U. after   14 cycles
 Normal termination of Gaussian 16 at Wed Apr  9 14:18:18 2025.
 Gaussian 16:  ES64L-G16RevC.01  3-Jul-2019

 ----------------------------------------------------------------------
 #t hf aug-cc-pvdz iop(5/13=1,5/36=2,99/5=2) pseudo=read geom=check gue
 ss=(read,tcheck) scf=(maxcycle=1)
 ----------------------------------------------------------------------
 -----
 title
 -----
 Structure from the checkpoint file:  "Grambow2020_b97d3_007087_reverse_mol2.chk"
 Charge =  0 Multiplicity = 1

                         Standard orientation:
 ---------------------------------------------------------------------
 Center     Atomic      Atomic             Coordinates (Angstroms)
 Number     Number       Type             X           Y           Z
 ---------------------------------------------------------------------
      1          6           0       -2.554548    0.040908   -0.087120
      2          6           0       -1.205854   -0.687425   -0.181307
      3          6           0       -0.097084    0.074662    0.541535
      4          8           0        2.385222   -0.654365   -0.066549
      5          6           0        1.292191    0.124728    0.044449
      6          6           0        0.642283    1.243624   -0.138873
      7          1           0       -2.852325    0.181640    0.962853
      8          1           0       -3.354057   -0.519952   -0.592216
      9          1           0       -2.488972    1.036100   -0.551157
     10          1           0       -0.921657   -0.816507   -1.237466
     11          1           0       -1.298426   -1.697594    0.251866
     12          1           0       -0.266834    0.139121    1.629764
     13          1           0        3.081038   -0.131618   -0.516031
     14          1           0        0.557522    2.264750   -0.487326
 ---------------------------------------------------------------------

 SCF Done:  E(RHF) =  -268.873107015     A.U. after    2 cycles

 The electronic state is 1-A.
 Alpha  occ. eigenvalues --  -20.62897 -11.31944 -11.25564 -11.24078 -11.22367
 Alpha  occ. eigenvalues --  -11.22095  -1.37918  -1.15095  -1.01226  -0.86438
 Alpha  occ. eigenvalues --   -0.81989  -0.76820  -0.70766  -0.66695  -0.62844
 Alpha  occ. eigenvalues --   -0.60068  -0.56760  -0.53631  -0.50623  -0.48317
 Alpha  occ. eigenvalues --   -0.46331  -0.41647  -0.33805
 Alpha virt. eigenvalues --    0.03030   0.04263   0.04621   0.05049   0.06339
 Alpha virt. eigenvalues --    0.07000   0.07765   0.08044   0.11012   0.11671
 Alpha virt. eigenvalues --    0.11901   0.13231   0.14012   0.14846   0.15204

 Mulliken charges:
               1
     1  C    0.284817
     2  C   -0.092212
     3  C    0.497671
     4  O   -0.514337
     5  C    0.016103
     6  C    0.493667
     7  H   -0.045181
     8  H   -0.075261
     9  H   -0.041345
    10  H   -0.081021
    11  H   -0.032902
    12  H   -0.295268
    13  H    0.181851
    14  H   -0.296583
 Sum of Mulliken charges =  -0.00000

 Dipole moment (field-independent basis, Debye):
    X=              0.8075    Y=              1.2174    Z=             -0.8089  Tot=              1.6699

 Test job not archived.
 1\1\GINC-SE043\SP\RHF\Aug-CC-pVDZ\C5H8O1\OHZDE\09-Apr-2025\0\\#t hf au
 g-cc-pvdz iop(5/13=1,5/36=2,99/5=2) pseudo=read geom=check guess=(read
 ,tcheck) scf=(maxcycle=1)\\title\\0,1\C,0,-1.61207866,0.99098775,-0.90
 297366\C,0,-1.01333087,-0.20453951,-0.14763825\C,0,0.330058,0.14211714
 ,0.49093985\O,0,1.81292159,-1.92948411,1.24769441\C,0,1.44562134,-0.82
 116699,0.5763164\C,0,1.63602484,0.10383288,-0.32703136\H,0,-1.75472594
 ,1.84945183,-0.22946686\H,0,-2.5878112,0.74339464,-1.34517826\H,0,-0.9
 4052582,1.31112853,-1.71325906\H,0,-0.87403226,-1.05245515,-0.8365044\

 Normal termination of Gaussian 16 at Wed Apr  9 14:18:22 2025.
