 Gaussian 16, Revision C.01,

 ----------------------------------------------------------------------
 #t hf aug-cc-pvdz symm=none int=(grid=ultrafine) guess=(read,tcheck) s
 table=(opt,rrhf)
 ----------------------------------------------------------------------
 -----
 title
 -----
 Symbolic Z-matrix:
 Charge =  0 Multiplicity = 1

 SCF Done:  E(RHF) =  -359.597269379     A.U. after   16 cycles
 Normal termination of Gaussian 16 at Wed Apr  9 17:15:30 2025.
 Gaussian 16:  ES64L-G16RevC.01  3-Jul-2019

 ----------------------------------------------------------------------
 #t hf aug-cc-pvdz iop(5/13=1,5/36=2,99/5=2) pseudo=read geom=check gue
 ss=(read,tcheck) scf=(maxcycle=1)
 ----------------------------------------------------------------------
 -----
 title
 -----
 Structure from the checkpoint file:  "Grambow2020_wb97xd3_009420_reverse_mol2.chk"
 Charge =  0 Multiplicity = 1

                         Standard orientation:
 ---------------------------------------------------------------------
 Center     Atomic      Atomic             Coordinates (Angstroms)
 Number     Number       Type             X           Y           Z
 ---------------------------------------------------------------------
      1          8           0        0.976628   -1.547603   -0.426731
      2          6           0        1.083702   -0.199151   -0.036801
      3          6           0        0.285947    0.717298   -1.003936
      4          8           0       -1.146446    0.594074   -0.868585
      5          6           0       -1.555796   -0.096171    0.200218
      6          7           0       -0.805677   -0.221346    1.225911
      7          6           0        0.419962    0.251053    1.247677
      8          1           0        0.226253   -1.947805    0.021429
      9          1           0        2.135885    0.076487   -0.089527
     10          1           0        0.540769    1.771080   -0.892638
     11          1           0        0.525537    0.375920   -2.009817
     12          1           0       -2.568707   -0.471355    0.138423
     13          1           0        2.129368    2.449123    1.273131
     14          1           0        2.606286    2.886029    0.897200
 ---------------------------------------------------------------------

 SCF Done:  E(RHF) =  -359.710302689     A.U. after    2 cycles

 The electronic state is 1-A.
 Alpha  occ. eigenvalues --  -20.64094 -20.59415 -15.65768 -11.39038 -11.32684
 Alpha  occ. eigenvalues --  -11.31926 -11.29625  -1.43200  -1.35150  -1.24668
 Alpha  occ. eigenvalues --   -1.07348  -0.92597  -0.92015  -0.77449  -0.75486
 Alpha  occ. eigenvalues --   -0.72589  -0.71865  -0.64400  -0.62001  -0.60596
 Alpha  occ. eigenvalues --   -0.58547  -0.56369  -0.55380  -0.49175  -0.48761
 Alpha  occ. eigenvalues --   -0.47246  -0.33398
 Alpha virt. eigenvalues --    0.03026   0.04213   0.04918   0.05381   0.06391
 Alpha virt. eigenvalues --    0.06632   0.07771   0.08203   0.09241   0.10613
 Alpha virt. eigenvalues --    0.11843   0.13198   0.13408   0.14290   0.14956

 Mulliken charges:
               1
     1  O   -0.631441
     2  C    0.648228
     3  C    0.723751
     4  O   -0.578640
     5  C    0.662750
     6  N   -0.293214
     7  C   -0.009907
     8  H    0.177101
     9  H   -0.179501
    10  H   -0.185215
    11  H   -0.099261
    12  H   -0.257663
    13  H    0.038164
    14  H   -0.015149
 Sum of Mulliken charges =   0.00000

 Dipole moment (field-independent basis, Debye):
    X=             -1.2305    Y=             -0.2000    Z=             -1.9039  Tot=              2.2758

 Test job not archived.
 1\1\GINC-SE103\SP\RHF\Aug-CC-pVDZ\C4H7N1O2\OHZDE\09-Apr-2025\0\\#t hf
 aug-cc-pvdz iop(5/13=1,5/36=2,99/5=2) pseudo=read geom=check guess=(re
 ad,tcheck) scf=(maxcycle=1)\\title\\0,1\O,0,-0.55296281,-0.3280399,1.9
 0750066\C,0,-0.64637052,-0.401191,0.50473285\C,0,-0.32133299,0.9737674
 7,-0.13984597\O,0,1.07479829,1.33422137,-0.06144424\C,0,1.89076684,0.3
 519452,0.33311273\N,0,1.5554316,-0.87259007,0.19725665\C,0,0.37345712,
 -1.21895028,-0.25968783\H,0,0.34019699,-0.55921853,2.17748923\H,0,-1.6
 7336433,-0.66458073,0.25623145\H,0,-0.62081806,1.03026842,-1.18621794\

 Normal termination of Gaussian 16 at Wed Apr  9 17:15:34 2025.
