 Gaussian 16, Revision C.01,

 ----------------------------------------------------------------------
 #t hf aug-cc-pvdz symm=none int=(grid=ultrafine) guess=(read,tcheck) s
 table=(opt,rrhf)
 ----------------------------------------------------------------------
 -----
 title
 -----
 Symbolic Z-matrix:
 Charge =  0 Multiplicity = 1

 SCF Done:  E(RHF) =  -357.326970785     A.U. after   16 cycles
 Normal termination of Gaussian 16 at Wed Apr  9 16:34:47 2025.
 Gaussian 16:  ES64L-G16RevC.01  3-Jul-2019

 ----------------------------------------------------------------------
 #t hf aug-cc-pvdz iop(5/13=1,5/36=2,99/5=2) pseudo=read geom=check gue
 ss=(read,tcheck) scf=(maxcycle=1)
 ----------------------------------------------------------------------
 -----
 title
 -----
 Structure from the checkpoint file:  "Grambow2020_wb97xd3_008637_forward_mol1.chk"
 Charge =  0 Multiplicity = 1

                         Standard orientation:
 ---------------------------------------------------------------------
 Center     Atomic      Atomic             Coordinates (Angstroms)
 Number     Number       Type             X           Y           Z
 ---------------------------------------------------------------------
      1          7           0       -2.133274    0.111762    0.534352
      2          6           0       -1.155101   -0.362377   -0.219687
      3          6           0       -0.626869    0.987469   -0.385720
      4          6           0        0.712032    1.209038   -0.036918
      5          6           0        1.552327    0.160892    0.104579
      6          8           0        2.373777   -0.612809    0.236582
      7          8           0       -0.572235   -1.421422   -0.391744
      8          1           0       -2.285236   -0.456674    1.368616
      9          1           0       -1.250185    1.793968   -0.736474
     10          1           0        1.161673    2.184090    0.095171
 ---------------------------------------------------------------------

 SCF Done:  E(RHF) =  -357.437242380     A.U. after    2 cycles

 The electronic state is 1-A.
 Alpha  occ. eigenvalues --  -20.71115 -20.53473 -15.62504 -11.46776 -11.35980
 Alpha  occ. eigenvalues --  -11.35767 -11.30364  -1.51720  -1.34486  -1.19066
 Alpha  occ. eigenvalues --   -1.12993  -0.96146  -0.83361  -0.79683  -0.74400
 Alpha  occ. eigenvalues --   -0.71611  -0.69807  -0.66759  -0.64414  -0.62410
 Alpha  occ. eigenvalues --   -0.57049  -0.47991  -0.45095  -0.42728  -0.35696
 Alpha virt. eigenvalues --    0.01952   0.03540   0.04176   0.05186   0.06855
 Alpha virt. eigenvalues --    0.08562   0.09532   0.10234   0.11137   0.11434
 Alpha virt. eigenvalues --    0.12429   0.12954   0.14256   0.14775   0.15100

 Mulliken charges:
               1
     1  N   -0.358292
     2  C    0.233658
     3  C    0.441298
     4  C    1.117911
     5  C   -0.306568
     6  O   -0.102566
     7  O   -0.516427
     8  H   -0.005991
     9  H   -0.242403
    10  H   -0.260620
 Sum of Mulliken charges =  -0.00000

 Dipole moment (field-independent basis, Debye):
    X=              1.8838    Y=              4.9145    Z=              0.5333  Tot=              5.2901

 Test job not archived.
 1\1\GINC-SE219\SP\RHF\Aug-CC-pVDZ\C4H3N1O2\OHZDE\09-Apr-2025\0\\#t hf
 aug-cc-pvdz iop(5/13=1,5/36=2,99/5=2) pseudo=read geom=check guess=(re
 ad,tcheck) scf=(maxcycle=1)\\title\\0,1\N,0,1.90077785,-0.47263726,0.3
 2365115\C,0,1.09911989,0.2437523,-0.44728134\C,0,0.07613676,-0.7918056
 6,-0.34826083\C,0,-1.19349789,-0.41007327,0.10530459\C,0,-1.54218632,0
 .89496813,0.10818442\O,0,-1.98045398,1.9424099,0.14825296\O,0,0.953242
 89,1.41270036,-0.76851639\H,0,2.35726099,0.09690174,1.03741387\H,0,0.2
 9460951,-1.82001854,-0.58708855\H,0,-1.96500871,-1.0961997,0.42834013\

 Normal termination of Gaussian 16 at Wed Apr  9 16:34:52 2025.
