 Gaussian 16, Revision C.01,

 ----------------------------------------------------------------------
 #t hf aug-cc-pvdz symm=none int=(grid=ultrafine) guess=(read,tcheck) s
 table=(opt,rrhf)
 ----------------------------------------------------------------------
 -----
 title
 -----
 Symbolic Z-matrix:
 Charge =  0 Multiplicity = 1

 SCF Done:  E(RHF) =  -359.543803479     A.U. after   14 cycles
 Normal termination of Gaussian 16 at Wed Apr  9 03:45:29 2025.
 Gaussian 16:  ES64L-G16RevC.01  3-Jul-2019

 ----------------------------------------------------------------------
 #t hf aug-cc-pvdz iop(5/13=1,5/36=2,99/5=2) pseudo=read geom=check gue
 ss=(read,tcheck) scf=(maxcycle=1)
 ----------------------------------------------------------------------
 -----
 title
 -----
 Structure from the checkpoint file:  "Grambow2020_wb97xd3_007891_forward_mol1.chk"
 Charge =  0 Multiplicity = 1

                         Standard orientation:
 ---------------------------------------------------------------------
 Center     Atomic      Atomic             Coordinates (Angstroms)
 Number     Number       Type             X           Y           Z
 ---------------------------------------------------------------------
      1          6           0       -0.983383    1.621926   -0.045609
      2          6           0       -0.360464    0.289476    0.185037
      3          7           0       -1.046811   -0.776639    0.106708
      4          8           0       -2.393725   -0.828850   -0.181612
      5          6           0        1.085346    0.182430    0.514638
      6          6           0        1.914542   -0.908360    0.021829
      7          8           0        1.983181    0.379858   -0.568835
      8          1           0       -2.018054    1.500648   -0.360162
      9          1           0       -0.955679    2.215207    0.871663
     10          1           0       -0.422082    2.162541   -0.809525
     11          1           0       -1.566973   -1.771805    0.078528
     12          1           0        1.383319    0.694453    1.428339
     13          1           0        2.791352   -1.206983    0.588132
     14          1           0        1.463900   -1.678476   -0.595721
 ---------------------------------------------------------------------

 SCF Done:  E(RHF) =  -359.656140020     A.U. after    2 cycles

 The electronic state is 1-A.
 Alpha  occ. eigenvalues --  -20.60790 -20.55643 -15.72752 -11.32642 -11.32563
 Alpha  occ. eigenvalues --  -11.31455 -11.25089  -1.40848  -1.37291  -1.15331
 Alpha  occ. eigenvalues --   -0.99325  -0.95396  -0.90095  -0.81118  -0.75775
 Alpha  occ. eigenvalues --   -0.71674  -0.64543  -0.62857  -0.61989  -0.58019
 Alpha  occ. eigenvalues --   -0.56492  -0.56381  -0.53763  -0.48615  -0.47884
 Alpha  occ. eigenvalues --   -0.41971  -0.38801
 Alpha virt. eigenvalues --    0.02888   0.03802   0.04464   0.05364   0.06530
 Alpha virt. eigenvalues --    0.06908   0.08124   0.09195   0.10495   0.12070
 Alpha virt. eigenvalues --    0.12274   0.13150   0.13600   0.14596   0.15210

 Mulliken charges:
               1
     1  C    0.383385
     2  C   -0.097082
     3  N   -0.271936
     4  O   -0.903921
     5  C    0.937173
     6  C    0.963774
     7  O   -0.717998
     8  H   -0.064843
     9  H    0.066703
    10  H    0.071492
    11  H    0.337872
    12  H   -0.277846
    13  H   -0.197522
    14  H   -0.229252
 Sum of Mulliken charges =   0.00000

 Dipole moment (field-independent basis, Debye):
    X=              2.6107    Y=             -0.3608    Z=              2.1339  Tot=              3.3911

 Test job not archived.
 1\1\GINC-SE403\SP\RHF\Aug-CC-pVDZ\C4H7N1O2\OHZDE\09-Apr-2025\0\\#t hf
 aug-cc-pvdz iop(5/13=1,5/36=2,99/5=2) pseudo=read geom=check guess=(re
 ad,tcheck) scf=(maxcycle=1)\\title\\0,1\C,0,-1.35899662,-1.18776155,-0
 .23387433\C,0,-0.44626715,-0.01999257,-0.09284956\N,0,-0.8540752,1.072
 86042,0.41031379\O,0,-2.13592542,1.30445867,0.86115136\C,0,0.9678008,-
 0.11243253,-0.54266128\C,0,2.05384976,0.54183613,0.17335453\O,0,1.8379
 6691,-0.85471034,0.30044834\H,0,-2.32031626,-0.96761112,0.22611811\H,0
 ,-1.51306714,-1.42075477,-1.29033816\H,0,-0.9109484,-2.06336529,0.2388

 Normal termination of Gaussian 16 at Wed Apr  9 03:45:34 2025.
