 Gaussian 16, Revision C.01,

 ----------------------------------------------------------------------
 #t hf aug-cc-pvdz symm=none int=(grid=ultrafine) guess=(read,tcheck) s
 table=(opt,rrhf)
 ----------------------------------------------------------------------
 -----
 title
 -----
 Symbolic Z-matrix:
 Charge =  0 Multiplicity = 1

 SCF Done:  E(RHF) =  -284.847701837     A.U. after   15 cycles
 Normal termination of Gaussian 16 at Wed Apr  9 14:22:16 2025.
 Gaussian 16:  ES64L-G16RevC.01  3-Jul-2019

 ----------------------------------------------------------------------
 #t hf aug-cc-pvdz iop(5/13=1,5/36=2,99/5=2) pseudo=read geom=check gue
 ss=(read,tcheck) scf=(maxcycle=1)
 ----------------------------------------------------------------------
 -----
 title
 -----
 Structure from the checkpoint file:  "Grambow2020_wb97xd3_006082_forward_mol2.chk"
 Charge =  0 Multiplicity = 1

                         Standard orientation:
 ---------------------------------------------------------------------
 Center     Atomic      Atomic             Coordinates (Angstroms)
 Number     Number       Type             X           Y           Z
 ---------------------------------------------------------------------
      1          6           0        1.630582   -1.173431   -0.053738
      2          6           0        1.148921    0.166442    0.430203
      3          7           0        0.779227    1.156473   -0.557524
      4          6           0       -0.265433    0.635778    0.324876
      5          6           0       -1.308657   -0.195681   -0.329745
      6          8           0       -2.375085   -0.429882    0.170401
      7          1           0        1.150881   -1.452834   -0.990894
      8          1           0        1.429025   -1.948701    0.687761
      9          1           0        2.707671   -1.141186   -0.227686
     10          1           0        1.655581    0.530266    1.320824
     11          1           0        1.046641    2.093428   -0.286394
     12          1           0       -0.638601    1.252350    1.136020
     13          1           0       -1.037585   -0.588226   -1.329757
 ---------------------------------------------------------------------

 SCF Done:  E(RHF) =  -284.934985310     A.U. after    2 cycles

 The electronic state is 1-A.
 Alpha  occ. eigenvalues --  -20.57372 -15.64518 -11.34377 -11.29657 -11.28540
 Alpha  occ. eigenvalues --  -11.24339  -1.36513  -1.26814  -1.00435  -0.94924
 Alpha  occ. eigenvalues --   -0.84296  -0.78112  -0.73549  -0.67097  -0.65191
 Alpha  occ. eigenvalues --   -0.59817  -0.58259  -0.56295  -0.54529  -0.49531
 Alpha  occ. eigenvalues --   -0.47041  -0.44366  -0.40600
 Alpha virt. eigenvalues --    0.02767   0.03895   0.04445   0.04832   0.06605
 Alpha virt. eigenvalues --    0.06848   0.07829   0.10066   0.11440   0.11884
 Alpha virt. eigenvalues --    0.13116   0.13764   0.14149   0.14605   0.15340

 Mulliken charges:
               1
     1  C    0.363608
     2  C    0.149275
     3  N   -0.546464
     4  C    0.644934
     5  C    0.537728
     6  O   -0.468364
     7  H   -0.022834
     8  H    0.070848
     9  H    0.039409
    10  H   -0.353231
    11  H   -0.018342
    12  H   -0.334699
    13  H   -0.061868
 Sum of Mulliken charges =  -0.00000

 Dipole moment (field-independent basis, Debye):
    X=              3.6267    Y=              1.0652    Z=              0.6056  Tot=              3.8281

 Test job not archived.
 1\1\GINC-SE219\SP\RHF\Aug-CC-pVDZ\C4H7N1O1\OHZDE\09-Apr-2025\0\\#t hf
 aug-cc-pvdz iop(5/13=1,5/36=2,99/5=2) pseudo=read geom=check guess=(re
 ad,tcheck) scf=(maxcycle=1)\\title\\0,1\C,0,-0.94362106,-0.39930983,1.
 23401942\C,0,-0.39166189,-0.73543712,-0.12385165\N,0,-0.68221137,0.162
 34164,-1.22021548\C,0,0.7096123,0.02211481,-0.79099414\C,0,1.31464344,
 1.22304673,-0.15864066\O,0,2.49945929,1.38029948,-0.04138786\H,0,-1.00
 966708,0.67807738,1.38001629\H,0,-0.31785887,-0.82195063,2.02223588\H,
 0,-1.94860614,-0.81188473,1.33987281\H,0,-0.37993662,-1.79834985,-0.35

 Normal termination of Gaussian 16 at Wed Apr  9 14:22:20 2025.
