 Gaussian 16, Revision C.01,

 ----------------------------------------------------------------------
 #t hf aug-cc-pvdz symm=none int=(grid=ultrafine) guess=(read,tcheck) s
 table=(opt,rrhf)
 ----------------------------------------------------------------------
 -----
 title
 -----
 Symbolic Z-matrix:
 Charge =  0 Multiplicity = 1

 SCF Done:  E(RHF) =  -344.775481281     A.U. after   15 cycles

 1\1\GINC-SE116\Stability\RHF\Aug-CC-pVDZ\C5H10O2\OHZDE\09-Apr-2025\0\\
 #t hf aug-cc-pvdz symm=none int=(grid=ultrafine) guess=(read,tcheck) s
 table=(opt,rrhf)\\title\\0,1\C,0,-2.0760787,-0.39035165,0.50995941\C,0
 ,-0.91570417,0.56797299,0.460404\O,0,-0.75148127,1.33430166,1.60394433
 \C,0,0.44223876,-0.82781927,-1.39165855\C,0,1.90265405,-0.38015479,-1.
 19508068\C,0,1.48988735,0.52401417,-0.05503563\O,0,0.26726383,-0.21898
 391,0.24850785\H,0,-3.00185109,0.16647834,0.6507435\H,0,-2.12753932,-0
 .94421887,-0.42672429\H,0,-1.95043364,-1.09707767,1.33431938\H,0,-0.99

 Normal termination of Gaussian 16 at Wed Apr  9 03:33:39 2025.
 Gaussian 16:  ES64L-G16RevC.01  3-Jul-2019

 ----------------------------------------------------------------------
 #t hf aug-cc-pvdz iop(5/13=1,5/36=2,99/5=2) pseudo=read geom=check gue
 ss=(read,tcheck) scf=(maxcycle=1)
 ----------------------------------------------------------------------
 -----
 title
 -----
 Structure from the checkpoint file:  "Grambow2020_wb97xd3_007061_reverse_mol2.chk"
 Charge =  0 Multiplicity = 1

                         Standard orientation:
 ---------------------------------------------------------------------
 Center     Atomic      Atomic             Coordinates (Angstroms)
 Number     Number       Type             X           Y           Z
 ---------------------------------------------------------------------
      1          6           0       -1.844370    1.177103   -0.057973
      2          6           0       -1.060642   -0.050011    0.325792
      3          8           0       -1.694415   -1.250418    0.044245
      4          6           0        1.327633    1.179170    0.238410
      5          6           0        2.328333    0.028410    0.023448
      6          6           0        1.195821   -0.973681   -0.005396
      7          8           0        0.181321    0.005498   -0.393972
      8          1           0       -2.790950    1.187442    0.481299
      9          1           0       -1.272108    2.067078    0.201359
     10          1           0       -2.040888    1.181721   -1.133230
     11          1           0       -0.814627   -0.058278    1.390077
     12          1           0       -2.083615   -1.199988   -0.833235
     13          1           0        1.341818    1.846113   -0.635404
     14          1           0        2.894797    0.029110   -0.913713
     15          1           0        3.020563   -0.110341    0.854149
     16          1           0        0.941281   -1.370316    0.977815
     17          1           0        1.227826   -1.779126   -0.736991
 ---------------------------------------------------------------------

 SCF Done:  E(RHF) =  -344.883728530     A.U. after    2 cycles

 The electronic state is 1-A.
 Alpha  occ. eigenvalues --  -20.62339 -20.59747 -11.35973 -11.30520 -11.23746
 Alpha  occ. eigenvalues --  -11.23603 -11.22686  -1.40739  -1.33718  -1.06781
 Alpha  occ. eigenvalues --   -0.99791  -0.90068  -0.87469  -0.78380  -0.73139
 Alpha  occ. eigenvalues --   -0.69636  -0.67402  -0.65537  -0.62065  -0.58270
 Alpha  occ. eigenvalues --   -0.56030  -0.54823  -0.53245  -0.51471  -0.50929
 Alpha  occ. eigenvalues --   -0.48403  -0.45816  -0.31159
 Alpha virt. eigenvalues --    0.03213   0.04377   0.04809   0.04929   0.06092
 Alpha virt. eigenvalues --    0.06329   0.06701   0.07263   0.08271   0.09267
 Alpha virt. eigenvalues --    0.11674   0.12148   0.13165   0.14449   0.14698

 Mulliken charges:
               1
     1  C    0.387098
     2  C    0.802602
     3  O   -0.525759
     4  C    0.102139
     5  C    0.427229
     6  C    0.628736
     7  O   -0.811847
     8  H   -0.005406
     9  H    0.012592
    10  H   -0.077308
    11  H   -0.299675
    12  H    0.171297
    13  H   -0.200606
    14  H   -0.151853
    15  H   -0.116589
    16  H   -0.116369
    17  H   -0.226280
 Sum of Mulliken charges =   0.00000

 Dipole moment (field-independent basis, Debye):
    X=             -0.9831    Y=             -1.3162    Z=             -1.7557  Tot=              2.4044

 Test job not archived.
 1\1\GINC-SE116\SP\RHF\Aug-CC-pVDZ\C5H10O2\OHZDE\09-Apr-2025\0\\#t hf a
 ug-cc-pvdz iop(5/13=1,5/36=2,99/5=2) pseudo=read geom=check guess=(rea
 d,tcheck) scf=(maxcycle=1)\\title\\0,1\C,0,-2.0760787,-0.39035165,0.50
 995941\C,0,-0.91570417,0.56797299,0.460404\O,0,-0.75148127,1.33430166,
 1.60394433\C,0,0.44223876,-0.82781927,-1.39165855\C,0,1.90265405,-0.38
 015479,-1.19508068\C,0,1.48988735,0.52401417,-0.05503563\O,0,0.2672638
 3,-0.21898391,0.24850785\H,0,-3.00185109,0.16647834,0.6507435\H,0,-2.1
 2753932,-0.94421887,-0.42672429\H,0,-1.95043364,-1.09707767,1.33431938

 Normal termination of Gaussian 16 at Wed Apr  9 03:33:45 2025.
