 Gaussian 16, Revision C.01,

 ----------------------------------------------------------------------
 #t hf aug-cc-pvdz symm=none int=(grid=ultrafine) guess=(read,tcheck) s
 table=(opt,rrhf)
 ----------------------------------------------------------------------
 -----
 title
 -----
 Symbolic Z-matrix:
 Charge =  0 Multiplicity = 1

 SCF Done:  E(RHF) =  -307.032974008     A.U. after   13 cycles

 1\1\GINC-SE098\Stability\RHF\Aug-CC-pVDZ\C4H10O2\OHZDE\09-Apr-2025\0\\
 #t hf aug-cc-pvdz symm=none int=(grid=ultrafine) guess=(read,tcheck) s
 table=(opt,rrhf)\\title\\0,1\O,0,-0.56264542,0.1294733,-2.27568833\C,0
 ,-1.88122699,-0.67809416,0.97398286\C,0,-0.60206182,-0.94434464,0.6719
 5804\C,0,0.58692894,-0.25251964,1.28374605\C,0,1.4759787,0.47701923,0.
 27204452\O,0,0.74307994,1.6067083,-0.23910273\H,0,-0.25764246,0.749930
 53,-1.57668829\H,0,-2.14721884,0.09547382,1.69695366\H,0,-2.70585486,-
 1.22589472,0.51509788\H,0,-1.35702815,-0.25694675,-1.86906893\H,0,-0.3

 Normal termination of Gaussian 16 at Wed Apr  9 14:19:22 2025.
 Gaussian 16:  ES64L-G16RevC.01  3-Jul-2019

 ----------------------------------------------------------------------
 #t hf aug-cc-pvdz iop(5/13=1,5/36=2,99/5=2) pseudo=read geom=check gue
 ss=(read,tcheck) scf=(maxcycle=1)
 ----------------------------------------------------------------------
 -----
 title
 -----
 Structure from the checkpoint file:  "Grambow2020_b97d3_007162_reverse_mol2.chk"
 Charge =  0 Multiplicity = 1

                         Standard orientation:
 ---------------------------------------------------------------------
 Center     Atomic      Atomic             Coordinates (Angstroms)
 Number     Number       Type             X           Y           Z
 ---------------------------------------------------------------------
      1          8           0        0.754053    2.214366   -0.312426
      2          6           0       -2.159695    0.267726    0.507240
      3          6           0       -1.290933   -0.162580   -0.419291
      4          6           0       -0.397405   -1.364608   -0.266505
      5          6           0        1.098563   -1.048600   -0.358137
      6          8           0        1.470550   -0.288980    0.807715
      7          1           0        0.965214    1.426544    0.236521
      8          1           0       -2.263811   -0.237453    1.469425
      9          1           0       -2.800153    1.134363    0.335701
     10          1           0       -0.195644    2.331648   -0.139153
     11          1           0       -1.202203    0.375105   -1.367355
     12          1           0       -0.623310   -2.088952   -1.067467
     13          1           0       -0.592500   -1.867188    0.691976
     14          1           0        1.309823   -0.479016   -1.278585
     15          1           0        1.666326   -1.993727   -0.391441
     16          1           0        2.436253   -0.156042    0.768219
 ---------------------------------------------------------------------

 SCF Done:  E(RHF) =  -307.130670648     A.U. after    2 cycles

 The electronic state is 1-A.
 Alpha  occ. eigenvalues --  -20.59576 -20.54626 -11.30472 -11.25301 -11.25005
 Alpha  occ. eigenvalues --  -11.23998  -1.33767  -1.27389  -1.07657  -0.98826
 Alpha  occ. eigenvalues --   -0.85925  -0.76672  -0.72855  -0.70108  -0.65252
 Alpha  occ. eigenvalues --   -0.64473  -0.59537  -0.58316  -0.56810  -0.55276
 Alpha  occ. eigenvalues --   -0.51197  -0.50226  -0.49391  -0.47224  -0.36927
 Alpha virt. eigenvalues --    0.03139   0.04220   0.04515   0.04893   0.06191
 Alpha virt. eigenvalues --    0.06674   0.07196   0.07896   0.08641   0.10816
 Alpha virt. eigenvalues --    0.11147   0.12352   0.13761   0.13793   0.14467

 Mulliken charges:
               1
     1  O   -0.361245
     2  C    0.346340
     3  C    0.819046
     4  C   -0.067237
     5  C    0.722372
     6  O   -0.631110
     7  H    0.223525
     8  H   -0.265513
     9  H   -0.317717
    10  H    0.191212
    11  H   -0.431592
    12  H    0.039422
    13  H   -0.122479
    14  H   -0.140970
    15  H   -0.195482
    16  H    0.191427
 Sum of Mulliken charges =   0.00000

 Dipole moment (field-independent basis, Debye):
    X=              0.1287    Y=             -2.6610    Z=             -0.2099  Tot=              2.6724

 Test job not archived.
 1\1\GINC-SE098\SP\RHF\Aug-CC-pVDZ\C4H10O2\OHZDE\09-Apr-2025\0\\#t hf a
 ug-cc-pvdz iop(5/13=1,5/36=2,99/5=2) pseudo=read geom=check guess=(rea
 d,tcheck) scf=(maxcycle=1)\\title\\0,1\O,0,-0.56264542,0.1294733,-2.27
 568833\C,0,-1.88122699,-0.67809416,0.97398286\C,0,-0.60206182,-0.94434
 464,0.67195804\C,0,0.58692894,-0.25251964,1.28374605\C,0,1.4759787,0.4
 7701923,0.27204452\O,0,0.74307994,1.6067083,-0.23910273\H,0,-0.2576424
 6,0.74993053,-1.57668829\H,0,-2.14721884,0.09547382,1.69695366\H,0,-2.
 70585486,-1.22589472,0.51509788\H,0,-1.35702815,-0.25694675,-1.8690689

 Normal termination of Gaussian 16 at Wed Apr  9 14:19:26 2025.
