 Gaussian 16, Revision C.01,

 ----------------------------------------------------------------------
 #t hf aug-cc-pvdz symm=none int=(grid=ultrafine) guess=(read,tcheck) s
 table=(opt,rrhf)
 ----------------------------------------------------------------------
 -----
 title
 -----
 Symbolic Z-matrix:
 Charge =  0 Multiplicity = 1

 SCF Done:  E(RHF) =  -286.762934552     A.U. after   17 cycles
 Normal termination of Gaussian 16 at Wed Apr  9 16:34:14 2025.
 Gaussian 16:  ES64L-G16RevC.01  3-Jul-2019

 ----------------------------------------------------------------------
 #t hf aug-cc-pvdz iop(5/13=1,5/36=2,99/5=2) pseudo=read geom=check gue
 ss=(read,tcheck) scf=(maxcycle=1)
 ----------------------------------------------------------------------
 -----
 title
 -----
 Structure from the checkpoint file:  "Grambow2020_wb97xd3_008593_forward_mol1.chk"
 Charge =  0 Multiplicity = 1

                         Standard orientation:
 ---------------------------------------------------------------------
 Center     Atomic      Atomic             Coordinates (Angstroms)
 Number     Number       Type             X           Y           Z
 ---------------------------------------------------------------------
      1          6           0        2.238879   -1.076058    0.087271
      2          6           0        1.225543    0.041509   -0.045745
      3          6           0       -0.120649   -0.447036   -0.318625
      4          6           0       -1.351137    0.100042    0.046058
      5          6           0       -2.590194   -0.728091    0.181245
      6          6           0       -1.288621    1.439130   -0.172722
      7          7           0        1.521620    1.277743    0.082278
      8          1           0        3.226687   -0.682458    0.323574
      9          1           0        1.944199   -1.782957    0.865006
     10          1           0        2.306337   -1.632519   -0.850497
     11          1           0       -0.161943   -1.387293   -0.866559
     12          1           0       -3.478675   -0.140671   -0.045372
     13          1           0       -2.666317   -1.094824    1.207511
     14          1           0       -2.551349   -1.600319   -0.474793
     15          1           0       -0.441054    2.015013    0.217122
     16          1           0        2.487843    1.384854    0.383171
 ---------------------------------------------------------------------

 SCF Done:  E(RHF) =  -286.848238688     A.U. after    2 cycles

 The electronic state is 1-A.
 Alpha  occ. eigenvalues --  -15.61009 -11.30795 -11.27761 -11.26189 -11.25733
 Alpha  occ. eigenvalues --  -11.25082 -11.24355  -1.19643  -1.11049  -1.00252
 Alpha  occ. eigenvalues --   -0.96087  -0.90552  -0.78582  -0.69446  -0.66484
 Alpha  occ. eigenvalues --   -0.61702  -0.61649  -0.59387  -0.58873  -0.57297
 Alpha  occ. eigenvalues --   -0.54178  -0.53165  -0.45193  -0.41544  -0.39234
 Alpha  occ. eigenvalues --   -0.30284
 Alpha virt. eigenvalues --    0.02908   0.03423   0.04126   0.04710   0.05540
 Alpha virt. eigenvalues --    0.06089   0.06604   0.07420   0.08517   0.08805
 Alpha virt. eigenvalues --    0.10483   0.11120   0.12331   0.12757   0.13831

 Mulliken charges:
               1
     1  C    0.402701
     2  C   -0.116387
     3  C    0.262417
     4  C   -0.131445
     5  C    0.645395
     6  C   -0.132132
     7  N   -0.425003
     8  H   -0.174465
     9  H    0.088012
    10  H    0.075730
    11  H   -0.504955
    12  H    0.018180
    13  H    0.117397
    14  H   -0.036337
    15  H   -0.074262
    16  H   -0.014845
 Sum of Mulliken charges =  -0.00000

 Dipole moment (field-independent basis, Debye):
    X=              1.3985    Y=             -3.3763    Z=              1.2408  Tot=              3.8594

 Test job not archived.
 1\1\GINC-SE100\SP\RHF\Aug-CC-pVDZ\C6H9N1\OHZDE\09-Apr-2025\0\\#t hf au
 g-cc-pvdz iop(5/13=1,5/36=2,99/5=2) pseudo=read geom=check guess=(read
 ,tcheck) scf=(maxcycle=1)\\title\\0,1\C,0,2.30408634,-0.525034,0.04782
 294\C,0,1.160882,0.46613005,0.11244778\C,0,-0.09118905,-0.08292229,-0.
 39374434\C,0,-1.40190143,0.2064238,-0.0133497\C,0,-2.52607034,-0.76294
 494,-0.20285401\C,0,-1.5049351,1.55417668,0.1203558\N,0,1.2829867,1.65
 081764,0.57497676\H,0,3.21614353,-0.09795581,0.46289134\H,0,2.06208434
 ,-1.43978712,0.59194948\H,0,2.49752395,-0.80477313,-0.99041391\H,0,0.0

 Normal termination of Gaussian 16 at Wed Apr  9 16:34:20 2025.
