 Gaussian 16, Revision C.01,

 ----------------------------------------------------------------------
 #t hf aug-cc-pvdz symm=none int=(grid=ultrafine) guess=(read,tcheck) s
 table=(opt,rrhf)
 ----------------------------------------------------------------------
 -----
 title
 -----
 Symbolic Z-matrix:
 Charge =  0 Multiplicity = 1

 SCF Done:  E(RHF) =  -317.436836469     A.U. after   17 cycles
 Normal termination of Gaussian 16 at Wed Apr  9 16:49:56 2025.
 Gaussian 16:  ES64L-G16RevC.01  3-Jul-2019

 ----------------------------------------------------------------------
 #t hf aug-cc-pvdz iop(5/13=1,5/36=2,99/5=2) pseudo=read geom=check gue
 ss=(read,tcheck) scf=(maxcycle=1)
 ----------------------------------------------------------------------
 -----
 title
 -----
 Structure from the checkpoint file:  "Grambow2020_wb97xd3_008973_reverse_mol1.chk"
 Charge =  0 Multiplicity = 1

                         Standard orientation:
 ---------------------------------------------------------------------
 Center     Atomic      Atomic             Coordinates (Angstroms)
 Number     Number       Type             X           Y           Z
 ---------------------------------------------------------------------
      1          7           0        0.103939    1.651829   -0.373017
      2          6           0        0.051779    0.528850    0.492805
      3          6           0        1.470163   -0.012910    0.485917
      4          7           0        1.368376   -0.924958   -0.412528
      5          6           0       -0.142767   -1.025286   -0.183870
      6          7           0       -1.495785   -0.609444   -0.555793
      7          6           0       -1.346263    0.017356    0.613180
      8          1           0        0.650483    1.533782   -1.215734
      9          1           0       -0.805801    2.031718   -0.589591
     10          1           0        2.400915    0.389072    0.880770
     11          1           0       -0.198111   -1.913758    0.447569
     12          1           0       -2.080665    0.089138    1.418153
 ---------------------------------------------------------------------

 SCF Done:  E(RHF) =  -317.523702817     A.U. after    2 cycles

 The electronic state is 1-A.
 Alpha  occ. eigenvalues --  -15.66275 -15.64323 -15.63536 -11.35142 -11.33503
 Alpha  occ. eigenvalues --  -11.32571 -11.32513  -1.32293  -1.22283  -1.16479
 Alpha  occ. eigenvalues --   -0.93349  -0.88830  -0.84352  -0.75498  -0.71649
 Alpha  occ. eigenvalues --   -0.68540  -0.64165  -0.60235  -0.58480  -0.52881
 Alpha  occ. eigenvalues --   -0.51370  -0.44332  -0.41972  -0.37069  -0.30502
 Alpha virt. eigenvalues --    0.02853   0.03733   0.03937   0.05375   0.06040
 Alpha virt. eigenvalues --    0.07119   0.09514   0.09949   0.10601   0.10946
 Alpha virt. eigenvalues --    0.12218   0.13026   0.13984   0.14467   0.15095

 Mulliken charges:
               1
     1  N   -0.310285
     2  C   -0.038635
     3  C    0.618536
     4  N   -0.636784
     5  C    0.896817
     6  N   -0.754587
     7  C    0.811699
     8  H    0.028966
     9  H    0.042295
    10  H   -0.216055
    11  H   -0.173153
    12  H   -0.268815
 Sum of Mulliken charges =  -0.00000

 Dipole moment (field-independent basis, Debye):
    X=              0.0264    Y=              1.6016    Z=              2.2580  Tot=              2.7684

 Test job not archived.
 1\1\GINC-SE454\SP\RHF\Aug-CC-pVDZ\C4H5N3\OHZDE\09-Apr-2025\0\\#t hf au
 g-cc-pvdz iop(5/13=1,5/36=2,99/5=2) pseudo=read geom=check guess=(read
 ,tcheck) scf=(maxcycle=1)\\title\\0,1\N,0,-1.54378574,0.16720164,-0.30
 130909\C,0,-0.34895073,-0.00740889,0.44389634\C,0,0.20569044,1.3981132
 2,0.59305192\N,0,1.03310574,1.4290194,-0.38869269\C,0,1.13665579,-0.09
 910913,-0.39015248\N,0,0.6744851,-1.38495152,-0.91447766\C,0,0.1557391
 7,-1.40718203,0.31521383\H,0,-1.49506549,0.83004732,-1.06359432\H,0,-1
 .95144636,-0.70240551,-0.61186236\H,0,-0.14930387,2.26123797,1.1523292

 Normal termination of Gaussian 16 at Wed Apr  9 16:50:01 2025.
