 Gaussian 16, Revision C.01,

 ----------------------------------------------------------------------
 #t hf aug-cc-pvdz symm=none int=(grid=ultrafine) guess=(read,tcheck) s
 table=(opt,rrhf)
 ----------------------------------------------------------------------
 -----
 title
 -----
 Symbolic Z-matrix:
 Charge =  0 Multiplicity = 1

 SCF Done:  E(RHF) =  -359.721094153     A.U. after   13 cycles
 Normal termination of Gaussian 16 at Wed Apr  9 15:40:55 2025.
 Gaussian 16:  ES64L-G16RevC.01  3-Jul-2019

 ----------------------------------------------------------------------
 #t hf aug-cc-pvdz iop(5/13=1,5/36=2,99/5=2) pseudo=read geom=check gue
 ss=(read,tcheck) scf=(maxcycle=1)
 ----------------------------------------------------------------------
 -----
 title
 -----
 Structure from the checkpoint file:  "Grambow2020_wb97xd3_007288_reverse_mol2.chk"
 Charge =  0 Multiplicity = 1

                         Standard orientation:
 ---------------------------------------------------------------------
 Center     Atomic      Atomic             Coordinates (Angstroms)
 Number     Number       Type             X           Y           Z
 ---------------------------------------------------------------------
      1          8           0        0.467773   -0.842911    0.994644
      2          6           0       -0.086760   -1.066490   -0.321080
      3          6           0       -1.517339   -0.594895   -0.431495
      4          7           0       -1.530792    0.758496    0.137482
      5          6           0       -0.178982    1.304766    0.016130
      6          6           0        0.732687    0.098696   -0.021255
      7          8           0        2.033442    0.336583   -0.362344
      8          1           0        2.529156   -0.482113   -0.279289
      9          1           0        0.278334   -1.943061   -0.845391
     10          1           0       -1.803290   -0.575103   -1.488788
     11          1           0       -2.226868   -1.234917    0.095122
     12          1           0       -1.757212    0.687127    1.118209
     13          1           0        0.047369    1.976713    0.844374
     14          1           0       -0.059303    1.860039   -0.918805
 ---------------------------------------------------------------------

 SCF Done:  E(RHF) =  -359.831900791     A.U. after    2 cycles

 The electronic state is 1-A.
 Alpha  occ. eigenvalues --  -20.60255 -20.59009 -15.61536 -11.35561 -11.29721
 Alpha  occ. eigenvalues --  -11.27231 -11.26810  -1.42139  -1.33951  -1.19231
 Alpha  occ. eigenvalues --   -0.99685  -0.96484  -0.83275  -0.81672  -0.75371
 Alpha  occ. eigenvalues --   -0.70756  -0.68369  -0.63595  -0.60440  -0.58562
 Alpha  occ. eigenvalues --   -0.57670  -0.53705  -0.53498  -0.51495  -0.49602
 Alpha  occ. eigenvalues --   -0.41529  -0.38274
 Alpha virt. eigenvalues --    0.03111   0.04334   0.04507   0.04887   0.06269
 Alpha virt. eigenvalues --    0.07280   0.07725   0.10625   0.11201   0.12548
 Alpha virt. eigenvalues --    0.13003   0.13765   0.14229   0.14840   0.15005

 Mulliken charges:
               1
     1  O   -0.832094
     2  C    0.217604
     3  C    0.892117
     4  N   -0.561663
     5  C    0.811132
     6  C    0.252292
     7  O   -0.583897
     8  H    0.123114
     9  H   -0.195293
    10  H   -0.092173
    11  H   -0.045507
    12  H    0.062386
    13  H   -0.010867
    14  H   -0.037150
 Sum of Mulliken charges =  -0.00000

 Dipole moment (field-independent basis, Debye):
    X=             -0.0880    Y=             -1.4659    Z=             -1.0851  Tot=              1.8259

 Test job not archived.
 1\1\GINC-SE120\SP\RHF\Aug-CC-pVDZ\C4H7N1O2\OHZDE\09-Apr-2025\0\\#t hf
 aug-cc-pvdz iop(5/13=1,5/36=2,99/5=2) pseudo=read geom=check guess=(re
 ad,tcheck) scf=(maxcycle=1)\\title\\0,1\O,0,1.32373045,-0.25161668,-1.
 01244534\C,0,0.94361414,0.38155098,0.2298246\C,0,-0.11470082,1.4415948
 4,0.03636462\N,0,-1.14659568,0.81929697,-0.80239644\C,0,-1.06063699,-0
 .62867398,-0.61130153\C,0,0.36914955,-0.88771573,-0.19207505\O,0,0.643
 9467,-2.14316297,0.26969728\H,0,1.58823484,-2.21263267,0.4321428\H,0,1
 .72784524,0.47219035,0.97369213\H,0,-0.52299529,1.71736466,1.01476878\

 Normal termination of Gaussian 16 at Wed Apr  9 15:41:00 2025.
