 Gaussian 16, Revision C.01,

 ----------------------------------------------------------------------
 #t hf aug-cc-pvdz symm=none int=(grid=ultrafine) guess=(read,tcheck) s
 table=(opt,rrhf)
 ----------------------------------------------------------------------
 -----
 title
 -----
 Symbolic Z-matrix:
 Charge =  0 Multiplicity = 1

 SCF Done:  E(RHF) =  -306.773484713     A.U. after   16 cycles

 1\1\GINC-SE097\Stability\RHF\Aug-CC-pVDZ\C4H10O2\OHZDE\09-Apr-2025\0\\
 #t hf aug-cc-pvdz symm=none int=(grid=ultrafine) guess=(read,tcheck) s
 table=(opt,rrhf)\\title\\0,1\O,0,-1.22176869,0.8702983,-1.11957179\C,0
 ,-1.81331799,-0.08684511,-0.40477113\C,0,0.0108921,-1.38499237,0.40679
 911\C,0,0.65301546,-0.26614225,1.24741601\C,0,1.24526163,0.48572344,0.
 05874902\O,0,0.99093324,1.9015139,0.13128422\H,0,-0.61062569,1.4205978
 9,-0.55573379\H,0,-2.04745232,0.08393005,0.6459698\H,0,-2.44514948,-0.
 74883639,-0.99256606\H,0,0.79087369,-2.11370739,0.12353793\H,0,-0.8231

 Normal termination of Gaussian 16 at Wed Apr  9 14:19:27 2025.
 Gaussian 16:  ES64L-G16RevC.01  3-Jul-2019

 ----------------------------------------------------------------------
 #t hf aug-cc-pvdz iop(5/13=1,5/36=2,99/5=2) pseudo=read geom=check gue
 ss=(read,tcheck) scf=(maxcycle=1)
 ----------------------------------------------------------------------
 -----
 title
 -----
 Structure from the checkpoint file:  "Grambow2020_b97d3_007161_forward_mol1.chk"
 Charge =  0 Multiplicity = 1

                         Standard orientation:
 ---------------------------------------------------------------------
 Center     Atomic      Atomic             Coordinates (Angstroms)
 Number     Number       Type             X           Y           Z
 ---------------------------------------------------------------------
      1          8           0        1.210610   -1.281051   -0.237840
      2          6           0        1.848046   -0.215163    0.246467
      3          6           0        0.416416    1.599367   -0.327544
      4          6           0       -0.786448    1.138192    0.515796
      5          6           0       -1.213242    0.025688   -0.437708
      6          8           0       -1.486739   -1.207074    0.255042
      7          1           0        0.310479   -1.386840    0.177867
      8          1           0        1.684656    0.094821    1.278578
      9          1           0        2.811572   -0.027633   -0.221931
     10          1           0        0.051684    2.227136   -1.159715
     11          1           0        1.234683    2.161035    0.147193
     12          1           0       -1.538564    1.905190    0.752938
     13          1           0       -0.463441    0.696994    1.469984
     14          1           0        0.278840    0.508663   -0.972026
     15          1           0       -1.993625    0.290204   -1.166434
     16          1           0       -1.755883   -1.853074   -0.426140
 ---------------------------------------------------------------------

 SCF Done:  E(RHF) =  -306.869704277     A.U. after    2 cycles

 The electronic state is 1-A.
 Alpha  occ. eigenvalues --  -20.63933 -20.57711 -11.38419 -11.24297 -11.23374
 Alpha  occ. eigenvalues --  -11.22129  -1.39692  -1.31043  -1.04048  -0.94669
 Alpha  occ. eigenvalues --   -0.85663  -0.77894  -0.77649  -0.69253  -0.68939
 Alpha  occ. eigenvalues --   -0.65618  -0.61306  -0.58948  -0.57115  -0.54127
 Alpha  occ. eigenvalues --   -0.51834  -0.48783  -0.45884  -0.41899  -0.22973
 Alpha virt. eigenvalues --    0.03006   0.04176   0.04444   0.04667   0.05743
 Alpha virt. eigenvalues --    0.06574   0.06722   0.07530   0.08009   0.09560
 Alpha virt. eigenvalues --    0.09936   0.12565   0.13304   0.13800   0.14811

 Mulliken charges:
               1
     1  O   -0.424371
     2  C    0.812391
     3  C    0.045675
     4  C    0.151476
     5  C    0.555783
     6  O   -0.635488
     7  H    0.355336
     8  H   -0.093585
     9  H   -0.242165
    10  H   -0.198718
    11  H   -0.238970
    12  H   -0.166414
    13  H   -0.207239
    14  H    0.548670
    15  H   -0.430926
    16  H    0.168545
 Sum of Mulliken charges =   0.00000

 Dipole moment (field-independent basis, Debye):
    X=              2.1644    Y=              0.0807    Z=              0.5386  Tot=              2.2319

 Test job not archived.
 1\1\GINC-SE097\SP\RHF\Aug-CC-pVDZ\C4H10O2\OHZDE\09-Apr-2025\0\\#t hf a
 ug-cc-pvdz iop(5/13=1,5/36=2,99/5=2) pseudo=read geom=check guess=(rea
 d,tcheck) scf=(maxcycle=1)\\title\\0,1\O,0,-1.22176869,0.8702983,-1.11
 957179\C,0,-1.81331799,-0.08684511,-0.40477113\C,0,0.0108921,-1.384992
 37,0.40679911\C,0,0.65301546,-0.26614225,1.24741601\C,0,1.24526163,0.4
 8572344,0.05874902\O,0,0.99093324,1.9015139,0.13128422\H,0,-0.61062569
 ,1.42059789,-0.55573379\H,0,-2.04745232,0.08393005,0.6459698\H,0,-2.44
 514948,-0.74883639,-0.99256606\H,0,0.79087369,-2.11370739,0.12353793\H

 Normal termination of Gaussian 16 at Wed Apr  9 14:19:32 2025.
