 Gaussian 16, Revision C.01,

 ----------------------------------------------------------------------
 #t hf aug-cc-pvdz symm=none int=(grid=ultrafine) guess=(read,tcheck) s
 table=(opt,rrhf)
 ----------------------------------------------------------------------
 -----
 title
 -----
 Symbolic Z-matrix:
 Charge =  0 Multiplicity = 1

 SCF Done:  E(RHF) =  -268.698231658     A.U. after   14 cycles
 Normal termination of Gaussian 16 at Wed Apr  9 14:23:19 2025.
 Gaussian 16:  ES64L-G16RevC.01  3-Jul-2019

 ----------------------------------------------------------------------
 #t hf aug-cc-pvdz iop(5/13=1,5/36=2,99/5=2) pseudo=read geom=check gue
 ss=(read,tcheck) scf=(maxcycle=1)
 ----------------------------------------------------------------------
 -----
 title
 -----
 Structure from the checkpoint file:  "Grambow2020_wb97xd3_006179_reverse_mol2.chk"
 Charge =  0 Multiplicity = 1

                         Standard orientation:
 ---------------------------------------------------------------------
 Center     Atomic      Atomic             Coordinates (Angstroms)
 Number     Number       Type             X           Y           Z
 ---------------------------------------------------------------------
      1          8           0        2.824901   -0.178082    0.107876
      2          6           0       -0.146468    0.367960   -0.598683
      3          6           0       -0.727231    1.499861   -0.331426
      4          6           0       -0.624717    0.521669    0.809644
      5          6           0       -1.446537   -0.767920    0.574680
      6          6           0       -0.591260   -1.055261   -0.738219
      7          1           0        2.413615    0.454579   -0.486338
      8          1           0        2.299230   -0.124254    0.908295
      9          1           0       -1.354231    2.261477   -0.772397
     10          1           0        0.009746    0.668755    1.676827
     11          1           0       -1.355578   -1.533347    1.346336
     12          1           0       -2.503239   -0.601336    0.350140
     13          1           0        0.203407   -1.766355   -0.516605
     14          1           0       -1.094873   -1.332723   -1.665246
 ---------------------------------------------------------------------

 SCF Done:  E(RHF) =  -268.782861305     A.U. after    2 cycles

 The electronic state is 1-A.
 Alpha  occ. eigenvalues --  -20.57057 -11.27375 -11.26987 -11.26557 -11.25711
 Alpha  occ. eigenvalues --  -11.25402  -1.30564  -1.21561  -1.01276  -0.89788
 Alpha  occ. eigenvalues --   -0.79290  -0.72959  -0.72239  -0.65694  -0.64278
 Alpha  occ. eigenvalues --   -0.60232  -0.58824  -0.53762  -0.51799  -0.50851
 Alpha  occ. eigenvalues --   -0.47435  -0.40514  -0.33007
 Alpha virt. eigenvalues --    0.03226   0.04086   0.04391   0.04952   0.06386
 Alpha virt. eigenvalues --    0.07015   0.07393   0.07883   0.08633   0.10418
 Alpha virt. eigenvalues --    0.11234   0.12913   0.13327   0.13706   0.15197

 Mulliken charges:
               1
     1  O   -0.308541
     2  C   -0.194591
     3  C    0.224796
     4  C    0.365817
     5  C    0.437713
     6  C    0.518948
     7  H    0.195297
     8  H    0.149012
     9  H   -0.399988
    10  H   -0.389585
    11  H   -0.220173
    12  H   -0.164667
    13  H   -0.075777
    14  H   -0.138259
 Sum of Mulliken charges =  -0.00000

 Dipole moment (field-independent basis, Debye):
    X=             -2.6695    Y=             -0.1850    Z=              0.0545  Tot=              2.6764

 Test job not archived.
 1\1\GINC-SE131\SP\RHF\Aug-CC-pVDZ\C5H8O1\OHZDE\09-Apr-2025\0\\#t hf au
 g-cc-pvdz iop(5/13=1,5/36=2,99/5=2) pseudo=read geom=check guess=(read
 ,tcheck) scf=(maxcycle=1)\\title\\0,1\O,0,1.74413402,1.34423178,2.0102
 8726\C,0,0.62923207,-0.15197293,-0.46858083\C,0,0.47471458,0.43092442,
 -1.62021746\C,0,-0.6156033,0.66464981,-0.60730663\C,0,-1.39197991,-0.6
 2445914,-0.24803872\C,0,-0.03197315,-1.28528148,0.25342121\H,0,2.13659
 735,1.13313556,1.15945347\H,0,0.87060762,1.67368364,1.79049228\H,0,0.6
 7078891,0.30072254,-2.67484783\H,0,-0.79877785,1.61889565,-0.12559575\

 Normal termination of Gaussian 16 at Wed Apr  9 14:23:23 2025.
