 Gaussian 16, Revision C.01,

 ----------------------------------------------------------------------
 #t hf aug-cc-pvdz symm=none int=(grid=ultrafine) guess=(read,tcheck) s
 table=(opt,rrhf)
 ----------------------------------------------------------------------
 -----
 title
 -----
 Symbolic Z-matrix:
 Charge =  0 Multiplicity = 1

 SCF Done:  E(RHF) =  -306.650757122     A.U. after   14 cycles
 Normal termination of Gaussian 16 at Wed Apr  9 03:59:15 2025.
 Gaussian 16:  ES64L-G16RevC.01  3-Jul-2019

 ----------------------------------------------------------------------
 #t hf aug-cc-pvdz iop(5/13=1,5/36=2,99/5=2) pseudo=read geom=check gue
 ss=(read,tcheck) scf=(maxcycle=1)
 ----------------------------------------------------------------------
 -----
 title
 -----
 Structure from the checkpoint file:  "Grambow2020_wb97xd3_008781_reverse_mol2.chk"
 Charge =  0 Multiplicity = 1

                         Standard orientation:
 ---------------------------------------------------------------------
 Center     Atomic      Atomic             Coordinates (Angstroms)
 Number     Number       Type             X           Y           Z
 ---------------------------------------------------------------------
      1          8           0       -1.232182   -1.143266    0.449292
      2          6           0       -1.312299    0.071248   -0.116973
      3          6           0       -2.049165    1.157834   -0.045698
      4          6           0        1.530476    0.394161    0.911414
      5          6           0        1.891464    0.672790   -0.512609
      6          6           0        1.167862   -0.596453   -0.150453
      7          6           0       -0.242935   -0.761913   -0.579437
      8          1           0       -1.822308    2.003726   -0.677460
      9          1           0       -2.885997    1.214493    0.636720
     10          1           0        0.727859    0.972632    1.349605
     11          1           0        2.318196    0.116755    1.598181
     12          1           0        1.324567    1.435273   -1.031547
     13          1           0        2.927185    0.595112   -0.814399
     14          1           0        1.751616   -1.508834   -0.186567
     15          1           0       -0.396076   -1.309031   -1.506337
 ---------------------------------------------------------------------

 SCF Done:  E(RHF) =  -306.748533839     A.U. after    2 cycles

 The electronic state is 1-A.
 Alpha  occ. eigenvalues --  -20.60590 -11.31977 -11.31845 -11.25514 -11.24746
 Alpha  occ. eigenvalues --  -11.24234 -11.23078  -1.41401  -1.15330  -1.01581
 Alpha  occ. eigenvalues --   -0.95805  -0.83376  -0.83049  -0.75421  -0.71101
 Alpha  occ. eigenvalues --   -0.67523  -0.65853  -0.63185  -0.58498  -0.56343
 Alpha  occ. eigenvalues --   -0.52739  -0.51283  -0.47635  -0.43633  -0.42816
 Alpha  occ. eigenvalues --   -0.36148
 Alpha virt. eigenvalues --    0.03362   0.04144   0.04411   0.04682   0.06003
 Alpha virt. eigenvalues --    0.06286   0.07285   0.08299   0.10418   0.10658
 Alpha virt. eigenvalues --    0.12180   0.12740   0.13394   0.14256   0.14732

 Mulliken charges:
               1
     1  O   -0.739384
     2  C   -0.127916
     3  C    0.971564
     4  C    0.762572
     5  C    0.677629
     6  C    0.391130
     7  C    0.520920
     8  H   -0.234090
     9  H   -0.306908
    10  H   -0.292190
    11  H   -0.320962
    12  H   -0.334275
    13  H   -0.338829
    14  H   -0.330096
    15  H   -0.299166
 Sum of Mulliken charges =  -0.00000

 Dipole moment (field-independent basis, Debye):
    X=              1.8272    Y=              0.8983    Z=             -1.3125  Tot=              2.4225

 Test job not archived.
 1\1\GINC-SE021\SP\RHF\Aug-CC-pVDZ\C6H8O1\OHZDE\09-Apr-2025\0\\#t hf au
 g-cc-pvdz iop(5/13=1,5/36=2,99/5=2) pseudo=read geom=check guess=(read
 ,tcheck) scf=(maxcycle=1)\\title\\0,1\O,0,0.45759142,-1.53609201,1.350
 2011\C,0,0.03135867,-1.60083806,0.07888215\C,0,-0.8287746,-2.27615575,
 -0.65107474\C,0,-0.67863365,1.32570332,0.49659898\C,0,0.19580482,1.587
 87424,-0.68763564\C,0,0.73499231,0.83374263,0.49823733\C,0,1.03191135,
 -0.61254323,0.35043217\H,0,-0.92812718,-2.05826547,-1.7040577\H,0,-1.4
 3749178,-3.05357289,-0.21030278\H,0,-1.46362321,0.58874365,0.38928599\

 Normal termination of Gaussian 16 at Wed Apr  9 03:59:20 2025.
