 Gaussian 16, Revision C.01,

 ----------------------------------------------------------------------
 #t hf aug-cc-pvdz symm=none int=(grid=ultrafine) guess=(read,tcheck) s
 table=(opt,rrhf)
 ----------------------------------------------------------------------
 -----
 title
 -----
 Symbolic Z-matrix:
 Charge =  0 Multiplicity = 1

 SCF Done:  E(RHF) =  -321.769892966     A.U. after   15 cycles
 Normal termination of Gaussian 16 at Wed Apr  9 03:08:53 2025.
 Gaussian 16:  ES64L-G16RevC.01  3-Jul-2019

 ----------------------------------------------------------------------
 #t hf aug-cc-pvdz iop(5/13=1,5/36=2,99/5=2) pseudo=read geom=check gue
 ss=(read,tcheck) scf=(maxcycle=1)
 ----------------------------------------------------------------------
 -----
 title
 -----
 Structure from the checkpoint file:  "Grambow2020_b97d3_006704_reverse_mol1.chk"
 Charge =  0 Multiplicity = 1

                         Standard orientation:
 ---------------------------------------------------------------------
 Center     Atomic      Atomic             Coordinates (Angstroms)
 Number     Number       Type             X           Y           Z
 ---------------------------------------------------------------------
      1          6           0        1.506974   -1.243055   -0.162578
      2          7           0        0.286456   -0.635595    0.368777
      3          6           0        0.091773    0.833093    0.053836
      4          8           0        1.062574    1.558116   -0.120985
      5          8           0       -1.167608    1.050818    0.021319
      6          6           0       -1.754720   -0.947054   -0.165252
      7          1           0        1.696202   -2.209073    0.319853
      8          1           0        2.354393   -0.558253    0.002638
      9          1           0        1.395161   -1.393419   -1.244046
     10          1           0        0.235840   -0.755920    1.384620
     11          1           0       -2.457014   -0.403833   -0.790165
     12          1           0       -2.104586   -1.129873    0.847421
     13          1           0       -1.349079   -1.829833   -0.660467
 ---------------------------------------------------------------------

 SCF Done:  E(RHF) =  -321.872568758     A.U. after    2 cycles

 The electronic state is 1-A.
 Alpha  occ. eigenvalues --  -20.53586 -20.52227 -15.67102 -11.38784 -11.38559
 Alpha  occ. eigenvalues --  -11.28202  -1.36042  -1.26524  -1.18208  -0.98959
 Alpha  occ. eigenvalues --   -0.92759  -0.76552  -0.70086  -0.67759  -0.65689
 Alpha  occ. eigenvalues --   -0.64027  -0.61621  -0.59591  -0.57403  -0.56011
 Alpha  occ. eigenvalues --   -0.47491  -0.44445  -0.43192  -0.39484
 Alpha virt. eigenvalues --    0.01215   0.03112   0.03617   0.05131   0.05822
 Alpha virt. eigenvalues --    0.06552   0.07054   0.08562   0.11332   0.11923
 Alpha virt. eigenvalues --    0.12920   0.13227   0.13953   0.15159   0.15270

 Mulliken charges:
               1
     1  C    0.731612
     2  N   -0.555597
     3  C    0.628370
     4  O   -0.486798
     5  O   -0.611032
     6  C    0.754336
     7  H   -0.186247
     8  H   -0.063198
     9  H   -0.161457
    10  H    0.085005
    11  H   -0.024052
    12  H   -0.059866
    13  H   -0.051075
 Sum of Mulliken charges =  -0.00000

 Dipole moment (field-independent basis, Debye):
    X=             -2.0013    Y=             -7.6277    Z=              0.8920  Tot=              7.9361

 Test job not archived.
 1\1\GINC-SE250\SP\RHF\Aug-CC-pVDZ\C3H7N1O2\OHZDE\09-Apr-2025\0\\#t hf
 aug-cc-pvdz iop(5/13=1,5/36=2,99/5=2) pseudo=read geom=check guess=(re
 ad,tcheck) scf=(maxcycle=1)\\title\\0,1\C,0,-1.64066678,-0.07113507,-0
 .46225761\N,0,-0.31950979,0.31698873,0.03263104\C,0,0.2788859,-0.58792
 473,1.0896014\O,0,-0.45088655,-1.22049037,1.84190947\O,0,1.55025709,-0
 .51488654,0.97654357\C,0,1.57625948,0.30990236,-0.94440575\H,0,-2.1024
 1772,0.75654102,-1.01314238\H,0,-2.2743129,-0.36701682,0.38939723\H,0,
 -1.53747047,-0.93734529,-1.12837668\H,0,-0.3381226,1.2725718,0.4007221

 Normal termination of Gaussian 16 at Wed Apr  9 03:08:57 2025.
