 Gaussian 16, Revision C.01,

 ----------------------------------------------------------------------
 #t hf aug-cc-pvdz symm=none int=(grid=ultrafine) guess=(read,tcheck) s
 table=(opt,rrhf)
 ----------------------------------------------------------------------
 -----
 title
 -----
 Symbolic Z-matrix:
 Charge =  0 Multiplicity = 1

 SCF Done:  E(RHF) =  -336.781470072     A.U. after   13 cycles
 Normal termination of Gaussian 16 at Wed Apr  9 14:18:02 2025.
 Gaussian 16:  ES64L-G16RevC.01  3-Jul-2019

 ----------------------------------------------------------------------
 #t hf aug-cc-pvdz iop(5/13=1,5/36=2,99/5=2) pseudo=read geom=check gue
 ss=(read,tcheck) scf=(maxcycle=1)
 ----------------------------------------------------------------------
 -----
 title
 -----
 Structure from the checkpoint file:  "Grambow2020_b97d3_007114_forward_mol2.chk"
 Charge =  0 Multiplicity = 1

                         Standard orientation:
 ---------------------------------------------------------------------
 Center     Atomic      Atomic             Coordinates (Angstroms)
 Number     Number       Type             X           Y           Z
 ---------------------------------------------------------------------
      1          7           0       -1.574840    0.838639    0.000801
      2          6           0       -0.742082   -0.227886   -0.000637
      3          8           0       -1.068542   -1.417012   -0.001081
      4          6           0        0.742145    0.227440   -0.000407
      5          8           0        1.067829    1.416840   -0.001043
      6          7           0        1.575422   -0.838307    0.001258
      7          1           0       -1.158676    1.765162    0.002064
      8          1           0       -2.579137    0.710697    0.003628
      9          1           0        2.579559   -0.709261    0.001197
     10          1           0        1.159507   -1.764864    0.001952
 ---------------------------------------------------------------------

 SCF Done:  E(RHF) =  -336.886200592     A.U. after    2 cycles

 The electronic state is 1-A.
 Alpha  occ. eigenvalues --  -20.56757 -20.56752 -15.67051 -15.67042 -11.39716
 Alpha  occ. eigenvalues --  -11.39669  -1.37930  -1.35053  -1.20409  -1.19258
 Alpha  occ. eigenvalues --   -0.92165  -0.80199  -0.77544  -0.73119  -0.67598
 Alpha  occ. eigenvalues --   -0.67453  -0.62949  -0.61631  -0.56297  -0.53227
 Alpha  occ. eigenvalues --   -0.44580  -0.44390  -0.42816
 Alpha virt. eigenvalues --    0.03322   0.03445   0.05485   0.06869   0.08592
 Alpha virt. eigenvalues --    0.10177   0.10805   0.12052   0.12720   0.13246
 Alpha virt. eigenvalues --    0.14436   0.16396   0.16845   0.16946   0.19026

 Mulliken charges:
               1
     1  N   -0.146640
     2  C    0.629861
     3  O   -0.542198
     4  C    0.629871
     5  O   -0.542521
     6  N   -0.146110
     7  H    0.055106
     8  H    0.003659
     9  H    0.003862
    10  H    0.055108
 Sum of Mulliken charges =  -0.00000

 Dipole moment (field-independent basis, Debye):
    X=              0.0038    Y=             -0.0005    Z=              0.0111  Tot=              0.0117

 Test job not archived.
 1\1\GINC-SE173\SP\RHF\Aug-CC-pVDZ\C2H4N2O2\OHZDE\09-Apr-2025\0\\#t hf
 aug-cc-pvdz iop(5/13=1,5/36=2,99/5=2) pseudo=read geom=check guess=(re
 ad,tcheck) scf=(maxcycle=1)\\title\\0,1\N,0,-1.74123125,0.15920684,0.3
 5543638\C,0,-0.49814749,0.59391718,0.04441756\O,0,-0.15448951,1.761500
 87,-0.15368874\C,0,0.49892191,-0.59294028,-0.0420248\O,0,0.15470359,-1
 .7602171,0.15727966\N,0,1.74138866,-0.15948293,-0.35596772\H,0,-1.8748
 3283,-0.83868783,0.48958902\H,0,-2.50963492,0.81201597,0.44700855\H,0,
 2.50851393,-0.81341232,-0.44999006\H,0,1.8748079,0.8380996,-0.49205984

 Normal termination of Gaussian 16 at Wed Apr  9 14:18:05 2025.
