 Gaussian 16, Revision C.01,

 ----------------------------------------------------------------------
 #t hf aug-cc-pvdz symm=none int=(grid=ultrafine) guess=(read,tcheck) s
 table=(opt,rrhf)
 ----------------------------------------------------------------------
 -----
 title
 -----
 Symbolic Z-matrix:
 Charge =  0 Multiplicity = 1

 SCF Done:  E(RHF) =  -358.406277610     A.U. after   19 cycles
 Normal termination of Gaussian 16 at Wed Apr  9 15:09:45 2025.
 Gaussian 16:  ES64L-G16RevC.01  3-Jul-2019

 ----------------------------------------------------------------------
 #t hf aug-cc-pvdz iop(5/13=1,5/36=2,99/5=2) pseudo=read geom=check gue
 ss=(read,tcheck) scf=(maxcycle=1)
 ----------------------------------------------------------------------
 -----
 title
 -----
 Structure from the checkpoint file:  "Grambow2020_wb97xd3_006799_forward_mol1.chk"
 Charge =  0 Multiplicity = 1

                         Standard orientation:
 ---------------------------------------------------------------------
 Center     Atomic      Atomic             Coordinates (Angstroms)
 Number     Number       Type             X           Y           Z
 ---------------------------------------------------------------------
      1          8           0        0.876792   -1.409211    0.029505
      2          6           0        1.713856   -0.544484   -0.238962
      3          6           0        1.535558    0.823139   -0.058561
      4          6           0        0.098143    1.271471   -0.042350
      5          7           0       -0.429181    0.278191    0.769319
      6          6           0       -1.507648   -0.457697    0.254503
      7          8           0       -2.265217   -0.019194   -0.571538
      8          1           0        2.617808   -0.834461   -0.798653
      9          1           0        2.353926    1.528561   -0.015973
     10          1           0       -0.377291    1.444836   -1.013015
     11          1           0        0.128613    2.207663    0.532833
     12          1           0       -1.650834   -1.421272    0.758055
 ---------------------------------------------------------------------

 SCF Done:  E(RHF) =  -358.516506722     A.U. after    2 cycles

 The electronic state is 1-A.
 Alpha  occ. eigenvalues --  -20.59455 -20.57977 -15.70500 -11.37489 -11.34810
 Alpha  occ. eigenvalues --  -11.31014 -11.30096  -1.38425  -1.36746  -1.21762
 Alpha  occ. eigenvalues --   -1.05696  -0.94086  -0.81987  -0.77388  -0.73069
 Alpha  occ. eigenvalues --   -0.71506  -0.67997  -0.66447  -0.62080  -0.58689
 Alpha  occ. eigenvalues --   -0.56341  -0.54772  -0.49843  -0.45589  -0.45205
 Alpha  occ. eigenvalues --   -0.32988
 Alpha virt. eigenvalues --   -0.03761   0.02571   0.04071   0.04928   0.05326
 Alpha virt. eigenvalues --    0.06158   0.09839   0.10167   0.10294   0.10927
 Alpha virt. eigenvalues --    0.12498   0.13439   0.13864   0.14179   0.15036

 Mulliken charges:
               1
     1  O   -0.452289
     2  C    0.471648
     3  C    0.299883
     4  C    0.587438
     5  N   -0.529575
     6  C    0.789612
     7  O   -0.432890
     8  H   -0.177840
     9  H   -0.343929
    10  H   -0.039226
    11  H   -0.028146
    12  H   -0.144686
 Sum of Mulliken charges =  -0.00000

 Dipole moment (field-independent basis, Debye):
    X=              3.3479    Y=              2.5915    Z=              0.3247  Tot=              4.2462

 Test job not archived.
 1\1\GINC-SE226\SP\RHF\Aug-CC-pVDZ\C4H5N1O2\OHZDE\09-Apr-2025\0\\#t hf
 aug-cc-pvdz iop(5/13=1,5/36=2,99/5=2) pseudo=read geom=check guess=(re
 ad,tcheck) scf=(maxcycle=1)\\title\\0,1\O,0,1.14261461,-1.26265704,-0.
 4565577\C,0,1.59777262,-0.11755412,-0.50209564\C,0,1.00731535,1.000341
 6,0.07790237\C,0,-0.47815066,0.88343837,0.295046\N,0,-0.52130646,-0.40
 490295,0.80670758\C,0,-1.36058894,-1.32064314,0.15349736\O,0,-2.334401
 3,-0.98735687,-0.47032004\H,0,2.45280467,0.08921436,-1.16590156\H,0,1.
 54388666,1.91619669,0.28395953\H,0,-1.12302184,1.1167806,-0.55816861\H

 Normal termination of Gaussian 16 at Wed Apr  9 15:09:49 2025.
