 Gaussian 16, Revision C.01,

 ----------------------------------------------------------------------
 #t hf aug-cc-pvdz symm=none int=(grid=ultrafine) guess=(read,tcheck) s
 table=(opt,rrhf)
 ----------------------------------------------------------------------
 -----
 title
 -----
 Symbolic Z-matrix:
 Charge =  0 Multiplicity = 1

 SCF Done:  E(RHF) =  -338.573657846     A.U. after   17 cycles
 Normal termination of Gaussian 16 at Wed Apr  9 15:18:56 2025.
 Gaussian 16:  ES64L-G16RevC.01  3-Jul-2019

 ----------------------------------------------------------------------
 #t hf aug-cc-pvdz iop(5/13=1,5/36=2,99/5=2) pseudo=read geom=check gue
 ss=(read,tcheck) scf=(maxcycle=1)
 ----------------------------------------------------------------------
 -----
 title
 -----
 Structure from the checkpoint file:  "Grambow2020_wb97xd3_006843_reverse_mol1.chk"
 Charge =  0 Multiplicity = 1

                         Standard orientation:
 ---------------------------------------------------------------------
 Center     Atomic      Atomic             Coordinates (Angstroms)
 Number     Number       Type             X           Y           Z
 ---------------------------------------------------------------------
      1          7           0        2.330339   -0.096406    0.158625
      2          6           0        0.988650   -0.039761   -0.090289
      3          6           0        0.171056    1.114578    0.229256
      4          7           0       -1.005159    0.943827   -0.606958
      5          6           0       -1.107158   -0.421643   -0.353276
      6          8           0       -1.782793   -0.608927    0.730149
      7          6           0        0.161775   -1.041446   -0.547764
      8          1           0        2.724858    0.638717    0.717638
      9          1           0        2.738623   -1.001164    0.312696
     10          1           0        0.618985    2.104524    0.287297
     11          1           0       -1.811967    1.404549   -0.207702
     12          1           0       -0.912578    0.225628    1.263401
     13          1           0        0.342234   -2.103161   -0.503752
 ---------------------------------------------------------------------

 SCF Done:  E(RHF) =  -338.673797288     A.U. after    2 cycles

 The electronic state is 1-A.
 Alpha  occ. eigenvalues --  -20.59602 -15.65350 -15.64235 -11.37053 -11.31897
 Alpha  occ. eigenvalues --  -11.27933 -11.23032  -1.38929  -1.23958  -1.19367
 Alpha  occ. eigenvalues --   -1.04807  -0.93881  -0.80865  -0.77125  -0.73272
 Alpha  occ. eigenvalues --   -0.69769  -0.68016  -0.62977  -0.62819  -0.59339
 Alpha  occ. eigenvalues --   -0.56113  -0.51154  -0.49959  -0.45697  -0.33864
 Alpha  occ. eigenvalues --   -0.31351
 Alpha virt. eigenvalues --    0.02692   0.03706   0.04428   0.05786   0.06450
 Alpha virt. eigenvalues --    0.06932   0.07917   0.10252   0.10917   0.11384
 Alpha virt. eigenvalues --    0.12714   0.12852   0.14336   0.14388   0.15541

 Mulliken charges:
               1
     1  N   -0.340699
     2  C    0.210205
     3  C    0.334492
     4  N   -0.566391
     5  C    0.464965
     6  O   -0.716436
     7  C    0.700295
     8  H   -0.032144
     9  H   -0.024745
    10  H   -0.356428
    11  H    0.070597
    12  H    0.533315
    13  H   -0.277024
 Sum of Mulliken charges =  -0.00000

 Dipole moment (field-independent basis, Debye):
    X=              2.8521    Y=              0.5896    Z=              0.9478  Tot=              3.0628

 Test job not archived.
 1\1\GINC-SE113\SP\RHF\Aug-CC-pVDZ\C4H6N2O1\OHZDE\09-Apr-2025\0\\#t hf
 aug-cc-pvdz iop(5/13=1,5/36=2,99/5=2) pseudo=read geom=check guess=(re
 ad,tcheck) scf=(maxcycle=1)\\title\\0,1\N,0,-1.9634876,0.63714342,-0.2
 3162798\C,0,-0.64272128,0.29388202,-0.28680727\C,0,-0.15350606,-1.0310
 9556,0.04208548\N,0,1.1515645,-1.08276463,-0.59510638\C,0,1.50053946,0
 .20809298,-0.20630149\O,0,2.015974,0.17694023,0.97637552\C,0,0.4420283
 7,1.10775063,-0.5262113\H,0,-2.59119596,-0.02056518,0.19492478\H,0,-2.
 18842823,1.60044239,-0.05704867\H,0,-0.8059826,-1.89636367,-0.05582834

 Normal termination of Gaussian 16 at Wed Apr  9 15:19:00 2025.
