 Gaussian 16, Revision C.01,

 ----------------------------------------------------------------------
 #t hf aug-cc-pvdz symm=none int=(grid=ultrafine) guess=(read,tcheck) s
 table=(opt,rrhf)
 ----------------------------------------------------------------------
 -----
 title
 -----
 Symbolic Z-matrix:
 Charge =  0 Multiplicity = 1

 SCF Done:  E(RHF) =  -283.460189715     A.U. after   16 cycles
 Normal termination of Gaussian 16 at Wed Apr  9 03:08:43 2025.
 Gaussian 16:  ES64L-G16RevC.01  3-Jul-2019

 ----------------------------------------------------------------------
 #t hf aug-cc-pvdz iop(5/13=1,5/36=2,99/5=2) pseudo=read geom=check gue
 ss=(read,tcheck) scf=(maxcycle=1)
 ----------------------------------------------------------------------
 -----
 title
 -----
 Structure from the checkpoint file:  "Grambow2020_b97d3_006670_reverse_mol1.chk"
 Charge =  0 Multiplicity = 1

                         Standard orientation:
 ---------------------------------------------------------------------
 Center     Atomic      Atomic             Coordinates (Angstroms)
 Number     Number       Type             X           Y           Z
 ---------------------------------------------------------------------
      1          7           0        2.623660    0.612173   -0.045895
      2          6           0        1.678453   -0.090701   -0.059203
      3          6           0        0.535196   -0.920855   -0.029669
      4          6           0       -0.748179   -0.326298    0.206084
      5          6           0       -1.333459    1.002583    0.150379
      6          8           0       -1.906048   -0.196343   -0.509982
      7          1           0       -0.334271   -1.040664    1.271677
      8          1           0        0.564416   -1.925157   -0.449366
      9          1           0       -1.326642   -0.842870    1.519895
     10          1           0       -1.918510    1.378300    0.989286
     11          1           0       -0.894286    1.727554   -0.535920
 ---------------------------------------------------------------------

 SCF Done:  E(RHF) =  -283.547049122     A.U. after    2 cycles

 The electronic state is 1-A.
 Alpha  occ. eigenvalues --  -20.66468 -15.62076 -11.44049 -11.36583 -11.28510
 Alpha  occ. eigenvalues --  -11.26641  -1.46069  -1.16786  -1.09494  -0.98287
 Alpha  occ. eigenvalues --   -0.88125  -0.78709  -0.75715  -0.68687  -0.65075
 Alpha  occ. eigenvalues --   -0.61202  -0.54531  -0.53319  -0.52215  -0.48527
 Alpha  occ. eigenvalues --   -0.44041  -0.32622
 Alpha virt. eigenvalues --    0.02013   0.03479   0.04252   0.05650   0.06122
 Alpha virt. eigenvalues --    0.08508   0.09264   0.10373   0.10663   0.11269
 Alpha virt. eigenvalues --    0.12661   0.13957   0.14521   0.15036   0.15574

 Mulliken charges:
               1
     1  N   -0.260596
     2  C   -0.502583
     3  C    0.631094
     4  C   -0.242410
     5  C    1.061603
     6  O   -0.658157
     7  H    0.298856
     8  H   -0.174950
     9  H    0.129552
    10  H   -0.152639
    11  H   -0.129769
 Sum of Mulliken charges =  -0.00000

 Dipole moment (field-independent basis, Debye):
    X=             -4.6233    Y=             -0.3043    Z=              1.8496  Tot=              4.9888

 Test job not archived.
 1\1\GINC-SE036\SP\RHF\Aug-CC-pVDZ\C4H5N1O1\OHZDE\09-Apr-2025\0\\#t hf
 aug-cc-pvdz iop(5/13=1,5/36=2,99/5=2) pseudo=read geom=check guess=(re
 ad,tcheck) scf=(maxcycle=1)\\title\\0,1\N,0,2.84332971,0.86726561,-0.2
 8096684\C,0,1.94183337,0.11075119,-0.33211466\C,0,0.85183709,-0.788559
 13,-0.34670753\C,0,-0.45576323,-0.2994184,-0.01951963\C,0,-1.12083723,
 0.98977205,0.06560156\O,0,-1.64346047,-0.17753903,-0.68646753\H,0,0.03
 67239,-1.0805086,0.96256121\H,0,0.92632886,-1.74668144,-0.85863949\H,0
 ,-0.95646962,-0.96862531,1.25681144\H,0,-1.69780526,1.25021026,0.95244

 Normal termination of Gaussian 16 at Wed Apr  9 03:08:47 2025.
