 Gaussian 16, Revision C.01,

 ----------------------------------------------------------------------
 #t hf aug-cc-pvdz symm=none int=(grid=ultrafine) guess=(read,tcheck) s
 table=(opt,rrhf)
 ----------------------------------------------------------------------
 -----
 title
 -----
 Symbolic Z-matrix:
 Charge =  0 Multiplicity = 1

 SCF Done:  E(RHF) =  -231.731726264     A.U. after   14 cycles
 Normal termination of Gaussian 16 at Wed Apr  9 14:15:14 2025.
 Gaussian 16:  ES64L-G16RevC.01  3-Jul-2019

 ----------------------------------------------------------------------
 #t hf aug-cc-pvdz iop(5/13=1,5/36=2,99/5=2) pseudo=read geom=check gue
 ss=(read,tcheck) scf=(maxcycle=1)
 ----------------------------------------------------------------------
 -----
 title
 -----
 Structure from the checkpoint file:  "Grambow2020_b97d3_006877_reverse_mol2.chk"
 Charge =  0 Multiplicity = 1

                         Standard orientation:
 ---------------------------------------------------------------------
 Center     Atomic      Atomic             Coordinates (Angstroms)
 Number     Number       Type             X           Y           Z
 ---------------------------------------------------------------------
      1          6           0        1.046550    0.000113    0.792615
      2          6           0        0.342530   -1.068652   -0.190034
      3          6           0       -1.156850   -0.780635    0.047420
      4          6           0       -1.156615    0.780544    0.048106
      5          6           0        0.342731    1.068432   -0.190992
      6          6           0        1.013921   -0.000288   -0.951018
      7          1           0        2.118623   -0.000198    0.980644
      8          1           0        0.474113    0.001318    1.723793
      9          1           0        0.695673   -2.101562   -0.231331
     10          1           0       -1.537486   -1.207685    0.986457
     11          1           0       -1.752613    1.198421   -0.774104
     12          1           0       -1.535997    1.207567    0.987715
     13          1           0        0.696054    2.101406   -0.233320
     14          1           0       -1.751970   -1.196348   -0.776438
 ---------------------------------------------------------------------

 SCF Done:  E(RHF) =  -231.797534687     A.U. after    2 cycles

 The electronic state is 1-A.
 Alpha  occ. eigenvalues --  -11.27535 -11.25925 -11.25912 -11.24669 -11.24626
 Alpha  occ. eigenvalues --  -11.24361  -1.20465  -1.00187  -0.95005  -0.85449
 Alpha  occ. eigenvalues --   -0.78639  -0.71908  -0.68938  -0.62402  -0.54033
 Alpha  occ. eigenvalues --   -0.53761  -0.51418  -0.50937  -0.50015  -0.48835
 Alpha  occ. eigenvalues --   -0.41693  -0.33265
 Alpha virt. eigenvalues --    0.03319   0.04176   0.04197   0.04924   0.06530
 Alpha virt. eigenvalues --    0.06551   0.07001   0.07211   0.09414   0.12103
 Alpha virt. eigenvalues --    0.12465   0.12557   0.14146   0.14211   0.14879

 Mulliken charges:
               1
     1  C    0.529634
     2  C    0.571199
     3  C    0.276616
     4  C    0.275294
     5  C    0.570944
     6  C   -0.547836
     7  H   -0.378764
     8  H   -0.166335
     9  H   -0.359185
    10  H   -0.119134
    11  H   -0.087212
    12  H   -0.119734
    13  H   -0.358739
    14  H   -0.086748
 Sum of Mulliken charges =  -0.00000

 Dipole moment (field-independent basis, Debye):
    X=             -1.9474    Y=              0.0018    Z=              2.2494  Tot=              2.9752

 Test job not archived.
 1\1\GINC-SE173\SP\RHF\Aug-CC-pVDZ\C6H8\OHZDE\09-Apr-2025\0\\#t hf aug-
 cc-pvdz iop(5/13=1,5/36=2,99/5=2) pseudo=read geom=check guess=(read,t
 check) scf=(maxcycle=1)\\title\\0,1\C,0,-1.13364095,-0.11951968,0.7108
 3406\C,0,-0.52842231,1.0773173,-0.1862695\C,0,0.99206951,0.83355963,-0
 .05913334\C,0,1.05300533,-0.71743893,-0.22638123\C,0,-0.44499424,-1.04
 562503,-0.41710393\C,0,-1.19922128,0.06593715,-1.0219746\H,0,-2.192623
 37,-0.18717786,0.95306195\H,0,-0.51010433,-0.19304249,1.60558193\H,0,-
 0.92350418,2.09191772,-0.09787269\H,0,1.40792986,1.17603026,0.89941797

 Normal termination of Gaussian 16 at Wed Apr  9 14:15:18 2025.
