 Gaussian 16, Revision C.01,

 ----------------------------------------------------------------------
 #t hf aug-cc-pvdz symm=none int=(grid=ultrafine) guess=(read,tcheck) s
 table=(opt,rrhf)
 ----------------------------------------------------------------------
 -----
 title
 -----
 Symbolic Z-matrix:
 Charge =  0 Multiplicity = 1

 SCF Done:  E(RHF) =  -374.477837206     A.U. after   19 cycles
 Normal termination of Gaussian 16 at Wed Apr  9 15:45:43 2025.
 Gaussian 16:  ES64L-G16RevC.01  3-Jul-2019

 ----------------------------------------------------------------------
 #t hf aug-cc-pvdz iop(5/13=1,5/36=2,99/5=2) pseudo=read geom=check gue
 ss=(read,tcheck) scf=(maxcycle=1)
 ----------------------------------------------------------------------
 -----
 title
 -----
 Structure from the checkpoint file:  "Grambow2020_wb97xd3_007342_reverse_mol1.chk"
 Charge =  0 Multiplicity = 1

                         Standard orientation:
 ---------------------------------------------------------------------
 Center     Atomic      Atomic             Coordinates (Angstroms)
 Number     Number       Type             X           Y           Z
 ---------------------------------------------------------------------
      1          7           0       -2.254321   -0.671372    0.209873
      2          6           0       -1.017001   -0.161726   -0.164915
      3          6           0       -0.688051    1.216606   -0.046291
      4          8           0        0.508512    1.526011   -0.092293
      5          6           0        1.439759   -0.296089    0.392399
      6          8           0        2.493266   -0.539253   -0.013993
      7          7           0        0.061898   -0.911644   -0.278847
      8          1           0       -2.592724   -1.432751   -0.356087
      9          1           0       -2.966229    0.030804    0.335047
     10          1           0       -1.453525    1.926617    0.296673
     11          1           0       -0.063021   -1.890360   -0.029693
 ---------------------------------------------------------------------

 SCF Done:  E(RHF) =  -374.592363019     A.U. after    2 cycles

 The electronic state is 1-A.
 Alpha  occ. eigenvalues --  -20.60841 -20.58282 -15.69914 -15.67668 -11.35239
 Alpha  occ. eigenvalues --  -11.34949 -11.34849  -1.39972  -1.37794  -1.27310
 Alpha  occ. eigenvalues --   -1.17176  -0.97180  -0.82275  -0.80232  -0.75058
 Alpha  occ. eigenvalues --   -0.71994  -0.66937  -0.66708  -0.64403  -0.62165
 Alpha  occ. eigenvalues --   -0.57777  -0.55069  -0.52928  -0.47293  -0.45004
 Alpha  occ. eigenvalues --   -0.29583
 Alpha virt. eigenvalues --    0.01622   0.02144   0.03324   0.05059   0.05993
 Alpha virt. eigenvalues --    0.08918   0.09835   0.11086   0.11883   0.12124
 Alpha virt. eigenvalues --    0.13341   0.13776   0.14354   0.14651   0.15946

 Mulliken charges:
               1
     1  N   -0.255321
     2  C    0.732818
     3  C    0.535745
     4  O   -0.446897
     5  C    0.429981
     6  O   -0.333961
     7  N   -0.448377
     8  H    0.005900
     9  H    0.027949
    10  H   -0.218287
    11  H   -0.029551
 Sum of Mulliken charges =  -0.00000

 Dipole moment (field-independent basis, Debye):
    X=             -7.4618    Y=             -1.7057    Z=             -0.3075  Tot=              7.6605

 Test job not archived.
 1\1\GINC-SE141\SP\RHF\Aug-CC-pVDZ\C3H4N2O2\OHZDE\09-Apr-2025\0\\#t hf
 aug-cc-pvdz iop(5/13=1,5/36=2,99/5=2) pseudo=read geom=check guess=(re
 ad,tcheck) scf=(maxcycle=1)\\title\\0,1\N,0,-1.69973867,-0.45357643,0.
 12888699\C,0,-0.42148065,-0.01876162,-0.19999004\C,0,-0.00455794,1.330
 55998,-0.03390847\O,0,1.21079832,1.55962102,-0.04096679\C,0,2.00487548
 ,-0.333482,0.41488288\O,0,3.05038569,-0.63624073,0.02835254\N,0,0.6076
 2097,-0.83647127,-0.30807096\H,0,-2.07281435,-1.1749748,-0.46686889\H,
 0,-2.36629354,0.29144724,0.25607142\H,0,-0.72989911,2.08119064,0.30978

 Normal termination of Gaussian 16 at Wed Apr  9 15:45:47 2025.
