 Gaussian 16, Revision C.01,

 ----------------------------------------------------------------------
 #t hf aug-cc-pvdz symm=none int=(grid=ultrafine) guess=(read,tcheck) s
 table=(opt,rrhf)
 ----------------------------------------------------------------------
 -----
 title
 -----
 Symbolic Z-matrix:
 Charge =  0 Multiplicity = 1

 SCF Done:  E(RHF) =  -338.741271891     A.U. after   14 cycles
 Normal termination of Gaussian 16 at Wed Apr  9 03:59:37 2025.
 Gaussian 16:  ES64L-G16RevC.01  3-Jul-2019

 ----------------------------------------------------------------------
 #t hf aug-cc-pvdz iop(5/13=1,5/36=2,99/5=2) pseudo=read geom=check gue
 ss=(read,tcheck) scf=(maxcycle=1)
 ----------------------------------------------------------------------
 -----
 title
 -----
 Structure from the checkpoint file:  "Grambow2020_wb97xd3_008820_reverse_mol2.chk"
 Charge =  0 Multiplicity = 1

                         Standard orientation:
 ---------------------------------------------------------------------
 Center     Atomic      Atomic             Coordinates (Angstroms)
 Number     Number       Type             X           Y           Z
 ---------------------------------------------------------------------
      1          7           0        1.939321   -0.731569    0.145589
      2          6           0        0.677924   -0.588649    0.125480
      3          6           0        0.086449    0.790745    0.429927
      4          8           0        0.508594    1.740791   -0.513458
      5          7           0       -1.339425    0.571575    0.319036
      6          6           0       -1.556620   -0.696015   -0.150316
      7          6           0       -0.440163   -1.448145   -0.221283
      8          1           0        2.213481   -1.673220   -0.122849
      9          1           0        0.347651    1.115524    1.443405
     10          1           0        1.438322    1.551650   -0.688494
     11          1           0       -1.923915    1.336778    0.031711
     12          1           0       -2.566312   -1.002297   -0.391500
     13          1           0       -0.382791   -2.482427   -0.519835
 ---------------------------------------------------------------------

 SCF Done:  E(RHF) =  -338.842814898     A.U. after    2 cycles

 The electronic state is 1-A.
 Alpha  occ. eigenvalues --  -20.58201 -15.64933 -15.60619 -11.33391 -11.31698
 Alpha  occ. eigenvalues --  -11.30006 -11.23371  -1.35326  -1.24645  -1.17365
 Alpha  occ. eigenvalues --   -1.02849  -0.95698  -0.80929  -0.79023  -0.73767
 Alpha  occ. eigenvalues --   -0.70752  -0.64670  -0.63363  -0.60986  -0.60796
 Alpha  occ. eigenvalues --   -0.53994  -0.51488  -0.48035  -0.45582  -0.41067
 Alpha  occ. eigenvalues --   -0.31856
 Alpha virt. eigenvalues --    0.02855   0.03830   0.04433   0.05540   0.06615
 Alpha virt. eigenvalues --    0.06935   0.09253   0.10633   0.11986   0.12377
 Alpha virt. eigenvalues --    0.13038   0.13823   0.14096   0.14524   0.15434

 Mulliken charges:
               1
     1  N   -0.483922
     2  C   -0.544348
     3  C    1.158366
     4  O   -0.606213
     5  N   -0.449972
     6  C    0.333990
     7  C    1.167130
     8  H   -0.011617
     9  H   -0.039029
    10  H    0.190041
    11  H   -0.043817
    12  H   -0.270356
    13  H   -0.400253
 Sum of Mulliken charges =  -0.00000

 Dipole moment (field-independent basis, Debye):
    X=             -2.6320    Y=             -1.1754    Z=             -0.3981  Tot=              2.9098

 Test job not archived.
 1\1\GINC-SE329\SP\RHF\Aug-CC-pVDZ\C4H6N2O1\OHZDE\09-Apr-2025\0\\#t hf
 aug-cc-pvdz iop(5/13=1,5/36=2,99/5=2) pseudo=read geom=check guess=(re
 ad,tcheck) scf=(maxcycle=1)\\title\\0,1\N,0,-1.92690052,0.82206018,-0.
 21040669\C,0,-0.70172752,0.5488268,-0.02001818\C,0,-0.32602576,-0.8503
 6973,0.47632264\O,0,-0.71010625,-1.83438326,-0.44832234\N,0,1.11613838
 ,-0.79022211,0.57629665\C,0,1.54619031,0.39988397,0.05384981\C,0,0.547
 49309,1.25324478,-0.24879159\H,0,-2.04706313,1.75833261,-0.58840699\H,
 0,-0.77113479,-1.05225143,1.45712242\H,0,-1.57514444,-1.56739864,-0.78

 Normal termination of Gaussian 16 at Wed Apr  9 03:59:41 2025.
