 Gaussian 16, Revision C.01,

 ----------------------------------------------------------------------
 #t hf aug-cc-pvdz symm=none int=(grid=ultrafine) guess=(read,tcheck) s
 table=(opt,rrhf)
 ----------------------------------------------------------------------
 -----
 title
 -----
 Symbolic Z-matrix:
 Charge =  0 Multiplicity = 1

 SCF Done:  E(RHF) =  -374.481862883     A.U. after   14 cycles
 Normal termination of Gaussian 16 at Wed Apr  9 15:45:41 2025.
 Gaussian 16:  ES64L-G16RevC.01  3-Jul-2019

 ----------------------------------------------------------------------
 #t hf aug-cc-pvdz iop(5/13=1,5/36=2,99/5=2) pseudo=read geom=check gue
 ss=(read,tcheck) scf=(maxcycle=1)
 ----------------------------------------------------------------------
 -----
 title
 -----
 Structure from the checkpoint file:  "Grambow2020_wb97xd3_007332_reverse_mol2.chk"
 Charge =  0 Multiplicity = 1

                         Standard orientation:
 ---------------------------------------------------------------------
 Center     Atomic      Atomic             Coordinates (Angstroms)
 Number     Number       Type             X           Y           Z
 ---------------------------------------------------------------------
      1          7           0       -1.787775   -0.214891    0.698567
      2          6           0       -0.635583    0.041993   -0.181835
      3          6           0       -1.882426    0.050900   -0.856407
      4          8           0        0.378243   -0.977301   -0.229418
      5          6           0        1.314422   -0.003794    0.021044
      6          8           0        2.492968   -0.065458    0.044087
      7          7           0        0.360548    1.003532    0.217835
      8          1           0       -1.950504    0.488231    1.407300
      9          1           0       -1.980874   -1.162645    0.986823
     10          1           0       -2.278040    1.056136   -0.999150
     11          1           0        0.451836    1.905274   -0.223959
 ---------------------------------------------------------------------

 SCF Done:  E(RHF) =  -374.596860822     A.U. after    2 cycles

 The electronic state is 1-A.
 Alpha  occ. eigenvalues --  -20.63987 -20.58280 -15.72517 -15.68634 -11.44437
 Alpha  occ. eigenvalues --  -11.41274 -11.24590  -1.48406  -1.38261  -1.28870
 Alpha  occ. eigenvalues --   -1.20532  -0.99168  -0.85140  -0.83758  -0.79406
 Alpha  occ. eigenvalues --   -0.74000  -0.72267  -0.70045  -0.66174  -0.60206
 Alpha  occ. eigenvalues --   -0.56760  -0.53165  -0.51919  -0.50424  -0.45784
 Alpha  occ. eigenvalues --   -0.34469
 Alpha virt. eigenvalues --    0.01910   0.02976   0.04853   0.05176   0.08488
 Alpha virt. eigenvalues --    0.09711   0.10082   0.10906   0.11993   0.13015
 Alpha virt. eigenvalues --    0.14082   0.14633   0.14810   0.15686   0.16439

 Mulliken charges:
               1
     1  N   -0.346066
     2  C    1.428980
     3  C   -0.024923
     4  O   -0.661401
     5  C    0.508853
     6  O   -0.348311
     7  N   -0.521827
     8  H    0.039459
     9  H    0.087513
    10  H   -0.177759
    11  H    0.015481
 Sum of Mulliken charges =   0.00000

 Dipole moment (field-independent basis, Debye):
    X=             -3.4848    Y=              3.1282    Z=              3.0364  Tot=              5.5811

 Test job not archived.
 1\1\GINC-SE037\SP\RHF\Aug-CC-pVDZ\C3H4N2O2\OHZDE\09-Apr-2025\0\\#t hf
 aug-cc-pvdz iop(5/13=1,5/36=2,99/5=2) pseudo=read geom=check guess=(re
 ad,tcheck) scf=(maxcycle=1)\\title\\0,1\N,0,-1.39529154,0.120654,-0.26
 631557\C,0,0.02191385,0.3333666,0.07269149\C,0,-0.85354994,1.28245915,
 0.65795289\O,0,0.92392078,0.53718225,-1.02908459\C,0,1.72743836,-0.444
 85401,-0.50292548\O,0,2.79614659,-0.81795598,-0.83752896\N,0,0.8207093
 1,-0.78332969,0.51028085\H,0,-1.79339887,-0.74278281,0.0788672\H,0,-1.
 72983077,0.41116034,-1.17312618\H,0,-1.11388797,1.03808243,1.68746268\

 Normal termination of Gaussian 16 at Wed Apr  9 15:45:45 2025.
