 Gaussian 16, Revision C.01,

 ----------------------------------------------------------------------
 #t hf aug-cc-pvdz symm=none int=(grid=ultrafine) guess=(read,tcheck) s
 table=(opt,rrhf)
 ----------------------------------------------------------------------
 -----
 title
 -----
 Symbolic Z-matrix:
 Charge =  0 Multiplicity = 1

 SCF Done:  E(RHF) =  -338.579370393     A.U. after   16 cycles
 Normal termination of Gaussian 16 at Wed Apr  9 16:33:00 2025.
 Gaussian 16:  ES64L-G16RevC.01  3-Jul-2019

 ----------------------------------------------------------------------
 #t hf aug-cc-pvdz iop(5/13=1,5/36=2,99/5=2) pseudo=read geom=check gue
 ss=(read,tcheck) scf=(maxcycle=1)
 ----------------------------------------------------------------------
 -----
 title
 -----
 Structure from the checkpoint file:  "Grambow2020_wb97xd3_008563_reverse_mol1.chk"
 Charge =  0 Multiplicity = 1

                         Standard orientation:
 ---------------------------------------------------------------------
 Center     Atomic      Atomic             Coordinates (Angstroms)
 Number     Number       Type             X           Y           Z
 ---------------------------------------------------------------------
      1          7           0       -2.079515    0.204506    0.696188
      2          6           0       -1.434978   -0.002538   -0.340605
      3          8           0        0.135738    1.193762   -0.676960
      4          6           0        1.020053    1.104519    0.258158
      5          6           0        1.830322   -0.491308    0.278550
      6          6           0        0.676353   -1.194134   -0.044951
      7          7           0       -0.431595   -1.315174   -0.391434
      8          1           0       -1.705149   -0.152781    1.564151
      9          1           0       -1.751717    0.182874   -1.355221
     10          1           0        0.655463    1.175854    1.301786
     11          1           0        1.926452    1.709906    0.120417
     12          1           0        2.569407   -0.506008   -0.518179
     13          1           0        2.246904   -0.684492    1.262536
 ---------------------------------------------------------------------

 SCF Done:  E(RHF) =  -338.681982875     A.U. after    2 cycles

 The electronic state is 1-A.
 Alpha  occ. eigenvalues --  -20.50788 -15.69543 -15.60536 -11.39141 -11.37603
 Alpha  occ. eigenvalues --  -11.32433 -11.29710  -1.30720  -1.26199  -1.18895
 Alpha  occ. eigenvalues --   -1.06285  -0.87443  -0.85089  -0.73649  -0.71367
 Alpha  occ. eigenvalues --   -0.68222  -0.65882  -0.63700  -0.61077  -0.58712
 Alpha  occ. eigenvalues --   -0.52855  -0.50196  -0.47179  -0.43173  -0.38386
 Alpha  occ. eigenvalues --   -0.36870
 Alpha virt. eigenvalues --    0.02421   0.03775   0.03904   0.05058   0.05880
 Alpha virt. eigenvalues --    0.06269   0.07293   0.08078   0.10480   0.10823
 Alpha virt. eigenvalues --    0.11805   0.12987   0.13639   0.14040   0.14635

 Mulliken charges:
               1
     1  N   -0.254633
     2  C    0.755970
     3  O   -0.717247
     4  C    0.839610
     5  C    0.162609
     6  C   -0.013941
     7  N   -0.279799
     8  H   -0.018807
     9  H   -0.107963
    10  H   -0.170258
    11  H   -0.162845
    12  H   -0.009583
    13  H   -0.023112
 Sum of Mulliken charges =  -0.00000

 Dipole moment (field-independent basis, Debye):
    X=              4.0158    Y=             -2.7392    Z=              1.6640  Tot=              5.1380

 Test job not archived.
 1\1\GINC-SE232\SP\RHF\Aug-CC-pVDZ\C4H6N2O1\OHZDE\09-Apr-2025\0\\#t hf
 aug-cc-pvdz iop(5/13=1,5/36=2,99/5=2) pseudo=read geom=check guess=(re
 ad,tcheck) scf=(maxcycle=1)\\title\\0,1\N,0,-1.62351177,0.96516245,-1.
 43389629\C,0,-1.45898629,0.89907041,-0.20841712\O,0,-0.90794007,-0.879
 16245,0.53026557\C,0,0.2207734,-1.27457242,0.0464481\C,0,1.589453,-0.2
 6046028,0.59590944\C,0,0.86490163,0.92378727,0.54255918\N,0,-0.0967993
 3,1.57677745,0.43775164\H,0,-0.80239109,1.05144163,-2.01654534\H,0,-2.
 21857925,0.94455723,0.55649777\H,0,0.34066847,-1.22293079,-1.05361215\

 Normal termination of Gaussian 16 at Wed Apr  9 16:33:04 2025.
