 Gaussian 16, Revision C.01,

 ----------------------------------------------------------------------
 #t hf aug-cc-pvdz symm=none int=(grid=ultrafine) guess=(read,tcheck) s
 table=(opt,rrhf)
 ----------------------------------------------------------------------
 -----
 title
 -----
 Symbolic Z-matrix:
 Charge =  0 Multiplicity = 1

 SCF Done:  E(RHF) =  -286.799254459     A.U. after   16 cycles
 Normal termination of Gaussian 16 at Wed Apr  9 16:34:18 2025.
 Gaussian 16:  ES64L-G16RevC.01  3-Jul-2019

 ----------------------------------------------------------------------
 #t hf aug-cc-pvdz iop(5/13=1,5/36=2,99/5=2) pseudo=read geom=check gue
 ss=(read,tcheck) scf=(maxcycle=1)
 ----------------------------------------------------------------------
 -----
 title
 -----
 Structure from the checkpoint file:  "Grambow2020_wb97xd3_008589_reverse_mol2.chk"
 Charge =  0 Multiplicity = 1

                         Standard orientation:
 ---------------------------------------------------------------------
 Center     Atomic      Atomic             Coordinates (Angstroms)
 Number     Number       Type             X           Y           Z
 ---------------------------------------------------------------------
      1          6           0       -2.531824   -0.505290    0.153197
      2          6           0       -1.071968   -0.254824   -0.038163
      3          6           0       -0.031068   -1.078652   -0.292836
      4          6           0        1.159052   -0.148260   -0.387116
      5          6           0        2.417326   -0.559419    0.372825
      6          6           0        0.652266    1.217901   -0.084928
      7          7           0       -0.621271    1.115058    0.084156
      8          1           0       -3.147862    0.000922   -0.597205
      9          1           0       -2.699782   -1.575672    0.055789
     10          1           0       -2.885022   -0.196995    1.142810
     11          1           0        1.399961   -0.111970   -1.465069
     12          1           0        2.214466   -0.618781    1.442977
     13          1           0        3.243908    0.137105    0.212488
     14          1           0        2.719474   -1.550650    0.039000
     15          1           0        1.161467    2.171929   -0.027766
     16          1           0       -1.220416    1.909971    0.270017
 ---------------------------------------------------------------------

 SCF Done:  E(RHF) =  -286.884964849     A.U. after    2 cycles

 The electronic state is 1-A.
 Alpha  occ. eigenvalues --  -15.72889 -11.33831 -11.24373 -11.23259 -11.23051
 Alpha  occ. eigenvalues --  -11.22074 -11.16185  -1.30295  -1.06266  -1.02641
 Alpha  occ. eigenvalues --   -0.93459  -0.90529  -0.79495  -0.75022  -0.72851
 Alpha  occ. eigenvalues --   -0.63487  -0.59638  -0.58770  -0.56528  -0.54464
 Alpha  occ. eigenvalues --   -0.53014  -0.51167  -0.49250  -0.45817  -0.29756
 Alpha  occ. eigenvalues --   -0.29352
 Alpha virt. eigenvalues --    0.01705   0.03264   0.04326   0.04737   0.06101
 Alpha virt. eigenvalues --    0.06597   0.06752   0.07612   0.07889   0.08775
 Alpha virt. eigenvalues --    0.11397   0.11754   0.12166   0.12991   0.13415

 Mulliken charges:
               1
     1  C    0.759854
     2  C    0.279072
     3  C   -0.834249
     4  C   -0.664249
     5  C    0.602439
     6  C    0.680770
     7  N   -0.436956
     8  H   -0.017259
     9  H   -0.020882
    10  H   -0.010872
    11  H    0.086722
    12  H   -0.000407
    13  H   -0.051952
    14  H   -0.017495
    15  H   -0.276239
    16  H   -0.078295
 Sum of Mulliken charges =  -0.00000

 Dipole moment (field-independent basis, Debye):
    X=              0.4896    Y=              6.6175    Z=              0.7288  Tot=              6.6755

 Test job not archived.
 1\1\GINC-SE087\SP\RHF\Aug-CC-pVDZ\C6H9N1\OHZDE\09-Apr-2025\0\\#t hf au
 g-cc-pvdz iop(5/13=1,5/36=2,99/5=2) pseudo=read geom=check guess=(read
 ,tcheck) scf=(maxcycle=1)\\title\\0,1\C,0,2.57973005,-0.15354902,-0.35
 251735\C,0,1.11719014,-0.15079379,-0.05003029\C,0,0.14254636,-1.065372
 97,-0.25162156\C,0,-1.09806798,-0.41146227,0.31774881\C,0,-2.36115557,
 -0.46774705,-0.53738658\C,0,-0.6920797,0.94937969,0.76252874\N,0,0.576
 45312,1.04680303,0.55662779\H,0,3.19611421,-0.06067682,0.54765067\H,0,
 2.81867528,-1.10444206,-0.82381531\H,0,2.86782407,0.64671633,-1.042231

 Normal termination of Gaussian 16 at Wed Apr  9 16:34:24 2025.
