 Gaussian 16, Revision C.01,

 ----------------------------------------------------------------------
 #t hf aug-cc-pvdz symm=none int=(grid=ultrafine) guess=(read,tcheck) s
 table=(opt,rrhf)
 ----------------------------------------------------------------------
 -----
 title
 -----
 Symbolic Z-matrix:
 Charge =  0 Multiplicity = 1

 SCF Done:  E(RHF) =  -195.035146818     A.U. after   14 cycles
 Normal termination of Gaussian 16 at Wed Apr  9 03:06:20 2025.
 Gaussian 16:  ES64L-G16RevC.01  3-Jul-2019

 ----------------------------------------------------------------------
 #t hf aug-cc-pvdz iop(5/13=1,5/36=2,99/5=2) pseudo=read geom=check gue
 ss=(read,tcheck) scf=(maxcycle=1)
 ----------------------------------------------------------------------
 -----
 title
 -----
 Structure from the checkpoint file:  "Grambow2020_b97d3_006578_reverse_mol1.chk"
 Charge =  0 Multiplicity = 1

                         Standard orientation:
 ---------------------------------------------------------------------
 Center     Atomic      Atomic             Coordinates (Angstroms)
 Number     Number       Type             X           Y           Z
 ---------------------------------------------------------------------
      1          6           0       -1.379022   -0.995364    0.167398
      2          6           0       -0.678822    0.196342   -0.488076
      3          6           0       -0.273884    1.359242    0.428072
      4          6           0        0.805450    0.271117   -0.711564
      5          6           0        1.617127   -0.641129    0.196152
      6          1           0       -0.905382   -1.293258    1.111106
      7          1           0       -1.363305   -1.864484   -0.506332
      8          1           0       -2.430766   -0.757850    0.381181
      9          1           0       -1.254651    0.547870   -1.354008
     10          1           0       -0.733403    2.321008    0.183969
     11          1           0       -0.235591    1.113698    1.491806
     12          1           0        0.836168    1.559797    0.003396
     13          1           0        2.643229   -0.273019    0.330900
     14          1           0        1.206867   -0.914588    1.186247
     15          1           0        1.691740   -1.580420   -0.380151
 ---------------------------------------------------------------------

 SCF Done:  E(RHF) =  -195.094994674     A.U. after    2 cycles

 The electronic state is 1-A.
 Alpha  occ. eigenvalues --  -11.26887 -11.25149 -11.24750 -11.23371 -11.23066
 Alpha  occ. eigenvalues --   -1.12335  -0.97070  -0.94924  -0.82879  -0.73447
 Alpha  occ. eigenvalues --   -0.65346  -0.59659  -0.58896  -0.56962  -0.53699
 Alpha  occ. eigenvalues --   -0.52815  -0.50640  -0.49278  -0.44511  -0.31782
 Alpha virt. eigenvalues --    0.03356   0.04449   0.04481   0.05060   0.06656
 Alpha virt. eigenvalues --    0.06934   0.07040   0.07339   0.08106   0.09644
 Alpha virt. eigenvalues --    0.11731   0.12906   0.14251   0.15115   0.15290

 Mulliken charges:
               1
     1  C    0.509581
     2  C    0.036566
     3  C    0.455056
     4  C   -0.881153
     5  C    0.569971
     6  H   -0.068583
     7  H    0.006163
     8  H   -0.011103
     9  H   -0.286642
    10  H   -0.131879
    11  H   -0.145398
    12  H    0.184039
    13  H   -0.115610
    14  H   -0.148884
    15  H    0.027877
 Sum of Mulliken charges =  -0.00000

 Dipole moment (field-independent basis, Debye):
    X=             -1.2659    Y=             -0.0875    Z=              1.8750  Tot=              2.2640

 Test job not archived.
 1\1\GINC-SE090\SP\RHF\Aug-CC-pVDZ\C5H10\OHZDE\09-Apr-2025\0\\#t hf aug
 -cc-pvdz iop(5/13=1,5/36=2,99/5=2) pseudo=read geom=check guess=(read,
 tcheck) scf=(maxcycle=1)\\title\\0,1\C,0,1.33634805,-0.94612666,0.0190
 8514\C,0,0.62026019,0.24140664,0.66489474\C,0,0.29622218,1.43810021,-0
 .23985008\C,0,-0.87329688,0.34173951,0.79840197\C,0,-1.64461657,-0.526
 90416,-0.18418822\H,0,0.91669084,-1.20705675,-0.96043761\H,0,1.2615338
 7,-1.83335132,0.66465849\H,0,2.40385017,-0.72534393,-0.12224906\H,0,1.
 14779332,0.55593215,1.57471413\H,0,0.75848812,2.38250542,0.0603942\H,0

 Normal termination of Gaussian 16 at Wed Apr  9 03:06:24 2025.
