 Gaussian 16, Revision C.01,

 ----------------------------------------------------------------------
 #t hf aug-cc-pvdz symm=none int=(grid=ultrafine) guess=(read,tcheck) s
 table=(opt,rrhf)
 ----------------------------------------------------------------------
 -----
 title
 -----
 Symbolic Z-matrix:
 Charge =  0 Multiplicity = 1

 SCF Done:  E(RHF) =  -245.644616243     A.U. after   15 cycles
 Normal termination of Gaussian 16 at Wed Apr  9 03:20:49 2025.
 Gaussian 16:  ES64L-G16RevC.01  3-Jul-2019

 ----------------------------------------------------------------------
 #t hf aug-cc-pvdz iop(5/13=1,5/36=2,99/5=2) pseudo=read geom=check gue
 ss=(read,tcheck) scf=(maxcycle=1)
 ----------------------------------------------------------------------
 -----
 title
 -----
 Structure from the checkpoint file:  "Grambow2020_wb97xd3_006117_forward_mol1.chk"
 Charge =  0 Multiplicity = 1

                         Standard orientation:
 ---------------------------------------------------------------------
 Center     Atomic      Atomic             Coordinates (Angstroms)
 Number     Number       Type             X           Y           Z
 ---------------------------------------------------------------------
      1          6           0       -1.069339    0.560324   -0.097783
      2          6           0        0.410886    0.888318    0.241524
      3          7           0        1.243619    0.124786   -0.540092
      4          6           0        0.529027   -0.763525    0.224004
      5          8           0       -0.858613   -0.850115   -0.113423
      6          1           0       -1.788101    0.815149    0.683838
      7          1           0       -1.366134    0.963122   -1.066775
      8          1           0        0.768008    1.737618    0.826771
      9          1           0        0.322872   -0.068870    1.359983
     10          1           0        1.003489   -1.630301    0.677735
 ---------------------------------------------------------------------

 SCF Done:  E(RHF) =  -245.717472998     A.U. after    2 cycles

 The electronic state is 1-A.
 Alpha  occ. eigenvalues --  -20.59931 -15.57197 -11.39495 -11.36762 -11.31655
 Alpha  occ. eigenvalues --   -1.41009  -1.22866  -0.99781  -0.87423  -0.82444
 Alpha  occ. eigenvalues --   -0.74928  -0.70746  -0.63195  -0.58689  -0.56785
 Alpha  occ. eigenvalues --   -0.54046  -0.47488  -0.43034  -0.33524
 Alpha virt. eigenvalues --    0.02705   0.03899   0.04496   0.05166   0.07299
 Alpha virt. eigenvalues --    0.08691   0.10329   0.10539   0.11620   0.13013
 Alpha virt. eigenvalues --    0.13646   0.15229   0.16094   0.16379   0.17451

 Mulliken charges:
               1
     1  C    0.865100
     2  C    0.170962
     3  N   -0.862720
     4  C    0.806691
     5  O   -0.739545
     6  H   -0.163774
     7  H   -0.124565
     8  H   -0.171883
     9  H    0.385345
    10  H   -0.165610
 Sum of Mulliken charges =  -0.00000

 Dipole moment (field-independent basis, Debye):
    X=             -1.4370    Y=              1.7145    Z=              2.9786  Tot=              3.7252

 Test job not archived.
 1\1\GINC-SE159\SP\RHF\Aug-CC-pVDZ\C3H5N1O1\OHZDE\09-Apr-2025\0\\#t hf
 aug-cc-pvdz iop(5/13=1,5/36=2,99/5=2) pseudo=read geom=check guess=(re
 ad,tcheck) scf=(maxcycle=1)\\title\\0,1\C,0,-0.74177029,-0.80465594,-0
 .11470059\C,0,-0.43232947,0.71748309,-0.14807938\N,0,0.60324559,0.9589
 2541,-1.01792899\C,0,1.1224191,0.15902214,-0.0309154\O,0,0.63084414,-1
 .18454578,-0.03985345\H,0,-1.26668093,-1.1481688,0.77914037\H,0,-1.233
 91344,-1.14244863,-1.02737317\H,0,-1.0584176,1.51440869,0.25724144\H,0
 ,0.40790558,0.53040064,1.04938148\H,0,2.10896931,0.34340219,0.38742668

 Normal termination of Gaussian 16 at Wed Apr  9 03:20:52 2025.
