 Gaussian 16, Revision C.01,

 ----------------------------------------------------------------------
 #t hf aug-cc-pvdz symm=none int=(grid=ultrafine) guess=(read,tcheck) s
 table=(opt,rrhf)
 ----------------------------------------------------------------------
 -----
 title
 -----
 Symbolic Z-matrix:
 Charge =  0 Multiplicity = 1

 SCF Done:  E(RHF) =  -323.758608634     A.U. after   14 cycles
 Normal termination of Gaussian 16 at Wed Apr  9 16:20:08 2025.
 Gaussian 16:  ES64L-G16RevC.01  3-Jul-2019

 ----------------------------------------------------------------------
 #t hf aug-cc-pvdz iop(5/13=1,5/36=2,99/5=2) pseudo=read geom=check gue
 ss=(read,tcheck) scf=(maxcycle=1)
 ----------------------------------------------------------------------
 -----
 title
 -----
 Structure from the checkpoint file:  "Grambow2020_wb97xd3_008088_forward_mol1.chk"
 Charge =  0 Multiplicity = 1

                         Standard orientation:
 ---------------------------------------------------------------------
 Center     Atomic      Atomic             Coordinates (Angstroms)
 Number     Number       Type             X           Y           Z
 ---------------------------------------------------------------------
      1          6           0        1.598241    1.284522   -0.130009
      2          6           0        1.240798   -0.104404   -0.001572
      3          7           0        2.337652   -0.766451    0.265684
      4          8           0        0.068948   -0.721574   -0.062120
      5          6           0       -1.041418    0.053233   -0.460750
      6          6           0       -1.887327    0.664539    0.602349
      7          6           0       -2.365726   -0.543716   -0.162332
      8          1           0        2.023165    1.495834   -1.109864
      9          1           0        0.900441    2.049410    0.200438
     10          1           0        2.782847    0.419163    0.297348
     11          1           0        2.414678   -1.757894    0.055682
     12          1           0       -0.878202    0.587961   -1.388175
     13          1           0       -1.574169    0.508472    1.626071
     14          1           0       -2.336597    1.627680    0.400843
     15          1           0       -2.359952   -1.490365    0.361160
     16          1           0       -3.154767   -0.427555   -0.892457
 ---------------------------------------------------------------------

 SCF Done:  E(RHF) =  -323.861576875     A.U. after    2 cycles

 The electronic state is 1-A.
 Alpha  occ. eigenvalues --  -20.63221 -15.62259 -11.37255 -11.31413 -11.25089
 Alpha  occ. eigenvalues --  -11.24966 -11.18961  -1.41824  -1.20997  -1.14454
 Alpha  occ. eigenvalues --   -0.95836  -0.88842  -0.84486  -0.78207  -0.74457
 Alpha  occ. eigenvalues --   -0.69421  -0.68164  -0.63584  -0.60197  -0.55946
 Alpha  occ. eigenvalues --   -0.54416  -0.53397  -0.53014  -0.45181  -0.44889
 Alpha  occ. eigenvalues --   -0.40561  -0.31454
 Alpha virt. eigenvalues --    0.03298   0.04289   0.04465   0.04723   0.06092
 Alpha virt. eigenvalues --    0.06448   0.06979   0.07390   0.08734   0.10486
 Alpha virt. eigenvalues --    0.11091   0.13134   0.13598   0.14035   0.14744

 Mulliken charges:
               1
     1  C    0.202555
     2  C    0.461954
     3  N   -0.467125
     4  O   -0.689260
     5  C    0.871400
     6  C    0.404856
     7  C    0.781498
     8  H   -0.130437
     9  H   -0.225449
    10  H    0.446077
    11  H   -0.041759
    12  H   -0.401977
    13  H   -0.305860
    14  H   -0.271865
    15  H   -0.316729
    16  H   -0.317879
 Sum of Mulliken charges =  -0.00000

 Dipole moment (field-independent basis, Debye):
    X=             -2.2707    Y=             -0.7520    Z=             -1.0729  Tot=              2.6216

 Test job not archived.
 1\1\GINC-SE162\SP\RHF\Aug-CC-pVDZ\C5H9N1O1\OHZDE\09-Apr-2025\0\\#t hf
 aug-cc-pvdz iop(5/13=1,5/36=2,99/5=2) pseudo=read geom=check guess=(re
 ad,tcheck) scf=(maxcycle=1)\\title\\0,1\C,0,1.86206756,-0.88317594,-0.
 04815231\C,0,1.33385668,0.45635361,-0.05384419\N,0,2.32388308,1.264951
 84,-0.33462532\O,0,0.10334637,0.9186889,0.11903199\C,0,-0.87794632,-0.
 01185085,0.52314414\C,0,-1.71325277,-0.65190679,-0.53138263\C,0,-2.280
 78083,0.43517983,0.34590749\H,0,2.3729162,-1.10420224,0.88753555\H,0,1
 .2401733,-1.70507799,-0.39296759\H,0,2.90421178,0.14808236,-0.47851439

 Normal termination of Gaussian 16 at Wed Apr  9 16:20:14 2025.
