 Gaussian 16, Revision C.01,

 ----------------------------------------------------------------------
 #t hf aug-cc-pvdz symm=none int=(grid=ultrafine) guess=(read,tcheck) s
 table=(opt,rrhf)
 ----------------------------------------------------------------------
 -----
 title
 -----
 Symbolic Z-matrix:
 Charge =  0 Multiplicity = 1

 SCF Done:  E(RHF) =  -306.551299225     A.U. after   16 cycles
 Normal termination of Gaussian 16 at Wed Apr  9 16:25:07 2025.
 Gaussian 16:  ES64L-G16RevC.01  3-Jul-2019

 ----------------------------------------------------------------------
 #t hf aug-cc-pvdz iop(5/13=1,5/36=2,99/5=2) pseudo=read geom=check gue
 ss=(read,tcheck) scf=(maxcycle=1)
 ----------------------------------------------------------------------
 -----
 title
 -----
 Structure from the checkpoint file:  "Grambow2020_wb97xd3_008208_reverse_mol2.chk"
 Charge =  0 Multiplicity = 1

                         Standard orientation:
 ---------------------------------------------------------------------
 Center     Atomic      Atomic             Coordinates (Angstroms)
 Number     Number       Type             X           Y           Z
 ---------------------------------------------------------------------
      1          6           0       -1.554535    0.353316   -0.807469
      2          8           0       -1.907082   -0.831631   -0.197640
      3          6           0       -1.090102   -0.663785    0.828051
      4          6           0        2.621043   -0.648847   -0.071003
      5          6           0        1.569124    0.019889   -0.515424
      6          6           0        0.803302    1.030601    0.284705
      7          6           0       -0.674881    0.687618    0.393660
      8          1           0        3.007655   -0.498598    0.932330
      9          1           0       -2.397392    0.935740   -1.176250
     10          1           0       -0.622325   -1.514387    1.305718
     11          1           0        3.136959   -1.371000   -0.691763
     12          1           0        1.197713   -0.155154   -1.522343
     13          1           0        1.229600    1.119248    1.287412
     14          1           0        0.889308    2.014718   -0.185944
     15          1           0       -1.228568    1.449729    0.956839
 ---------------------------------------------------------------------

 SCF Done:  E(RHF) =  -306.646609877     A.U. after    2 cycles

 The electronic state is 1-A.
 Alpha  occ. eigenvalues --  -20.68104 -11.32589 -11.26586 -11.26336 -11.25473
 Alpha  occ. eigenvalues --  -11.24498 -11.23406  -1.46124  -1.09661  -1.02628
 Alpha  occ. eigenvalues --   -0.94782  -0.92358  -0.78192  -0.72614  -0.72562
 Alpha  occ. eigenvalues --   -0.68815  -0.67086  -0.62887  -0.60518  -0.57789
 Alpha  occ. eigenvalues --   -0.53482  -0.51927  -0.49123  -0.47762  -0.37239
 Alpha  occ. eigenvalues --   -0.26502
 Alpha virt. eigenvalues --    0.03274   0.03941   0.04099   0.04845   0.05743
 Alpha virt. eigenvalues --    0.06119   0.06363   0.07112   0.08373   0.09314
 Alpha virt. eigenvalues --    0.11690   0.12098   0.12855   0.13644   0.14237

 Mulliken charges:
               1
     1  C    0.499751
     2  O   -0.520900
     3  C    0.590405
     4  C    0.438409
     5  C    0.780995
     6  C    0.313246
     7  C   -0.292664
     8  H   -0.280198
     9  H   -0.355340
    10  H   -0.327254
    11  H   -0.291465
    12  H   -0.437996
    13  H   -0.125249
    14  H    0.044072
    15  H   -0.035812
 Sum of Mulliken charges =  -0.00000

 Dipole moment (field-independent basis, Debye):
    X=              0.9593    Y=              0.8675    Z=              1.9696  Tot=              2.3563

 Test job not archived.
 1\1\GINC-SE114\SP\RHF\Aug-CC-pVDZ\C6H8O1\OHZDE\09-Apr-2025\0\\#t hf au
 g-cc-pvdz iop(5/13=1,5/36=2,99/5=2) pseudo=read geom=check guess=(read
 ,tcheck) scf=(maxcycle=1)\\title\\0,1\C,0,-1.84373387,-0.92511869,0.16
 107353\O,0,-1.48132337,-1.29777817,1.43781275\C,0,-0.70281206,-0.24712
 799,1.63204071\C,0,2.35150365,-0.07735491,-0.65344734\C,0,1.05381141,-
 0.22085757,-0.86943949\C,0,0.02608138,0.84023998,-0.61239563\C,0,-1.06
 515609,0.37489485,0.34006948\H,0,2.76427204,0.84948876,-0.26704827\H,0
 ,-2.90800117,-1.02014744,-0.04852298\H,0,0.18458715,-0.32402423,2.2461

 Normal termination of Gaussian 16 at Wed Apr  9 16:25:12 2025.
