 Gaussian 16, Revision C.01,

 ----------------------------------------------------------------------
 #t hf aug-cc-pvdz symm=none int=(grid=ultrafine) guess=(read,tcheck) s
 table=(opt,rrhf)
 ----------------------------------------------------------------------
 -----
 title
 -----
 Symbolic Z-matrix:
 Charge =  0 Multiplicity = 1

 SCF Done:  E(RHF) =  -360.813864991     A.U. after   14 cycles
 Normal termination of Gaussian 16 at Wed Apr  9 16:35:12 2025.
 Gaussian 16:  ES64L-G16RevC.01  3-Jul-2019

 ----------------------------------------------------------------------
 #t hf aug-cc-pvdz iop(5/13=1,5/36=2,99/5=2) pseudo=read geom=check gue
 ss=(read,tcheck) scf=(maxcycle=1)
 ----------------------------------------------------------------------
 -----
 title
 -----
 Structure from the checkpoint file:  "Grambow2020_wb97xd3_008627_reverse_mol1.chk"
 Charge =  0 Multiplicity = 1

                         Standard orientation:
 ---------------------------------------------------------------------
 Center     Atomic      Atomic             Coordinates (Angstroms)
 Number     Number       Type             X           Y           Z
 ---------------------------------------------------------------------
      1          6           0        0.856261    1.352126   -0.330406
      2          6           0        1.854454    0.206528   -0.350849
      3          6           0        1.218124   -0.996009    0.349471
      4          8           0       -0.115253   -1.119846   -0.172798
      5          6           0       -0.915371   -0.104553    0.074217
      6          8           0       -1.012019    0.490031    1.253940
      7          7           0       -1.978235   -0.061245   -0.727645
      8          1           0        1.229700    2.206198    0.248523
      9          1           0        0.613536    1.724929   -1.325603
     10          1           0       -0.207841    1.131028    0.886499
     11          1           0        2.113917   -0.094141   -1.369986
     12          1           0        2.796037    0.432270    0.158631
     13          1           0        1.695018   -1.950041    0.131895
     14          1           0        1.159233   -0.854825    1.430305
     15          1           0       -2.660353    0.653083   -0.555827
     16          1           0       -1.954235   -0.529807   -1.614661
 ---------------------------------------------------------------------

 SCF Done:  E(RHF) =  -360.929904126     A.U. after    2 cycles

 The electronic state is 1-A.
 Alpha  occ. eigenvalues --  -20.63101 -20.57466 -15.67910 -11.46957 -11.29471
 Alpha  occ. eigenvalues --  -11.21760 -11.15793  -1.45106  -1.34927  -1.22188
 Alpha  occ. eigenvalues --   -1.03799  -0.93786  -0.84212  -0.78936  -0.76928
 Alpha  occ. eigenvalues --   -0.75222  -0.72140  -0.67506  -0.64025  -0.61754
 Alpha  occ. eigenvalues --   -0.57773  -0.53644  -0.53478  -0.51314  -0.47492
 Alpha  occ. eigenvalues --   -0.46239  -0.44737  -0.29147
 Alpha virt. eigenvalues --    0.02775   0.04078   0.04778   0.05453   0.06244
 Alpha virt. eigenvalues --    0.06688   0.07196   0.07634   0.09287   0.10379
 Alpha virt. eigenvalues --    0.13037   0.13909   0.14175   0.14511   0.14850

 Mulliken charges:
               1
     1  C    0.204423
     2  C   -0.002043
     3  C    0.681381
     4  O   -0.612524
     5  C    1.031190
     6  O   -0.732120
     7  N   -0.108587
     8  H   -0.261298
     9  H   -0.251188
    10  H    0.601973
    11  H   -0.129977
    12  H   -0.072499
    13  H   -0.269438
    14  H   -0.069615
    15  H    0.003864
    16  H   -0.013542
 Sum of Mulliken charges =  -0.00000

 Dipole moment (field-independent basis, Debye):
    X=             -1.3703    Y=             -1.2157    Z=             -1.9356  Tot=              2.6650

 Test job not archived.
 1\1\GINC-SE141\SP\RHF\Aug-CC-pVDZ\C4H9N1O2\OHZDE\09-Apr-2025\0\\#t hf
 aug-cc-pvdz iop(5/13=1,5/36=2,99/5=2) pseudo=read geom=check guess=(re
 ad,tcheck) scf=(maxcycle=1)\\title\\0,1\C,0,-1.00509499,-0.36214797,-0
 .84516276\C,0,-1.22349762,0.91219379,-0.04669068\C,0,-0.19113202,0.953
 27712,1.0820218\O,0,1.07611626,0.61360187,0.49491186\C,0,1.15714204,-0
 .59802548,-0.01245314\O,0,0.70429119,-1.68495149,0.59428861\N,0,2.1638
 5122,-0.74532903,-0.8723242\H,0,-1.87301743,-1.03112198,-0.78823984\H,
 0,-0.81612483,-0.17650772,-1.90258527\H,0,-0.232406,-1.46284558,0.0786

 Normal termination of Gaussian 16 at Wed Apr  9 16:35:19 2025.
