 Gaussian 16, Revision C.01,

 ----------------------------------------------------------------------
 #t hf aug-cc-pvdz symm=none int=(grid=ultrafine) guess=(read,tcheck) s
 table=(opt,rrhf)
 ----------------------------------------------------------------------
 -----
 title
 -----
 Symbolic Z-matrix:
 Charge =  0 Multiplicity = 1

 SCF Done:  E(RHF) =  -288.098189684     A.U. after   13 cycles

 1\1\GINC-SE173\Stability\RHF\Aug-CC-pVDZ\C6H11N1\OHZDE\09-Apr-2025\0\\
 #t hf aug-cc-pvdz symm=none int=(grid=ultrafine) guess=(read,tcheck) s
 table=(opt,rrhf)\\title\\0,1\C,0,1.84960347,-0.63294045,0.00719306\C,0
 ,0.57135156,0.07697062,0.44115911\C,0,0.55986227,1.52716973,-0.0307024
 9\C,0,-0.67880227,-0.70985234,-0.01324019\C,0,-1.99617944,-0.16094834,
 0.54110706\C,0,-0.74261088,-0.78619119,-1.47810779\N,0,-0.79309288,-0.
 82900158,-2.62386796\H,0,1.87260556,-1.66689722,0.35902569\H,0,2.72755
 808,-0.12412053,0.40829678\H,0,1.9399415,-0.64646557,-1.08187887\H,0,0

 Normal termination of Gaussian 16 at Wed Apr  9 03:45:48 2025.
 Gaussian 16:  ES64L-G16RevC.01  3-Jul-2019

 ----------------------------------------------------------------------
 #t hf aug-cc-pvdz iop(5/13=1,5/36=2,99/5=2) pseudo=read geom=check gue
 ss=(read,tcheck) scf=(maxcycle=1)
 ----------------------------------------------------------------------
 -----
 title
 -----
 Structure from the checkpoint file:  "Grambow2020_wb97xd3_007877_forward_mol2.chk"
 Charge =  0 Multiplicity = 1

                         Standard orientation:
 ---------------------------------------------------------------------
 Center     Atomic      Atomic             Coordinates (Angstroms)
 Number     Number       Type             X           Y           Z
 ---------------------------------------------------------------------
      1          6           0       -1.718896   -0.871523   -0.740250
      2          6           0       -0.987629    0.362194   -0.221193
      3          6           0       -1.214630    0.547463    1.275473
      4          6           0        0.510537    0.315269   -0.597692
      5          6           0        1.275112    1.601569   -0.273753
      6          6           0        1.170690   -0.834517    0.033122
      7          7           0        1.682586   -1.727137    0.541393
      8          1           0       -1.576054   -0.998717   -1.815796
      9          1           0       -2.790809   -0.790710   -0.553007
     10          1           0       -1.360571   -1.777065   -0.244248
     11          1           0       -1.385480    1.240497   -0.741967
     12          1           0       -2.283447    0.584725    1.491837
     13          1           0       -0.771844    1.472211    1.647790
     14          1           0       -0.788840   -0.285423    1.841122
     15          1           0        0.570176    0.142117   -1.677022
     16          1           0        2.291270    1.555947   -0.665053
     17          1           0        0.768673    2.454401   -0.728758
     18          1           0        1.337727    1.769248    0.801104
 ---------------------------------------------------------------------

 SCF Done:  E(RHF) =  -288.187875093     A.U. after    2 cycles

 The electronic state is 1-A.
 Alpha  occ. eigenvalues --  -15.63000 -11.28950 -11.27816 -11.26017 -11.25108
 Alpha  occ. eigenvalues --  -11.23340 -11.23300  -1.19379  -1.11857  -1.02559
 Alpha  occ. eigenvalues --   -0.94327  -0.90184  -0.81245  -0.69465  -0.65130
 Alpha  occ. eigenvalues --   -0.63143  -0.60257  -0.57376  -0.55834  -0.55290
 Alpha  occ. eigenvalues --   -0.53862  -0.53127  -0.50043  -0.49090  -0.48893
 Alpha  occ. eigenvalues --   -0.45024  -0.44655
 Alpha virt. eigenvalues --    0.02752   0.03922   0.04163   0.05068   0.06225
 Alpha virt. eigenvalues --    0.06268   0.06725   0.07499   0.08249   0.08660
 Alpha virt. eigenvalues --    0.09466   0.10378   0.12386   0.13349   0.13783

 Mulliken charges:
               1
     1  C    0.796259
     2  C   -1.060839
     3  C    0.887812
     4  C    0.017724
     5  C    0.767850
     6  C   -0.431746
     7  N   -0.217579
     8  H   -0.062615
     9  H   -0.041873
    10  H   -0.056367
    11  H   -0.158999
    12  H   -0.047635
    13  H   -0.112381
    14  H   -0.051760
    15  H   -0.087667
    16  H   -0.049022
    17  H   -0.049840
    18  H   -0.041321
 Sum of Mulliken charges =   0.00000

 Dipole moment (field-independent basis, Debye):
    X=             -2.1236    Y=              3.3013    Z=             -1.6083  Tot=              4.2421

 Test job not archived.
 1\1\GINC-SE173\SP\RHF\Aug-CC-pVDZ\C6H11N1\OHZDE\09-Apr-2025\0\\#t hf a
 ug-cc-pvdz iop(5/13=1,5/36=2,99/5=2) pseudo=read geom=check guess=(rea
 d,tcheck) scf=(maxcycle=1)\\title\\0,1\C,0,1.84960347,-0.63294045,0.00
 719306\C,0,0.57135156,0.07697062,0.44115911\C,0,0.55986227,1.52716973,
 -0.03070249\C,0,-0.67880227,-0.70985234,-0.01324019\C,0,-1.99617944,-0
 .16094834,0.54110706\C,0,-0.74261088,-0.78619119,-1.47810779\N,0,-0.79
 309288,-0.82900158,-2.62386796\H,0,1.87260556,-1.66689722,0.35902569\H
 ,0,2.72755808,-0.12412053,0.40829678\H,0,1.9399415,-0.64646557,-1.0818

 Normal termination of Gaussian 16 at Wed Apr  9 03:45:55 2025.
