 Gaussian 16, Revision C.01,

 ----------------------------------------------------------------------
 #t hf aug-cc-pvdz symm=none int=(grid=ultrafine) guess=(read,tcheck) s
 table=(opt,rrhf)
 ----------------------------------------------------------------------
 -----
 title
 -----
 Symbolic Z-matrix:
 Charge =  0 Multiplicity = 1

 SCF Done:  E(RHF) =  -306.547172303     A.U. after   15 cycles
 Normal termination of Gaussian 16 at Wed Apr  9 16:52:20 2025.
 Gaussian 16:  ES64L-G16RevC.01  3-Jul-2019

 ----------------------------------------------------------------------
 #t hf aug-cc-pvdz iop(5/13=1,5/36=2,99/5=2) pseudo=read geom=check gue
 ss=(read,tcheck) scf=(maxcycle=1)
 ----------------------------------------------------------------------
 -----
 title
 -----
 Structure from the checkpoint file:  "Grambow2020_wb97xd3_009014_reverse_mol1.chk"
 Charge =  0 Multiplicity = 1

                         Standard orientation:
 ---------------------------------------------------------------------
 Center     Atomic      Atomic             Coordinates (Angstroms)
 Number     Number       Type             X           Y           Z
 ---------------------------------------------------------------------
      1          6           0        2.250839   -0.177670   -0.117107
      2          6           0        0.759639   -0.047197   -0.163171
      3          8           0        0.187588    1.234193   -0.268409
      4          6           0       -0.959777    0.755142    0.465292
      5          6           0       -1.747331   -0.164920   -0.475140
      6          6           0       -0.743781   -1.312344   -0.275514
      7          6           0       -0.193934   -0.519064    0.904032
      8          1           0        2.641191    0.340631    0.759129
      9          1           0        2.521811   -1.232145   -0.058249
     10          1           0        2.699963    0.252507   -1.012796
     11          1           0       -1.422088    1.535952    1.065520
     12          1           0       -2.639102   -0.530424    0.043454
     13          1           0       -2.015927    0.182509   -1.473750
     14          1           0        0.402781   -0.736235   -1.079275
     15          1           0        0.116737   -0.890022    1.872891
 ---------------------------------------------------------------------

 SCF Done:  E(RHF) =  -306.637765197     A.U. after    2 cycles

 The electronic state is 1-A.
 Alpha  occ. eigenvalues --  -20.58656 -11.33144 -11.30890 -11.26912 -11.25221
 Alpha  occ. eigenvalues --  -11.25002 -11.24473  -1.38983  -1.14135  -1.04494
 Alpha  occ. eigenvalues --   -0.93928  -0.89021  -0.76569  -0.75259  -0.70459
 Alpha  occ. eigenvalues --   -0.66973  -0.64204  -0.59139  -0.58162  -0.55438
 Alpha  occ. eigenvalues --   -0.53816  -0.53044  -0.48060  -0.43992  -0.42412
 Alpha  occ. eigenvalues --   -0.34747
 Alpha virt. eigenvalues --    0.03216   0.03861   0.04462   0.05075   0.06244
 Alpha virt. eigenvalues --    0.06357   0.06731   0.08587   0.10061   0.10843
 Alpha virt. eigenvalues --    0.12296   0.12415   0.12776   0.13544   0.14768

 Mulliken charges:
               1
     1  C    0.520415
     2  C   -0.249854
     3  O   -0.854128
     4  C    0.748443
     5  C    0.579128
     6  C   -0.665240
     7  C    0.487914
     8  H    0.093501
     9  H    0.085763
    10  H    0.012815
    11  H   -0.307105
    12  H   -0.017676
    13  H   -0.223037
    14  H    0.204755
    15  H   -0.415694
 Sum of Mulliken charges =  -0.00000

 Dipole moment (field-independent basis, Debye):
    X=              0.2561    Y=              0.6774    Z=              1.5518  Tot=              1.7125

 Test job not archived.
 1\1\GINC-SE087\SP\RHF\Aug-CC-pVDZ\C6H8O1\OHZDE\09-Apr-2025\0\\#t hf au
 g-cc-pvdz iop(5/13=1,5/36=2,99/5=2) pseudo=read geom=check guess=(read
 ,tcheck) scf=(maxcycle=1)\\title\\0,1\C,0,2.13300575,0.15905421,-0.130
 11784\C,0,0.64288607,0.02407365,-0.19451016\O,0,-0.08460681,0.87006229
 ,-1.05202676\C,0,-1.20074072,0.79421367,-0.13947873\C,0,-1.80435294,-0
 .60858112,-0.27726849\C,0,-0.67291244,-1.23259038,0.55579618\C,0,-0.30
 20749,0.18710977,0.96796656\H,0,2.3998503,1.15628732,0.22076802\H,0,2.
 53559635,-0.5820699,0.56087012\H,0,2.57406952,-0.00021391,-1.11455593\

 Normal termination of Gaussian 16 at Wed Apr  9 16:52:25 2025.
