 Gaussian 16, Revision C.01,

 ----------------------------------------------------------------------
 #t hf aug-cc-pvdz symm=none int=(grid=ultrafine) guess=(read,tcheck) s
 table=(opt,rrhf)
 ----------------------------------------------------------------------
 -----
 title
 -----
 Symbolic Z-matrix:
 Charge =  0 Multiplicity = 1

 SCF Done:  E(RHF) =  -305.881944488     A.U. after   15 cycles
 Normal termination of Gaussian 16 at Wed Apr  9 03:04:22 2025.
 Gaussian 16:  ES64L-G16RevC.01  3-Jul-2019

 ----------------------------------------------------------------------
 #t hf aug-cc-pvdz iop(5/13=1,5/36=2,99/5=2) pseudo=read geom=check gue
 ss=(read,tcheck) scf=(maxcycle=1)
 ----------------------------------------------------------------------
 -----
 title
 -----
 Structure from the checkpoint file:  "Grambow2020_b97d3_006517_reverse_mol2.chk"
 Charge =  0 Multiplicity = 1

                         Standard orientation:
 ---------------------------------------------------------------------
 Center     Atomic      Atomic             Coordinates (Angstroms)
 Number     Number       Type             X           Y           Z
 ---------------------------------------------------------------------
      1          8           0       -1.507837   -0.993415    0.494372
      2          6           0       -1.628334   -0.021783   -0.236355
      3          6           0       -0.626523    1.101545   -0.383975
      4          6           0        0.603547    1.001936    0.528141
      5          6           0        1.685170    0.048261   -0.000622
      6          8           0        1.189090   -1.221920   -0.397308
      7          1           0        0.476493   -1.460826    0.229566
      8          1           0       -2.553492    0.104461   -0.850170
      9          1           0       -1.188329    2.034359   -0.197837
     10          1           0       -0.340726    1.148426   -1.449904
     11          1           0        1.049689    1.999827    0.654909
     12          1           0        0.274453    0.673097    1.525822
     13          1           0        2.478899   -0.041516    0.766673
     14          1           0        2.149820    0.485094   -0.898702
 ---------------------------------------------------------------------

 SCF Done:  E(RHF) =  -305.977498879     A.U. after    2 cycles

 The electronic state is 1-A.
 Alpha  occ. eigenvalues --  -20.58614 -20.55894 -11.36259 -11.28770 -11.26598
 Alpha  occ. eigenvalues --  -11.24929  -1.36563  -1.30734  -1.07191  -0.96520
 Alpha  occ. eigenvalues --   -0.85703  -0.77942  -0.70170  -0.68547  -0.66259
 Alpha  occ. eigenvalues --   -0.63988  -0.61339  -0.58128  -0.53950  -0.53177
 Alpha  occ. eigenvalues --   -0.52578  -0.47915  -0.44699  -0.44345
 Alpha virt. eigenvalues --    0.02885   0.04031   0.04731   0.05054   0.06462
 Alpha virt. eigenvalues --    0.06784   0.07242   0.08260   0.10033   0.11847
 Alpha virt. eigenvalues --    0.12136   0.13576   0.13922   0.14462   0.15132

 Mulliken charges:
               1
     1  O   -0.502678
     2  C    0.527906
     3  C   -0.032410
     4  C    0.147019
     5  C    0.743930
     6  O   -0.597987
     7  H    0.224316
     8  H   -0.120692
     9  H   -0.002161
    10  H   -0.012980
    11  H   -0.038443
    12  H   -0.117603
    13  H   -0.098142
    14  H   -0.120076
 Sum of Mulliken charges =  -0.00000

 Dipole moment (field-independent basis, Debye):
    X=             -0.7749    Y=              4.0539    Z=             -0.4030  Tot=              4.1470

 Test job not archived.
 1\1\GINC-SE051\SP\RHF\Aug-CC-pVDZ\C4H8O2\OHZDE\09-Apr-2025\0\\#t hf au
 g-cc-pvdz iop(5/13=1,5/36=2,99/5=2) pseudo=read geom=check guess=(read
 ,tcheck) scf=(maxcycle=1)\\title\\0,1\O,0,-2.09852597,0.57686624,-0.19
 462749\C,0,-1.73583513,-0.53279967,0.16543593\C,0,-0.33776234,-1.09274
 755,0.0271091\C,0,0.66336879,-0.17658412,-0.68936278\C,0,1.25454847,0.
 91456966,0.21555992\O,0,0.28258152,1.63521789,0.95903878\H,0,-0.502564
 04,1.73648844,0.3835972\H,0,-2.47123025,-1.24099527,0.61961381\H,0,-0.
 44866036,-2.05598996,-0.5023087\H,0,0.00951037,-1.36238871,1.04040905\

 Normal termination of Gaussian 16 at Wed Apr  9 03:04:26 2025.
