 Gaussian 16, Revision C.01,

 ----------------------------------------------------------------------
 #t hf aug-cc-pvdz symm=none int=(grid=ultrafine) guess=(read,tcheck) s
 table=(opt,rrhf)
 ----------------------------------------------------------------------
 -----
 title
 -----
 Symbolic Z-matrix:
 Charge =  0 Multiplicity = 1

 SCF Done:  E(RHF) =  -353.586226124     A.U. after   14 cycles
 Normal termination of Gaussian 16 at Wed Apr  9 16:05:44 2025.
 Gaussian 16:  ES64L-G16RevC.01  3-Jul-2019

 ----------------------------------------------------------------------
 #t hf aug-cc-pvdz iop(5/13=1,5/36=2,99/5=2) pseudo=read geom=check gue
 ss=(read,tcheck) scf=(maxcycle=1)
 ----------------------------------------------------------------------
 -----
 title
 -----
 Structure from the checkpoint file:  "Grambow2020_wb97xd3_007762_reverse_mol2.chk"
 Charge =  0 Multiplicity = 1

                         Standard orientation:
 ---------------------------------------------------------------------
 Center     Atomic      Atomic             Coordinates (Angstroms)
 Number     Number       Type             X           Y           Z
 ---------------------------------------------------------------------
      1          8           0       -2.958017   -0.000096    0.096957
      2          6           0       -2.086810   -0.000702   -0.611240
      3          7           0        0.694767   -0.688589    1.017073
      4          6           0        1.085689   -1.072791   -0.161374
      5          7           0        1.350180    0.003958   -0.944387
      6          6           0        1.082095    1.074885   -0.154711
      7          7           0        0.692466    0.681729    1.021215
      8          1           0        1.643335    0.007688   -1.904132
      9          1           0        1.189681   -2.094374   -0.489318
     10          1           0        1.183384    2.099420   -0.475552
 ---------------------------------------------------------------------

 SCF Done:  E(RHF) =  -353.692323527     A.U. after    2 cycles

 The electronic state is 1-A.
 Alpha  occ. eigenvalues --  -20.67098 -15.70745 -15.65027 -15.64967 -11.36212
 Alpha  occ. eigenvalues --  -11.32310 -11.32305  -1.48260  -1.37596  -1.18824
 Alpha  occ. eigenvalues --   -1.08511  -0.85583  -0.84058  -0.80662  -0.78858
 Alpha  occ. eigenvalues --   -0.65117  -0.64968  -0.64824  -0.63734  -0.63093
 Alpha  occ. eigenvalues --   -0.54519  -0.48317  -0.43111  -0.42615  -0.37052
 Alpha virt. eigenvalues --    0.01836   0.03079   0.05402   0.06519   0.09373
 Alpha virt. eigenvalues --    0.09584   0.09714   0.10335   0.11938   0.13494
 Alpha virt. eigenvalues --    0.13745   0.14654   0.14951   0.15797   0.16549

 Mulliken charges:
               1
     1  O   -0.214759
     2  C    0.194183
     3  N   -0.426845
     4  C    0.804001
     5  N   -0.307812
     6  C    0.801932
     7  N   -0.426682
     8  H   -0.081872
     9  H   -0.171633
    10  H   -0.170514
 Sum of Mulliken charges =  -0.00000

 Dipole moment (field-independent basis, Debye):
    X=              2.2938    Y=              0.0206    Z=             -5.8047  Tot=              6.2415

 Test job not archived.
 1\1\GINC-SE220\SP\RHF\Aug-CC-pVDZ\C3H3N3O1\OHZDE\09-Apr-2025\0\\#t hf
 aug-cc-pvdz iop(5/13=1,5/36=2,99/5=2) pseudo=read geom=check guess=(re
 ad,tcheck) scf=(maxcycle=1)\\title\\0,1\O,0,3.10241122,-1.05049038,0.6
 9167812\C,0,2.3257494,-0.87971436,-0.10089699\N,0,-0.12945656,0.962636
 74,1.09888158\C,0,-0.29757337,1.24900845,-0.15765968\N,0,-0.87571229,0
 .2056869,-0.80549276\C,0,-1.03945926,-0.74258402,0.15174997\N,0,-0.602
 80147,-0.30811399,1.29619241\H,0,-1.09883555,0.13689254,-1.78147846\H,
 0,-0.02263073,2.17526562,-0.63562197\H,0,-1.47203839,-1.71337349,-0.03

 Normal termination of Gaussian 16 at Wed Apr  9 16:05:48 2025.
