 Gaussian 16, Revision C.01,

 ----------------------------------------------------------------------
 #t hf aug-cc-pvdz symm=none int=(grid=ultrafine) guess=(read,tcheck) s
 table=(opt,rrhf)
 ----------------------------------------------------------------------
 -----
 title
 -----
 Symbolic Z-matrix:
 Charge =  0 Multiplicity = 1

 SCF Done:  E(RHF) =  -288.098160687     A.U. after   13 cycles

 1\1\GINC-SE222\Stability\RHF\Aug-CC-pVDZ\C6H11N1\OHZDE\09-Apr-2025\0\\
 #t hf aug-cc-pvdz symm=none int=(grid=ultrafine) guess=(read,tcheck) s
 table=(opt,rrhf)\\title\\0,1\C,0,2.09508303,0.12053886,-0.03149406\C,0
 ,0.83988223,-0.73362699,0.07098097\C,0,-0.489055,0.04581365,0.16403234
 \C,0,-1.65304438,-0.94226782,0.31770172\C,0,-0.71562772,0.93350203,-1.
 06649941\C,0,-0.45101877,0.90383861,1.3620761\N,0,-0.41680934,1.568118
 07,2.29758209\H,0,2.1174116,0.70326028,-0.95370002\H,0,2.98385272,-0.5
 1170023,-0.02437634\H,0,2.17385941,0.81296361,0.8091569\H,0,0.91111703

 Normal termination of Gaussian 16 at Wed Apr  9 03:40:47 2025.
 Gaussian 16:  ES64L-G16RevC.01  3-Jul-2019

 ----------------------------------------------------------------------
 #t hf aug-cc-pvdz iop(5/13=1,5/36=2,99/5=2) pseudo=read geom=check gue
 ss=(read,tcheck) scf=(maxcycle=1)
 ----------------------------------------------------------------------
 -----
 title
 -----
 Structure from the checkpoint file:  "Grambow2020_wb97xd3_007521_forward_mol2.chk"
 Charge =  0 Multiplicity = 1

                         Standard orientation:
 ---------------------------------------------------------------------
 Center     Atomic      Atomic             Coordinates (Angstroms)
 Number     Number       Type             X           Y           Z
 ---------------------------------------------------------------------
      1          6           0       -2.184911    0.313819   -0.032885
      2          6           0       -1.052705   -0.464954   -0.686529
      3          6           0        0.324061   -0.338551   -0.000381
      4          6           0        1.369445   -1.127875   -0.799711
      5          6           0        0.285895   -0.840120    1.448931
      6          6           0        0.721718    1.080891    0.003714
      7          7           0        1.027318    2.187333    0.001902
      8          1           0       -2.405465   -0.052812    0.970841
      9          1           0       -3.097957    0.218955   -0.621984
     10          1           0       -1.945704    1.376795    0.039319
     11          1           0       -0.941780   -0.145018   -1.726161
     12          1           0       -1.297527   -1.531366   -0.712706
     13          1           0        1.428003   -0.773039   -1.829303
     14          1           0        2.358456   -1.037614   -0.349098
     15          1           0        1.092487   -2.183895   -0.812719
     16          1           0        1.276673   -0.787985    1.901595
     17          1           0       -0.395252   -0.253497    2.064363
     18          1           0       -0.044182   -1.881112    1.463705
 ---------------------------------------------------------------------

 SCF Done:  E(RHF) =  -288.187773628     A.U. after    2 cycles

 The electronic state is 1-A.
 Alpha  occ. eigenvalues --  -15.62899 -11.29549 -11.27555 -11.25303 -11.24862
 Alpha  occ. eigenvalues --  -11.24828 -11.23393  -1.19424  -1.12323  -1.01466
 Alpha  occ. eigenvalues --   -0.95682  -0.88614  -0.83654  -0.68418  -0.64661
 Alpha  occ. eigenvalues --   -0.62678  -0.60427  -0.57264  -0.56673  -0.55549
 Alpha  occ. eigenvalues --   -0.53424  -0.52786  -0.50742  -0.49781  -0.49483
 Alpha  occ. eigenvalues --   -0.44874  -0.44696
 Alpha virt. eigenvalues --    0.02886   0.03988   0.04225   0.05050   0.06251
 Alpha virt. eigenvalues --    0.06434   0.06754   0.06911   0.08091   0.08890
 Alpha virt. eigenvalues --    0.09433   0.10805   0.12652   0.12831   0.13535

 Mulliken charges:
               1
     1  C    0.503556
     2  C    0.789991
     3  C   -2.038123
     4  C    1.174683
     5  C    1.073435
     6  C   -0.756024
     7  N   -0.131503
     8  H   -0.077836
     9  H   -0.047926
    10  H   -0.088795
    11  H   -0.131674
    12  H   -0.109831
    13  H   -0.034669
    14  H   -0.033857
    15  H   -0.001506
    16  H   -0.023622
    17  H   -0.069225
    18  H    0.002926
 Sum of Mulliken charges =  -0.00000

 Dipole moment (field-independent basis, Debye):
    X=             -1.2984    Y=             -4.0356    Z=             -0.0202  Tot=              4.2393

 Test job not archived.
 1\1\GINC-SE222\SP\RHF\Aug-CC-pVDZ\C6H11N1\OHZDE\09-Apr-2025\0\\#t hf a
 ug-cc-pvdz iop(5/13=1,5/36=2,99/5=2) pseudo=read geom=check guess=(rea
 d,tcheck) scf=(maxcycle=1)\\title\\0,1\C,0,2.09508303,0.12053886,-0.03
 149406\C,0,0.83988223,-0.73362699,0.07098097\C,0,-0.489055,0.04581365,
 0.16403234\C,0,-1.65304438,-0.94226782,0.31770172\C,0,-0.71562772,0.93
 350203,-1.06649941\C,0,-0.45101877,0.90383861,1.3620761\N,0,-0.4168093
 4,1.56811807,2.29758209\H,0,2.1174116,0.70326028,-0.95370002\H,0,2.983
 85272,-0.51170023,-0.02437634\H,0,2.17385941,0.81296361,0.8091569\H,0,

 Normal termination of Gaussian 16 at Wed Apr  9 03:40:54 2025.
