 Gaussian 16, Revision C.01,

 ----------------------------------------------------------------------
 #t hf aug-cc-pvdz symm=none int=(grid=ultrafine) guess=(read,tcheck) s
 table=(opt,rrhf)
 ----------------------------------------------------------------------
 -----
 title
 -----
 Symbolic Z-matrix:
 Charge =  0 Multiplicity = 1

 SCF Done:  E(RHF) =  -358.598919547     A.U. after   14 cycles
 Normal termination of Gaussian 16 at Wed Apr  9 17:06:12 2025.
 Gaussian 16:  ES64L-G16RevC.01  3-Jul-2019

 ----------------------------------------------------------------------
 #t hf aug-cc-pvdz iop(5/13=1,5/36=2,99/5=2) pseudo=read geom=check gue
 ss=(read,tcheck) scf=(maxcycle=1)
 ----------------------------------------------------------------------
 -----
 title
 -----
 Structure from the checkpoint file:  "Grambow2020_wb97xd3_009143_reverse_mol2.chk"
 Charge =  0 Multiplicity = 1

                         Standard orientation:
 ---------------------------------------------------------------------
 Center     Atomic      Atomic             Coordinates (Angstroms)
 Number     Number       Type             X           Y           Z
 ---------------------------------------------------------------------
      1          6           0       -2.457881   -0.527640    0.001418
      2          6           0       -1.052144   -0.046032   -0.001365
      3          6           0       -0.570684    1.208140   -0.000423
      4          8           0        0.809542    1.136765   -0.000004
      5          6           0        1.051174   -0.167200   -0.001061
      6          8           0        2.330587   -0.509719    0.001512
      7          7           0        0.022572   -0.937346   -0.002689
      8          1           0       -2.653771   -1.144549   -0.877323
      9          1           0       -2.649885   -1.141914    0.882993
     10          1           0       -3.157364    0.307978    0.002431
     11          1           0       -1.005052    2.191533    0.002389
     12          1           0        2.364246   -1.471607    0.004859
 ---------------------------------------------------------------------

 SCF Done:  E(RHF) =  -358.712500292     A.U. after    2 cycles

 The electronic state is 1-A.
 Alpha  occ. eigenvalues --  -20.65234 -20.64119 -15.61950 -11.41448 -11.29147
 Alpha  occ. eigenvalues --  -11.28142 -11.24250  -1.47939  -1.39805  -1.21303
 Alpha  occ. eigenvalues --   -1.04780  -0.96779  -0.86137  -0.81981  -0.76679
 Alpha  occ. eigenvalues --   -0.71036  -0.68411  -0.66066  -0.60960  -0.60096
 Alpha  occ. eigenvalues --   -0.57936  -0.56328  -0.54450  -0.46179  -0.44959
 Alpha  occ. eigenvalues --   -0.33200
 Alpha virt. eigenvalues --    0.03414   0.03817   0.04465   0.05766   0.06783
 Alpha virt. eigenvalues --    0.09329   0.10084   0.10406   0.11872   0.12550
 Alpha virt. eigenvalues --    0.14080   0.14719   0.15371   0.15663   0.16829

 Mulliken charges:
               1
     1  C    0.365497
     2  C   -0.020438
     3  C    0.837039
     4  O   -0.542465
     5  C    0.505672
     6  O   -0.423172
     7  N   -0.600862
     8  H    0.047624
     9  H    0.049084
    10  H   -0.021695
    11  H   -0.334335
    12  H    0.138052
 Sum of Mulliken charges =  -0.00000

 Dipole moment (field-independent basis, Debye):
    X=             -1.1773    Y=             -0.4297    Z=              0.0125  Tot=              1.2534

 Test job not archived.
 1\1\GINC-SE173\SP\RHF\Aug-CC-pVDZ\C4H5N1O2\OHZDE\09-Apr-2025\0\\#t hf
 aug-cc-pvdz iop(5/13=1,5/36=2,99/5=2) pseudo=read geom=check guess=(re
 ad,tcheck) scf=(maxcycle=1)\\title\\0,1\C,0,-1.74046989,-0.21090294,-0
 .78955496\C,0,-0.42186098,0.10273824,-0.18049824\C,0,0.10976047,1.2882
 8231,0.16099226\O,0,1.36281082,1.05720326,0.69633136\C,0,1.48686945,-0
 .26164995,0.63350213\O,0,2.62702046,-0.74960644,1.09845147\N,0,0.49252
 436,-0.90439799,0.13420106\H,0,-1.6099523,-0.72802357,-1.74175636\H,0,
 -2.31711461,-0.86774474,-0.13578787\H,0,-2.31671582,0.69751831,-0.9634

 Normal termination of Gaussian 16 at Wed Apr  9 17:06:19 2025.
