 Gaussian 16, Revision C.01,

 ----------------------------------------------------------------------
 #t hf aug-cc-pvdz symm=none int=(grid=ultrafine) guess=(read,tcheck) s
 table=(opt,rrhf)
 ----------------------------------------------------------------------
 -----
 title
 -----
 Symbolic Z-matrix:
 Charge =  0 Multiplicity = 1

 SCF Done:  E(RHF) =  -342.550825233     A.U. after   15 cycles
 Normal termination of Gaussian 16 at Wed Apr  9 16:31:59 2025.
 Gaussian 16:  ES64L-G16RevC.01  3-Jul-2019

 ----------------------------------------------------------------------
 #t hf aug-cc-pvdz iop(5/13=1,5/36=2,99/5=2) pseudo=read geom=check gue
 ss=(read,tcheck) scf=(maxcycle=1)
 ----------------------------------------------------------------------
 -----
 title
 -----
 Structure from the checkpoint file:  "Grambow2020_wb97xd3_008511_forward_mol2.chk"
 Charge =  0 Multiplicity = 1

                         Standard orientation:
 ---------------------------------------------------------------------
 Center     Atomic      Atomic             Coordinates (Angstroms)
 Number     Number       Type             X           Y           Z
 ---------------------------------------------------------------------
      1          8           0       -2.150444   -0.587115   -0.024965
      2          6           0       -1.012325   -0.206930   -0.037882
      3          6           0       -0.556723    1.219854    0.260784
      4          8           0        0.791820    1.325188   -0.150818
      5          6           0        1.298183    0.048947   -0.437287
      6          6           0        1.305705   -0.940196    0.663480
      7          6           0        0.205756   -0.979002   -0.391859
      8          1           0       -0.669179    1.429678    1.330444
      9          1           0       -1.168768    1.932205   -0.295151
     10          1           0        2.067898    0.061225   -1.196119
     11          1           0        1.055548   -0.608776    1.663463
     12          1           0        2.021444   -1.749643    0.616879
     13          1           0        0.118470   -1.825312   -1.056670
 ---------------------------------------------------------------------

 SCF Done:  E(RHF) =  -342.657167419     A.U. after    2 cycles

 The electronic state is 1-A.
 Alpha  occ. eigenvalues --  -20.59640 -20.57098 -11.35332 -11.31989 -11.30686
 Alpha  occ. eigenvalues --  -11.26662 -11.26335  -1.38509  -1.36061  -1.15756
 Alpha  occ. eigenvalues --   -1.01057  -0.89540  -0.83167  -0.78145  -0.72948
 Alpha  occ. eigenvalues --   -0.68493  -0.66382  -0.63666  -0.62124  -0.59182
 Alpha  occ. eigenvalues --   -0.57027  -0.56718  -0.51393  -0.44569  -0.44254
 Alpha  occ. eigenvalues --   -0.40723
 Alpha virt. eigenvalues --    0.03014   0.04213   0.04404   0.05029   0.06141
 Alpha virt. eigenvalues --    0.07113   0.09253   0.10018   0.10847   0.11105
 Alpha virt. eigenvalues --    0.12835   0.13794   0.14055   0.14451   0.14955

 Mulliken charges:
               1
     1  O   -0.458505
     2  C   -0.244517
     3  C    0.765857
     4  O   -0.697848
     5  C    0.995311
     6  C    0.756377
     7  C    0.421439
     8  H   -0.042005
     9  H   -0.109998
    10  H   -0.375161
    11  H   -0.335679
    12  H   -0.318383
    13  H   -0.356887
 Sum of Mulliken charges =   0.00000

 Dipole moment (field-independent basis, Debye):
    X=              2.9012    Y=             -0.4221    Z=              0.1228  Tot=              2.9343

 Test job not archived.
 1\1\GINC-SE026\SP\RHF\Aug-CC-pVDZ\C5H6O2\OHZDE\09-Apr-2025\0\\#t hf au
 g-cc-pvdz iop(5/13=1,5/36=2,99/5=2) pseudo=read geom=check guess=(read
 ,tcheck) scf=(maxcycle=1)\\title\\0,1\O,0,1.17938793,2.02856896,0.7460
 7718\C,0,0.71420924,1.02082973,0.28990704\C,0,1.51403356,-0.21943675,-
 0.10317001\O,0,0.65805667,-1.04729225,-0.86542864\C,0,-0.65939873,-0.5
 7502569,-0.77305753\C,0,-1.2687264,-0.52504418,0.57467009\C,0,-0.70283
 051,0.74263713,-0.05610663\H,0,1.87283884,-0.73100772,0.79705227\H,0,2
 .37941663,0.06792179,-0.70287215\H,0,-1.24664835,-0.78831169,-1.655149

 Normal termination of Gaussian 16 at Wed Apr  9 16:32:03 2025.
