 Gaussian 16, Revision C.01,

 ----------------------------------------------------------------------
 #t hf aug-cc-pvdz symm=none int=(grid=ultrafine) guess=(read,tcheck) s
 table=(opt,rrhf)
 ----------------------------------------------------------------------
 -----
 title
 -----
 Symbolic Z-matrix:
 Charge =  0 Multiplicity = 1

 SCF Done:  E(RHF) =  -232.170396382     A.U. after   12 cycles

 1\1\GINC-SE456\Stability\RHF\Aug-CC-pVDZ\C4H10O1\OHZDE\09-Apr-2025\0\\
 #t hf aug-cc-pvdz symm=none int=(grid=ultrafine) guess=(read,tcheck) s
 table=(opt,rrhf)\\title\\0,1\C,0,1.86092942,-0.47506278,-0.73286332\O,
 0,0.96691,-0.49852391,0.36403223\C,0,-0.17947126,0.34828651,0.20854997
 \C,0,-1.1705979,-0.20069404,-0.82681029\C,0,-0.81088926,0.46243446,1.5
 9504659\H,0,2.74867206,-1.04338949,-0.42742552\H,0,2.16864402,0.556905
 57,-0.98842218\H,0,1.44177611,-0.9434105,-1.64126881\H,0,0.15998654,1.
 35124811,-0.11997265\H,0,-1.50522993,-1.20471878,-0.53020165\H,0,-0.72

 Normal termination of Gaussian 16 at Wed Apr  9 03:06:48 2025.
 Gaussian 16:  ES64L-G16RevC.01  3-Jul-2019

 ----------------------------------------------------------------------
 #t hf aug-cc-pvdz iop(5/13=1,5/36=2,99/5=2) pseudo=read geom=check gue
 ss=(read,tcheck) scf=(maxcycle=1)
 ----------------------------------------------------------------------
 -----
 title
 -----
 Structure from the checkpoint file:  "Grambow2020_b97d3_006609_forward_mol2.chk"
 Charge =  0 Multiplicity = 1

                         Standard orientation:
 ---------------------------------------------------------------------
 Center     Atomic      Atomic             Coordinates (Angstroms)
 Number     Number       Type             X           Y           Z
 ---------------------------------------------------------------------
      1          6           0        1.958452   -0.111845    0.083830
      2          8           0        0.701268   -0.596336   -0.349480
      3          6           0       -0.420703   -0.006302    0.320217
      4          6           0       -0.648400    1.451412   -0.102756
      5          6           0       -1.622542   -0.888970   -0.012311
      6          1           0        2.720025   -0.738900   -0.396986
      7          1           0        2.071893   -0.191868    1.181867
      8          1           0        2.138500    0.939230   -0.204379
      9          1           0       -0.239363   -0.035926    1.413528
     10          1           0       -0.810738    1.506006   -1.188429
     11          1           0        0.207744    2.090258    0.151875
     12          1           0       -1.533565    1.862785    0.402925
     13          1           0       -2.523404   -0.521947    0.497726
     14          1           0       -1.435403   -1.924538    0.299477
     15          1           0       -1.806675   -0.880176   -1.095644
 ---------------------------------------------------------------------

 SCF Done:  E(RHF) =  -232.247044079     A.U. after    2 cycles

 The electronic state is 1-A.
 Alpha  occ. eigenvalues --  -20.56488 -11.29023 -11.28073 -11.22703 -11.22281
 Alpha  occ. eigenvalues --   -1.32416  -1.04201  -0.93598  -0.90740  -0.79173
 Alpha  occ. eigenvalues --   -0.67463  -0.64050  -0.63814  -0.58990  -0.54992
 Alpha  occ. eigenvalues --   -0.54266  -0.52932  -0.50083  -0.49448  -0.46648
 Alpha  occ. eigenvalues --   -0.42769
 Alpha virt. eigenvalues --    0.03573   0.04645   0.04910   0.05028   0.06545
 Alpha virt. eigenvalues --    0.06975   0.07221   0.07487   0.08285   0.09613
 Alpha virt. eigenvalues --    0.12407   0.14004   0.14549   0.15259   0.15634

 Mulliken charges:
               1
     1  C    0.710514
     2  O   -0.713331
     3  C   -0.018142
     4  C    0.363443
     5  C    0.392079
     6  H   -0.230820
     7  H   -0.071191
     8  H   -0.108036
     9  H   -0.134231
    10  H    0.019250
    11  H   -0.135840
    12  H   -0.011186
    13  H   -0.012608
    14  H   -0.053591
    15  H    0.003689
 Sum of Mulliken charges =  -0.00000

 Dipole moment (field-independent basis, Debye):
    X=              0.0430    Y=              1.0777    Z=              1.0675  Tot=              1.5175

 Test job not archived.
 1\1\GINC-SE456\SP\RHF\Aug-CC-pVDZ\C4H10O1\OHZDE\09-Apr-2025\0\\#t hf a
 ug-cc-pvdz iop(5/13=1,5/36=2,99/5=2) pseudo=read geom=check guess=(rea
 d,tcheck) scf=(maxcycle=1)\\title\\0,1\C,0,1.86092942,-0.47506278,-0.7
 3286332\O,0,0.96691,-0.49852391,0.36403223\C,0,-0.17947126,0.34828651,
 0.20854997\C,0,-1.1705979,-0.20069404,-0.82681029\C,0,-0.81088926,0.46
 243446,1.59504659\H,0,2.74867206,-1.04338949,-0.42742552\H,0,2.1686440
 2,0.55690557,-0.98842218\H,0,1.44177611,-0.9434105,-1.64126881\H,0,0.1
 5998654,1.35124811,-0.11997265\H,0,-1.50522993,-1.20471878,-0.53020165

 Normal termination of Gaussian 16 at Wed Apr  9 03:06:52 2025.
