 Gaussian 16, Revision C.01,

 ----------------------------------------------------------------------
 #t hf aug-cc-pvdz symm=none int=(grid=ultrafine) guess=(read,tcheck) s
 table=(opt,rrhf)
 ----------------------------------------------------------------------
 -----
 title
 -----
 Symbolic Z-matrix:
 Charge =  0 Multiplicity = 1

 SCF Done:  E(RHF) =  -344.746688918     A.U. after   15 cycles

 1\1\GINC-SE100\Stability\RHF\Aug-CC-pVDZ\C5H10O2\OHZDE\09-Apr-2025\0\\
 #t hf aug-cc-pvdz symm=none int=(grid=ultrafine) guess=(read,tcheck) s
 table=(opt,rrhf)\\title\\0,1\C,0,-0.90676581,-1.35056009,0.18542144\C,
 0,-0.87805242,0.1478263,0.01482803\C,0,0.45369715,0.82018067,0.0079299
 \C,0,1.50417248,0.39390237,0.85909494\O,0,2.43007638,-0.46431691,-0.46
 603578\C,0,-1.9909671,0.79154606,-0.67842393\O,0,-1.9214763,0.82870263
 ,0.73705242\H,0,-0.32432028,-1.84288622,-0.59542647\H,0,-0.4953883,-1.
 64790014,1.15218559\H,0,-1.93376893,-1.71212866,0.14180186\H,0,0.42996

 Normal termination of Gaussian 16 at Wed Apr  9 15:55:14 2025.
 Gaussian 16:  ES64L-G16RevC.01  3-Jul-2019

 ----------------------------------------------------------------------
 #t hf aug-cc-pvdz iop(5/13=1,5/36=2,99/5=2) pseudo=read geom=check gue
 ss=(read,tcheck) scf=(maxcycle=1)
 ----------------------------------------------------------------------
 -----
 title
 -----
 Structure from the checkpoint file:  "Grambow2020_wb97xd3_007593_reverse_mol1.chk"
 Charge =  0 Multiplicity = 1

                         Standard orientation:
 ---------------------------------------------------------------------
 Center     Atomic      Atomic             Coordinates (Angstroms)
 Number     Number       Type             X           Y           Z
 ---------------------------------------------------------------------
      1          6           0        0.623825    1.562034    0.146501
      2          6           0        0.777729    0.074514   -0.050187
      3          6           0       -0.462567   -0.754131   -0.076226
      4          6           0       -1.559962   -0.473664    0.776273
      5          8           0       -2.578539    0.289507   -0.538977
      6          6           0        1.962935   -0.417007   -0.748216
      7          8           0        1.893537   -0.487620    0.665991
      8          1           0       -0.011332    1.993985   -0.628964
      9          1           0        0.176044    1.789963    1.115942
     10          1           0        1.599514    2.046188    0.114932
     11          1           0       -0.309518   -1.799664   -0.326519
     12          1           0       -1.512119   -0.185233   -0.896579
     13          1           0       -1.558753    0.381327    1.440519
     14          1           0       -2.218129   -1.277912    1.083975
     15          1           0       -3.350365   -0.230414   -0.796527
     16          1           0        2.687884    0.289613   -1.146897
     17          1           0        1.925033   -1.373426   -1.264864
 ---------------------------------------------------------------------

 SCF Done:  E(RHF) =  -344.855447433     A.U. after    2 cycles

 The electronic state is 1-A.
 Alpha  occ. eigenvalues --  -20.57319 -20.56324 -11.33461 -11.29405 -11.27701
 Alpha  occ. eigenvalues --  -11.22676 -11.20902  -1.36317  -1.29608  -1.06714
 Alpha  occ. eigenvalues --   -0.98705  -0.90225  -0.86080  -0.76851  -0.72809
 Alpha  occ. eigenvalues --   -0.69379  -0.66396  -0.61227  -0.59730  -0.58826
 Alpha  occ. eigenvalues --   -0.55335  -0.54907  -0.52501  -0.51961  -0.49984
 Alpha  occ. eigenvalues --   -0.44886  -0.43401  -0.33924
 Alpha virt. eigenvalues --    0.02975   0.04228   0.04599   0.05080   0.06088
 Alpha virt. eigenvalues --    0.06165   0.07098   0.08112   0.08832   0.09520
 Alpha virt. eigenvalues --    0.10520   0.11500   0.13172   0.13897   0.14601

 Mulliken charges:
               1
     1  C    0.440258
     2  C   -0.322303
     3  C    0.064011
     4  C    0.754294
     5  O   -0.626734
     6  C    1.084997
     7  O   -0.781958
     8  H    0.048941
     9  H    0.084766
    10  H   -0.114387
    11  H   -0.310239
    12  H    0.695047
    13  H   -0.347189
    14  H   -0.289255
    15  H    0.159986
    16  H   -0.266286
    17  H   -0.273950
 Sum of Mulliken charges =   0.00000

 Dipole moment (field-independent basis, Debye):
    X=             -2.3668    Y=             -0.7905    Z=             -0.7278  Tot=              2.5993

 Test job not archived.
 1\1\GINC-SE100\SP\RHF\Aug-CC-pVDZ\C5H10O2\OHZDE\09-Apr-2025\0\\#t hf a
 ug-cc-pvdz iop(5/13=1,5/36=2,99/5=2) pseudo=read geom=check guess=(rea
 d,tcheck) scf=(maxcycle=1)\\title\\0,1\C,0,-0.90676581,-1.35056009,0.1
 8542144\C,0,-0.87805242,0.1478263,0.01482803\C,0,0.45369715,0.82018067
 ,0.0079299\C,0,1.50417248,0.39390237,0.85909494\O,0,2.43007638,-0.4643
 1691,-0.46603578\C,0,-1.9909671,0.79154606,-0.67842393\O,0,-1.9214763,
 0.82870263,0.73705242\H,0,-0.32432028,-1.84288622,-0.59542647\H,0,-0.4
 953883,-1.64790014,1.15218559\H,0,-1.93376893,-1.71212866,0.14180186\H

 Normal termination of Gaussian 16 at Wed Apr  9 15:55:20 2025.
