 Gaussian 16, Revision C.01,

 ----------------------------------------------------------------------
 #t hf aug-cc-pvdz symm=none int=(grid=ultrafine) guess=(read,tcheck) s
 table=(opt,rrhf)
 ----------------------------------------------------------------------
 -----
 title
 -----
 Symbolic Z-matrix:
 Charge =  0 Multiplicity = 1

 SCF Done:  E(RHF) =  -358.374615629     A.U. after   15 cycles
 Normal termination of Gaussian 16 at Wed Apr  9 03:28:03 2025.
 Gaussian 16:  ES64L-G16RevC.01  3-Jul-2019

 ----------------------------------------------------------------------
 #t hf aug-cc-pvdz iop(5/13=1,5/36=2,99/5=2) pseudo=read geom=check gue
 ss=(read,tcheck) scf=(maxcycle=1)
 ----------------------------------------------------------------------
 -----
 title
 -----
 Structure from the checkpoint file:  "Grambow2020_wb97xd3_006781_reverse_mol2.chk"
 Charge =  0 Multiplicity = 1

                         Standard orientation:
 ---------------------------------------------------------------------
 Center     Atomic      Atomic             Coordinates (Angstroms)
 Number     Number       Type             X           Y           Z
 ---------------------------------------------------------------------
      1          8           0       -1.577855    0.694591   -0.166546
      2          6           0       -0.328217    0.757450    0.534785
      3          6           0        0.864570    0.785723   -0.385586
      4          6           0        1.931939   -0.038284    0.201079
      5          7           0        0.866885   -0.716993   -0.533961
      6          6           0       -0.252078   -0.768147    0.420100
      7          8           0       -1.506507   -0.755999   -0.236306
      8          1           0       -0.384971    1.402352    1.410774
      9          1           0        1.005789    1.451373   -1.226706
     10          1           0        1.993743   -0.158794    1.279598
     11          1           0        2.883002   -0.065243   -0.313205
     12          1           0       -0.188152   -1.539931    1.187822
 ---------------------------------------------------------------------

 SCF Done:  E(RHF) =  -358.481971661     A.U. after    2 cycles

 The electronic state is 1-A.
 Alpha  occ. eigenvalues --  -20.64420 -20.64375 -15.64956 -11.35031 -11.32604
 Alpha  occ. eigenvalues --  -11.29493 -11.29351  -1.47449  -1.29884  -1.20206
 Alpha  occ. eigenvalues --   -1.01094  -0.93520  -0.86505  -0.75496  -0.74037
 Alpha  occ. eigenvalues --   -0.73703  -0.70989  -0.63231  -0.60370  -0.58791
 Alpha  occ. eigenvalues --   -0.57065  -0.53418  -0.49217  -0.46604  -0.43889
 Alpha  occ. eigenvalues --   -0.40255
 Alpha virt. eigenvalues --    0.02795   0.03752   0.04030   0.05272   0.06545
 Alpha virt. eigenvalues --    0.09511   0.09916   0.10270   0.11051   0.12516
 Alpha virt. eigenvalues --    0.13468   0.14354   0.14887   0.15123   0.15531

 Mulliken charges:
               1
     1  O   -0.544409
     2  C    0.738821
     3  C    0.462809
     4  C    0.911384
     5  N   -0.925139
     6  C    1.185630
     7  O   -0.492246
     8  H   -0.217578
     9  H   -0.296866
    10  H   -0.283422
    11  H   -0.287349
    12  H   -0.251635
 Sum of Mulliken charges =  -0.00000

 Dipole moment (field-independent basis, Debye):
    X=              3.3362    Y=              1.3488    Z=              2.8018  Tot=              4.5607

 Test job not archived.
 1\1\GINC-SE455\SP\RHF\Aug-CC-pVDZ\C4H5N1O2\OHZDE\09-Apr-2025\0\\#t hf
 aug-cc-pvdz iop(5/13=1,5/36=2,99/5=2) pseudo=read geom=check guess=(re
 ad,tcheck) scf=(maxcycle=1)\\title\\0,1\O,0,1.35949254,-1.49714448,-0.
 29219473\C,0,0.67378494,-0.3066218,-0.70435377\C,0,0.62191379,0.747254
 43,0.37141489\C,0,-0.69700306,1.39635438,0.3318267\N,0,-0.58395321,0.1
 1414487,1.02351173\C,0,-0.59189186,-0.88086532,-0.06037927\O,0,0.14087
 812,-2.04239397,0.28386927\H,0,0.89030581,-0.05014236,-1.74060307\H,0,
 1.46257663,1.11726831,0.943158\H,0,-1.24807899,1.4489521,-0.60363811\H

 Normal termination of Gaussian 16 at Wed Apr  9 03:28:07 2025.
