 Gaussian 16, Revision C.01,

 ----------------------------------------------------------------------
 #t hf aug-cc-pvdz symm=none int=(grid=ultrafine) guess=(read,tcheck) s
 table=(opt,rrhf)
 ----------------------------------------------------------------------
 -----
 title
 -----
 Symbolic Z-matrix:
 Charge =  0 Multiplicity = 1

 SCF Done:  E(RHF) =  -344.790518852     A.U. after   15 cycles

 1\1\GINC-SE365\Stability\RHF\Aug-CC-pVDZ\C5H10O2\OHZDE\09-Apr-2025\0\\
 #t hf aug-cc-pvdz symm=none int=(grid=ultrafine) guess=(read,tcheck) s
 table=(opt,rrhf)\\title\\0,1\O,0,2.63894498,0.5069454,1.22505449\C,0,2
 .43246608,-0.35732983,0.12226705\C,0,0.9936283,-0.82548004,0.20967181\
 C,0,0.00962168,0.20874116,-0.15309439\C,0,-2.81485311,0.64896748,-0.94
 125676\O,0,-2.27154962,0.94535172,0.32080711\C,0,-1.19695532,0.1136411
 ,0.65360391\H,0,3.48474169,0.94557035,1.12779782\H,0,3.116429,-1.21415
 654,0.16868238\H,0,2.57806091,0.16757309,-0.82748147\H,0,0.82517556,-1

 Normal termination of Gaussian 16 at Wed Apr  9 03:40:32 2025.
 Gaussian 16:  ES64L-G16RevC.01  3-Jul-2019

 ----------------------------------------------------------------------
 #t hf aug-cc-pvdz iop(5/13=1,5/36=2,99/5=2) pseudo=read geom=check gue
 ss=(read,tcheck) scf=(maxcycle=1)
 ----------------------------------------------------------------------
 -----
 title
 -----
 Structure from the checkpoint file:  "Grambow2020_wb97xd3_007544_reverse_mol2.chk"
 Charge =  0 Multiplicity = 1

                         Standard orientation:
 ---------------------------------------------------------------------
 Center     Atomic      Atomic             Coordinates (Angstroms)
 Number     Number       Type             X           Y           Z
 ---------------------------------------------------------------------
      1          8           0       -2.723646   -0.870103   -0.224188
      2          6           0       -2.438759    0.517174   -0.231165
      3          6           0       -1.121885    0.686752    0.499687
      4          6           0        0.048028    0.233132   -0.271684
      5          6           0        3.003279    0.398014   -0.450479
      6          8           0        2.281301   -0.720215    0.001340
      7          6           0        1.057381   -0.372284    0.582900
      8          1           0       -3.466203   -1.042367   -0.803978
      9          1           0       -3.232975    1.077938    0.277635
     10          1           0       -2.329350    0.895867   -1.252617
     11          1           0       -1.210228    0.313831    1.532796
     12          1           0       -0.899887    1.766651    0.567333
     13          1           0        2.428208    0.965222   -1.191000
     14          1           0        3.270158    1.063949    0.382814
     15          1           0        3.917332    0.028635   -0.912558
     16          1           0        0.562924   -1.315508    0.881032
     17          1           0        1.210520    0.191598    1.525780
 ---------------------------------------------------------------------

 SCF Done:  E(RHF) =  -344.899771220     A.U. after    2 cycles

 The electronic state is 1-A.
 Alpha  occ. eigenvalues --  -20.57753 -20.56696 -11.29418 -11.29311 -11.27523
 Alpha  occ. eigenvalues --  -11.26780 -11.24875  -1.33961  -1.33099  -1.08334
 Alpha  occ. eigenvalues --   -0.99483  -0.91966  -0.84776  -0.74366  -0.72712
 Alpha  occ. eigenvalues --   -0.67447  -0.67263  -0.66466  -0.60857  -0.59161
 Alpha  occ. eigenvalues --   -0.57664  -0.54485  -0.53049  -0.51397  -0.48298
 Alpha  occ. eigenvalues --   -0.46602  -0.44131  -0.34907
 Alpha virt. eigenvalues --    0.03187   0.04057   0.04630   0.04803   0.05888
 Alpha virt. eigenvalues --    0.06355   0.07019   0.07446   0.07655   0.08632
 Alpha virt. eigenvalues --    0.09159   0.11831   0.12708   0.13509   0.13913

 Mulliken charges:
               1
     1  O   -0.535779
     2  C    0.934155
     3  C    0.032339
     4  C   -0.665498
     5  C    0.680249
     6  O   -0.640254
     7  C    0.699751
     8  H    0.133165
     9  H   -0.091698
    10  H   -0.128574
    11  H   -0.166998
    12  H    0.118677
    13  H   -0.042900
    14  H   -0.052977
    15  H   -0.250116
    16  H    0.043974
    17  H   -0.067517
 Sum of Mulliken charges =  -0.00000

 Dipole moment (field-independent basis, Debye):
    X=             -1.7972    Y=              2.5270    Z=              1.0131  Tot=              3.2623

 Test job not archived.
 1\1\GINC-SE365\SP\RHF\Aug-CC-pVDZ\C5H10O2\OHZDE\09-Apr-2025\0\\#t hf a
 ug-cc-pvdz iop(5/13=1,5/36=2,99/5=2) pseudo=read geom=check guess=(rea
 d,tcheck) scf=(maxcycle=1)\\title\\0,1\O,0,2.63894498,0.5069454,1.2250
 5449\C,0,2.43246608,-0.35732983,0.12226705\C,0,0.9936283,-0.82548004,0
 .20967181\C,0,0.00962168,0.20874116,-0.15309439\C,0,-2.81485311,0.6489
 6748,-0.94125676\O,0,-2.27154962,0.94535172,0.32080711\C,0,-1.19695532
 ,0.1136411,0.65360391\H,0,3.48474169,0.94557035,1.12779782\H,0,3.11642
 9,-1.21415654,0.16868238\H,0,2.57806091,0.16757309,-0.82748147\H,0,0.8

 Normal termination of Gaussian 16 at Wed Apr  9 03:40:36 2025.
