 Gaussian 16, Revision C.01,

 ----------------------------------------------------------------------
 #t hf aug-cc-pvdz symm=none int=(grid=ultrafine) guess=(read,tcheck) s
 table=(opt,rrhf)
 ----------------------------------------------------------------------
 -----
 title
 -----
 Symbolic Z-matrix:
 Charge =  0 Multiplicity = 1

 SCF Done:  E(RHF) =  -271.849456672     A.U. after   15 cycles
 Normal termination of Gaussian 16 at Wed Apr  9 15:52:31 2025.
 Gaussian 16:  ES64L-G16RevC.01  3-Jul-2019

 ----------------------------------------------------------------------
 #t hf aug-cc-pvdz iop(5/13=1,5/36=2,99/5=2) pseudo=read geom=check gue
 ss=(read,tcheck) scf=(maxcycle=1)
 ----------------------------------------------------------------------
 -----
 title
 -----
 Structure from the checkpoint file:  "Grambow2020_wb97xd3_007418_forward_mol1.chk"
 Charge =  0 Multiplicity = 1

                         Standard orientation:
 ---------------------------------------------------------------------
 Center     Atomic      Atomic             Coordinates (Angstroms)
 Number     Number       Type             X           Y           Z
 ---------------------------------------------------------------------
      1          6           0        2.426547   -0.487506    0.271288
      2          6           0        1.154694    0.016817   -0.255259
      3          6           0        0.053226   -0.826591   -0.512912
      4          6           0       -1.225366   -0.033238   -0.469169
      5          6           0       -2.300931   -0.652817    0.425830
      6          6           0       -0.742501    1.305194    0.025478
      7          6           0        0.579434    1.330008    0.156155
      8          1           0        1.327506   -1.437509    1.453530
      9          1           0        2.797422   -1.421616   -0.135841
     10          1           0        3.184835    0.230920    0.569118
     11          1           0        1.918506    0.108509   -1.141402
     12          1           0        0.131572   -1.793241   -0.992769
     13          1           0        0.558132   -1.533231    1.160782
     14          1           0       -1.649148    0.084386   -1.477422
     15          1           0       -1.925078   -0.755603    1.445419
     16          1           0       -2.577928   -1.645028    0.065657
     17          1           0       -3.201035   -0.034357    0.444828
     18          1           0       -1.413516    2.123297    0.255726
     19          1           0        1.178115    2.162274    0.503912
 ---------------------------------------------------------------------

 SCF Done:  E(RHF) =  -271.934899497     A.U. after    2 cycles

 The electronic state is 1-A.
 Alpha  occ. eigenvalues --  -11.27469 -11.26347 -11.24068 -11.23991 -11.23757
 Alpha  occ. eigenvalues --  -11.22871 -11.22238  -1.15815  -1.05068  -0.98860
 Alpha  occ. eigenvalues --   -0.92045  -0.85119  -0.75420  -0.73439  -0.69061
 Alpha  occ. eigenvalues --   -0.63489  -0.61597  -0.59197  -0.57798  -0.55422
 Alpha  occ. eigenvalues --   -0.52028  -0.51149  -0.48723  -0.47700  -0.46747
 Alpha  occ. eigenvalues --   -0.35643  -0.25434
 Alpha virt. eigenvalues --    0.03436   0.04000   0.04253   0.05076   0.05694
 Alpha virt. eigenvalues --    0.05762   0.06619   0.07413   0.07976   0.08173
 Alpha virt. eigenvalues --    0.08313   0.10067   0.11220   0.11860   0.13242

 Mulliken charges:
               1
     1  C    0.561896
     2  C   -1.105278
     3  C    0.577936
     4  C   -0.694914
     5  C    0.565370
     6  C    0.434010
     7  C    0.794652
     8  H    0.166776
     9  H   -0.309855
    10  H   -0.283430
    11  H    0.334651
    12  H   -0.336566
    13  H    0.126347
    14  H   -0.015069
    15  H    0.004054
    16  H   -0.056146
    17  H   -0.080601
    18  H   -0.332992
    19  H   -0.350841
 Sum of Mulliken charges =  -0.00000

 Dipole moment (field-independent basis, Debye):
    X=              0.4875    Y=              0.8128    Z=             -1.3115  Tot=              1.6181

 Test job not archived.
 1\1\GINC-SE043\SP\RHF\Aug-CC-pVDZ\C7H12\OHZDE\09-Apr-2025\0\\#t hf aug
 -cc-pvdz iop(5/13=1,5/36=2,99/5=2) pseudo=read geom=check guess=(read,
 tcheck) scf=(maxcycle=1)\\title\\0,1\C,0,-2.43117258,-0.17852686,0.024
 92306\C,0,-1.11102194,0.45160951,-0.07168869\C,0,-0.08365939,0.2061573
 5,0.86385055\C,0,1.25876495,0.47699885,0.23882037\C,0,2.26011029,-0.66
 627372,0.41764337\C,0,0.88693509,0.71852787,-1.20084651\C,0,-0.4297604
 6,0.69261386,-1.37647081\H,0,-1.44044227,-1.73365064,0.35376318\H,0,-2
 .87562774,-0.25212585,1.01128363\H,0,-3.12841224,-0.04831498,-0.797719

 Normal termination of Gaussian 16 at Wed Apr  9 15:52:38 2025.
