 Gaussian 16, Revision C.01,

 ----------------------------------------------------------------------
 #t hf aug-cc-pvdz symm=none int=(grid=ultrafine) guess=(read,tcheck) s
 table=(opt,rrhf)
 ----------------------------------------------------------------------
 -----
 title
 -----
 Symbolic Z-matrix:
 Charge =  0 Multiplicity = 1

 SCF Done:  E(RHF) =  -234.068360737     A.U. after   14 cycles
 Normal termination of Gaussian 16 at Wed Apr  9 14:13:28 2025.
 Gaussian 16:  ES64L-G16RevC.01  3-Jul-2019

 ----------------------------------------------------------------------
 #t hf aug-cc-pvdz iop(5/13=1,5/36=2,99/5=2) pseudo=read geom=check gue
 ss=(read,tcheck) scf=(maxcycle=1)
 ----------------------------------------------------------------------
 -----
 title
 -----
 Structure from the checkpoint file:  "Grambow2020_b97d3_006828_forward_mol1.chk"
 Charge =  0 Multiplicity = 1

                         Standard orientation:
 ---------------------------------------------------------------------
 Center     Atomic      Atomic             Coordinates (Angstroms)
 Number     Number       Type             X           Y           Z
 ---------------------------------------------------------------------
      1          6           0        1.865821   -0.837461    0.311635
      2          6           0        0.600875   -0.005364    0.116864
      3          6           0        0.909403    1.448900   -0.233569
      4          6           0       -0.444614   -0.664050   -0.816449
      5          6           0       -1.787212   -0.066292   -0.341175
      6          6           0       -1.588079   -0.070407    1.168386
      7          1           0        2.569074   -0.354630    1.004589
      8          1           0        1.625774   -1.838475    0.694024
      9          1           0        2.373956   -0.955389   -0.659560
     10          1           0        1.505381    1.927880    0.555642
     11          1           0       -0.003059    2.039748   -0.384276
     12          1           0        1.495069    1.486859   -1.166055
     13          1           0       -0.230524   -0.495864   -1.882387
     14          1           0       -0.446365   -1.746584   -0.629520
     15          1           0       -2.629585   -0.731568   -0.597230
     16          1           0       -1.967412    0.907663   -0.831360
     17          1           0        0.035948   -0.059311    1.137533
     18          1           0       -1.665419    0.987722    1.524443
 ---------------------------------------------------------------------

 SCF Done:  E(RHF) =  -234.138548545     A.U. after    2 cycles

 The electronic state is 1-A.
 Alpha  occ. eigenvalues --  -11.26951 -11.26091 -11.23991 -11.23710 -11.23500
 Alpha  occ. eigenvalues --  -11.23231  -1.10890  -1.01515  -0.93552  -0.89047
 Alpha  occ. eigenvalues --   -0.81783  -0.72250  -0.64829  -0.62565  -0.60483
 Alpha  occ. eigenvalues --   -0.58383  -0.54555  -0.54347  -0.51599  -0.49723
 Alpha  occ. eigenvalues --   -0.48205  -0.45948  -0.44904  -0.34328
 Alpha virt. eigenvalues --    0.03394   0.04302   0.04452   0.05012   0.06163
 Alpha virt. eigenvalues --    0.06483   0.06535   0.06908   0.07534   0.09017
 Alpha virt. eigenvalues --    0.09273   0.09514   0.10305   0.12851   0.13481

 Mulliken charges:
               1
     1  C    0.722321
     2  C   -1.783533
     3  C    0.691755
     4  C    0.568285
     5  C    0.404386
     6  C   -0.163726
     7  H   -0.042461
     8  H   -0.043512
     9  H    0.035232
    10  H   -0.024492
    11  H   -0.136877
    12  H    0.021401
    13  H   -0.099418
    14  H   -0.173486
    15  H   -0.042986
    16  H   -0.152298
    17  H    0.190547
    18  H    0.028863
 Sum of Mulliken charges =  -0.00000

 Dipole moment (field-independent basis, Debye):
    X=              0.8522    Y=              1.1323    Z=             -1.6090  Tot=              2.1441

 Test job not archived.
 1\1\GINC-SE162\SP\RHF\Aug-CC-pVDZ\C6H12\OHZDE\09-Apr-2025\0\\#t hf aug
 -cc-pvdz iop(5/13=1,5/36=2,99/5=2) pseudo=read geom=check guess=(read,
 tcheck) scf=(maxcycle=1)\\title\\0,1\C,0,-1.60675043,-0.96746235,0.706
 74537\C,0,-0.48871644,-0.18715593,0.02006422\C,0,-1.00874708,1.0409845
 1,-0.72432453\C,0,0.72483527,0.10574162,0.93630218\C,0,1.90452801,0.24
 149021,-0.05145574\C,0,1.58761884,-0.87540188,-1.03662909\H,0,-2.43502
 19,-1.18502244,0.01789856\H,0,-1.23301567,-1.91439331,1.11847118\H,0,-
 2.00755215,-0.36704797,1.53992391\H,0,-1.73876599,0.75657201,-1.494810

 Normal termination of Gaussian 16 at Wed Apr  9 14:13:34 2025.
