 Gaussian 16, Revision C.01,

 ----------------------------------------------------------------------
 #t hf aug-cc-pvdz symm=none int=(grid=ultrafine) guess=(read,tcheck) s
 table=(opt,rrhf)
 ----------------------------------------------------------------------
 -----
 title
 -----
 Symbolic Z-matrix:
 Charge =  0 Multiplicity = 1

 SCF Done:  E(RHF) =  -306.676569312     A.U. after   13 cycles
 Normal termination of Gaussian 16 at Wed Apr  9 16:28:04 2025.
 Gaussian 16:  ES64L-G16RevC.01  3-Jul-2019

 ----------------------------------------------------------------------
 #t hf aug-cc-pvdz iop(5/13=1,5/36=2,99/5=2) pseudo=read geom=check gue
 ss=(read,tcheck) scf=(maxcycle=1)
 ----------------------------------------------------------------------
 -----
 title
 -----
 Structure from the checkpoint file:  "Grambow2020_wb97xd3_008429_forward_mol2.chk"
 Charge =  0 Multiplicity = 1

                         Standard orientation:
 ---------------------------------------------------------------------
 Center     Atomic      Atomic             Coordinates (Angstroms)
 Number     Number       Type             X           Y           Z
 ---------------------------------------------------------------------
      1          6           0        0.950418   -0.984439   -0.655335
      2          6           0        1.283240    0.462896   -0.328954
      3          6           0        0.005301    1.203937   -0.038829
      4          8           0       -1.203042    0.702460   -0.552911
      5          6           0       -1.418310   -0.565087    0.066586
      6          6           0       -0.038839   -0.986641    0.541043
      7          6           0        0.579702    0.346147    1.020648
      8          1           0        0.530168   -1.195948   -1.642061
      9          1           0        1.801312   -1.640349   -0.472963
     10          1           0        2.202334    0.982337   -0.568708
     11          1           0        0.036830    2.282689    0.028331
     12          1           0       -1.842756   -1.242339   -0.677672
     13          1           0       -2.122312   -0.461930    0.902296
     14          1           0       -0.022345   -1.846981    1.205539
     15          1           0        0.872035    0.641963    2.017579
 ---------------------------------------------------------------------

 SCF Done:  E(RHF) =  -306.769346601     A.U. after    2 cycles

 The electronic state is 1-A.
 Alpha  occ. eigenvalues --  -20.56530 -11.28773 -11.28067 -11.24461 -11.24037
 Alpha  occ. eigenvalues --  -11.23775 -11.23495  -1.34932  -1.17184  -1.02045
 Alpha  occ. eigenvalues --   -0.92798  -0.84748  -0.79173  -0.73396  -0.72209
 Alpha  occ. eigenvalues --   -0.66088  -0.63256  -0.60638  -0.56874  -0.55900
 Alpha  occ. eigenvalues --   -0.51010  -0.49680  -0.47198  -0.45414  -0.39262
 Alpha  occ. eigenvalues --   -0.37815
 Alpha virt. eigenvalues --    0.03169   0.04135   0.04374   0.04814   0.06219
 Alpha virt. eigenvalues --    0.06348   0.06815   0.07296   0.10547   0.12126
 Alpha virt. eigenvalues --    0.12397   0.12830   0.13698   0.14226   0.14504

 Mulliken charges:
               1
     1  C    0.444453
     2  C    0.420202
     3  C    0.920610
     4  O   -0.778285
     5  C    1.022319
     6  C    0.076527
     7  C    0.142888
     8  H   -0.173963
     9  H   -0.135597
    10  H   -0.410062
    11  H   -0.403397
    12  H   -0.207567
    13  H   -0.172234
    14  H   -0.301883
    15  H   -0.444012
 Sum of Mulliken charges =  -0.00000

 Dipole moment (field-independent basis, Debye):
    X=              1.2086    Y=             -0.9734    Z=              1.3171  Tot=              2.0354

 Test job not archived.
 1\1\GINC-SE026\SP\RHF\Aug-CC-pVDZ\C6H8O1\OHZDE\09-Apr-2025\0\\#t hf au
 g-cc-pvdz iop(5/13=1,5/36=2,99/5=2) pseudo=read geom=check guess=(read
 ,tcheck) scf=(maxcycle=1)\\title\\0,1\C,0,0.73967449,1.1406553,0.24328
 154\C,0,1.36306053,-0.20000271,-0.11182775\C,0,0.37922724,-1.29468918,
 0.20467793\O,0,-0.6306599,-1.04839451,1.15089009\C,0,-1.45784087,-0.01
 875609,0.61014031\C,0,-0.5777441,0.66141423,-0.4235687\C,0,0.19819064,
 -0.5225899,-1.04404926\H,0,0.68660016,1.40848862,1.30178186\H,0,1.1990
 2425,1.95498676,-0.31650542\H,0,2.41705261,-0.4031513,-0.25277542\H,0,

 Normal termination of Gaussian 16 at Wed Apr  9 16:28:09 2025.
