 Gaussian 16, Revision C.01,

 ----------------------------------------------------------------------
 #t hf aug-cc-pvdz symm=none int=(grid=ultrafine) guess=(read,tcheck) s
 table=(opt,rrhf)
 ----------------------------------------------------------------------
 -----
 title
 -----
 Symbolic Z-matrix:
 Charge =  0 Multiplicity = 1

 SCF Done:  E(RHF) =  -233.965322435     A.U. after   16 cycles
 Normal termination of Gaussian 16 at Wed Apr  9 14:09:28 2025.
 Gaussian 16:  ES64L-G16RevC.01  3-Jul-2019

 ----------------------------------------------------------------------
 #t hf aug-cc-pvdz iop(5/13=1,5/36=2,99/5=2) pseudo=read geom=check gue
 ss=(read,tcheck) scf=(maxcycle=1)
 ----------------------------------------------------------------------
 -----
 title
 -----
 Structure from the checkpoint file:  "Grambow2020_b97d3_006793_reverse_mol1.chk"
 Charge =  0 Multiplicity = 1

                         Standard orientation:
 ---------------------------------------------------------------------
 Center     Atomic      Atomic             Coordinates (Angstroms)
 Number     Number       Type             X           Y           Z
 ---------------------------------------------------------------------
      1          6           0        2.409749    0.267091    0.327579
      2          6           0        1.142678   -0.062887   -0.445796
      3          6           0        0.161856   -1.101087    0.116126
      4          6           0       -1.161986   -0.248496   -0.352100
      5          6           0       -2.345805   -0.012962    0.410445
      6          6           0       -0.087947    0.818488   -0.235068
      7          1           0        2.189335    0.394599    1.398082
      8          1           0        2.851777    1.206014   -0.037469
      9          1           0        3.165680   -0.525072    0.226583
     10          1           0        1.351133   -0.247577   -1.509461
     11          1           0        0.211522   -1.191070    1.204637
     12          1           0        0.131299   -2.081160   -0.371709
     13          1           0       -1.355202   -0.513435   -1.399298
     14          1           0       -2.267903    0.228877    1.470665
     15          1           0       -2.159282    1.731174   -0.199187
     16          1           0       -3.327833   -0.289934    0.035450
     17          1           0       -1.445038    2.045870   -0.510640
     18          1           0       -0.056760    1.280826    0.765227
 ---------------------------------------------------------------------

 SCF Done:  E(RHF) =  -234.038970312     A.U. after    2 cycles

 The electronic state is 1-A.
 Alpha  occ. eigenvalues --  -11.27788 -11.27530 -11.25665 -11.25405 -11.23987
 Alpha  occ. eigenvalues --  -11.23322  -1.15868  -1.01720  -0.94013  -0.87680
 Alpha  occ. eigenvalues --   -0.80304  -0.76457  -0.64085  -0.62378  -0.61735
 Alpha  occ. eigenvalues --   -0.59599  -0.55850  -0.55186  -0.52236  -0.50570
 Alpha  occ. eigenvalues --   -0.47331  -0.46169  -0.43731  -0.25520
 Alpha virt. eigenvalues --    0.02841   0.03958   0.04207   0.04767   0.06147
 Alpha virt. eigenvalues --    0.06428   0.06630   0.06844   0.07405   0.07689
 Alpha virt. eigenvalues --    0.08569   0.09873   0.10620   0.12470   0.13057

 Mulliken charges:
               1
     1  C    0.567967
     2  C   -0.296124
     3  C    0.520436
     4  C   -0.022885
     5  C    0.648436
     6  C    0.179572
     7  H   -0.029220
     8  H    0.032295
     9  H    0.021288
    10  H   -0.272288
    11  H   -0.251066
    12  H   -0.088938
    13  H   -0.296594
    14  H   -0.247752
    15  H   -0.001104
    16  H   -0.327648
    17  H    0.293142
    18  H   -0.429517
 Sum of Mulliken charges =  -0.00000

 Dipole moment (field-independent basis, Debye):
    X=              1.9042    Y=             -1.8721    Z=              0.4262  Tot=              2.7042

 Test job not archived.
 1\1\GINC-SE131\SP\RHF\Aug-CC-pVDZ\C6H12\OHZDE\09-Apr-2025\0\\#t hf aug
 -cc-pvdz iop(5/13=1,5/36=2,99/5=2) pseudo=read geom=check guess=(read,
 tcheck) scf=(maxcycle=1)\\title\\0,1\C,0,-2.44372589,0.17106426,0.2241
 966\C,0,-1.11467635,0.44431329,-0.46240629\C,0,0.00789813,1.1463271,0.
 3138864\C,0,1.184085,0.20688736,-0.34394731\C,0,2.28594004,-0.39281725
 ,0.33770285\C,0,-0.05730957,-0.6591516,-0.46489769\H,0,-2.28291737,-0.
 22922163,1.23648516\H,0,-3.02519622,-0.57210798,-0.34132397\H,0,-3.051
 99292,1.08307009,0.31027535\H,0,-1.25431163,0.89587585,-1.45515062\H,0

 Normal termination of Gaussian 16 at Wed Apr  9 14:09:34 2025.
