 Gaussian 16, Revision C.01,

 ----------------------------------------------------------------------
 #t hf aug-cc-pvdz symm=none int=(grid=ultrafine) guess=(read,tcheck) s
 table=(opt,rrhf)
 ----------------------------------------------------------------------
 -----
 title
 -----
 Symbolic Z-matrix:
 Charge =  0 Multiplicity = 1

 SCF Done:  E(RHF) =  -355.843029925     A.U. after   16 cycles
 Normal termination of Gaussian 16 at Wed Apr  9 03:58:16 2025.
 Gaussian 16:  ES64L-G16RevC.01  3-Jul-2019

 ----------------------------------------------------------------------
 #t hf aug-cc-pvdz iop(5/13=1,5/36=2,99/5=2) pseudo=read geom=check gue
 ss=(read,tcheck) scf=(maxcycle=1)
 ----------------------------------------------------------------------
 -----
 title
 -----
 Structure from the checkpoint file:  "Grambow2020_wb97xd3_008719_forward_mol1.chk"
 Charge =  0 Multiplicity = 1

                         Standard orientation:
 ---------------------------------------------------------------------
 Center     Atomic      Atomic             Coordinates (Angstroms)
 Number     Number       Type             X           Y           Z
 ---------------------------------------------------------------------
      1          6           0       -2.150066   -0.236571   -0.013145
      2          7           0       -1.286465    0.790620   -0.156552
      3          6           0       -0.018367    0.679288    0.152018
      4          7           0        0.860096    1.794801   -0.006660
      5          6           0        0.598482   -0.608300    0.097852
      6          8           0       -0.103525   -1.675653    0.019591
      7          7           0        1.930935   -0.694878   -0.055724
      8          1           0       -2.183877   -0.747610    0.951586
      9          1           0       -1.166798   -1.313003   -0.235367
     10          1           0       -3.127476   -0.078583   -0.456458
     11          1           0        1.074172    2.221449    0.885544
     12          1           0        0.394636    2.493164   -0.573479
     13          1           0        2.407200    0.166523   -0.276654
     14          1           0        2.318097   -1.577025   -0.339702
 ---------------------------------------------------------------------

 SCF Done:  E(RHF) =  -355.951807851     A.U. after    2 cycles

 The electronic state is 1-A.
 Alpha  occ. eigenvalues --  -20.60026 -15.66282 -15.65960 -15.62660 -11.38819
 Alpha  occ. eigenvalues --  -11.29199 -11.22857  -1.39873  -1.23832  -1.20803
 Alpha  occ. eigenvalues --   -1.13423  -0.95787  -0.87134  -0.82390  -0.72431
 Alpha  occ. eigenvalues --   -0.70724  -0.67570  -0.67245  -0.64961  -0.62206
 Alpha  occ. eigenvalues --   -0.56937  -0.56868  -0.48819  -0.47046  -0.44021
 Alpha  occ. eigenvalues --   -0.40908  -0.27862
 Alpha virt. eigenvalues --    0.02922   0.03758   0.04617   0.04892   0.06754
 Alpha virt. eigenvalues --    0.07116   0.07674   0.08784   0.10674   0.11005
 Alpha virt. eigenvalues --    0.13316   0.13801   0.14145   0.14903   0.15945

 Mulliken charges:
               1
     1  C    0.297743
     2  N   -0.469772
     3  C    0.708425
     4  N   -0.472100
     5  C    0.730258
     6  O   -0.658489
     7  N   -0.218982
     8  H   -0.157999
     9  H    0.430277
    10  H   -0.311873
    11  H    0.066113
    12  H    0.019494
    13  H    0.058025
    14  H   -0.021121
 Sum of Mulliken charges =  -0.00000

 Dipole moment (field-independent basis, Debye):
    X=              2.7949    Y=              0.7851    Z=              0.3862  Tot=              2.9286

 Test job not archived.
 1\1\GINC-SE141\SP\RHF\Aug-CC-pVDZ\C3H7N3O1\OHZDE\09-Apr-2025\0\\#t hf
 aug-cc-pvdz iop(5/13=1,5/36=2,99/5=2) pseudo=read geom=check guess=(re
 ad,tcheck) scf=(maxcycle=1)\\title\\0,1\C,0,1.76259692,0.93638102,0.02
 07781\N,0,1.23383305,-0.22885119,-0.40833379\C,0,0.05004881,-0.6369595
 5,-0.02390551\N,0,-0.46860201,-1.88194404,-0.49535063\C,0,-0.9240458,0
 .33160953,0.3689481\O,0,-0.5922067,1.54427292,0.60876258\N,0,-2.228981
 88,0.01483432,0.31143316\H,0,1.78354561,1.1250486,1.09640611\H,0,0.481
 3302,1.6435543,0.20289323\H,0,2.66640095,1.24605309,-0.4930868\H,0,-0.

 Normal termination of Gaussian 16 at Wed Apr  9 03:58:21 2025.
