 Gaussian 16, Revision C.01,

 ----------------------------------------------------------------------
 #t hf aug-cc-pvdz symm=none int=(grid=ultrafine) guess=(read,tcheck) s
 table=(opt,rrhf)
 ----------------------------------------------------------------------
 -----
 title
 -----
 Symbolic Z-matrix:
 Charge =  0 Multiplicity = 1

 SCF Done:  E(RHF) =  -353.467590333     A.U. after   16 cycles
 Normal termination of Gaussian 16 at Wed Apr  9 16:06:43 2025.
 Gaussian 16:  ES64L-G16RevC.01  3-Jul-2019

 ----------------------------------------------------------------------
 #t hf aug-cc-pvdz iop(5/13=1,5/36=2,99/5=2) pseudo=read geom=check gue
 ss=(read,tcheck) scf=(maxcycle=1)
 ----------------------------------------------------------------------
 -----
 title
 -----
 Structure from the checkpoint file:  "Grambow2020_wb97xd3_007769_reverse_mol2.chk"
 Charge =  0 Multiplicity = 1

                         Standard orientation:
 ---------------------------------------------------------------------
 Center     Atomic      Atomic             Coordinates (Angstroms)
 Number     Number       Type             X           Y           Z
 ---------------------------------------------------------------------
      1          8           0        2.741563   -0.931235   -0.000236
      2          6           0        1.996902    0.007130    0.005419
      3          7           0        0.615757   -0.128551   -0.008562
      4          6           0       -2.145825   -1.325201    0.000562
      5          7           0       -2.941989   -0.503205    0.003695
      6          6           0       -0.711150    1.881027    0.001260
      7          7           0       -0.013626    0.970564   -0.003487
      8          1           0        2.360274    1.055823    0.023766
      9          1           0       -1.372962   -2.064844   -0.002243
     10          1           0       -1.380378    2.709504   -0.004597
 ---------------------------------------------------------------------

 SCF Done:  E(RHF) =  -353.578805577     A.U. after    2 cycles

 The electronic state is 1-A.
 Alpha  occ. eigenvalues --  -20.55012 -15.81752 -15.66457 -15.65920 -11.37465
 Alpha  occ. eigenvalues --  -11.36693 -11.30296  -1.39059  -1.34938  -1.21142
 Alpha  occ. eigenvalues --   -1.18789  -0.90075  -0.83436  -0.79909  -0.75683
 Alpha  occ. eigenvalues --   -0.67902  -0.67279  -0.62093  -0.57055  -0.55212
 Alpha  occ. eigenvalues --   -0.49596  -0.49540  -0.48743  -0.42004  -0.37315
 Alpha virt. eigenvalues --    0.01780   0.04285   0.04512   0.04979   0.07257
 Alpha virt. eigenvalues --    0.09019   0.09667   0.10235   0.11314   0.11411
 Alpha virt. eigenvalues --    0.13356   0.13733   0.13964   0.14805   0.16033

 Mulliken charges:
               1
     1  O   -0.458332
     2  C    0.736919
     3  N   -0.188477
     4  C    0.280359
     5  N   -0.274829
     6  C   -0.247026
     7  N    0.409238
     8  H   -0.152840
     9  H    0.001490
    10  H   -0.106503
 Sum of Mulliken charges =  -0.00000

 Dipole moment (field-independent basis, Debye):
    X=             -2.3201    Y=              4.7091    Z=              0.0159  Tot=              5.2497

 Test job not archived.
 1\1\GINC-SE100\SP\RHF\Aug-CC-pVDZ\C3H3N3O1\OHZDE\09-Apr-2025\0\\#t hf
 aug-cc-pvdz iop(5/13=1,5/36=2,99/5=2) pseudo=read geom=check guess=(re
 ad,tcheck) scf=(maxcycle=1)\\title\\0,1\O,0,3.00338228,-0.30325154,0.2
 9042863\C,0,1.90420195,-0.77277746,0.37060752\N,0,0.75520665,-0.052487
 67,0.07537971\C,0,-1.10044717,2.15713889,-0.78047675\N,0,-2.18972136,1
 .80904679,-0.73712538\C,0,-1.36374886,-1.17392141,0.30252825\N,0,-0.31
 9153,-0.70770547,0.21906151\H,0,1.72619666,-1.8218686,0.68660355\H,0,-
 0.07072942,2.44576617,-0.80826754\H,0,-2.34518872,-1.57994069,0.381260

 Normal termination of Gaussian 16 at Wed Apr  9 16:06:46 2025.
