 Gaussian 16, Revision C.01,

 ----------------------------------------------------------------------
 #t hf aug-cc-pvdz symm=none int=(grid=ultrafine) guess=(read,tcheck) s
 table=(opt,rrhf)
 ----------------------------------------------------------------------
 -----
 title
 -----
 Symbolic Z-matrix:
 Charge =  0 Multiplicity = 1

 SCF Done:  E(RHF) =  -343.743792547     A.U. after   15 cycles
 Normal termination of Gaussian 16 at Wed Apr  9 15:09:01 2025.
 Gaussian 16:  ES64L-G16RevC.01  3-Jul-2019

 ----------------------------------------------------------------------
 #t hf aug-cc-pvdz iop(5/13=1,5/36=2,99/5=2) pseudo=read geom=check gue
 ss=(read,tcheck) scf=(maxcycle=1)
 ----------------------------------------------------------------------
 -----
 title
 -----
 Structure from the checkpoint file:  "Grambow2020_wb97xd3_006683_reverse_mol2.chk"
 Charge =  0 Multiplicity = 1

                         Standard orientation:
 ---------------------------------------------------------------------
 Center     Atomic      Atomic             Coordinates (Angstroms)
 Number     Number       Type             X           Y           Z
 ---------------------------------------------------------------------
      1          6           0        1.790518    1.311239   -0.118451
      2          6           0        1.376678   -0.114674    0.024668
      3          8           0        2.418994   -0.934387   -0.283284
      4          6           0        0.185702   -0.583329    0.400557
      5          6           0       -1.032757    0.223993    0.740948
      6          6           0       -2.023416    0.188135   -0.399912
      7          8           0       -3.143379   -0.233265   -0.322169
      8          1           0        2.656361    1.507102    0.516592
      9          1           0        2.090711    1.505170   -1.149868
     10          1           0        0.994685    2.002152    0.146379
     11          1           0        2.145234   -1.850662   -0.190882
     12          1           0        0.056907   -1.662754    0.444218
     13          1           0       -1.627121    0.572331   -1.364816
     14          1           0       -1.527414   -0.155648    1.636437
     15          1           0       -0.774634    1.271342    0.918697
 ---------------------------------------------------------------------

 SCF Done:  E(RHF) =  -343.853203266     A.U. after    2 cycles

 The electronic state is 1-A.
 Alpha  occ. eigenvalues --  -20.61105 -20.57344 -11.34290 -11.32551 -11.25716
 Alpha  occ. eigenvalues --  -11.24977 -11.24048  -1.37864  -1.36454  -1.09196
 Alpha  occ. eigenvalues --   -1.01762  -0.93822  -0.81938  -0.79561  -0.70944
 Alpha  occ. eigenvalues --   -0.68892  -0.65357  -0.64359  -0.62623  -0.58651
 Alpha  occ. eigenvalues --   -0.57079  -0.55814  -0.55588  -0.53646  -0.50856
 Alpha  occ. eigenvalues --   -0.44118  -0.35092
 Alpha virt. eigenvalues --    0.02992   0.03815   0.04502   0.04899   0.06200
 Alpha virt. eigenvalues --    0.06755   0.07022   0.08738   0.09467   0.10086
 Alpha virt. eigenvalues --    0.12961   0.13296   0.13471   0.14524   0.14891

 Mulliken charges:
               1
     1  C    0.344631
     2  C   -0.215326
     3  O   -0.530450
     4  C    0.593560
     5  C    0.234379
     6  C    0.554786
     7  O   -0.465131
     8  H    0.070756
     9  H    0.098982
    10  H   -0.124485
    11  H    0.126032
    12  H   -0.571374
    13  H   -0.121532
    14  H   -0.043008
    15  H    0.048180
 Sum of Mulliken charges =  -0.00000

 Dipole moment (field-independent basis, Debye):
    X=              2.7820    Y=              0.7615    Z=              0.4354  Tot=              2.9170

 Test job not archived.
 1\1\GINC-SE100\SP\RHF\Aug-CC-pVDZ\C5H8O2\OHZDE\09-Apr-2025\0\\#t hf au
 g-cc-pvdz iop(5/13=1,5/36=2,99/5=2) pseudo=read geom=check guess=(read
 ,tcheck) scf=(maxcycle=1)\\title\\0,1\C,0,-1.76385102,-0.36122308,0.62
 311271\C,0,-0.83519208,0.76816866,0.32808533\O,0,-1.52593028,1.9406717
 7,0.29195817\C,0,0.48223869,0.70829282,0.12772728\C,0,1.33702894,-0.52
 523824,0.1239216\C,0,1.68649189,-0.91897013,-1.29280145\O,0,2.80141484
 ,-0.9969639,-1.72731499\H,0,-2.28335198,-0.17228519,1.56425408\H,0,-2.
 52075776,-0.42909358,-0.16048962\H,0,-1.24784708,-1.31523544,0.6897870

 Normal termination of Gaussian 16 at Wed Apr  9 15:09:06 2025.
