 Gaussian 16, Revision C.01,

 ----------------------------------------------------------------------
 #t hf aug-cc-pvdz symm=none int=(grid=ultrafine) guess=(read,tcheck) s
 table=(opt,rrhf)
 ----------------------------------------------------------------------
 -----
 title
 -----
 Symbolic Z-matrix:
 Charge =  0 Multiplicity = 1

 SCF Done:  E(RHF) =  -343.617281457     A.U. after   15 cycles
 Normal termination of Gaussian 16 at Wed Apr  9 16:22:06 2025.
 Gaussian 16:  ES64L-G16RevC.01  3-Jul-2019

 ----------------------------------------------------------------------
 #t hf aug-cc-pvdz iop(5/13=1,5/36=2,99/5=2) pseudo=read geom=check gue
 ss=(read,tcheck) scf=(maxcycle=1)
 ----------------------------------------------------------------------
 -----
 title
 -----
 Structure from the checkpoint file:  "Grambow2020_wb97xd3_008133_reverse_mol2.chk"
 Charge =  0 Multiplicity = 1

                         Standard orientation:
 ---------------------------------------------------------------------
 Center     Atomic      Atomic             Coordinates (Angstroms)
 Number     Number       Type             X           Y           Z
 ---------------------------------------------------------------------
      1          6           0       -0.929133    0.998628    0.348222
      2          8           0       -1.545588    0.017139   -0.509699
      3          6           0       -2.303641   -0.861348    0.057179
      4          6           0        1.021920   -0.645347    0.884952
      5          6           0        0.556800    0.755251    0.458388
      6          6           0        1.336085    0.457282   -0.832878
      7          8           0        1.696973   -0.847306   -0.363526
      8          1           0       -1.421095    0.937681    1.320693
      9          1           0       -1.132376    1.965787   -0.115053
     10          1           0       -2.623649   -1.496276   -0.799827
     11          1           0        1.713323   -0.668588    1.731620
     12          1           0        0.228414   -1.380309    1.047943
     13          1           0        0.981910    1.561924    1.056366
     14          1           0        0.735909    0.408822   -1.745261
     15          1           0        2.214290    1.085501   -1.005855
 ---------------------------------------------------------------------

 SCF Done:  E(RHF) =  -343.725253125     A.U. after    2 cycles

 The electronic state is 1-A.
 Alpha  occ. eigenvalues --  -20.64683 -20.56624 -11.31158 -11.30755 -11.29305
 Alpha  occ. eigenvalues --  -11.29214 -11.25722  -1.42007  -1.35074  -1.07359
 Alpha  occ. eigenvalues --   -0.96093  -0.94422  -0.84126  -0.76110  -0.71682
 Alpha  occ. eigenvalues --   -0.71562  -0.68105  -0.63536  -0.62340  -0.59965
 Alpha  occ. eigenvalues --   -0.57353  -0.56509  -0.52938  -0.47556  -0.46765
 Alpha  occ. eigenvalues --   -0.43186  -0.36522
 Alpha virt. eigenvalues --    0.02900   0.04339   0.04687   0.04831   0.06200
 Alpha virt. eigenvalues --    0.06718   0.06956   0.07092   0.09619   0.09859
 Alpha virt. eigenvalues --    0.11870   0.12377   0.13258   0.13869   0.14534

 Mulliken charges:
               1
     1  C    1.066455
     2  O   -0.521793
     3  C    0.133922
     4  C    0.979957
     5  C   -0.409252
     6  C    1.012550
     7  O   -0.786051
     8  H   -0.071475
     9  H   -0.158936
    10  H   -0.192619
    11  H   -0.194034
    12  H   -0.237942
    13  H   -0.211806
    14  H   -0.217214
    15  H   -0.191760
 Sum of Mulliken charges =  -0.00000

 Dipole moment (field-independent basis, Debye):
    X=              0.0849    Y=              2.8962    Z=              0.4839  Tot=              2.9376

 Test job not archived.
 1\1\GINC-SE173\SP\RHF\Aug-CC-pVDZ\C5H8O2\OHZDE\09-Apr-2025\0\\#t hf au
 g-cc-pvdz iop(5/13=1,5/36=2,99/5=2) pseudo=read geom=check guess=(read
 ,tcheck) scf=(maxcycle=1)\\title\\0,1\C,0,-1.13892922,0.58425703,0.275
 87103\O,0,-0.52482696,1.47514285,-0.67731659\C,0,-0.9584602,1.42034602
 ,-1.89251002\C,0,0.47075787,-1.34006674,-0.43351167\C,0,-0.17952743,-0
 .50828734,0.68239179\C,0,1.26574014,-0.10893373,1.02173471\O,0,1.78050
 648,-0.88954199,-0.06369057\H,0,-2.03908189,0.1782187,-0.1892077\H,0,-
 1.40683568,1.20611358,1.13193699\H,0,-0.31884503,2.16843625,-2.413327\

 Normal termination of Gaussian 16 at Wed Apr  9 16:22:11 2025.
