 Gaussian 16, Revision C.01,

 ----------------------------------------------------------------------
 #t hf aug-cc-pvdz symm=none int=(grid=ultrafine) guess=(read,tcheck) s
 table=(opt,rrhf)
 ----------------------------------------------------------------------
 -----
 title
 -----
 Symbolic Z-matrix:
 Charge =  0 Multiplicity = 1

 SCF Done:  E(RHF) =  -343.622117232     A.U. after   17 cycles
 Normal termination of Gaussian 16 at Wed Apr  9 15:38:08 2025.
 Gaussian 16:  ES64L-G16RevC.01  3-Jul-2019

 ----------------------------------------------------------------------
 #t hf aug-cc-pvdz iop(5/13=1,5/36=2,99/5=2) pseudo=read geom=check gue
 ss=(read,tcheck) scf=(maxcycle=1)
 ----------------------------------------------------------------------
 -----
 title
 -----
 Structure from the checkpoint file:  "Grambow2020_wb97xd3_007229_forward_mol1.chk"
 Charge =  0 Multiplicity = 1

                         Standard orientation:
 ---------------------------------------------------------------------
 Center     Atomic      Atomic             Coordinates (Angstroms)
 Number     Number       Type             X           Y           Z
 ---------------------------------------------------------------------
      1          8           0       -2.490090   -0.223367   -0.031376
      2          6           0       -1.206185   -0.647651    0.383171
      3          6           0       -0.181839    0.081232   -0.471330
      4          6           0       -0.169956    1.593773   -0.249879
      5          6           0        1.845218    0.702117    0.719421
      6          6           0        1.218506   -0.319405   -0.072694
      7          8           0        1.792231   -1.373963   -0.258493
      8          1           0       -3.149735   -0.636139    0.527321
      9          1           0       -1.075911   -1.726576    0.247775
     10          1           0       -1.034653   -0.411944    1.441981
     11          1           0       -0.359378   -0.177541   -1.516758
     12          1           0        0.133835    2.152110   -1.132347
     13          1           0       -1.116667    1.979713    0.126184
     14          1           0        0.559957    1.832638    0.582654
     15          1           0        2.590955    1.305978    0.190003
 ---------------------------------------------------------------------

 SCF Done:  E(RHF) =  -343.726852369     A.U. after    2 cycles

 The electronic state is 1-A.
 Alpha  occ. eigenvalues --  -20.58924 -20.55848 -11.34807 -11.30807 -11.30658
 Alpha  occ. eigenvalues --  -11.26677 -11.26573  -1.35465  -1.34273  -1.11751
 Alpha  occ. eigenvalues --   -0.98645  -0.94266  -0.85928  -0.75114  -0.71233
 Alpha  occ. eigenvalues --   -0.68548  -0.65086  -0.64593  -0.63792  -0.58156
 Alpha  occ. eigenvalues --   -0.55765  -0.55479  -0.53758  -0.50133  -0.47490
 Alpha  occ. eigenvalues --   -0.44187  -0.38276
 Alpha virt. eigenvalues --    0.02983   0.03684   0.04438   0.04788   0.06213
 Alpha virt. eigenvalues --    0.06344   0.06785   0.07121   0.08303   0.10341
 Alpha virt. eigenvalues --    0.11024   0.12713   0.13247   0.14363   0.14811

 Mulliken charges:
               1
     1  O   -0.569838
     2  C    0.934810
     3  C   -0.711433
     4  C    0.605757
     5  C   -0.097077
     6  C    0.557620
     7  O   -0.612656
     8  H    0.153691
     9  H   -0.095019
    10  H   -0.070684
    11  H   -0.043377
    12  H   -0.060739
    13  H   -0.045551
    14  H    0.077268
    15  H   -0.022772
 Sum of Mulliken charges =  -0.00000

 Dipole moment (field-independent basis, Debye):
    X=             -2.2407    Y=              2.5348    Z=              0.1761  Tot=              3.3878

 Test job not archived.
 1\1\GINC-SE100\SP\RHF\Aug-CC-pVDZ\C5H8O2\OHZDE\09-Apr-2025\0\\#t hf au
 g-cc-pvdz iop(5/13=1,5/36=2,99/5=2) pseudo=read geom=check guess=(read
 ,tcheck) scf=(maxcycle=1)\\title\\0,1\O,0,2.34390312,0.39792484,0.0208
 3872\C,0,1.32307932,-0.53024768,-0.29011505\C,0,0.05174935,-0.06595717
 ,0.4018973\C,0,-0.47643334,1.26790753,-0.12611032\C,0,-1.97740925,-0.4
 5690277,-0.8795172\C,0,-1.08718615,-1.01118796,0.10231414\O,0,-1.26440
 347,-2.14370912,0.50451283\H,0,3.14325653,0.14898719,-0.44469326\H,0,1
 .57186315,-1.53584037,0.06523337\H,0,1.152594,-0.58212357,-1.37376749\

 Normal termination of Gaussian 16 at Wed Apr  9 15:38:13 2025.
