 Gaussian 16, Revision C.01,

 ----------------------------------------------------------------------
 #t hf aug-cc-pvdz symm=none int=(grid=ultrafine) guess=(read,tcheck) s
 table=(opt,rrhf)
 ----------------------------------------------------------------------
 -----
 title
 -----
 Symbolic Z-matrix:
 Charge =  0 Multiplicity = 1

 SCF Done:  E(RHF) =  -305.357993821     A.U. after   15 cycles
 Normal termination of Gaussian 16 at Wed Apr  9 03:52:39 2025.
 Gaussian 16:  ES64L-G16RevC.01  3-Jul-2019

 ----------------------------------------------------------------------
 #t hf aug-cc-pvdz iop(5/13=1,5/36=2,99/5=2) pseudo=read geom=check gue
 ss=(read,tcheck) scf=(maxcycle=1)
 ----------------------------------------------------------------------
 -----
 title
 -----
 Structure from the checkpoint file:  "Grambow2020_wb97xd3_008350_reverse_mol1.chk"
 Charge =  0 Multiplicity = 1

                         Standard orientation:
 ---------------------------------------------------------------------
 Center     Atomic      Atomic             Coordinates (Angstroms)
 Number     Number       Type             X           Y           Z
 ---------------------------------------------------------------------
      1          8           0       -0.772645   -1.298679   -0.813038
      2          6           0       -0.883224   -0.493333    0.288700
      3          6           0        0.446708   -0.357343    1.063066
      4          6           0        1.578707    0.044587    0.235047
      5          6           0        2.482398    0.361615   -0.484418
      6          6           0       -2.055567    0.820879   -0.083694
      7          6           0       -0.965550    1.410597   -0.191520
      8          1           0       -0.069732   -0.966975   -1.382075
      9          1           0       -1.589467   -0.952854    0.970908
     10          1           0        0.655302   -1.348446    1.474850
     11          1           0        0.323095    0.327395    1.903151
     12          1           0        3.300425    0.641281   -1.106344
     13          1           0       -0.059303    1.967027   -0.319267
 ---------------------------------------------------------------------

 SCF Done:  E(RHF) =  -305.452278666     A.U. after    2 cycles

 The electronic state is 1-A.
 Alpha  occ. eigenvalues --  -20.60165 -11.37097 -11.29496 -11.27490 -11.26662
 Alpha  occ. eigenvalues --  -11.26510 -11.23865  -1.37277  -1.11219  -1.06409
 Alpha  occ. eigenvalues --   -1.00368  -0.88940  -0.75597  -0.75237  -0.71290
 Alpha  occ. eigenvalues --   -0.69571  -0.65928  -0.61955  -0.60041  -0.53458
 Alpha  occ. eigenvalues --   -0.44774  -0.43226  -0.42340  -0.40764  -0.40179
 Alpha virt. eigenvalues --    0.02687   0.03492   0.04522   0.05501   0.06093
 Alpha virt. eigenvalues --    0.06530   0.09218   0.09309   0.10640   0.10949
 Alpha virt. eigenvalues --    0.11599   0.12142   0.13190   0.13423   0.14773

 Mulliken charges:
               1
     1  O   -0.591422
     2  C    0.500845
     3  C   -0.054256
     4  C   -0.496347
     5  C    0.920110
     6  C   -0.453214
     7  C    0.751475
     8  H    0.176463
     9  H   -0.178671
    10  H    0.054819
    11  H    0.057557
    12  H   -0.535127
    13  H   -0.152229
 Sum of Mulliken charges =   0.00000

 Dipole moment (field-independent basis, Debye):
    X=              4.3949    Y=              0.4914    Z=              0.8559  Tot=              4.5043

 Test job not archived.
 1\1\GINC-SE115\SP\RHF\Aug-CC-pVDZ\C6H6O1\OHZDE\09-Apr-2025\0\\#t hf au
 g-cc-pvdz iop(5/13=1,5/36=2,99/5=2) pseudo=read geom=check guess=(read
 ,tcheck) scf=(maxcycle=1)\\title\\0,1\O,0,0.08108862,-0.61883884,1.766
 40609\C,0,0.5162349,-0.94744769,0.51050064\C,0,-0.54726482,-0.67925596
 ,-0.57756969\C,0,-1.0956461,0.67250422,-0.5529538\C,0,-1.52848167,1.78
 746106,-0.48723077\C,0,2.27827399,-0.59365525,0.40916623\C,0,1.7866250
 8,0.37221591,-0.20149304\H,0,-0.20318982,0.30149797,1.77547245\H,0,0.7
 1216913,-2.01355728,0.49135589\H,0,-1.35941571,-1.38454328,-0.38175258

 Normal termination of Gaussian 16 at Wed Apr  9 03:52:43 2025.
