 Gaussian 16, Revision C.01,

 ----------------------------------------------------------------------
 #t hf aug-cc-pvdz symm=none int=(grid=ultrafine) guess=(read,tcheck) s
 table=(opt,rrhf)
 ----------------------------------------------------------------------
 -----
 title
 -----
 Symbolic Z-matrix:
 Charge =  0 Multiplicity = 1

 SCF Done:  E(RHF) =  -247.794015629     A.U. after   15 cycles
 Normal termination of Gaussian 16 at Wed Apr  9 03:22:03 2025.
 Gaussian 16:  ES64L-G16RevC.01  3-Jul-2019

 ----------------------------------------------------------------------
 #t hf aug-cc-pvdz iop(5/13=1,5/36=2,99/5=2) pseudo=read geom=check gue
 ss=(read,tcheck) scf=(maxcycle=1)
 ----------------------------------------------------------------------
 -----
 title
 -----
 Structure from the checkpoint file:  "Grambow2020_wb97xd3_006171_reverse_mol2.chk"
 Charge =  0 Multiplicity = 1

                         Standard orientation:
 ---------------------------------------------------------------------
 Center     Atomic      Atomic             Coordinates (Angstroms)
 Number     Number       Type             X           Y           Z
 ---------------------------------------------------------------------
      1          6           0        1.911218   -1.031946   -0.180653
      2          6           0        1.117230    0.054334    0.498956
      3          6           0        0.765243    1.324786   -0.240836
      4          6           0       -0.269652    0.328072    0.081628
      5          6           0       -1.491398   -0.058039    0.007458
      6          7           0       -2.629857   -0.482345   -0.157388
      7          1           0        1.701024   -2.006229    0.263676
      8          1           0        2.983170   -0.842015   -0.091432
      9          1           0        1.658851   -1.086181   -1.241043
     10          1           0        1.316584    0.178063    1.559980
     11          1           0        1.076716    1.406147   -1.277106
     12          1           0        0.763476    2.258374    0.310593
     13          1           0       -3.286664   -0.234988    0.577729
 ---------------------------------------------------------------------

 SCF Done:  E(RHF) =  -247.871836605     A.U. after    2 cycles

 The electronic state is 1-A.
 Alpha  occ. eigenvalues --  -15.63521 -11.31995 -11.26690 -11.25971 -11.24530
 Alpha  occ. eigenvalues --  -11.23526  -1.20481  -1.15597  -0.98020  -0.93339
 Alpha  occ. eigenvalues --   -0.80821  -0.73061  -0.69874  -0.64209  -0.58356
 Alpha  occ. eigenvalues --   -0.56254  -0.53568  -0.52101  -0.51367  -0.44871
 Alpha  occ. eigenvalues --   -0.40412  -0.33688
 Alpha virt. eigenvalues --    0.03218   0.04198   0.04479   0.04978   0.06224
 Alpha virt. eigenvalues --    0.06860   0.07684   0.09381   0.10683   0.10970
 Alpha virt. eigenvalues --    0.12649   0.13803   0.14421   0.14794   0.15116

 Mulliken charges:
               1
     1  C    0.304265
     2  C    0.050494
     3  C    0.619140
     4  C    0.832659
     5  C   -1.130243
     6  N   -0.141025
     7  H    0.020750
     8  H   -0.001571
     9  H   -0.052576
    10  H   -0.261080
    11  H   -0.165226
    12  H   -0.142288
    13  H    0.066701
 Sum of Mulliken charges =  -0.00000

 Dipole moment (field-independent basis, Debye):
    X=              1.4893    Y=              1.0144    Z=              1.3590  Tot=              2.2570

 Test job not archived.
 1\1\GINC-SE016\SP\RHF\Aug-CC-pVDZ\C5H7N1\OHZDE\09-Apr-2025\0\\#t hf au
 g-cc-pvdz iop(5/13=1,5/36=2,99/5=2) pseudo=read geom=check guess=(read
 ,tcheck) scf=(maxcycle=1)\\title\\0,1\C,0,1.7441477,0.54257991,0.15336
 484\C,0,0.67090458,-0.48453075,-0.10253046\C,0,-0.25794994,-0.91710355
 ,1.00893064\C,0,-0.74833831,-0.08668139,-0.10388063\C,0,-1.7063789,0.5
 649236,-0.65598199\N,0,-2.5850849,1.27830961,-1.12741909\H,0,2.0063753
 8,1.07119778,-0.76458826\H,0,2.64827301,0.06950043,0.54306712\H,0,1.40
 282549,1.28217648,0.8796934\H,0,0.9361055,-1.26366862,-0.81206201\H,0,

 Normal termination of Gaussian 16 at Wed Apr  9 03:22:07 2025.
