 Gaussian 16, Revision C.01,

 ----------------------------------------------------------------------
 #t hf aug-cc-pvdz symm=none int=(grid=ultrafine) guess=(read,tcheck) s
 table=(opt,rrhf)
 ----------------------------------------------------------------------
 -----
 title
 -----
 Symbolic Z-matrix:
 Charge =  0 Multiplicity = 1

 SCF Done:  E(RHF) =  -338.713211127     A.U. after   14 cycles
 Normal termination of Gaussian 16 at Wed Apr  9 16:33:01 2025.
 Gaussian 16:  ES64L-G16RevC.01  3-Jul-2019

 ----------------------------------------------------------------------
 #t hf aug-cc-pvdz iop(5/13=1,5/36=2,99/5=2) pseudo=read geom=check gue
 ss=(read,tcheck) scf=(maxcycle=1)
 ----------------------------------------------------------------------
 -----
 title
 -----
 Structure from the checkpoint file:  "Grambow2020_wb97xd3_008564_reverse_mol2.chk"
 Charge =  0 Multiplicity = 1

                         Standard orientation:
 ---------------------------------------------------------------------
 Center     Atomic      Atomic             Coordinates (Angstroms)
 Number     Number       Type             X           Y           Z
 ---------------------------------------------------------------------
      1          7           0       -0.401260   -1.692076    0.042454
      2          6           0       -1.558529   -1.212690   -0.100919
      3          8           0       -1.837252    0.091440   -0.044446
      4          6           0       -0.835108    0.953658    0.362908
      5          6           0       -0.744281    2.163591   -0.147356
      6          6           0        2.476605   -0.352681   -0.054908
      7          7           0        3.492982    0.174482   -0.051755
      8          1           0       -0.422621   -2.702683   -0.027606
      9          1           0       -2.469846   -1.777536   -0.295148
     10          1           0       -0.193919    0.561889    1.142833
     11          1           0        1.508500   -0.840915   -0.047691
     12          1           0       -1.409170    2.497888   -0.932810
     13          1           0        0.010900    2.841728    0.222750
 ---------------------------------------------------------------------

 SCF Done:  E(RHF) =  -338.821597544     A.U. after    2 cycles

 The electronic state is 1-A.
 Alpha  occ. eigenvalues --  -20.64955 -15.64344 -15.63676 -11.39013 -11.32302
 Alpha  occ. eigenvalues --  -11.27284 -11.25027  -1.43854  -1.20821  -1.18668
 Alpha  occ. eigenvalues --   -1.06481  -0.90762  -0.80757  -0.77567  -0.75106
 Alpha  occ. eigenvalues --   -0.71841  -0.68007  -0.62792  -0.60256  -0.55899
 Alpha  occ. eigenvalues --   -0.54626  -0.47601  -0.47307  -0.47208  -0.46340
 Alpha  occ. eigenvalues --   -0.38492
 Alpha virt. eigenvalues --    0.02369   0.04083   0.04618   0.05105   0.06361
 Alpha virt. eigenvalues --    0.07210   0.09002   0.09909   0.10227   0.11270
 Alpha virt. eigenvalues --    0.11905   0.13701   0.14097   0.14348   0.14674

 Mulliken charges:
               1
     1  N   -0.249416
     2  C    0.646145
     3  O   -0.548345
     4  C    0.783007
     5  C    0.481349
     6  C    0.524778
     7  N   -0.399357
     8  H   -0.029580
     9  H   -0.234203
    10  H   -0.359499
    11  H   -0.065868
    12  H   -0.298828
    13  H   -0.250183
 Sum of Mulliken charges =  -0.00000

 Dipole moment (field-independent basis, Debye):
    X=             -4.8342    Y=             -2.2390    Z=             -0.0125  Tot=              5.3275

 Test job not archived.
 1\1\GINC-SE114\SP\RHF\Aug-CC-pVDZ\C4H6N2O1\OHZDE\09-Apr-2025\0\\#t hf
 aug-cc-pvdz iop(5/13=1,5/36=2,99/5=2) pseudo=read geom=check guess=(re
 ad,tcheck) scf=(maxcycle=1)\\title\\0,1\N,0,-1.24929478,0.66686791,-0.
 97749239\C,0,-1.82004129,0.1675246,0.02975318\O,0,-1.19344607,-0.55980
 173,0.9571183\C,0,0.11671207,-0.93245543,0.71573466\C,0,0.9805129,-1.0
 2216754,1.70485305\C,0,1.81518652,1.14926244,-1.65706445\N,0,2.9313374
 4,1.26447972,-1.88480038\H,0,-1.91541171,1.16953192,-1.55221601\H,0,-2
 .87495901,0.26313111,0.28525882\H,0,0.3321607,-1.17629159,-0.31722929\

 Normal termination of Gaussian 16 at Wed Apr  9 16:33:05 2025.
