 Gaussian 16, Revision C.01,

 ----------------------------------------------------------------------
 #t hf aug-cc-pvdz symm=none int=(grid=ultrafine) guess=(read,tcheck) s
 table=(opt,rrhf)
 ----------------------------------------------------------------------
 -----
 title
 -----
 Symbolic Z-matrix:
 Charge =  0 Multiplicity = 1

 SCF Done:  E(RHF) =  -322.664514531     A.U. after   15 cycles
 Normal termination of Gaussian 16 at Wed Apr  9 15:31:56 2025.
 Gaussian 16:  ES64L-G16RevC.01  3-Jul-2019

 ----------------------------------------------------------------------
 #t hf aug-cc-pvdz iop(5/13=1,5/36=2,99/5=2) pseudo=read geom=check gue
 ss=(read,tcheck) scf=(maxcycle=1)
 ----------------------------------------------------------------------
 -----
 title
 -----
 Structure from the checkpoint file:  "Grambow2020_wb97xd3_006947_reverse_mol2.chk"
 Charge =  0 Multiplicity = 1

                         Standard orientation:
 ---------------------------------------------------------------------
 Center     Atomic      Atomic             Coordinates (Angstroms)
 Number     Number       Type             X           Y           Z
 ---------------------------------------------------------------------
      1          8           0        2.891328    0.150948   -0.001313
      2          6           0        2.025785   -0.664986   -0.181628
      3          7           0        0.683707   -0.393127   -0.178044
      4          6           0        0.166802    0.866427    0.048853
      5          6           0       -1.141984    1.137963    0.065243
      6          6           0       -2.126764    0.133819   -0.149282
      7          6           0       -2.929152   -0.742093   -0.328269
      8          1           0        2.232600   -1.731377   -0.370983
      9          1           0        0.035803   -1.150331   -0.331190
     10          1           0        0.916221    1.627738    0.215792
     11          1           0       -0.726577   -1.162409    2.904228
     12          1           0       -1.215843   -1.076292    2.347979
     13          1           0       -1.469158    2.151403    0.250823
     14          1           0       -3.657755   -1.501196   -0.489335
 ---------------------------------------------------------------------

 SCF Done:  E(RHF) =  -322.771020959     A.U. after    2 cycles

 The electronic state is 1-A.
 Alpha  occ. eigenvalues --  -20.56482 -15.68492 -11.38559 -11.31547 -11.26562
 Alpha  occ. eigenvalues --  -11.26398 -11.25216  -1.37829  -1.24557  -1.08815
 Alpha  occ. eigenvalues --   -1.01643  -0.89630  -0.83267  -0.77022  -0.72984
 Alpha  occ. eigenvalues --   -0.70171  -0.65106  -0.63641  -0.61719  -0.59172
 Alpha  occ. eigenvalues --   -0.58677  -0.51160  -0.46995  -0.44608  -0.41513
 Alpha  occ. eigenvalues --   -0.33020
 Alpha virt. eigenvalues --    0.02850   0.03759   0.04026   0.05900   0.06321
 Alpha virt. eigenvalues --    0.07336   0.07814   0.09031   0.09841   0.10534
 Alpha virt. eigenvalues --    0.11426   0.12505   0.13059   0.13584   0.14625

 Mulliken charges:
               1
     1  O   -0.455666
     2  C    0.769379
     3  N   -0.337149
     4  C    0.794389
     5  C    0.712165
     6  C   -0.727982
     7  C    0.841660
     8  H   -0.202431
     9  H   -0.084814
    10  H   -0.400862
    11  H    0.054778
    12  H   -0.034067
    13  H   -0.440756
    14  H   -0.488644
 Sum of Mulliken charges =  -0.00000

 Dipole moment (field-independent basis, Debye):
    X=             -2.2603    Y=             -2.1346    Z=             -0.4970  Tot=              3.1484

 Test job not archived.
 1\1\GINC-SE100\SP\RHF\Aug-CC-pVDZ\C5H7N1O1\OHZDE\09-Apr-2025\0\\#t hf
 aug-cc-pvdz iop(5/13=1,5/36=2,99/5=2) pseudo=read geom=check guess=(re
 ad,tcheck) scf=(maxcycle=1)\\title\\0,1\O,0,-3.17587906,-0.30910029,-0
 .10422566\C,0,-2.36485197,0.44879693,0.35972749\N,0,-1.0154462,0.38013
 547,0.13727936\C,0,-0.42572321,-0.59022193,-0.64743864\C,0,0.89149103,
 -0.67096706,-0.86039249\C,0,1.81006683,0.2493142,-0.28296784\C,0,2.555
 55574,1.04115371,0.22724911\H,0,-2.63402764,1.28849095,1.02175175\H,0,
 -0.41642577,1.05950305,0.58025275\H,0,-1.12460743,-1.29134241,-1.08227

 Normal termination of Gaussian 16 at Wed Apr  9 15:32:01 2025.
