 Gaussian 16, Revision C.01,

 ----------------------------------------------------------------------
 #t hf aug-cc-pvdz symm=none int=(grid=ultrafine) guess=(read,tcheck) s
 table=(opt,rrhf)
 ----------------------------------------------------------------------
 -----
 title
 -----
 Symbolic Z-matrix:
 Charge =  0 Multiplicity = 1

 SCF Done:  E(RHF) =  -306.952995973     A.U. after   15 cycles

 1\1\GINC-SE054\Stability\RHF\Aug-CC-pVDZ\C4H10O2\OHZDE\09-Apr-2025\0\\
 #t hf aug-cc-pvdz symm=none int=(grid=ultrafine) guess=(read,tcheck) s
 table=(opt,rrhf)\\title\\0,1\C,0,1.32290818,0.81008807,-1.50962747\O,0
 ,0.40677781,-0.2898578,-1.62968091\C,0,0.2782699,-1.05788583,-0.515491
 39\C,0,-0.72289885,-1.94269628,-0.35603788\C,0,-1.77574214,0.89547598,
 0.59494422\O,0,-0.92795089,1.72699907,0.86503261\H,0,2.31094521,0.4654
 5149,-1.16417263\H,0,1.4200177,1.23382137,-2.51465023\H,0,0.92815612,1
 .56638959,-0.81891832\H,0,1.33032581,0.48405168,2.90867889\H,0,1.04347

 Normal termination of Gaussian 16 at Wed Apr  9 14:05:15 2025.
 Gaussian 16:  ES64L-G16RevC.01  3-Jul-2019

 ----------------------------------------------------------------------
 #t hf aug-cc-pvdz iop(5/13=1,5/36=2,99/5=2) pseudo=read geom=check gue
 ss=(read,tcheck) scf=(maxcycle=1)
 ----------------------------------------------------------------------
 -----
 title
 -----
 Structure from the checkpoint file:  "Grambow2020_b97d3_006771_reverse_mol2.chk"
 Charge =  0 Multiplicity = 1

                         Standard orientation:
 ---------------------------------------------------------------------
 Center     Atomic      Atomic             Coordinates (Angstroms)
 Number     Number       Type             X           Y           Z
 ---------------------------------------------------------------------
      1          6           0       -1.247562   -1.627868   -0.038819
      2          8           0       -1.389388   -0.262835   -0.463270
      3          6           0       -0.949001    0.666472    0.425688
      4          6           0       -0.747564    1.953683    0.089288
      5          6           0        1.885793    0.338216   -0.634427
      6          8           0        2.031552   -0.738208   -0.083797
      7          1           0       -1.715560   -1.785985    0.946223
      8          1           0       -1.769617   -2.233076   -0.787306
      9          1           0       -0.187667   -1.910596    0.001033
     10          1           0        1.585185   -0.468439    3.164157
     11          1           0       -0.764830    0.304700    1.442198
     12          1           0       -0.925769    2.308763   -0.924434
     13          1           0       -0.441749    2.669415    0.848020
     14          1           0        1.292391    0.453800   -1.567539
     15          1           0        2.356895    1.270962   -0.249899
     16          1           0        1.783418   -0.584215    2.453695
 ---------------------------------------------------------------------

 SCF Done:  E(RHF) =  -307.058413647     A.U. after    2 cycles

 The electronic state is 1-A.
 Alpha  occ. eigenvalues --  -20.60029 -20.58517 -11.35571 -11.31383 -11.29412
 Alpha  occ. eigenvalues --  -11.22975  -1.36554  -1.35906  -1.03424  -0.92885
 Alpha  occ. eigenvalues --   -0.86363  -0.80104  -0.69976  -0.69071  -0.66466
 Alpha  occ. eigenvalues --   -0.65938  -0.65212  -0.58365  -0.57099  -0.55348
 Alpha  occ. eigenvalues --   -0.54508  -0.51709  -0.50713  -0.44999  -0.35045
 Alpha virt. eigenvalues --    0.03557   0.04319   0.04654   0.05482   0.06184
 Alpha virt. eigenvalues --    0.06740   0.07392   0.07631   0.09100   0.09808
 Alpha virt. eigenvalues --    0.10097   0.12233   0.13148   0.13347   0.14009

 Mulliken charges:
               1
     1  C    0.732561
     2  O   -0.737133
     3  C    0.895855
     4  C    0.520717
     5  C    0.673656
     6  O   -0.434332
     7  H   -0.051281
     8  H   -0.219287
     9  H   -0.059537
    10  H    0.051266
    11  H   -0.446271
    12  H   -0.339841
    13  H   -0.300026
    14  H   -0.121816
    15  H   -0.120591
    16  H   -0.043941
 Sum of Mulliken charges =  -0.00000

 Dipole moment (field-independent basis, Debye):
    X=             -0.0823    Y=              1.1251    Z=             -0.2300  Tot=              1.1514

 Test job not archived.
 1\1\GINC-SE054\SP\RHF\Aug-CC-pVDZ\C4H10O2\OHZDE\09-Apr-2025\0\\#t hf a
 ug-cc-pvdz iop(5/13=1,5/36=2,99/5=2) pseudo=read geom=check guess=(rea
 d,tcheck) scf=(maxcycle=1)\\title\\0,1\C,0,1.32290818,0.81008807,-1.50
 962747\O,0,0.40677781,-0.2898578,-1.62968091\C,0,0.2782699,-1.05788583
 ,-0.51549139\C,0,-0.72289885,-1.94269628,-0.35603788\C,0,-1.77574214,0
 .89547598,0.59494422\O,0,-0.92795089,1.72699907,0.86503261\H,0,2.31094
 521,0.46545149,-1.16417263\H,0,1.4200177,1.23382137,-2.51465023\H,0,0.
 92815612,1.56638959,-0.81891832\H,0,1.33032581,0.48405168,2.90867889\H

 Normal termination of Gaussian 16 at Wed Apr  9 14:05:20 2025.
