 Gaussian 16, Revision C.01,

 ----------------------------------------------------------------------
 #t hf aug-cc-pvdz symm=none int=(grid=ultrafine) guess=(read,tcheck) s
 table=(opt,rrhf)
 ----------------------------------------------------------------------
 -----
 title
 -----
 Symbolic Z-matrix:
 Charge =  0 Multiplicity = 1

 SCF Done:  E(RHF) =  -245.665785999     A.U. after   14 cycles
 Normal termination of Gaussian 16 at Wed Apr  9 14:20:01 2025.
 Gaussian 16:  ES64L-G16RevC.01  3-Jul-2019

 ----------------------------------------------------------------------
 #t hf aug-cc-pvdz iop(5/13=1,5/36=2,99/5=2) pseudo=read geom=check gue
 ss=(read,tcheck) scf=(maxcycle=1)
 ----------------------------------------------------------------------
 -----
 title
 -----
 Structure from the checkpoint file:  "Grambow2020_b97d3_007191_reverse_mol1.chk"
 Charge =  0 Multiplicity = 1

                         Standard orientation:
 ---------------------------------------------------------------------
 Center     Atomic      Atomic             Coordinates (Angstroms)
 Number     Number       Type             X           Y           Z
 ---------------------------------------------------------------------
      1          8           0        2.047072    0.394806    0.093432
      2          6           0        1.155999   -0.513672   -0.031243
      3          6           0       -0.311048   -0.203206   -0.096549
      4          6           0       -1.757898   -0.439616    0.111274
      5          7           0       -1.095438    0.865207   -0.159151
      6          1           0        1.177790   -1.427103    0.641588
      7          1           0        1.103322   -1.081287   -1.053550
      8          1           0       -2.412851   -0.782965   -0.691270
      9          1           0       -2.088144   -0.674774    1.128278
     10          1           0       -1.010945    1.690194    0.440659
 ---------------------------------------------------------------------

 SCF Done:  E(RHF) =  -245.739842317     A.U. after    2 cycles

 The electronic state is 1-A.
 Alpha  occ. eigenvalues --  -20.43889 -15.73108 -11.40249 -11.36712 -11.30599
 Alpha  occ. eigenvalues --   -1.35804  -1.22457  -0.97923  -0.95746  -0.84289
 Alpha  occ. eigenvalues --   -0.72498  -0.68287  -0.60418  -0.59072  -0.56477
 Alpha  occ. eigenvalues --   -0.53259  -0.49621  -0.36151  -0.34045
 Alpha virt. eigenvalues --    0.01473   0.02733   0.03710   0.05006   0.05221
 Alpha virt. eigenvalues --    0.07337   0.08705   0.09171   0.11334   0.12524
 Alpha virt. eigenvalues --    0.13369   0.14953   0.15777   0.16277   0.16676

 Mulliken charges:
               1
     1  O   -0.764628
     2  C    0.500430
     3  C   -0.375579
     4  C    1.033750
     5  N   -0.333846
     6  H    0.052024
     7  H    0.142512
     8  H   -0.170399
     9  H   -0.138263
    10  H    0.054000
 Sum of Mulliken charges =  -0.00000

 Dipole moment (field-independent basis, Debye):
    X=             -8.6305    Y=             -1.6983    Z=              0.7233  Tot=              8.8257

 Test job not archived.
 1\1\GINC-SE159\SP\RHF\Aug-CC-pVDZ\C3H5N1O1\OHZDE\09-Apr-2025\0\\#t hf
 aug-cc-pvdz iop(5/13=1,5/36=2,99/5=2) pseudo=read geom=check guess=(re
 ad,tcheck) scf=(maxcycle=1)\\title\\0,1\O,0,2.17168766,0.4166673,0.996
 37056\C,0,1.46944579,-0.19416953,0.11965988\C,0,0.00746103,0.08104054,
 -0.07969571\C,0,-1.39860161,-0.2367472,-0.41800357\N,0,-0.90960217,0.9
 3164189,0.36320824\H,0,1.5125881,-1.32556233,0.04468741\H,0,1.68895168
 ,0.03950728,-1.00607801\H,0,-1.83834605,0.02306853,-1.3823947\H,0,-1.8
 6437792,-1.07754251,0.10618614\H,0,-1.0628245,1.16832603,1.34708776\\V

 Normal termination of Gaussian 16 at Wed Apr  9 14:20:04 2025.
