 Gaussian 16, Revision C.01,

 ----------------------------------------------------------------------
 #t hf aug-cc-pvdz symm=none int=(grid=ultrafine) guess=(read,tcheck) s
 table=(opt,rrhf)
 ----------------------------------------------------------------------
 -----
 title
 -----
 Symbolic Z-matrix:
 Charge =  0 Multiplicity = 1

 SCF Done:  E(RHF) =  -320.330370393     A.U. after   15 cycles
 Normal termination of Gaussian 16 at Wed Apr  9 15:58:42 2025.
 Gaussian 16:  ES64L-G16RevC.01  3-Jul-2019

 ----------------------------------------------------------------------
 #t hf aug-cc-pvdz iop(5/13=1,5/36=2,99/5=2) pseudo=read geom=check gue
 ss=(read,tcheck) scf=(maxcycle=1)
 ----------------------------------------------------------------------
 -----
 title
 -----
 Structure from the checkpoint file:  "Grambow2020_wb97xd3_007648_reverse_mol2.chk"
 Charge =  0 Multiplicity = 1

                         Standard orientation:
 ---------------------------------------------------------------------
 Center     Atomic      Atomic             Coordinates (Angstroms)
 Number     Number       Type             X           Y           Z
 ---------------------------------------------------------------------
      1          7           0       -2.841448    0.418215   -0.000431
      2          6           0       -1.739151    0.092126    0.000179
      3          6           0       -0.383329   -0.285193    0.000384
      4          6           0        0.331557   -1.423170    0.000470
      5          8           0        1.581294   -0.857939   -0.000651
      6          6           0        1.478403    1.589573    0.000321
      7          6           0        0.918960    0.404033   -0.000251
      8          1           0        0.186129   -2.492840    0.001075
      9          1           0        2.555115    1.688907   -0.000371
     10          1           0        0.859902    2.475718    0.000895
 ---------------------------------------------------------------------

 SCF Done:  E(RHF) =  -320.429239431     A.U. after    2 cycles

 The electronic state is 1-A.
 Alpha  occ. eigenvalues --  -20.64633 -15.65342 -11.37652 -11.35164 -11.30576
 Alpha  occ. eigenvalues --  -11.30287 -11.26693  -1.45147  -1.20959  -1.09698
 Alpha  occ. eigenvalues --   -1.06137  -0.89573  -0.86225  -0.73155  -0.71545
 Alpha  occ. eigenvalues --   -0.68145  -0.63040  -0.60778  -0.57851  -0.55601
 Alpha  occ. eigenvalues --   -0.52546  -0.47775  -0.41952  -0.36932
 Alpha virt. eigenvalues --    0.02916   0.03532   0.04792   0.05378   0.07778
 Alpha virt. eigenvalues --    0.08595   0.08988   0.10177   0.10579   0.12243
 Alpha virt. eigenvalues --    0.13092   0.13261   0.13509   0.14441   0.15590

 Mulliken charges:
               1
     1  N   -0.164427
     2  C   -0.800760
     3  C    0.941617
     4  C    0.546184
     5  O   -0.676360
     6  C    0.947724
     7  C   -0.100351
     8  H   -0.243143
     9  H   -0.233270
    10  H   -0.217214
 Sum of Mulliken charges =  -0.00000

 Dipole moment (field-independent basis, Debye):
    X=              2.7163    Y=             -1.0401    Z=              0.0025  Tot=              2.9086

 Test job not archived.
 1\1\GINC-SE092\SP\RHF\Aug-CC-pVDZ\C5H3N1O1\OHZDE\09-Apr-2025\0\\#t hf
 aug-cc-pvdz iop(5/13=1,5/36=2,99/5=2) pseudo=read geom=check guess=(re
 ad,tcheck) scf=(maxcycle=1)\\title\\0,1\N,0,3.00355218,-0.93577479,0.0
 9515261\C,0,1.9980592,-0.37897919,0.0763186\C,0,0.7562382,0.28273731,0
 .05112374\C,0,0.30270078,1.54697731,0.09646257\O,0,-1.03755729,1.26699
 741,0.01491158\C,0,-1.46174143,-1.1411165,-0.13325716\C,0,-0.66188301,
 -0.10674148,-0.03958379\H,0,0.67377778,2.55809825,0.16912192\H,0,-2.53
 338285,-1.00448752,-0.17903518\H,0,-1.04829556,-2.13901879,-0.16569087

 Normal termination of Gaussian 16 at Wed Apr  9 15:58:45 2025.
