 Gaussian 16, Revision C.01,

 ----------------------------------------------------------------------
 #t hf aug-cc-pvdz symm=none int=(grid=ultrafine) guess=(read,tcheck) s
 table=(opt,rrhf)
 ----------------------------------------------------------------------
 -----
 title
 -----
 Symbolic Z-matrix:
 Charge =  0 Multiplicity = 1

 SCF Done:  E(RHF) =  -343.563269925     A.U. after   18 cycles
 Normal termination of Gaussian 16 at Wed Apr  9 16:08:11 2025.
 Gaussian 16:  ES64L-G16RevC.01  3-Jul-2019

 ----------------------------------------------------------------------
 #t hf aug-cc-pvdz iop(5/13=1,5/36=2,99/5=2) pseudo=read geom=check gue
 ss=(read,tcheck) scf=(maxcycle=1)
 ----------------------------------------------------------------------
 -----
 title
 -----
 Structure from the checkpoint file:  "Grambow2020_wb97xd3_007803_forward_mol1.chk"
 Charge =  0 Multiplicity = 1

                         Standard orientation:
 ---------------------------------------------------------------------
 Center     Atomic      Atomic             Coordinates (Angstroms)
 Number     Number       Type             X           Y           Z
 ---------------------------------------------------------------------
      1          6           0        2.210356   -0.561091   -0.054663
      2          6           0        0.792517   -0.013645    0.039043
      3          6           0        0.542429    1.263212   -0.673851
      4          6           0       -0.320833   -0.955369   -0.433345
      5          6           0       -1.458365   -0.004081   -0.142701
      6          8           0       -2.586586   -0.136225    0.143830
      7          8           0        0.375189    0.408926    1.265681
      8          1           0        2.287423   -1.410542    0.625831
      9          1           0        2.473055   -0.886232   -1.064414
     10          1           0        2.920937    0.196614    0.275064
     11          1           0        0.179262    1.379489   -1.694555
     12          1           0       -1.010632    1.111929   -0.341919
     13          1           0        0.960703    2.143669   -0.201849
     14          1           0       -0.309423   -1.256836   -1.487664
     15          1           0       -0.406763   -1.833854    0.206524
 ---------------------------------------------------------------------

 SCF Done:  E(RHF) =  -343.667760621     A.U. after    2 cycles

 The electronic state is 1-A.
 Alpha  occ. eigenvalues --  -20.61172 -20.46511 -11.39981 -11.38098 -11.30444
 Alpha  occ. eigenvalues --  -11.26908 -11.24035  -1.41564  -1.26273  -1.06569
 Alpha  occ. eigenvalues --   -0.99948  -0.98072  -0.81785  -0.77706  -0.72293
 Alpha  occ. eigenvalues --   -0.68577  -0.66597  -0.65704  -0.61276  -0.58788
 Alpha  occ. eigenvalues --   -0.55866  -0.55708  -0.52903  -0.49720  -0.45242
 Alpha  occ. eigenvalues --   -0.38046  -0.36997
 Alpha virt. eigenvalues --   -0.00644   0.02598   0.03690   0.04174   0.05198
 Alpha virt. eigenvalues --    0.06090   0.06712   0.06813   0.07968   0.10104
 Alpha virt. eigenvalues --    0.11197   0.12010   0.12669   0.13307   0.13996

 Mulliken charges:
               1
     1  C    0.656664
     2  C   -0.558389
     3  C    0.479604
     4  C    0.372669
     5  C    0.442472
     6  O   -0.369272
     7  O   -0.917334
     8  H    0.061199
     9  H    0.045331
    10  H    0.021456
    11  H   -0.106904
    12  H    0.031385
    13  H   -0.161057
    14  H    0.024428
    15  H   -0.022251
 Sum of Mulliken charges =  -0.00000

 Dipole moment (field-independent basis, Debye):
    X=              2.8650    Y=              0.8179    Z=             -6.2264  Tot=              6.9025

 Test job not archived.
 1\1\GINC-SE042\SP\RHF\Aug-CC-pVDZ\C5H8O2\OHZDE\09-Apr-2025\0\\#t hf au
 g-cc-pvdz iop(5/13=1,5/36=2,99/5=2) pseudo=read geom=check guess=(read
 ,tcheck) scf=(maxcycle=1)\\title\\0,1\C,0,-1.15347005,1.17305319,-0.83
 687251\C,0,-0.17606915,0.39792101,0.03639966\C,0,-0.75933824,-0.702848
 73,0.84214771\C,0,1.01614305,-0.23316017,-0.69154841\C,0,1.64553359,-0
 .8371426,0.54233776\O,0,2.74158988,-1.10410259,0.85830878\O,0,0.386939
 4,1.07189112,1.07858672\H,0,-0.62355173,2.0314852,-1.25263557\H,0,-1.5
 5920917,0.57230877,-1.65467937\H,0,-1.97399838,1.55040798,-0.2268733\H

 Normal termination of Gaussian 16 at Wed Apr  9 16:08:16 2025.
