 Gaussian 16, Revision C.01,

 ----------------------------------------------------------------------
 #t hf aug-cc-pvdz symm=none int=(grid=ultrafine) guess=(read,tcheck) s
 table=(opt,rrhf)
 ----------------------------------------------------------------------
 -----
 title
 -----
 Symbolic Z-matrix:
 Charge =  0 Multiplicity = 1

 SCF Done:  E(RHF) =  -306.684798176     A.U. after   15 cycles
 Normal termination of Gaussian 16 at Wed Apr  9 04:04:51 2025.
 Gaussian 16:  ES64L-G16RevC.01  3-Jul-2019

 ----------------------------------------------------------------------
 #t hf aug-cc-pvdz iop(5/13=1,5/36=2,99/5=2) pseudo=read geom=check gue
 ss=(read,tcheck) scf=(maxcycle=1)
 ----------------------------------------------------------------------
 -----
 title
 -----
 Structure from the checkpoint file:  "Grambow2020_wb97xd3_009206_reverse_mol2.chk"
 Charge =  0 Multiplicity = 1

                         Standard orientation:
 ---------------------------------------------------------------------
 Center     Atomic      Atomic             Coordinates (Angstroms)
 Number     Number       Type             X           Y           Z
 ---------------------------------------------------------------------
      1          6           0       -3.849199    0.024377   -0.037123
      2          6           0       -2.397356   -0.090444    0.005814
      3          6           0       -1.200178   -0.178651    0.041614
      4          6           0        0.219919   -0.314874    0.085327
      5          6           0        1.066566    0.705577   -0.021038
      6          6           0        2.559341    0.579886    0.015422
      7          8           0        3.039291   -0.743230    0.026395
      8          1           0       -4.154820    0.826954   -0.710335
      9          1           0       -4.301193   -0.903906   -0.389915
     10          1           0       -4.251283    0.242141    0.953983
     11          1           0        2.784201   -1.165595   -0.796755
     12          1           0        0.610564   -1.317768    0.228756
     13          1           0        0.679065    1.713304   -0.142021
     14          1           0        2.984780    1.148251   -0.823512
     15          1           0        2.939797    1.047226    0.928537
 ---------------------------------------------------------------------

 SCF Done:  E(RHF) =  -306.783131777     A.U. after    2 cycles

 The electronic state is 1-A.
 Alpha  occ. eigenvalues --  -20.58008 -11.29958 -11.25848 -11.25740 -11.25378
 Alpha  occ. eigenvalues --  -11.23753 -11.23080  -1.33552  -1.08815  -1.04096
 Alpha  occ. eigenvalues --   -0.97246  -0.92300  -0.79963  -0.71284  -0.70053
 Alpha  occ. eigenvalues --   -0.63995  -0.63211  -0.59981  -0.59158  -0.59132
 Alpha  occ. eigenvalues --   -0.56469  -0.51844  -0.47927  -0.44680  -0.37718
 Alpha  occ. eigenvalues --   -0.32765
 Alpha virt. eigenvalues --    0.03275   0.03803   0.04501   0.05347   0.06003
 Alpha virt. eigenvalues --    0.06260   0.06584   0.07877   0.09878   0.10360
 Alpha virt. eigenvalues --    0.10972   0.12778   0.13734   0.13921   0.14803

 Mulliken charges:
               1
     1  C    0.276106
     2  C   -0.840097
     3  C   -0.221982
     4  C    0.556011
     5  C    0.032282
     6  C    0.803784
     7  O   -0.494168
     8  H    0.141487
     9  H    0.135232
    10  H    0.158414
    11  H    0.151210
    12  H   -0.420594
    13  H   -0.361940
    14  H    0.048963
    15  H    0.035293
 Sum of Mulliken charges =  -0.00000

 Dipole moment (field-independent basis, Debye):
    X=             -1.0427    Y=              1.0221    Z=             -1.2579  Tot=              1.9273

 Test job not archived.
 1\1\GINC-SE045\SP\RHF\Aug-CC-pVDZ\C6H8O1\OHZDE\09-Apr-2025\0\\#t hf au
 g-cc-pvdz iop(5/13=1,5/36=2,99/5=2) pseudo=read geom=check guess=(read
 ,tcheck) scf=(maxcycle=1)\\title\\0,1\C,0,3.04543893,-0.96847176,-1.83
 793889\C,0,1.89564929,-0.60155364,-1.02170955\C,0,0.94401258,-0.300268
 01,-0.35394238\C,0,-0.16809647,0.0603018,0.46480435\C,0,-1.40040703,0.
 24902624,0.00086503\C,0,-2.57731437,0.63467081,0.84447169\O,0,-2.26850
 692,0.93685232,2.18403515\H,0,2.97497865,-0.52053614,-2.83047974\H,0,3
 .97316372,-0.62588644,-1.37703571\H,0,3.10651009,-2.05155221,-1.958727

 Normal termination of Gaussian 16 at Wed Apr  9 04:04:57 2025.
