 Gaussian 16, Revision C.01,

 ----------------------------------------------------------------------
 #t hf aug-cc-pvdz symm=none int=(grid=ultrafine) guess=(read,tcheck) s
 table=(opt,rrhf)
 ----------------------------------------------------------------------
 -----
 title
 -----
 Symbolic Z-matrix:
 Charge =  0 Multiplicity = 1

 SCF Done:  E(RHF) =  -269.489154062     A.U. after   15 cycles
 Normal termination of Gaussian 16 at Wed Apr  9 16:22:08 2025.
 Gaussian 16:  ES64L-G16RevC.01  3-Jul-2019

 ----------------------------------------------------------------------
 #t hf aug-cc-pvdz iop(5/13=1,5/36=2,99/5=2) pseudo=read geom=check gue
 ss=(read,tcheck) scf=(maxcycle=1)
 ----------------------------------------------------------------------
 -----
 title
 -----
 Structure from the checkpoint file:  "Grambow2020_wb97xd3_008147_forward_mol1.chk"
 Charge =  0 Multiplicity = 1

                         Standard orientation:
 ---------------------------------------------------------------------
 Center     Atomic      Atomic             Coordinates (Angstroms)
 Number     Number       Type             X           Y           Z
 ---------------------------------------------------------------------
      1          6           0       -2.185869   -0.224125   -0.089905
      2          6           0       -0.705445   -0.095963    0.012584
      3          6           0        0.331734   -1.268185    0.000519
      4          6           0        1.278751   -0.315502    0.701628
      5          6           0        1.369841    0.029937   -0.767856
      6          6           0        0.173895    0.966388   -0.589665
      7          6           0        0.169668    0.745947    0.906543
      8          1           0       -2.673405    0.749404   -0.001578
      9          1           0       -2.466833   -0.660944   -1.050949
     10          1           0       -2.573720   -0.870499    0.700178
     11          1           0        0.912593   -1.032310   -1.246368
     12          1           0        2.119260   -0.602371    1.320421
     13          1           0        2.306001    0.133975   -1.307835
     14          1           0       -0.149109    1.822755   -1.162951
     15          1           0       -0.070235    1.429013    1.705997
 ---------------------------------------------------------------------

 SCF Done:  E(RHF) =  -269.566135804     A.U. after    2 cycles

 The electronic state is 1-A.
 Alpha  occ. eigenvalues --  -11.28490 -11.25499 -11.25380 -11.25075 -11.24835
 Alpha  occ. eigenvalues --  -11.24784 -11.22910  -1.26912  -1.02846  -0.96475
 Alpha  occ. eigenvalues --   -0.90879  -0.85401  -0.74188  -0.70194  -0.67923
 Alpha  occ. eigenvalues --   -0.62053  -0.59203  -0.56081  -0.55079  -0.54387
 Alpha  occ. eigenvalues --   -0.47043  -0.46443  -0.43400  -0.37463  -0.30496
 Alpha virt. eigenvalues --    0.03092   0.03737   0.04108   0.04902   0.05888
 Alpha virt. eigenvalues --    0.06713   0.07105   0.07768   0.10440   0.10739
 Alpha virt. eigenvalues --    0.12117   0.12344   0.12629   0.13160   0.13576

 Mulliken charges:
               1
     1  C    0.559354
     2  C   -0.331181
     3  C   -0.547123
     4  C    0.578060
     5  C   -0.023483
     6  C    0.523908
     7  C    0.244393
     8  H    0.028217
     9  H    0.028288
    10  H    0.036394
    11  H    0.489012
    12  H   -0.389837
    13  H   -0.278157
    14  H   -0.456909
    15  H   -0.460935
 Sum of Mulliken charges =   0.00000

 Dipole moment (field-independent basis, Debye):
    X=              0.5414    Y=              2.6544    Z=             -0.4358  Tot=              2.7439

 Test job not archived.
 1\1\GINC-SE163\SP\RHF\Aug-CC-pVDZ\C7H8\OHZDE\09-Apr-2025\0\\#t hf aug-
 cc-pvdz iop(5/13=1,5/36=2,99/5=2) pseudo=read geom=check guess=(read,t
 check) scf=(maxcycle=1)\\title\\0,1\C,0,2.05675395,0.03937081,-0.00501
 585\C,0,0.57157928,-0.0198173,-0.10165139\C,0,-0.27766609,-1.2213325,-
 0.63563012\C,0,-1.3755409,-0.21020155,-0.89694368\C,0,-1.47694288,-0.5
 4841513,0.57354536\C,0,-0.44004124,0.53794361,0.86274511\C,0,-0.443939
 01,0.9862255,-0.58164995\H,0,2.39041728,1.01602304,0.35285313\H,0,2.42
 623505,-0.72203876,0.68570623\H,0,2.51517169,-0.13926322,-0.9799011\H,

 Normal termination of Gaussian 16 at Wed Apr  9 16:22:13 2025.
