 Gaussian 16, Revision C.01,

 ----------------------------------------------------------------------
 #t hf aug-cc-pvdz symm=none int=(grid=ultrafine) guess=(read,tcheck) s
 table=(opt,rrhf)
 ----------------------------------------------------------------------
 -----
 title
 -----
 Symbolic Z-matrix:
 Charge =  0 Multiplicity = 1

 SCF Done:  E(RHF) =  -271.949381589     A.U. after   13 cycles
 Normal termination of Gaussian 16 at Wed Apr  9 15:53:21 2025.
 Gaussian 16:  ES64L-G16RevC.01  3-Jul-2019

 ----------------------------------------------------------------------
 #t hf aug-cc-pvdz iop(5/13=1,5/36=2,99/5=2) pseudo=read geom=check gue
 ss=(read,tcheck) scf=(maxcycle=1)
 ----------------------------------------------------------------------
 -----
 title
 -----
 Structure from the checkpoint file:  "Grambow2020_wb97xd3_007427_reverse_mol2.chk"
 Charge =  0 Multiplicity = 1

                         Standard orientation:
 ---------------------------------------------------------------------
 Center     Atomic      Atomic             Coordinates (Angstroms)
 Number     Number       Type             X           Y           Z
 ---------------------------------------------------------------------
      1          6           0       -2.089297   -0.724856   -0.009797
      2          6           0       -0.642144   -0.687402   -0.459633
      3          6           0        0.373786   -0.727779    0.706106
      4          6           0        1.750128   -0.693367    0.012056
      5          6           0        1.375523    0.715549   -0.415438
      6          6           0       -0.119673    0.719576   -0.711230
      7          6           0        0.379055    0.845401    0.700178
      8          1           0       -2.766103   -0.463048   -0.826461
      9          1           0       -2.260488   -0.016808    0.805523
     10          1           0       -2.362889   -1.721097    0.345525
     11          1           0       -0.468040   -1.424775   -1.252017
     12          1           0       -2.120312    2.641700    0.520113
     13          1           0        0.191216   -1.368544    1.565733
     14          1           0        1.944314   -1.449111   -0.755083
     15          1           0        2.567304   -0.678220    0.734417
     16          1           0        2.018770    1.488680   -0.812331
     17          1           0       -2.591424    3.212279    0.612432
     18          1           0       -0.560839    1.492400   -1.327190
     19          1           0        0.244225    1.603804    1.455886
 ---------------------------------------------------------------------

 SCF Done:  E(RHF) =  -272.034807002     A.U. after    2 cycles

 The electronic state is 1-A.
 Alpha  occ. eigenvalues --  -11.23799 -11.23573 -11.23388 -11.23299 -11.23253
 Alpha  occ. eigenvalues --  -11.22798 -11.21872  -1.22418  -1.01649  -0.96127
 Alpha  occ. eigenvalues --   -0.88804  -0.84150  -0.73934  -0.70892  -0.70015
 Alpha  occ. eigenvalues --   -0.62304  -0.60883  -0.59104  -0.57248  -0.54939
 Alpha  occ. eigenvalues --   -0.51736  -0.50623  -0.48190  -0.43774  -0.43130
 Alpha  occ. eigenvalues --   -0.39102  -0.36878
 Alpha virt. eigenvalues --    0.03474   0.04184   0.04302   0.04493   0.06057
 Alpha virt. eigenvalues --    0.06306   0.06382   0.06474   0.07789   0.08459
 Alpha virt. eigenvalues --    0.09032   0.11715   0.12380   0.12676   0.12843

 Mulliken charges:
               1
     1  C    0.640048
     2  C   -0.498748
     3  C    0.353275
     4  C    0.762098
     5  C    0.469222
     6  C    0.597021
     7  C    0.300918
     8  H   -0.017350
     9  H   -0.011013
    10  H   -0.035653
    11  H   -0.318353
    12  H   -0.125412
    13  H   -0.431287
    14  H   -0.186033
    15  H   -0.110301
    16  H   -0.482205
    17  H    0.099095
    18  H   -0.504525
    19  H   -0.500795
 Sum of Mulliken charges =  -0.00000

 Dipole moment (field-independent basis, Debye):
    X=              0.0433    Y=              0.0595    Z=              0.0991  Tot=              0.1234

 Test job not archived.
 1\1\GINC-SE120\SP\RHF\Aug-CC-pVDZ\C7H12\OHZDE\09-Apr-2025\0\\#t hf aug
 -cc-pvdz iop(5/13=1,5/36=2,99/5=2) pseudo=read geom=check guess=(read,
 tcheck) scf=(maxcycle=1)\\title\\0,1\C,0,1.73657178,0.0276842,-1.04437
 44\C,0,0.54585799,0.75815453,-0.45563044\C,0,0.37470197,0.54481859,1.0
 668296\C,0,-0.86923138,1.3801948,1.43012731\C,0,-1.64753953,0.38337113
 ,0.58828127\C,0,-0.76368735,-0.00512571,-0.59112429\C,0,-0.5820297,-0.
 66247453,0.74735573\H,0,1.69175613,0.00980536,-2.13580616\H,0,1.768102
 4,-1.00772841,-0.6946449\H,0,2.6733525,0.5099999,-0.75555396\H,0,0.539

 Normal termination of Gaussian 16 at Wed Apr  9 15:53:29 2025.
