 Gaussian 16, Revision C.01,

 ----------------------------------------------------------------------
 #t hf aug-cc-pvdz symm=none int=(grid=ultrafine) guess=(read,tcheck) s
 table=(opt,rrhf)
 ----------------------------------------------------------------------
 -----
 title
 -----
 Symbolic Z-matrix:
 Charge =  0 Multiplicity = 1

 SCF Done:  E(RHF) =  -343.687656606     A.U. after   13 cycles
 Normal termination of Gaussian 16 at Wed Apr  9 03:27:18 2025.
 Gaussian 16:  ES64L-G16RevC.01  3-Jul-2019

 ----------------------------------------------------------------------
 #t hf aug-cc-pvdz iop(5/13=1,5/36=2,99/5=2) pseudo=read geom=check gue
 ss=(read,tcheck) scf=(maxcycle=1)
 ----------------------------------------------------------------------
 -----
 title
 -----
 Structure from the checkpoint file:  "Grambow2020_wb97xd3_006710_reverse_mol2.chk"
 Charge =  0 Multiplicity = 1

                         Standard orientation:
 ---------------------------------------------------------------------
 Center     Atomic      Atomic             Coordinates (Angstroms)
 Number     Number       Type             X           Y           Z
 ---------------------------------------------------------------------
      1          8           0        1.532207   -1.238840   -0.363454
      2          6           0        1.927717   -0.090780    0.335263
      3          6           0        1.101030    1.149833    0.131450
      4          8           0       -1.140955   -0.992587    0.122572
      5          6           0       -1.181566    0.255689   -0.554776
      6          6           0       -2.194951   -0.099540    0.441923
      7          6           0       -0.162018    1.292282   -0.250684
      8          1           0        0.665268   -1.506095   -0.041418
      9          1           0        1.998245   -0.282407    1.417242
     10          1           0        2.943953    0.132409    0.000497
     11          1           0        1.645375    2.067332    0.343113
     12          1           0       -1.467100    0.168125   -1.601413
     13          1           0       -3.180959   -0.423812    0.124217
     14          1           0       -2.133689    0.346537    1.430070
     15          1           0       -0.542371    2.304421   -0.364304
 ---------------------------------------------------------------------

 SCF Done:  E(RHF) =  -343.796700191     A.U. after    2 cycles

 The electronic state is 1-A.
 Alpha  occ. eigenvalues --  -20.60158 -20.55336 -11.31358 -11.30669 -11.28774
 Alpha  occ. eigenvalues --  -11.25093 -11.24836  -1.40163  -1.31325  -1.07204
 Alpha  occ. eigenvalues --   -0.96614  -0.92786  -0.86607  -0.76186  -0.72451
 Alpha  occ. eigenvalues --   -0.70807  -0.66720  -0.65081  -0.60236  -0.58233
 Alpha  occ. eigenvalues --   -0.57296  -0.53546  -0.51092  -0.48065  -0.47698
 Alpha  occ. eigenvalues --   -0.44820  -0.36580
 Alpha virt. eigenvalues --    0.03126   0.03948   0.04497   0.04974   0.05867
 Alpha virt. eigenvalues --    0.06736   0.07062   0.07691   0.10380   0.11956
 Alpha virt. eigenvalues --    0.12600   0.12850   0.13575   0.14046   0.14806

 Mulliken charges:
               1
     1  O   -0.527327
     2  C    0.854239
     3  C   -0.137662
     4  O   -0.767913
     5  C    0.932929
     6  C    0.628599
     7  C    0.311329
     8  H    0.187212
     9  H    0.072526
    10  H   -0.062572
    11  H   -0.410101
    12  H   -0.212008
    13  H   -0.219851
    14  H   -0.251315
    15  H   -0.398086
 Sum of Mulliken charges =  -0.00000

 Dipole moment (field-independent basis, Debye):
    X=             -2.1272    Y=              2.8016    Z=              1.0276  Tot=              3.6647

 Test job not archived.
 1\1\GINC-SE423\SP\RHF\Aug-CC-pVDZ\C5H8O2\OHZDE\09-Apr-2025\0\\#t hf au
 g-cc-pvdz iop(5/13=1,5/36=2,99/5=2) pseudo=read geom=check guess=(read
 ,tcheck) scf=(maxcycle=1)\\title\\0,1\O,0,1.73043546,0.94929433,0.9253
 8868\C,0,1.97835284,-0.18347187,0.1392257\C,0,0.86028958,-1.18226842,0
 .0111214\O,0,-0.77147673,1.45429514,-0.03797369\C,0,-1.23925132,0.1959
 4107,0.42718711\C,0,-1.91876256,0.90213336,-0.66189562\C,0,-0.45131033
 ,-1.03191026,0.1478882\H,0,1.03354576,1.46343978,0.50501462\H,0,2.3084
 9541,0.09408451,-0.87385994\H,0,2.82498724,-0.69521942,0.60392183\H,0,

 Normal termination of Gaussian 16 at Wed Apr  9 03:27:23 2025.
