 Gaussian 16, Revision C.01,

 ----------------------------------------------------------------------
 #t hf aug-cc-pvdz symm=none int=(grid=ultrafine) guess=(read,tcheck) s
 table=(opt,rrhf)
 ----------------------------------------------------------------------
 -----
 title
 -----
 Symbolic Z-matrix:
 Charge =  0 Multiplicity = 1

 SCF Done:  E(RHF) =  -322.558105243     A.U. after   15 cycles
 Normal termination of Gaussian 16 at Wed Apr  9 16:02:59 2025.
 Gaussian 16:  ES64L-G16RevC.01  3-Jul-2019

 ----------------------------------------------------------------------
 #t hf aug-cc-pvdz iop(5/13=1,5/36=2,99/5=2) pseudo=read geom=check gue
 ss=(read,tcheck) scf=(maxcycle=1)
 ----------------------------------------------------------------------
 -----
 title
 -----
 Structure from the checkpoint file:  "Grambow2020_wb97xd3_007714_forward_mol1.chk"
 Charge =  0 Multiplicity = 1

                         Standard orientation:
 ---------------------------------------------------------------------
 Center     Atomic      Atomic             Coordinates (Angstroms)
 Number     Number       Type             X           Y           Z
 ---------------------------------------------------------------------
      1          6           0       -2.584198    0.082526    0.188418
      2          7           0       -1.437553   -0.735045   -0.156694
      3          6           0       -0.306212   -0.235785   -0.159351
      4          8           0        0.098330    1.090203    0.083486
      5          6           0        1.439434    0.770105   -0.250039
      6          6           0        1.959090   -0.667964    0.777410
      7          6           0        1.098749   -0.693704   -0.434596
      8          1           0       -3.366664   -0.078074   -0.553641
      9          1           0       -2.973258   -0.250081    1.152398
     10          1           0       -2.362778    1.151230    0.249730
     11          1           0        1.948055    1.357210   -1.005329
     12          1           0        2.039966    0.779102    0.781846
     13          1           0        2.986627   -0.823195    0.401842
     14          1           0        1.363103   -1.243564   -1.328934
 ---------------------------------------------------------------------

 SCF Done:  E(RHF) =  -322.655919832     A.U. after    2 cycles

 The electronic state is 1-A.
 Alpha  occ. eigenvalues --  -20.62273 -15.61713 -11.35625 -11.35457 -11.28395
 Alpha  occ. eigenvalues --  -11.28293 -11.25737  -1.42255  -1.20243  -1.13402
 Alpha  occ. eigenvalues --   -0.96986  -0.89511  -0.86025  -0.76314  -0.72045
 Alpha  occ. eigenvalues --   -0.67445  -0.65152  -0.60121  -0.59554  -0.58535
 Alpha  occ. eigenvalues --   -0.54628  -0.54017  -0.50269  -0.41424  -0.39965
 Alpha  occ. eigenvalues --   -0.36122
 Alpha virt. eigenvalues --    0.02597   0.04179   0.04408   0.04760   0.06614
 Alpha virt. eigenvalues --    0.06761   0.07262   0.08962   0.10518   0.11624
 Alpha virt. eigenvalues --    0.12027   0.12525   0.13491   0.13604   0.14677

 Mulliken charges:
               1
     1  C    0.728710
     2  N   -0.540485
     3  C    0.257313
     4  O   -0.718202
     5  C    0.594362
     6  C   -0.298697
     7  C    0.787819
     8  H   -0.165832
     9  H   -0.114644
    10  H   -0.114266
    11  H   -0.207631
    12  H    0.170363
    13  H   -0.051751
    14  H   -0.327059
 Sum of Mulliken charges =  -0.00000

 Dipole moment (field-independent basis, Debye):
    X=              2.0644    Y=              1.2100    Z=             -2.3715  Tot=              3.3690

 Test job not archived.
 1\1\GINC-SE057\SP\RHF\Aug-CC-pVDZ\C5H7N1O1\OHZDE\09-Apr-2025\0\\#t hf
 aug-cc-pvdz iop(5/13=1,5/36=2,99/5=2) pseudo=read geom=check guess=(re
 ad,tcheck) scf=(maxcycle=1)\\title\\0,1\C,0,2.5063452,0.0576567,0.6825
 9114\N,0,1.31650411,0.85877241,0.47090254\C,0,0.27912265,0.32173742,0.
 06515392\O,0,0.0357354,-1.01528643,-0.30090298\C,0,-1.27592354,-0.6868
 4076,-0.72978066\C,0,-2.13451979,0.17266279,0.65506639\C,0,-1.12287239
 ,0.74773331,-0.26995853\H,0,3.35577416,0.56055934,0.21971254\H,0,2.703
 32711,0.000794,1.75460693\H,0,2.43180594,-0.95809898,0.28560385\H,0,-1

 Normal termination of Gaussian 16 at Wed Apr  9 16:03:03 2025.
