 Gaussian 16, Revision C.01,

 ----------------------------------------------------------------------
 #t hf aug-cc-pvdz symm=none int=(grid=ultrafine) guess=(read,tcheck) s
 table=(opt,rrhf)
 ----------------------------------------------------------------------
 -----
 title
 -----
 Symbolic Z-matrix:
 Charge =  0 Multiplicity = 1

 SCF Done:  E(RHF) =  -323.634636584     A.U. after   17 cycles
 Normal termination of Gaussian 16 at Wed Apr  9 15:16:10 2025.
 Gaussian 16:  ES64L-G16RevC.01  3-Jul-2019

 ----------------------------------------------------------------------
 #t hf aug-cc-pvdz iop(5/13=1,5/36=2,99/5=2) pseudo=read geom=check gue
 ss=(read,tcheck) scf=(maxcycle=1)
 ----------------------------------------------------------------------
 -----
 title
 -----
 Structure from the checkpoint file:  "Grambow2020_wb97xd3_006828_reverse_mol1.chk"
 Charge =  0 Multiplicity = 1

                         Standard orientation:
 ---------------------------------------------------------------------
 Center     Atomic      Atomic             Coordinates (Angstroms)
 Number     Number       Type             X           Y           Z
 ---------------------------------------------------------------------
      1          6           0       -1.497670    1.892068    0.122465
      2          6           0        0.812687    0.961895   -0.299137
      3          6           0        2.147706    0.356532    0.130030
      4          6           0        1.429304   -1.038694    0.094664
      5          6           0        0.162858   -0.229194   -0.097692
      6          7           0       -1.108980   -0.372442    0.186842
      7          8           0       -1.569203   -1.626808   -0.199249
      8          1           0       -1.616812    1.805733    1.192185
      9          1           0       -2.351907    1.600118   -0.469305
     10          1           0       -0.994663    2.785990   -0.219732
     11          1           0        0.639170    1.709616   -1.054204
     12          1           0        2.975177    0.483309   -0.570292
     13          1           0        2.482477    0.630541    1.131777
     14          1           0        1.471849   -1.659376    0.990785
     15          1           0        1.720053   -1.623983   -0.776483
     16          1           0       -2.338157   -1.766027    0.359376
 ---------------------------------------------------------------------

 SCF Done:  E(RHF) =  -323.734136342     A.U. after    2 cycles

 The electronic state is 1-A.
 Alpha  occ. eigenvalues --  -20.60080 -15.66725 -11.29801 -11.26801 -11.23777
 Alpha  occ. eigenvalues --  -11.23713 -11.22735  -1.36823  -1.16268  -1.05544
 Alpha  occ. eigenvalues --   -0.93549  -0.88626  -0.84482  -0.71672  -0.68966
 Alpha  occ. eigenvalues --   -0.67612  -0.62932  -0.60878  -0.59604  -0.58281
 Alpha  occ. eigenvalues --   -0.52590  -0.51195  -0.50516  -0.47405  -0.43733
 Alpha  occ. eigenvalues --   -0.36023  -0.26750
 Alpha virt. eigenvalues --    0.02418   0.04105   0.04202   0.04805   0.05625
 Alpha virt. eigenvalues --    0.06467   0.06932   0.07040   0.07738   0.08203
 Alpha virt. eigenvalues --    0.11634   0.12283   0.13466   0.13891   0.14817

 Mulliken charges:
               1
     1  C    0.598001
     2  C    0.090613
     3  C    0.353014
     4  C    0.425610
     5  C    0.253416
     6  N   -0.265419
     7  O   -0.532502
     8  H   -0.049581
     9  H   -0.092054
    10  H   -0.128575
    11  H   -0.385280
    12  H   -0.138193
    13  H   -0.108945
    14  H   -0.139507
    15  H   -0.049623
    16  H    0.169023
 Sum of Mulliken charges =  -0.00000

 Dipole moment (field-independent basis, Debye):
    X=             -0.3461    Y=              1.3203    Z=              0.4892  Tot=              1.4500

 Test job not archived.
 1\1\GINC-SE113\SP\RHF\Aug-CC-pVDZ\C5H9N1O1\OHZDE\09-Apr-2025\0\\#t hf
 aug-cc-pvdz iop(5/13=1,5/36=2,99/5=2) pseudo=read geom=check guess=(re
 ad,tcheck) scf=(maxcycle=1)\\title\\0,1\C,0,-1.01575123,-2.09053033,0.
 09311461\C,0,-0.61745006,0.24550528,-0.78153621\C,0,-0.63641795,1.7695
 9244,-0.68293488\C,0,0.75209865,1.65502989,0.04018528\C,0,0.47150116,0
 .1659472,0.04876813\N,0,0.78711138,-0.85620992,0.80681696\O,0,2.149923
 5,-0.87080163,1.0840104\H,0,-1.39996836,-1.92859986,1.08915932\H,0,-0.
 27962145,-2.87405199,-0.00360552\H,0,-1.74974824,-2.05915066,-0.700280

 Normal termination of Gaussian 16 at Wed Apr  9 15:16:16 2025.
