 Gaussian 16, Revision C.01,

 ----------------------------------------------------------------------
 #t hf aug-cc-pvdz symm=none int=(grid=ultrafine) guess=(read,tcheck) s
 table=(opt,rrhf)
 ----------------------------------------------------------------------
 -----
 title
 -----
 Symbolic Z-matrix:
 Charge =  0 Multiplicity = 1

 SCF Done:  E(RHF) =  -306.588193142     A.U. after   15 cycles
 Normal termination of Gaussian 16 at Wed Apr  9 15:04:00 2025.
 Gaussian 16:  ES64L-G16RevC.01  3-Jul-2019

 ----------------------------------------------------------------------
 #t hf aug-cc-pvdz iop(5/13=1,5/36=2,99/5=2) pseudo=read geom=check gue
 ss=(read,tcheck) scf=(maxcycle=1)
 ----------------------------------------------------------------------
 -----
 title
 -----
 Structure from the checkpoint file:  "Grambow2020_wb97xd3_006667_reverse_mol2.chk"
 Charge =  0 Multiplicity = 1

                         Standard orientation:
 ---------------------------------------------------------------------
 Center     Atomic      Atomic             Coordinates (Angstroms)
 Number     Number       Type             X           Y           Z
 ---------------------------------------------------------------------
      1          6           0        2.173117   -0.134323   -0.228934
      2          6           0        0.705324   -0.126961   -0.586780
      3          6           0       -0.273524   -0.903119    0.326480
      4          8           0       -0.206914    0.155335    1.299413
      5          6           0       -0.109841    1.031861    0.144542
      6          6           0       -1.310020    0.877101   -0.698849
      7          6           0       -1.597143   -0.566317   -0.368898
      8          1           0        2.624306   -1.085611   -0.519158
      9          1           0        2.311068    0.002410    0.843616
     10          1           0        2.705427    0.660687   -0.753513
     11          1           0        0.548882   -0.252899   -1.660393
     12          1           0       -0.078622   -1.894507    0.732744
     13          1           0        0.326995    2.003356    0.354653
     14          1           0       -2.442274   -0.593740    0.329942
     15          1           0       -1.867944   -1.151833   -1.248564
 ---------------------------------------------------------------------

 SCF Done:  E(RHF) =  -306.677980398     A.U. after    2 cycles

 The electronic state is 1-A.
 Alpha  occ. eigenvalues --  -20.57941 -11.30774 -11.30413 -11.27360 -11.27200
 Alpha  occ. eigenvalues --  -11.24585 -11.23960  -1.37901  -1.10131  -1.02655
 Alpha  occ. eigenvalues --   -0.96574  -0.89414  -0.76623  -0.74626  -0.70619
 Alpha  occ. eigenvalues --   -0.65993  -0.62649  -0.59836  -0.56398  -0.55760
 Alpha  occ. eigenvalues --   -0.52288  -0.52043  -0.49370  -0.45808  -0.43680
 Alpha  occ. eigenvalues --   -0.36363
 Alpha virt. eigenvalues --    0.03150   0.04037   0.04605   0.04815   0.06115
 Alpha virt. eigenvalues --    0.06496   0.06685   0.07569   0.08236   0.09684
 Alpha virt. eigenvalues --    0.11485   0.12363   0.13121   0.13605   0.14162

 Mulliken charges:
               1
     1  C    0.601011
     2  C   -0.544557
     3  C    0.850130
     4  O   -0.862774
     5  C    1.110048
     6  C   -0.359660
     7  C    0.436905
     8  H    0.032523
     9  H    0.013202
    10  H    0.027372
    11  H   -0.509602
    12  H   -0.299331
    13  H   -0.312974
    14  H   -0.045483
    15  H   -0.136809
 Sum of Mulliken charges =  -0.00000

 Dipole moment (field-independent basis, Debye):
    X=              1.4916    Y=             -1.9850    Z=             -0.7005  Tot=              2.5799

 Test job not archived.
 1\1\GINC-SE226\SP\RHF\Aug-CC-pVDZ\C6H8O1\OHZDE\09-Apr-2025\0\\#t hf au
 g-cc-pvdz iop(5/13=1,5/36=2,99/5=2) pseudo=read geom=check guess=(read
 ,tcheck) scf=(maxcycle=1)\\title\\0,1\C,0,1.89830935,0.35244361,-0.168
 17662\C,0,0.50775263,-0.2138839,-0.33595282\C,0,-0.39755944,-0.3114583
 2,0.91524586\O,0,-0.65022882,1.10363052,0.84422919\C,0,-0.5960399,0.90
 727117,-0.59450491\C,0,-1.63907101,-0.051667,-1.00464126\C,0,-1.673810
 5,-0.86030436,0.26801817\H,0,2.55687381,-0.39756382,0.27514238\H,0,1.8
 8415518,1.22863753,0.48003263\H,0,2.32083899,0.63852148,-1.13264788\H,

 Normal termination of Gaussian 16 at Wed Apr  9 15:04:05 2025.
