 Gaussian 16, Revision C.01,

 ----------------------------------------------------------------------
 #t hf aug-cc-pvdz symm=none int=(grid=ultrafine) guess=(read,tcheck) s
 table=(opt,rrhf)
 ----------------------------------------------------------------------
 -----
 title
 -----
 Symbolic Z-matrix:
 Charge =  0 Multiplicity = 1

 SCF Done:  E(RHF) =  -322.596702560     A.U. after   16 cycles
 Normal termination of Gaussian 16 at Wed Apr  9 16:02:04 2025.
 Gaussian 16:  ES64L-G16RevC.01  3-Jul-2019

 ----------------------------------------------------------------------
 #t hf aug-cc-pvdz iop(5/13=1,5/36=2,99/5=2) pseudo=read geom=check gue
 ss=(read,tcheck) scf=(maxcycle=1)
 ----------------------------------------------------------------------
 -----
 title
 -----
 Structure from the checkpoint file:  "Grambow2020_wb97xd3_007709_reverse_mol2.chk"
 Charge =  0 Multiplicity = 1

                         Standard orientation:
 ---------------------------------------------------------------------
 Center     Atomic      Atomic             Coordinates (Angstroms)
 Number     Number       Type             X           Y           Z
 ---------------------------------------------------------------------
      1          6           0        2.614240   -0.500314    0.100302
      2          7           0        1.705084    0.617887    0.211999
      3          6           0        0.485370    0.419692   -0.008771
      4          8           0       -0.178909   -0.742576   -0.355874
      5          6           0       -1.398076    0.073080   -0.441092
      6          6           0       -2.512893   -0.420894    0.452510
      7          6           0       -0.694201    1.329848   -0.011087
      8          1           0        3.510072   -0.165613   -0.423194
      9          1           0        2.921265   -0.788024    1.109210
     10          1           0        2.188931   -1.372377   -0.401981
     11          1           0       -1.719346    0.158600   -1.486410
     12          1           0       -2.806234   -1.428268    0.157075
     13          1           0       -3.372128    0.243581    0.362451
     14          1           0       -2.193527   -0.440974    1.494671
 ---------------------------------------------------------------------

 SCF Done:  E(RHF) =  -322.693767729     A.U. after    2 cycles

 The electronic state is 1-A.
 Alpha  occ. eigenvalues --  -20.60749 -15.65014 -11.34977 -11.32469 -11.30071
 Alpha  occ. eigenvalues --  -11.26866 -11.25706  -1.40727  -1.21123  -1.06322
 Alpha  occ. eigenvalues --   -0.99874  -0.93896  -0.83231  -0.71410  -0.68364
 Alpha  occ. eigenvalues --   -0.66874  -0.65088  -0.61040  -0.59149  -0.58290
 Alpha  occ. eigenvalues --   -0.55876  -0.52162  -0.50033  -0.43994  -0.41057
 Alpha  occ. eigenvalues --   -0.39511
 Alpha virt. eigenvalues --    0.01474   0.03332   0.04121   0.04497   0.05490
 Alpha virt. eigenvalues --    0.06185   0.06730   0.06953   0.09400   0.10888
 Alpha virt. eigenvalues --    0.11382   0.12410   0.13439   0.14011   0.14920

 Mulliken charges:
               1
     1  C    0.723164
     2  N   -0.506479
     3  C    0.723445
     4  O   -0.734241
     5  C    0.295428
     6  C    0.417018
     7  C   -0.404463
     8  H   -0.153119
     9  H   -0.095563
    10  H   -0.102118
    11  H   -0.188594
    12  H    0.003431
    13  H    0.034744
    14  H   -0.012652
 Sum of Mulliken charges =  -0.00000

 Dipole moment (field-independent basis, Debye):
    X=             -1.2120    Y=             -2.2631    Z=             -0.5594  Tot=              2.6274

 Test job not archived.
 1\1\GINC-SE232\SP\RHF\Aug-CC-pVDZ\C5H7N1O1\OHZDE\09-Apr-2025\0\\#t hf
 aug-cc-pvdz iop(5/13=1,5/36=2,99/5=2) pseudo=read geom=check guess=(re
 ad,tcheck) scf=(maxcycle=1)\\title\\0,1\C,0,2.6516789,-0.01492659,0.65
 927097\N,0,1.78382884,0.8284859,-0.13123875\C,0,0.60134505,0.45389677,
 -0.32395424\O,0,-0.05440872,-0.68293881,0.11217218\C,0,-1.21316,-0.215
 68339,-0.6610645\C,0,-2.46480995,-0.05776071,0.17187311\C,0,-0.5262117
 2,1.0491817,-1.09468697\H,0,3.62683361,-0.05790482,0.17366637\H,0,2.79
 787484,0.46636638,1.62979777\H,0,2.26675407,-1.02473596,0.81985678\H,0

 Normal termination of Gaussian 16 at Wed Apr  9 16:02:09 2025.
