 Gaussian 16, Revision C.01,

 ----------------------------------------------------------------------
 #t hf aug-cc-pvdz symm=none int=(grid=ultrafine) guess=(read,tcheck) s
 table=(opt,rrhf)
 ----------------------------------------------------------------------
 -----
 title
 -----
 Symbolic Z-matrix:
 Charge =  0 Multiplicity = 1

 SCF Done:  E(RHF) =  -301.911151733     A.U. after   15 cycles
 Normal termination of Gaussian 16 at Wed Apr  9 03:15:38 2025.
 Gaussian 16:  ES64L-G16RevC.01  3-Jul-2019

 ----------------------------------------------------------------------
 #t hf aug-cc-pvdz iop(5/13=1,5/36=2,99/5=2) pseudo=read geom=check gue
 ss=(read,tcheck) scf=(maxcycle=1)
 ----------------------------------------------------------------------
 -----
 title
 -----
 Structure from the checkpoint file:  "Grambow2020_b97d3_007045_reverse_mol1.chk"
 Charge =  0 Multiplicity = 1

                         Standard orientation:
 ---------------------------------------------------------------------
 Center     Atomic      Atomic             Coordinates (Angstroms)
 Number     Number       Type             X           Y           Z
 ---------------------------------------------------------------------
      1          6           0        1.732719   -1.127325   -0.025388
      2          7           0        0.388006   -0.601552    0.042585
      3          6           0       -1.674325   -1.215934    0.010662
      4          6           0        0.189302    0.704120    0.009765
      5          8           0        0.929081    1.696141    0.011319
      6          7           0       -1.305262    0.842553   -0.026414
      7          1           0        2.457360   -0.300088    0.075173
      8          1           0        1.919347   -1.855582    0.780009
      9          1           0        1.925302   -1.629887   -0.989401
     10          1           0       -2.659587   -0.913543   -0.346500
     11          1           0       -1.250685   -2.001965   -0.611133
     12          1           0       -1.638152   -1.433601    1.073493
     13          1           0       -1.602446    1.287615   -0.901073
     14          1           0       -1.649171    1.425747    0.745450
 ---------------------------------------------------------------------

 SCF Done:  E(RHF) =  -302.006804118     A.U. after    2 cycles

 The electronic state is 1-A.
 Alpha  occ. eigenvalues --  -20.49972 -15.66841 -15.57675 -11.37057 -11.35269
 Alpha  occ. eigenvalues --  -11.23617  -1.30831  -1.17706  -1.11401  -0.97284
 Alpha  occ. eigenvalues --   -0.90724  -0.72169  -0.69954  -0.66341  -0.63747
 Alpha  occ. eigenvalues --   -0.62708  -0.60534  -0.57170  -0.53456  -0.50387
 Alpha  occ. eigenvalues --   -0.49011  -0.42985  -0.35677  -0.33181
 Alpha virt. eigenvalues --    0.01546   0.03258   0.03963   0.04703   0.06670
 Alpha virt. eigenvalues --    0.06905   0.07558   0.07947   0.09086   0.11308
 Alpha virt. eigenvalues --    0.12542   0.13536   0.14270   0.14332   0.15228

 Mulliken charges:
               1
     1  C    0.665415
     2  N   -0.500884
     3  C    0.807349
     4  C    0.428586
     5  O   -0.534059
     6  N   -0.413922
     7  H   -0.176290
     8  H   -0.162742
     9  H   -0.116227
    10  H   -0.137423
    11  H   -0.019417
    12  H   -0.027604
    13  H    0.094992
    14  H    0.092228
 Sum of Mulliken charges =  -0.00000

 Dipole moment (field-independent basis, Debye):
    X=             -5.9918    Y=             -3.3727    Z=             -0.1594  Tot=              6.8776

 Test job not archived.
 1\1\GINC-SE095\SP\RHF\Aug-CC-pVDZ\C3H8N2O1\OHZDE\09-Apr-2025\0\\#t hf
 aug-cc-pvdz iop(5/13=1,5/36=2,99/5=2) pseudo=read geom=check guess=(re
 ad,tcheck) scf=(maxcycle=1)\\title\\0,1\C,0,-1.54022005,-1.2909143,0.3
 4943825\N,0,-0.45398874,-0.35672938,0.15784008\C,0,-0.05732301,1.71443
 55,-0.27183968\C,0,0.78936597,-0.7980037,0.08938314\O,0,1.32902054,-1.
 90206367,0.23500525\N,0,1.59216564,0.428862,-0.23389443\H,0,-1.1307076
 6,-2.28812506,0.58903838\H,0,-2.19880467,-0.97582257,1.17456617\H,0,-2
 .15822659,-1.38908818,-0.56018087\H,0,0.6292721,2.36780884,-0.81168848

 Normal termination of Gaussian 16 at Wed Apr  9 03:15:42 2025.
