 Gaussian 16, Revision C.01,

 ----------------------------------------------------------------------
 #t hf aug-cc-pvdz symm=none int=(grid=ultrafine) guess=(read,tcheck) s
 table=(opt,rrhf)
 ----------------------------------------------------------------------
 -----
 title
 -----
 Symbolic Z-matrix:
 Charge =  0 Multiplicity = 1

 SCF Done:  E(RHF) =  -321.544883174     A.U. after   14 cycles
 Normal termination of Gaussian 16 at Wed Apr  9 04:05:29 2025.
 Gaussian 16:  ES64L-G16RevC.01  3-Jul-2019

 ----------------------------------------------------------------------
 #t hf aug-cc-pvdz iop(5/13=1,5/36=2,99/5=2) pseudo=read geom=check gue
 ss=(read,tcheck) scf=(maxcycle=1)
 ----------------------------------------------------------------------
 -----
 title
 -----
 Structure from the checkpoint file:  "Grambow2020_wb97xd3_009374_reverse_mol2.chk"
 Charge =  0 Multiplicity = 1

                         Standard orientation:
 ---------------------------------------------------------------------
 Center     Atomic      Atomic             Coordinates (Angstroms)
 Number     Number       Type             X           Y           Z
 ---------------------------------------------------------------------
      1          8           0       -0.953164    1.482352   -0.717480
      2          6           0       -0.611431    0.608392    0.014596
      3          6           0        0.592223    0.623077    0.914838
      4          6           0        1.736750   -0.203032    0.385536
      5          6           0        1.848395   -0.681376   -0.841945
      6          6           0       -1.965097   -1.589401    0.167216
      7          7           0       -1.359454   -0.592865    0.086601
      8          1           0        0.901296    1.664014    1.028330
      9          1           0        0.296894    0.247055    1.897754
     10          1           0        2.528578   -0.387263    1.104749
     11          1           0        1.091463   -0.524042   -1.603204
     12          1           0        2.718222   -1.254481   -1.135436
 ---------------------------------------------------------------------

 SCF Done:  E(RHF) =  -321.645227517     A.U. after    2 cycles

 The electronic state is 1-A.
 Alpha  occ. eigenvalues --  -20.60874 -15.68283 -11.42928 -11.32527 -11.28583
 Alpha  occ. eigenvalues --  -11.27507 -11.25728  -1.42066  -1.25816  -1.11259
 Alpha  occ. eigenvalues --   -1.01427  -0.93884  -0.80820  -0.73415  -0.70080
 Alpha  occ. eigenvalues --   -0.67963  -0.62351  -0.62101  -0.58381  -0.53935
 Alpha  occ. eigenvalues --   -0.51683  -0.51633  -0.50939  -0.48370  -0.39560
 Alpha virt. eigenvalues --    0.02764   0.03924   0.05033   0.05206   0.06331
 Alpha virt. eigenvalues --    0.07190   0.08351   0.09103   0.09470   0.10659
 Alpha virt. eigenvalues --    0.11393   0.12462   0.13997   0.14254   0.14374

 Mulliken charges:
               1
     1  O   -0.414408
     2  C    0.770229
     3  C    0.105616
     4  C    0.488753
     5  C    0.411383
     6  C   -0.363416
     7  N   -0.166024
     8  H    0.054109
     9  H    0.049859
    10  H   -0.375614
    11  H   -0.263242
    12  H   -0.297245
 Sum of Mulliken charges =  -0.00000

 Dipole moment (field-independent basis, Debye):
    X=              3.0157    Y=              0.0516    Z=              1.9877  Tot=              3.6122

 Test job not archived.
 1\1\GINC-SE331\SP\RHF\Aug-CC-pVDZ\C5H5N1O1\OHZDE\09-Apr-2025\0\\#t hf
 aug-cc-pvdz iop(5/13=1,5/36=2,99/5=2) pseudo=read geom=check guess=(re
 ad,tcheck) scf=(maxcycle=1)\\title\\0,1\O,0,-1.33156816,0.32227172,1.8
 1629159\C,0,-0.39158454,0.55994032,1.12602553\C,0,-0.42820991,0.910653
 88,-0.3351701\C,0,-0.02282407,-0.23400512,-1.22846537\C,0,0.09271736,-
 1.50025895,-0.86619535\C,0,2.00563954,0.49233613,2.09284743\N,0,0.9174
 753,0.51599341,1.66655611\H,0,-1.4467411,1.2268925,-0.56871825\H,0,0.2
 3899751,1.75926223,-0.50673085\H,0,0.16847345,0.04625181,-2.25951413\H

 Normal termination of Gaussian 16 at Wed Apr  9 04:05:33 2025.
