 Gaussian 16, Revision C.01,

 ----------------------------------------------------------------------
 #t hf aug-cc-pvdz symm=none int=(grid=ultrafine) guess=(read,tcheck) s
 table=(opt,rrhf)
 ----------------------------------------------------------------------
 -----
 title
 -----
 Symbolic Z-matrix:
 Charge =  0 Multiplicity = 1

 SCF Done:  E(RHF) =  -302.179125559     A.U. after   16 cycles
 Normal termination of Gaussian 16 at Wed Apr  9 03:09:09 2025.
 Gaussian 16:  ES64L-G16RevC.01  3-Jul-2019

 ----------------------------------------------------------------------
 #t hf aug-cc-pvdz iop(5/13=1,5/36=2,99/5=2) pseudo=read geom=check gue
 ss=(read,tcheck) scf=(maxcycle=1)
 ----------------------------------------------------------------------
 -----
 title
 -----
 Structure from the checkpoint file:  "Grambow2020_b97d3_006716_reverse_mol2.chk"
 Charge =  0 Multiplicity = 1

                         Standard orientation:
 ---------------------------------------------------------------------
 Center     Atomic      Atomic             Coordinates (Angstroms)
 Number     Number       Type             X           Y           Z
 ---------------------------------------------------------------------
      1          8           0       -2.857023   -0.395515    0.067851
      2          6           0       -1.969666    0.438573   -0.029637
      3          6           0       -0.555460    0.118013   -0.034290
      4          6           0        0.645591   -0.091785   -0.035012
      5          6           0        2.876973    0.477485    0.097905
      6          8           0        1.909457   -0.478537   -0.055041
      7          1           0       -2.184285    1.525859   -0.123492
      8          1           0        3.780183   -0.187152    0.027229
 ---------------------------------------------------------------------

 SCF Done:  E(RHF) =  -302.273994372     A.U. after    2 cycles

 The electronic state is 1-A.
 Alpha  occ. eigenvalues --  -20.72204 -20.59680 -11.38774 -11.37961 -11.36289
 Alpha  occ. eigenvalues --  -11.28414  -1.48158  -1.37148  -1.08401  -0.99253
 Alpha  occ. eigenvalues --   -0.90306  -0.76937  -0.73396  -0.70116  -0.70069
 Alpha  occ. eigenvalues --   -0.67852  -0.57160  -0.48145  -0.44348  -0.42687
 Alpha  occ. eigenvalues --   -0.42213
 Alpha virt. eigenvalues --    0.02444   0.03087   0.04094   0.06593   0.07368
 Alpha virt. eigenvalues --    0.08882   0.09605   0.10008   0.11835   0.13509
 Alpha virt. eigenvalues --    0.14086   0.14246   0.15238   0.15956   0.17712

 Mulliken charges:
               1
     1  O   -0.463693
     2  C    0.528807
     3  C    0.251314
     4  C   -0.044582
     5  C    0.291158
     6  O   -0.439427
     7  H   -0.031244
     8  H   -0.092333
 Sum of Mulliken charges =  -0.00000

 Dipole moment (field-independent basis, Debye):
    X=              3.4452    Y=              1.2023    Z=             -0.3386  Tot=              3.6646

 Test job not archived.
 1\1\GINC-SE123\SP\RHF\Aug-CC-pVDZ\C4H2O2\OHZDE\09-Apr-2025\0\\#t hf au
 g-cc-pvdz iop(5/13=1,5/36=2,99/5=2) pseudo=read geom=check guess=(read
 ,tcheck) scf=(maxcycle=1)\\title\\0,1\O,0,-2.92392806,-0.93978039,0.17
 181176\C,0,-1.8649142,-1.02816079,-0.4309226\C,0,-0.66042074,-0.311557
 68,-0.05885521\C,0,0.37797259,0.27169351,0.20209488\C,0,2.51742047,1.0
 3348628,-0.20192965\O,0,1.43302219,0.94430188,0.62848106\H,0,-1.743568
 08,-1.67645116,-1.32649829\H,0,3.18692283,1.64283535,0.46364306\\Versi
 on=ES64L-G16RevC.01\State=1-A\HF=-302.2739944\RMSD=8.137e-03\Dipole=1.

 Normal termination of Gaussian 16 at Wed Apr  9 03:09:11 2025.
