 Gaussian 16, Revision C.01,

 ----------------------------------------------------------------------
 #t hf aug-cc-pvdz symm=none int=(grid=ultrafine) guess=(read,tcheck) s
 table=(opt,rrhf)
 ----------------------------------------------------------------------
 -----
 title
 -----
 Symbolic Z-matrix:
 Charge =  0 Multiplicity = 1

 SCF Done:  E(RHF) =  -284.865208856     A.U. after   13 cycles
 Normal termination of Gaussian 16 at Wed Apr  9 03:05:26 2025.
 Gaussian 16:  ES64L-G16RevC.01  3-Jul-2019

 ----------------------------------------------------------------------
 #t hf aug-cc-pvdz iop(5/13=1,5/36=2,99/5=2) pseudo=read geom=check gue
 ss=(read,tcheck) scf=(maxcycle=1)
 ----------------------------------------------------------------------
 -----
 title
 -----
 Structure from the checkpoint file:  "Grambow2020_b97d3_006537_reverse_mol2.chk"
 Charge =  0 Multiplicity = 1

                         Standard orientation:
 ---------------------------------------------------------------------
 Center     Atomic      Atomic             Coordinates (Angstroms)
 Number     Number       Type             X           Y           Z
 ---------------------------------------------------------------------
      1          6           0       -1.435443    0.134640   -0.134628
      2          6           0       -0.688583   -1.133494    0.289811
      3          8           0        0.584957   -1.169789   -0.352465
      4          6           0        1.393551   -0.070107    0.057392
      5          7           0        0.780193    1.242292    0.085148
      6          6           0       -0.492684    1.314806   -0.024645
      7          1           0       -1.789161    0.044574   -1.174596
      8          1           0       -2.325649    0.304877    0.491422
      9          1           0       -0.569570   -1.145632    1.389679
     10          1           0       -1.216639   -2.045976   -0.011672
     11          1           0        1.806038   -0.246846    1.070168
     12          1           0        2.229146   -0.043298   -0.654217
     13          1           0       -0.936212    2.319493   -0.014686
 ---------------------------------------------------------------------

 SCF Done:  E(RHF) =  -284.951752224     A.U. after    2 cycles

 The electronic state is 1-A.
 Alpha  occ. eigenvalues --  -20.57846 -15.62967 -11.31624 -11.29944 -11.29784
 Alpha  occ. eigenvalues --  -11.25595  -1.34684  -1.19097  -1.05135  -0.91689
 Alpha  occ. eigenvalues --   -0.88914  -0.74322  -0.69960  -0.67177  -0.64732
 Alpha  occ. eigenvalues --   -0.61006  -0.58046  -0.56786  -0.54559  -0.50540
 Alpha  occ. eigenvalues --   -0.45559  -0.40932  -0.39640
 Alpha virt. eigenvalues --    0.03184   0.04247   0.04624   0.04917   0.06541
 Alpha virt. eigenvalues --    0.06868   0.07436   0.10284   0.10779   0.12620
 Alpha virt. eigenvalues --    0.13261   0.13793   0.14257   0.14915   0.15474

 Mulliken charges:
               1
     1  C    0.016281
     2  C    0.674746
     3  O   -0.705790
     4  C    0.990140
     5  N   -0.500884
     6  C    0.365736
     7  H   -0.000606
     8  H    0.019557
     9  H   -0.068450
    10  H   -0.194384
    11  H   -0.096250
    12  H   -0.228499
    13  H   -0.271596
 Sum of Mulliken charges =  -0.00000

 Dipole moment (field-independent basis, Debye):
    X=             -2.3310    Y=             -0.2578    Z=              0.7739  Tot=              2.4696

 Test job not archived.
 1\1\GINC-SE336\SP\RHF\Aug-CC-pVDZ\C4H7N1O1\OHZDE\09-Apr-2025\0\\#t hf
 aug-cc-pvdz iop(5/13=1,5/36=2,99/5=2) pseudo=read geom=check guess=(re
 ad,tcheck) scf=(maxcycle=1)\\title\\0,1\C,0,0.69713236,-1.02576971,0.1
 5575084\C,0,-0.82763509,-0.88183303,0.13387674\O,0,-1.19599805,0.34536
 443,0.76159823\C,0,-0.67593701,1.46100055,0.04326652\N,0,0.70884729,1.
 40282683,-0.37905769\C,0,1.31599076,0.27913031,-0.3002441\H,0,1.048144
 6,-1.26119815,1.17365305\H,0,1.0321513,-1.84863352,-0.49543586\H,0,-1.
 18963301,-0.90766633,-0.9112602\H,0,-1.32746945,-1.68137601,0.69356902

 Normal termination of Gaussian 16 at Wed Apr  9 03:05:30 2025.
