 Gaussian 16, Revision C.01,

 ----------------------------------------------------------------------
 #t hf aug-cc-pvdz symm=none int=(grid=ultrafine) guess=(read,tcheck) s
 table=(opt,rrhf)
 ----------------------------------------------------------------------
 -----
 title
 -----
 Symbolic Z-matrix:
 Charge =  0 Multiplicity = 1

 SCF Done:  E(RHF) =  -338.594224993     A.U. after   16 cycles
 Normal termination of Gaussian 16 at Wed Apr  9 03:59:36 2025.
 Gaussian 16:  ES64L-G16RevC.01  3-Jul-2019

 ----------------------------------------------------------------------
 #t hf aug-cc-pvdz iop(5/13=1,5/36=2,99/5=2) pseudo=read geom=check gue
 ss=(read,tcheck) scf=(maxcycle=1)
 ----------------------------------------------------------------------
 -----
 title
 -----
 Structure from the checkpoint file:  "Grambow2020_wb97xd3_008825_reverse_mol2.chk"
 Charge =  0 Multiplicity = 1

                         Standard orientation:
 ---------------------------------------------------------------------
 Center     Atomic      Atomic             Coordinates (Angstroms)
 Number     Number       Type             X           Y           Z
 ---------------------------------------------------------------------
      1          6           0        3.025474   -0.757866   -0.021468
      2          6           0        1.567096   -0.517164    0.183650
      3          6           0       -2.104514   -0.135814    0.475006
      4          6           0       -0.999664    0.489557    0.178208
      5          8           0       -2.943261   -0.630389   -0.487381
      6          7           0       -0.060638    1.242275   -0.074754
      7          7           0        1.233529    0.684680   -0.158491
      8          1           0        3.604898    0.092089   -0.415762
      9          1           0        3.138925   -1.608330   -0.697956
     10          1           0        3.461415   -1.077327    0.927692
     11          1           0       -2.383330   -0.248160    1.517521
     12          1           0       -3.290857   -1.473366   -0.190343
     13          1           0        1.874450    1.397247   -0.501763
 ---------------------------------------------------------------------

 SCF Done:  E(RHF) =  -338.698769785     A.U. after    2 cycles

 The electronic state is 1-A.
 Alpha  occ. eigenvalues --  -20.61022 -15.71090 -15.68944 -11.31866 -11.30878
 Alpha  occ. eigenvalues --  -11.26134 -11.23787  -1.36883  -1.31220  -1.15455
 Alpha  occ. eigenvalues --   -1.01897  -0.97207  -0.85554  -0.75861  -0.74683
 Alpha  occ. eigenvalues --   -0.71575  -0.62930  -0.62182  -0.59779  -0.56254
 Alpha  occ. eigenvalues --   -0.55371  -0.54585  -0.52364  -0.40656  -0.35426
 Alpha  occ. eigenvalues --   -0.34517
 Alpha virt. eigenvalues --    0.03225   0.03607   0.04946   0.05039   0.06566
 Alpha virt. eigenvalues --    0.07164   0.09338   0.10141   0.10476   0.11396
 Alpha virt. eigenvalues --    0.12344   0.12771   0.13233   0.15179   0.15862

 Mulliken charges:
               1
     1  C    0.472900
     2  C   -0.500039
     3  C    1.249679
     4  C   -0.392021
     5  O   -0.564066
     6  N   -0.249296
     7  N    0.209368
     8  H   -0.160980
     9  H   -0.002501
    10  H   -0.009505
    11  H   -0.205510
    12  H    0.171985
    13  H   -0.020013
 Sum of Mulliken charges =  -0.00000

 Dipole moment (field-independent basis, Debye):
    X=              0.8733    Y=             -0.6661    Z=              0.7761  Tot=              1.3448

 Test job not archived.
 1\1\GINC-SE424\SP\RHF\Aug-CC-pVDZ\C4H6N2O1\OHZDE\09-Apr-2025\0\\#t hf
 aug-cc-pvdz iop(5/13=1,5/36=2,99/5=2) pseudo=read geom=check guess=(re
 ad,tcheck) scf=(maxcycle=1)\\title\\0,1\C,0,-2.53778127,-0.18594125,0.
 60071217\C,0,-1.13828594,-0.11216529,0.08802487\C,0,2.38557675,-0.2029
 0064,-1.04563713\C,0,1.52427388,0.46734961,-0.33234017\O,0,3.2860787,-
 1.06530197,-0.48026057\N,0,0.83869715,1.24658457,0.32729607\N,0,-0.495
 97938,0.88259429,0.60826489\H,0,-2.82982196,0.59331941,1.32257565\H,0,
 -2.68128172,-1.16663972,1.06053075\H,0,-3.22130172,-0.15789392,-0.2507

 Normal termination of Gaussian 16 at Wed Apr  9 03:59:40 2025.
