 Gaussian 16, Revision C.01,

 ----------------------------------------------------------------------
 #t hf aug-cc-pvdz symm=none int=(grid=ultrafine) guess=(read,tcheck) s
 table=(opt,rrhf)
 ----------------------------------------------------------------------
 -----
 title
 -----
 Symbolic Z-matrix:
 Charge =  0 Multiplicity = 1

 SCF Done:  E(RHF) =  -281.215671402     A.U. after   16 cycles
 Normal termination of Gaussian 16 at Wed Apr  9 03:03:34 2025.
 Gaussian 16:  ES64L-G16RevC.01  3-Jul-2019

 ----------------------------------------------------------------------
 #t hf aug-cc-pvdz iop(5/13=1,5/36=2,99/5=2) pseudo=read geom=check gue
 ss=(read,tcheck) scf=(maxcycle=1)
 ----------------------------------------------------------------------
 -----
 title
 -----
 Structure from the checkpoint file:  "Grambow2020_b97d3_006505_reverse_mol1.chk"
 Charge =  0 Multiplicity = 1

                         Standard orientation:
 ---------------------------------------------------------------------
 Center     Atomic      Atomic             Coordinates (Angstroms)
 Number     Number       Type             X           Y           Z
 ---------------------------------------------------------------------
      1          8           0       -0.002428    1.708450    0.000451
      2          6           0        0.002745    0.485553   -0.000768
      3          6           0        1.208776   -0.324593   -0.001507
      4          6           0        2.234878   -1.090680    0.000657
      5          6           0       -1.236196   -0.308729   -0.000276
      6          7           0       -2.239223   -0.913884    0.000574
      7          1           0        2.432772    0.160283    0.003735
 ---------------------------------------------------------------------

 SCF Done:  E(RHF) =  -281.296284149     A.U. after    2 cycles

 The electronic state is 1-A.
 Alpha  occ. eigenvalues --  -20.65709 -15.71740 -11.47509 -11.34919 -11.34820
 Alpha  occ. eigenvalues --  -11.34444  -1.43765  -1.24170  -1.16419  -1.02774
 Alpha  occ. eigenvalues --   -0.85878  -0.74958  -0.65301  -0.62193  -0.60313
 Alpha  occ. eigenvalues --   -0.56311  -0.52224  -0.51559  -0.50350  -0.47475
 Alpha virt. eigenvalues --   -0.01190   0.03121   0.06012   0.06896   0.07503
 Alpha virt. eigenvalues --    0.08628   0.09127   0.11281   0.11374   0.12367
 Alpha virt. eigenvalues --    0.12633   0.13436   0.14637   0.15160   0.15595

 Mulliken charges:
               1
     1  O   -0.439380
     2  C    0.872638
     3  C    0.124940
     4  C   -0.359326
     5  C   -0.183493
     6  N   -0.125626
     7  H    0.110247
 Sum of Mulliken charges =  -0.00000

 Dipole moment (field-independent basis, Debye):
    X=              1.3817    Y=              0.3612    Z=             -0.0012  Tot=              1.4281

 Test job not archived.
 1\1\GINC-SE284\SP\RHF\Aug-CC-pVDZ\C4H1N1O1\OHZDE\09-Apr-2025\0\\#t hf
 aug-cc-pvdz iop(5/13=1,5/36=2,99/5=2) pseudo=read geom=check guess=(re
 ad,tcheck) scf=(maxcycle=1)\\title\\0,1\O,0,-0.50632525,-1.7047562,0.2
 5784213\C,0,-0.39919346,-0.49734987,0.09598427\C,0,0.86629923,0.190601
 12,-0.09401643\C,0,1.94916696,0.8514187,-0.26865171\C,0,-1.56366748,0.
 40232746,0.07502347\N,0,-2.50960081,1.09322123,0.06264816\H,0,2.041249
 81,-0.40283944,-0.1188639\\Version=ES64L-G16RevC.01\State=1-A\HF=-281.
 2962841\RMSD=5.710e-03\Dipole=0.5281489,-0.1908832,-0.0180202\Quadrupo

 Normal termination of Gaussian 16 at Wed Apr  9 03:03:36 2025.
