 Gaussian 16, Revision C.01,

 ----------------------------------------------------------------------
 #t hf aug-cc-pvdz symm=none int=(grid=ultrafine) guess=(read,tcheck) s
 table=(opt,rrhf)
 ----------------------------------------------------------------------
 -----
 title
 -----
 Symbolic Z-matrix:
 Charge =  0 Multiplicity = 1

 SCF Done:  E(RHF) =  -318.838555893     A.U. after   15 cycles
 Normal termination of Gaussian 16 at Wed Apr  9 15:29:57 2025.
 Gaussian 16:  ES64L-G16RevC.01  3-Jul-2019

 ----------------------------------------------------------------------
 #t hf aug-cc-pvdz iop(5/13=1,5/36=2,99/5=2) pseudo=read geom=check gue
 ss=(read,tcheck) scf=(maxcycle=1)
 ----------------------------------------------------------------------
 -----
 title
 -----
 Structure from the checkpoint file:  "Grambow2020_wb97xd3_006933_reverse_mol1.chk"
 Charge =  0 Multiplicity = 1

                         Standard orientation:
 ---------------------------------------------------------------------
 Center     Atomic      Atomic             Coordinates (Angstroms)
 Number     Number       Type             X           Y           Z
 ---------------------------------------------------------------------
      1          7           0       -2.433048   -0.511777    0.109790
      2          6           0       -1.107715   -0.126194   -0.030165
      3          6           0        0.014802   -0.951658   -0.033499
      4          6           0        1.136247   -0.122016   -0.013828
      5          7           0        2.461411   -0.524927   -0.065072
      6          6           0        0.675655    1.198343   -0.003383
      7          7           0       -0.797932    1.179177   -0.078334
      8          1           0       -3.080303    0.179084   -0.234310
      9          1           0       -2.638898   -1.433265   -0.237673
     10          1           0        0.015074   -2.032401   -0.005792
     11          1           0        2.642665   -1.434198    0.325102
     12          1           0        3.124306    0.159885    0.255434
     13          1           0        1.185343    2.095201   -0.318892
     14          1           0       -0.175142    1.477537    0.936686
 ---------------------------------------------------------------------

 SCF Done:  E(RHF) =  -318.931888572     A.U. after    2 cycles

 The electronic state is 1-A.
 Alpha  occ. eigenvalues --  -15.63443 -15.62683 -15.62387 -11.30430 -11.28745
 Alpha  occ. eigenvalues --  -11.25216 -11.21864  -1.26680  -1.18694  -1.14992
 Alpha  occ. eigenvalues --   -1.00778  -0.94099  -0.78537  -0.77107  -0.70921
 Alpha  occ. eigenvalues --   -0.67278  -0.66756  -0.64449  -0.58166  -0.55831
 Alpha  occ. eigenvalues --   -0.53958  -0.49513  -0.46310  -0.43982  -0.33211
 Alpha  occ. eigenvalues --   -0.27963
 Alpha virt. eigenvalues --    0.02967   0.03455   0.04283   0.05722   0.05928
 Alpha virt. eigenvalues --    0.06835   0.08919   0.11077   0.12207   0.12682
 Alpha virt. eigenvalues --    0.13016   0.13844   0.14359   0.15273   0.15693

 Mulliken charges:
               1
     1  N   -0.306502
     2  C    0.358710
     3  C    1.100260
     4  C   -0.051777
     5  N   -0.355097
     6  C    0.633560
     7  N   -0.936119
     8  H   -0.013022
     9  H   -0.011073
    10  H   -0.471506
    11  H   -0.032739
    12  H   -0.034715
    13  H   -0.282782
    14  H    0.402804
 Sum of Mulliken charges =  -0.00000

 Dipole moment (field-independent basis, Debye):
    X=              1.0309    Y=             -1.5395    Z=              0.5594  Tot=              1.9354

 Test job not archived.
 1\1\GINC-SE226\SP\RHF\Aug-CC-pVDZ\C4H7N3\OHZDE\09-Apr-2025\0\\#t hf au
 g-cc-pvdz iop(5/13=1,5/36=2,99/5=2) pseudo=read geom=check guess=(read
 ,tcheck) scf=(maxcycle=1)\\title\\0,1\N,0,-2.47745212,-0.53864393,0.04
 388161\C,0,-1.16361518,-0.11409165,-0.09161379\C,0,-0.01314926,-0.8972
 3631,-0.02409875\C,0,1.07791366,-0.02782584,-0.03032095\N,0,2.41715546
 ,-0.38483041,-0.03122174\C,0,0.57135677,1.27341629,-0.10630425\N,0,-0.
 89863104,1.19667835,-0.20969534\H,0,-3.14064001,0.1073666,-0.3529619\H
 ,0,-2.64321167,-1.48547401,-0.25324106\H,0,0.0242622,-1.97386587,0.066

 Normal termination of Gaussian 16 at Wed Apr  9 15:30:02 2025.
