 Gaussian 16, Revision C.01,

 ----------------------------------------------------------------------
 #t hf aug-cc-pvdz symm=none int=(grid=ultrafine) guess=(read,tcheck) s
 table=(opt,rrhf)
 ----------------------------------------------------------------------
 -----
 title
 -----
 Symbolic Z-matrix:
 Charge =  0 Multiplicity = 1

 SCF Done:  E(RHF) =  -322.559377055     A.U. after   16 cycles
 Normal termination of Gaussian 16 at Wed Apr  9 14:50:50 2025.
 Gaussian 16:  ES64L-G16RevC.01  3-Jul-2019

 ----------------------------------------------------------------------
 #t hf aug-cc-pvdz iop(5/13=1,5/36=2,99/5=2) pseudo=read geom=check gue
 ss=(read,tcheck) scf=(maxcycle=1)
 ----------------------------------------------------------------------
 -----
 title
 -----
 Structure from the checkpoint file:  "Grambow2020_wb97xd3_006626_forward_mol1.chk"
 Charge =  0 Multiplicity = 1

                         Standard orientation:
 ---------------------------------------------------------------------
 Center     Atomic      Atomic             Coordinates (Angstroms)
 Number     Number       Type             X           Y           Z
 ---------------------------------------------------------------------
      1          8           0       -1.834133   -0.887036   -0.135251
      2          6           0       -1.589572    0.236303    0.211460
      3          6           0       -0.359460    1.026576   -0.074305
      4          6           0        0.886459    0.868185    0.760725
      5          6           0        1.105380   -0.653861    0.892747
      6          6           0        1.047993   -0.852815   -0.618677
      7          7           0        0.683366    0.566809   -0.980386
      8          1           0       -2.316318    0.806426    0.825378
      9          1           0       -0.614648    2.064764   -0.276187
     10          1           0        1.538884    1.181220   -0.363291
     11          1           0        0.327430   -1.168070    1.459659
     12          1           0        2.068814   -0.890829    1.338126
     13          1           0        0.317742   -1.553593   -1.013638
     14          1           0        2.022799   -1.057624   -1.057041
 ---------------------------------------------------------------------

 SCF Done:  E(RHF) =  -322.652074090     A.U. after    2 cycles

 The electronic state is 1-A.
 Alpha  occ. eigenvalues --  -20.59109 -15.68624 -11.36419 -11.29886 -11.28332
 Alpha  occ. eigenvalues --  -11.28058 -11.24681  -1.38402  -1.28888  -1.03444
 Alpha  occ. eigenvalues --   -0.97781  -0.91539  -0.79083  -0.75589  -0.73036
 Alpha  occ. eigenvalues --   -0.67483  -0.66344  -0.61128  -0.57639  -0.57335
 Alpha  occ. eigenvalues --   -0.56772  -0.53348  -0.49404  -0.45071  -0.40782
 Alpha  occ. eigenvalues --   -0.34747
 Alpha virt. eigenvalues --    0.03371   0.03745   0.04509   0.05185   0.06284
 Alpha virt. eigenvalues --    0.07085   0.07925   0.08120   0.10298   0.10576
 Alpha virt. eigenvalues --    0.11558   0.12512   0.13163   0.14070   0.15062

 Mulliken charges:
               1
     1  O   -0.475060
     2  C    0.478886
     3  C    0.911457
     4  C   -0.702473
     5  C    0.610896
     6  C    0.873583
     7  N   -1.015825
     8  H   -0.151235
     9  H   -0.288891
    10  H    0.463765
    11  H   -0.143888
    12  H   -0.152896
    13  H   -0.220081
    14  H   -0.188239
 Sum of Mulliken charges =   0.00000

 Dipole moment (field-independent basis, Debye):
    X=              0.4140    Y=              0.5470    Z=              0.3747  Tot=              0.7817

 Test job not archived.
 1\1\GINC-SE113\SP\RHF\Aug-CC-pVDZ\C5H7N1O1\OHZDE\09-Apr-2025\0\\#t hf
 aug-cc-pvdz iop(5/13=1,5/36=2,99/5=2) pseudo=read geom=check guess=(re
 ad,tcheck) scf=(maxcycle=1)\\title\\0,1\O,0,0.9043408,1.15612991,1.693
 26737\C,0,1.26440828,1.20913047,0.54895401\C,0,0.46867751,0.88655716,-
 0.66847246\C,0,0.30968687,-0.53448086,-1.14810828\C,0,-0.05570094,-1.3
 5614039,0.10622409\C,0,-1.2151203,-0.42616687,0.44998941\N,0,-0.958095
 64,0.59930511,-0.62772356\H,0,2.29990021,1.5177229,0.29870989\H,0,0.69
 734731,1.58873616,-1.46745037\H,0,-0.87607515,-0.12311417,-1.60833581\

 Normal termination of Gaussian 16 at Wed Apr  9 14:50:55 2025.
