 Gaussian 16, Revision C.01,

 ----------------------------------------------------------------------
 #t hf aug-cc-pvdz symm=none int=(grid=ultrafine) guess=(read,tcheck) s
 table=(opt,rrhf)
 ----------------------------------------------------------------------
 -----
 title
 -----
 Symbolic Z-matrix:
 Charge =  0 Multiplicity = 1

 SCF Done:  E(RHF) =  -302.863602839     A.U. after   14 cycles
 Normal termination of Gaussian 16 at Wed Apr  9 03:59:42 2025.
 Gaussian 16:  ES64L-G16RevC.01  3-Jul-2019

 ----------------------------------------------------------------------
 #t hf aug-cc-pvdz iop(5/13=1,5/36=2,99/5=2) pseudo=read geom=check gue
 ss=(read,tcheck) scf=(maxcycle=1)
 ----------------------------------------------------------------------
 -----
 title
 -----
 Structure from the checkpoint file:  "Grambow2020_wb97xd3_008852_reverse_mol2.chk"
 Charge =  0 Multiplicity = 1

                         Standard orientation:
 ---------------------------------------------------------------------
 Center     Atomic      Atomic             Coordinates (Angstroms)
 Number     Number       Type             X           Y           Z
 ---------------------------------------------------------------------
      1          6           0       -3.249026   -0.350876    0.001046
      2          6           0       -1.764711   -0.502716   -0.004988
      3          6           0        1.033869   -0.506588    0.001822
      4          6           0        2.477140   -0.284222    0.000451
      5          7           0        3.608328   -0.094113   -0.000510
      6          6           0        0.294702    0.824719   -0.000915
      7          7           0       -1.153131    0.641976   -0.000071
      8          1           0       -3.659416   -0.875200   -0.865001
      9          1           0       -3.648725   -0.870877    0.874840
     10          1           0       -3.622359    0.687002    0.001076
     11          1           0        0.755440   -1.101596   -0.868117
     12          1           0        0.756269   -1.097061    0.875192
     13          1           0        0.576207    1.406593   -0.882256
     14          1           0        0.575662    1.410024    0.878300
     15          1           0       -1.671291    1.524172    0.005538
 ---------------------------------------------------------------------

 SCF Done:  E(RHF) =  -302.955130255     A.U. after    2 cycles

 The electronic state is 1-A.
 Alpha  occ. eigenvalues --  -15.68818 -15.63601 -11.30698 -11.29068 -11.28581
 Alpha  occ. eigenvalues --  -11.26386 -11.23974  -1.25494  -1.19659  -1.08014
 Alpha  occ. eigenvalues --   -0.99762  -0.91078  -0.80402  -0.72658  -0.68643
 Alpha  occ. eigenvalues --   -0.65462  -0.61867  -0.59056  -0.57542  -0.56716
 Alpha  occ. eigenvalues --   -0.54556  -0.53348  -0.46255  -0.45893  -0.45302
 Alpha  occ. eigenvalues --   -0.34910
 Alpha virt. eigenvalues --    0.02580   0.03740   0.04057   0.04362   0.06482
 Alpha virt. eigenvalues --    0.06711   0.07388   0.07425   0.09462   0.10982
 Alpha virt. eigenvalues --    0.11489   0.12235   0.13776   0.13790   0.13823

 Mulliken charges:
               1
     1  C    0.732452
     2  C   -0.740476
     3  C    0.593888
     4  C   -0.492003
     5  N   -0.143828
     6  C    0.884920
     7  N   -0.119385
     8  H   -0.021309
     9  H   -0.019142
    10  H   -0.200069
    11  H    0.009471
    12  H    0.008845
    13  H   -0.191273
    14  H   -0.192938
    15  H   -0.109154
 Sum of Mulliken charges =  -0.00000

 Dipole moment (field-independent basis, Debye):
    X=             -4.4214    Y=              2.1627    Z=              0.0211  Tot=              4.9221

 Test job not archived.
 1\1\GINC-SE457\SP\RHF\Aug-CC-pVDZ\C5H8N2\OHZDE\09-Apr-2025\0\\#t hf au
 g-cc-pvdz iop(5/13=1,5/36=2,99/5=2) pseudo=read geom=check guess=(read
 ,tcheck) scf=(maxcycle=1)\\title\\0,1\C,0,-2.19979864,1.21599599,-0.98
 564411\C,0,-0.80505273,0.79175535,-0.66785987\C,0,1.69778997,-0.203371
 01,0.09214917\C,0,2.88855783,-0.8586586,0.62614264\N,0,3.81477083,-1.3
 8258248,1.05435054\C,0,0.44274037,-0.80186704,0.71295996\N,0,-0.769776
 78,-0.17027876,0.20255329\H,0,-2.29672984,2.28505176,-0.78292023\H,0,-
 2.36091319,1.10584526,-2.06062483\H,0,-2.99694729,0.67595197,-0.447616

 Normal termination of Gaussian 16 at Wed Apr  9 03:59:47 2025.
