 Gaussian 16, Revision C.01,

 ----------------------------------------------------------------------
 #t hf aug-cc-pvdz symm=none int=(grid=ultrafine) guess=(read,tcheck) s
 table=(opt,rrhf)
 ----------------------------------------------------------------------
 -----
 title
 -----
 Symbolic Z-matrix:
 Charge =  0 Multiplicity = 1

 SCF Done:  E(RHF) =  -305.839076526     A.U. after   15 cycles
 Normal termination of Gaussian 16 at Wed Apr  9 14:17:16 2025.
 Gaussian 16:  ES64L-G16RevC.01  3-Jul-2019

 ----------------------------------------------------------------------
 #t hf aug-cc-pvdz iop(5/13=1,5/36=2,99/5=2) pseudo=read geom=check gue
 ss=(read,tcheck) scf=(maxcycle=1)
 ----------------------------------------------------------------------
 -----
 title
 -----
 Structure from the checkpoint file:  "Grambow2020_b97d3_006960_reverse_mol2.chk"
 Charge =  0 Multiplicity = 1

                         Standard orientation:
 ---------------------------------------------------------------------
 Center     Atomic      Atomic             Coordinates (Angstroms)
 Number     Number       Type             X           Y           Z
 ---------------------------------------------------------------------
      1          8           0       -2.024692   -0.315889    0.465026
      2          6           0       -2.099125    0.603497   -0.331553
      3          6           0        1.188358    1.715087    0.256315
      4          6           0        1.330598    0.547606   -0.391328
      5          6           0        1.357336   -0.809030    0.269124
      6          8           0        0.379642   -1.692220   -0.271337
      7          1           0       -0.495829   -1.353388    0.021067
      8          1           0       -1.430886    0.682119   -1.213001
      9          1           0       -2.850438    1.414346   -0.207928
     10          1           0        1.176175    2.671475   -0.268877
     11          1           0        1.098360    1.751951    1.344649
     12          1           0        1.411267    0.533679   -1.482595
     13          1           0        1.259730   -0.688490    1.364314
     14          1           0        2.329023   -1.289782    0.077508
 ---------------------------------------------------------------------

 SCF Done:  E(RHF) =  -305.937178462     A.U. after    2 cycles

 The electronic state is 1-A.
 Alpha  occ. eigenvalues --  -20.60908 -20.55450 -11.37433 -11.28703 -11.25257
 Alpha  occ. eigenvalues --  -11.24659  -1.38268  -1.30120  -1.05236  -0.91191
 Alpha  occ. eigenvalues --   -0.88412  -0.77359  -0.72557  -0.69594  -0.67696
 Alpha  occ. eigenvalues --   -0.62158  -0.61379  -0.60176  -0.56673  -0.52964
 Alpha  occ. eigenvalues --   -0.49957  -0.46962  -0.45089  -0.37734
 Alpha virt. eigenvalues --    0.02863   0.04398   0.04509   0.05001   0.06150
 Alpha virt. eigenvalues --    0.06943   0.07446   0.08022   0.08222   0.11029
 Alpha virt. eigenvalues --    0.11530   0.12471   0.14377   0.14640   0.14992

 Mulliken charges:
               1
     1  O   -0.424480
     2  C    0.661455
     3  C    0.500632
     4  C    0.494955
     5  C    0.631035
     6  O   -0.536095
     7  H    0.192722
     8  H   -0.096499
     9  H   -0.150079
    10  H   -0.325414
    11  H   -0.310166
    12  H   -0.360117
    13  H   -0.179195
    14  H   -0.098753
 Sum of Mulliken charges =  -0.00000

 Dipole moment (field-independent basis, Debye):
    X=             -0.8888    Y=              3.8840    Z=             -1.0049  Tot=              4.1092

 Test job not archived.
 1\1\GINC-SE163\SP\RHF\Aug-CC-pVDZ\C4H8O2\OHZDE\09-Apr-2025\0\\#t hf au
 g-cc-pvdz iop(5/13=1,5/36=2,99/5=2) pseudo=read geom=check guess=(read
 ,tcheck) scf=(maxcycle=1)\\title\\0,1\O,0,1.83425605,1.26537457,0.6657
 5358\C,0,2.30001623,0.37049296,-0.01806161\C,0,-0.56436966,-1.65925128
 ,0.2353164\C,0,-0.94039039,-0.62867217,-0.53876368\C,0,-1.4684981,0.68
 891765,-0.02648189\O,0,-0.72187119,1.79771076,-0.51753541\H,0,0.157292
 37,1.75949344,-0.0789366\H,0,1.83152351,0.04293364,-0.96826969\H,0,3.2
 2752867,-0.16362271,0.28471052\H,0,-0.1890004,-2.59342716,-0.18547761\

 Normal termination of Gaussian 16 at Wed Apr  9 14:17:20 2025.
