 Gaussian 16, Revision C.01,

 ----------------------------------------------------------------------
 #t hf aug-cc-pvdz symm=none int=(grid=ultrafine) guess=(read,tcheck) s
 table=(opt,rrhf)
 ----------------------------------------------------------------------
 -----
 title
 -----
 Symbolic Z-matrix:
 Charge =  0 Multiplicity = 1

 SCF Done:  E(RHF) =  -308.929105463     A.U. after   15 cycles

 1\1\GINC-SE113\Stability\RHF\Aug-CC-pVDZ\C6H12O1\OHZDE\09-Apr-2025\0\\
 #t hf aug-cc-pvdz symm=none int=(grid=ultrafine) guess=(read,tcheck) s
 table=(opt,rrhf)\\title\\0,1\C,0,-1.6728712,-0.98205973,-0.61182025\C,
 0,-0.73167629,0.04652187,0.01340328\C,0,-1.48215651,1.03477078,0.90121
 659\C,0,0.32748631,-0.6695055,0.81820486\O,0,1.24347902,-1.47735107,0.
 14478854\C,0,2.13424992,-0.46533673,0.61771738\C,0,2.41842615,0.529477
 7,-0.47987465\H,0,-2.42612608,-0.48584702,-1.22678306\H,0,-1.12261957,
 -1.68281663,-1.24015238\H,0,-2.19574809,-1.5537988,0.15998907\H,0,-0.2

 Normal termination of Gaussian 16 at Wed Apr  9 16:01:27 2025.
 Gaussian 16:  ES64L-G16RevC.01  3-Jul-2019

 ----------------------------------------------------------------------
 #t hf aug-cc-pvdz iop(5/13=1,5/36=2,99/5=2) pseudo=read geom=check gue
 ss=(read,tcheck) scf=(maxcycle=1)
 ----------------------------------------------------------------------
 -----
 title
 -----
 Structure from the checkpoint file:  "Grambow2020_wb97xd3_007693_forward_mol1.chk"
 Charge =  0 Multiplicity = 1

                         Standard orientation:
 ---------------------------------------------------------------------
 Center     Atomic      Atomic             Coordinates (Angstroms)
 Number     Number       Type             X           Y           Z
 ---------------------------------------------------------------------
      1          6           0        1.838467   -1.047579    0.613639
      2          6           0        0.978365    0.165494    0.262337
      3          6           0        1.816351    1.310293   -0.299164
      4          6           0       -0.075802   -0.242714   -0.739823
      5          8           0       -1.060214   -1.146469   -0.340689
      6          6           0       -1.877880    0.006602   -0.548430
      7          6           0       -2.164076    0.683447    0.768799
      8          1           0        2.585559   -0.781269    1.363793
      9          1           0        1.226263   -1.857945    1.010062
     10          1           0        2.368238   -1.419863   -0.267679
     11          1           0        0.483920    0.504098    1.174697
     12          1           0        2.307488    1.018134   -1.231568
     13          1           0        2.596600    1.599396    0.406435
     14          1           0        1.206277    2.193169   -0.502659
     15          1           0        0.330332   -0.515382   -1.719995
     16          1           0       -0.793664    0.672378   -1.128061
     17          1           0       -1.468811    0.490003    1.589837
     18          1           0       -3.133304    0.261339    1.054318
     19          1           0       -2.319741    1.754440    0.632183
 ---------------------------------------------------------------------

 SCF Done:  E(RHF) =  -309.026201618     A.U. after    2 cycles

 The electronic state is 1-A.
 Alpha  occ. eigenvalues --  -20.59127 -11.33205 -11.30757 -11.25714 -11.24055
 Alpha  occ. eigenvalues --  -11.23409 -11.23177  -1.38604  -1.09420  -1.00385
 Alpha  occ. eigenvalues --   -0.94477  -0.93093  -0.82884  -0.79182  -0.68145
 Alpha  occ. eigenvalues --   -0.66590  -0.61951  -0.60550  -0.58612  -0.57358
 Alpha  occ. eigenvalues --   -0.56463  -0.55230  -0.52805  -0.51428  -0.49657
 Alpha  occ. eigenvalues --   -0.48503  -0.46776  -0.33310
 Alpha virt. eigenvalues --    0.03102   0.04201   0.04356   0.04764   0.06104
 Alpha virt. eigenvalues --    0.06390   0.06708   0.07048   0.07355   0.08846
 Alpha virt. eigenvalues --    0.09516   0.09580   0.11611   0.12634   0.13626

 Mulliken charges:
               1
     1  C    0.793669
     2  C   -1.349980
     3  C    0.803825
     4  C    0.901131
     5  O   -0.702458
     6  C   -0.619513
     7  C    0.555466
     8  H   -0.058883
     9  H   -0.058498
    10  H    0.002615
    11  H   -0.079262
    12  H    0.015225
    13  H   -0.062861
    14  H   -0.090547
    15  H   -0.245512
    16  H    0.359937
    17  H   -0.128950
    18  H   -0.029072
    19  H   -0.006330
 Sum of Mulliken charges =  -0.00000

 Dipole moment (field-independent basis, Debye):
    X=              2.6252    Y=              1.8656    Z=              1.1163  Tot=              3.4085

 Test job not archived.
 1\1\GINC-SE113\SP\RHF\Aug-CC-pVDZ\C6H12O1\OHZDE\09-Apr-2025\0\\#t hf a
 ug-cc-pvdz iop(5/13=1,5/36=2,99/5=2) pseudo=read geom=check guess=(rea
 d,tcheck) scf=(maxcycle=1)\\title\\0,1\C,0,-1.6728712,-0.98205973,-0.6
 1182025\C,0,-0.73167629,0.04652187,0.01340328\C,0,-1.48215651,1.034770
 78,0.90121659\C,0,0.32748631,-0.6695055,0.81820486\O,0,1.24347902,-1.4
 7735107,0.14478854\C,0,2.13424992,-0.46533673,0.61771738\C,0,2.4184261
 5,0.5294777,-0.47987465\H,0,-2.42612608,-0.48584702,-1.22678306\H,0,-1
 .12261957,-1.68281663,-1.24015238\H,0,-2.19574809,-1.5537988,0.1599890

 Normal termination of Gaussian 16 at Wed Apr  9 16:01:34 2025.
