 Gaussian 16, Revision C.01,

 ----------------------------------------------------------------------
 #t hf aug-cc-pvdz symm=none int=(grid=ultrafine) guess=(read,tcheck) s
 table=(opt,rrhf)
 ----------------------------------------------------------------------
 -----
 title
 -----
 Symbolic Z-matrix:
 Charge =  0 Multiplicity = 1

 SCF Done:  E(RHF) =  -323.917113176     A.U. after   14 cycles
 Normal termination of Gaussian 16 at Wed Apr  9 03:52:45 2025.
 Gaussian 16:  ES64L-G16RevC.01  3-Jul-2019

 ----------------------------------------------------------------------
 #t hf aug-cc-pvdz iop(5/13=1,5/36=2,99/5=2) pseudo=read geom=check gue
 ss=(read,tcheck) scf=(maxcycle=1)
 ----------------------------------------------------------------------
 -----
 title
 -----
 Structure from the checkpoint file:  "Grambow2020_wb97xd3_008340_reverse_mol2.chk"
 Charge =  0 Multiplicity = 1

                         Standard orientation:
 ---------------------------------------------------------------------
 Center     Atomic      Atomic             Coordinates (Angstroms)
 Number     Number       Type             X           Y           Z
 ---------------------------------------------------------------------
      1          7           0       -2.357124    0.051946   -0.000236
      2          6           0       -0.970169    0.119911    0.007255
      3          6           0       -0.238430    1.233817    0.114132
      4          6           0        1.263683    1.210499    0.091793
      5          6           0        1.754343   -0.159451   -0.366554
      6          6           0        0.919999   -1.239405    0.293186
      7          8           0       -0.451699   -1.130451   -0.070292
      8          1           0       -2.700831   -0.804966   -0.402776
      9          1           0       -2.807006    0.865367   -0.384397
     10          1           0       -0.757087    2.179004    0.211039
     11          1           0        1.674838    1.439276    1.082477
     12          1           0        1.647167    1.983877   -0.579788
     13          1           0        1.652547   -0.254024   -1.451272
     14          1           0        2.807819   -0.310756   -0.120761
     15          1           0        0.997476   -1.169913    1.384879
     16          1           0        1.221976   -2.240106   -0.014267
 ---------------------------------------------------------------------

 SCF Done:  E(RHF) =  -324.018427250     A.U. after    2 cycles

 The electronic state is 1-A.
 Alpha  occ. eigenvalues --  -20.59316 -15.62342 -11.32970 -11.29030 -11.23110
 Alpha  occ. eigenvalues --  -11.22966 -11.19900  -1.37822  -1.17208  -1.07078
 Alpha  occ. eigenvalues --   -1.00038  -0.89696  -0.85045  -0.74252  -0.70517
 Alpha  occ. eigenvalues --   -0.68042  -0.64582  -0.62599  -0.59627  -0.58797
 Alpha  occ. eigenvalues --   -0.56354  -0.54931  -0.48687  -0.47824  -0.46297
 Alpha  occ. eigenvalues --   -0.44402  -0.29800
 Alpha virt. eigenvalues --    0.03467   0.04048   0.04450   0.05104   0.06022
 Alpha virt. eigenvalues --    0.06446   0.07268   0.07468   0.08686   0.11616
 Alpha virt. eigenvalues --    0.12571   0.13680   0.14487   0.14943   0.15216

 Mulliken charges:
               1
     1  N   -0.297687
     2  C    0.543144
     3  C    0.685607
     4  C   -0.033419
     5  C    0.173742
     6  C    0.760587
     7  O   -0.696057
     8  H   -0.022058
     9  H   -0.008984
    10  H   -0.524225
    11  H   -0.023097
    12  H   -0.005279
    13  H   -0.133305
    14  H   -0.024537
    15  H   -0.152659
    16  H   -0.241773
 Sum of Mulliken charges =  -0.00000

 Dipole moment (field-independent basis, Debye):
    X=              0.5417    Y=              0.1149    Z=             -0.8148  Tot=              0.9851

 Test job not archived.
 1\1\GINC-SE150\SP\RHF\Aug-CC-pVDZ\C5H9N1O1\OHZDE\09-Apr-2025\0\\#t hf
 aug-cc-pvdz iop(5/13=1,5/36=2,99/5=2) pseudo=read geom=check guess=(re
 ad,tcheck) scf=(maxcycle=1)\\title\\0,1\N,0,2.54610951,0.41384275,-0.2
 4369673\C,0,1.18936848,0.16029426,-0.09109828\C,0,0.64603031,-0.991188
 69,0.31697066\C,0,-0.84018711,-1.17900577,0.43216411\C,0,-1.56359466,-
 0.02570674,-0.25643916\C,0,-0.86607823,1.27765627,0.07882496\O,0,0.480
 68498,1.27910991,-0.38135832\H,0,2.72796929,1.19840134,-0.84856577\H,0
 ,3.09108764,-0.39533863,-0.48834138\H,0,1.30909928,-1.81108938,0.56166

 Normal termination of Gaussian 16 at Wed Apr  9 03:52:51 2025.
