 Gaussian 16, Revision C.01,

 ----------------------------------------------------------------------
 #t hf aug-cc-pvdz symm=none int=(grid=ultrafine) guess=(read,tcheck) s
 table=(opt,rrhf)
 ----------------------------------------------------------------------
 -----
 title
 -----
 Symbolic Z-matrix:
 Charge =  0 Multiplicity = 1

 SCF Done:  E(RHF) =  -283.534675390     A.U. after   17 cycles
 Normal termination of Gaussian 16 at Wed Apr  9 14:19:05 2025.
 Gaussian 16:  ES64L-G16RevC.01  3-Jul-2019

 ----------------------------------------------------------------------
 #t hf aug-cc-pvdz iop(5/13=1,5/36=2,99/5=2) pseudo=read geom=check gue
 ss=(read,tcheck) scf=(maxcycle=1)
 ----------------------------------------------------------------------
 -----
 title
 -----
 Structure from the checkpoint file:  "Grambow2020_b97d3_007175_forward_mol1.chk"
 Charge =  0 Multiplicity = 1

                         Standard orientation:
 ---------------------------------------------------------------------
 Center     Atomic      Atomic             Coordinates (Angstroms)
 Number     Number       Type             X           Y           Z
 ---------------------------------------------------------------------
      1          6           0       -1.372555   -1.196161    0.117535
      2          7           0       -0.039553   -1.125876   -0.005483
      3          6           0        0.881127    0.135999    0.067058
      4          8           0        2.068664   -0.084645   -0.012932
      5          6           0        0.110512    1.345606    0.112846
      6          6           0       -1.172055    1.429901   -0.148038
      7          1           0       -1.925499   -1.875385   -0.530423
      8          1           0       -1.703554    0.447219   -0.505498
      9          1           0       -1.825109   -0.887429    1.057814
     10          1           0        0.346031   -1.692996   -0.764203
     11          1           0       -1.846484    2.274810   -0.012256
 ---------------------------------------------------------------------

 SCF Done:  E(RHF) =  -283.620430919     A.U. after    2 cycles

 The electronic state is 1-A.
 Alpha  occ. eigenvalues --  -20.57674 -15.72248 -11.40320 -11.38368 -11.26497
 Alpha  occ. eigenvalues --  -11.21936  -1.37433  -1.25524  -1.04856  -0.96211
 Alpha  occ. eigenvalues --   -0.85875  -0.75991  -0.74938  -0.68552  -0.65330
 Alpha  occ. eigenvalues --   -0.63017  -0.60992  -0.56518  -0.48052  -0.47664
 Alpha  occ. eigenvalues --   -0.38016  -0.30084
 Alpha virt. eigenvalues --    0.01479   0.02315   0.03487   0.04931   0.05052
 Alpha virt. eigenvalues --    0.06763   0.07845   0.09761   0.10348   0.10745
 Alpha virt. eigenvalues --    0.12493   0.13524   0.13988   0.14626   0.15600

 Mulliken charges:
               1
     1  C    0.539680
     2  N   -0.396609
     3  C    0.716875
     4  O   -0.468889
     5  C   -0.264020
     6  C    0.537129
     7  H   -0.181745
     8  H   -0.056324
     9  H   -0.145462
    10  H    0.027266
    11  H   -0.307900
 Sum of Mulliken charges =  -0.00000

 Dipole moment (field-independent basis, Debye):
    X=             -5.9540    Y=             -4.6319    Z=             -0.7445  Tot=              7.5802

 Test job not archived.
 1\1\GINC-SE113\SP\RHF\Aug-CC-pVDZ\C4H5N1O1\OHZDE\09-Apr-2025\0\\#t hf
 aug-cc-pvdz iop(5/13=1,5/36=2,99/5=2) pseudo=read geom=check guess=(re
 ad,tcheck) scf=(maxcycle=1)\\title\\0,1\C,0,-1.00563729,0.38152214,-0.
 84553302\N,0,-0.90277769,-0.65644393,-0.00350397\C,0,0.17329262,-0.912
 32616,1.10186529\O,0,-0.00021256,-1.90467074,1.77303896\C,0,1.23567753
 ,0.04975556,1.03237165\C,0,1.44595191,0.86585498,0.02742762\H,0,-1.304
 2423,0.1948742,-1.87652321\H,0,0.7440782,0.74676632,-0.90484031\H,0,-1
 .15826011,1.37550002,-0.42964861\H,0,-1.06225507,-1.56954339,-0.435675

 Normal termination of Gaussian 16 at Wed Apr  9 14:19:09 2025.
