 Gaussian 16, Revision C.01,

 ----------------------------------------------------------------------
 #t hf aug-cc-pvdz symm=none int=(grid=ultrafine) guess=(read,tcheck) s
 table=(opt,rrhf)
 ----------------------------------------------------------------------
 -----
 title
 -----
 Symbolic Z-matrix:
 Charge =  0 Multiplicity = 1

 SCF Done:  E(RHF) =  -318.777257909     A.U. after   16 cycles
 Normal termination of Gaussian 16 at Wed Apr  9 15:28:58 2025.
 Gaussian 16:  ES64L-G16RevC.01  3-Jul-2019

 ----------------------------------------------------------------------
 #t hf aug-cc-pvdz iop(5/13=1,5/36=2,99/5=2) pseudo=read geom=check gue
 ss=(read,tcheck) scf=(maxcycle=1)
 ----------------------------------------------------------------------
 -----
 title
 -----
 Structure from the checkpoint file:  "Grambow2020_wb97xd3_006925_reverse_mol1.chk"
 Charge =  0 Multiplicity = 1

                         Standard orientation:
 ---------------------------------------------------------------------
 Center     Atomic      Atomic             Coordinates (Angstroms)
 Number     Number       Type             X           Y           Z
 ---------------------------------------------------------------------
      1          7           0       -2.063497   -0.665493    0.441964
      2          6           0       -0.975961   -0.174111   -0.204875
      3          6           0        0.222043   -1.006485   -0.498663
      4          6           0        1.096870   -0.108603    0.007308
      5          7           0        2.426410   -0.154656    0.250616
      6          6           0        0.279985    1.083029    0.353960
      7          7           0       -0.871430    1.101316   -0.676427
      8          1           0       -2.763468   -0.031553    0.787004
      9          1           0       -1.924098   -1.505873    0.976604
     10          1           0        0.305744   -1.874558   -1.138027
     11          1           0        2.894726    0.727874    0.355344
     12          1           0        2.966103   -0.928992   -0.091847
     13          1           0       -0.051142    1.166665    1.387506
     14          1           0       -1.605866    1.715284   -0.336027
 ---------------------------------------------------------------------

 SCF Done:  E(RHF) =  -318.870277560     A.U. after    2 cycles

 The electronic state is 1-A.
 Alpha  occ. eigenvalues --  -15.66294 -15.63815 -15.63289 -11.36452 -11.29754
 Alpha  occ. eigenvalues --  -11.21061 -11.19995  -1.28434  -1.19427  -1.16260
 Alpha  occ. eigenvalues --   -1.03227  -0.88042  -0.81226  -0.75915  -0.73005
 Alpha  occ. eigenvalues --   -0.70555  -0.68966  -0.63502  -0.57689  -0.55730
 Alpha  occ. eigenvalues --   -0.53149  -0.49072  -0.47837  -0.43011  -0.32185
 Alpha  occ. eigenvalues --   -0.24335
 Alpha virt. eigenvalues --    0.02620   0.03547   0.04272   0.04935   0.06480
 Alpha virt. eigenvalues --    0.06974   0.07976   0.10415   0.11854   0.12719
 Alpha virt. eigenvalues --    0.13033   0.13614   0.14721   0.15231   0.15340

 Mulliken charges:
               1
     1  N   -0.262575
     2  C    0.409266
     3  C    0.948027
     4  C    0.216445
     5  N   -0.285738
     6  C    0.082951
     7  N   -0.620849
     8  H   -0.028832
     9  H    0.026062
    10  H   -0.270934
    11  H   -0.014725
    12  H   -0.049720
    13  H   -0.147448
    14  H   -0.001929
 Sum of Mulliken charges =  -0.00000

 Dipole moment (field-independent basis, Debye):
    X=             -1.5871    Y=             -1.8752    Z=              1.6693  Tot=              2.9702

 Test job not archived.
 1\1\GINC-SE226\SP\RHF\Aug-CC-pVDZ\C4H7N3\OHZDE\09-Apr-2025\0\\#t hf au
 g-cc-pvdz iop(5/13=1,5/36=2,99/5=2) pseudo=read geom=check guess=(read
 ,tcheck) scf=(maxcycle=1)\\title\\0,1\N,0,-2.16908252,-0.15439425,0.34
 489391\C,0,-0.98380649,-0.08606372,-0.31316573\C,0,0.06823526,-1.12919
 576,-0.1736803\C,0,1.0572621,-0.24342979,0.08080795\N,0,2.34626991,-0.
 38734685,0.46387939\C,0,0.43880192,1.0962426,-0.09308778\N,0,-0.641413
 21,0.90796732,-1.18188371\H,0,-2.7671127,0.65331485,0.3741959\H,0,-2.2
 0055115,-0.75883015,1.14812311\H,0,0.03419678,-2.17092717,-0.46174372\

 Normal termination of Gaussian 16 at Wed Apr  9 15:29:03 2025.
