 Gaussian 16, Revision C.01,

 ----------------------------------------------------------------------
 #t hf aug-cc-pvdz symm=none int=(grid=ultrafine) guess=(read,tcheck) s
 table=(opt,rrhf)
 ----------------------------------------------------------------------
 -----
 title
 -----
 Symbolic Z-matrix:
 Charge =  0 Multiplicity = 1

 SCF Done:  E(RHF) =  -374.602300728     A.U. after   15 cycles
 Normal termination of Gaussian 16 at Wed Apr  9 15:44:43 2025.
 Gaussian 16:  ES64L-G16RevC.01  3-Jul-2019

 ----------------------------------------------------------------------
 #t hf aug-cc-pvdz iop(5/13=1,5/36=2,99/5=2) pseudo=read geom=check gue
 ss=(read,tcheck) scf=(maxcycle=1)
 ----------------------------------------------------------------------
 -----
 title
 -----
 Structure from the checkpoint file:  "Grambow2020_wb97xd3_007329_reverse_mol2.chk"
 Charge =  0 Multiplicity = 1

                         Standard orientation:
 ---------------------------------------------------------------------
 Center     Atomic      Atomic             Coordinates (Angstroms)
 Number     Number       Type             X           Y           Z
 ---------------------------------------------------------------------
      1          7           0       -1.977488   -0.903456   -0.409444
      2          6           0       -0.953725   -0.320320    0.413610
      3          6           0       -0.920513    1.178983    0.125087
      4          8           0        0.073596    1.778358   -0.160246
      5          6           0        1.445972   -0.496383    0.036512
      6          8           0        2.559780   -0.259468   -0.189787
      7          7           0        0.345802   -0.924061    0.293928
      8          1           0       -2.194526   -1.844202   -0.114160
      9          1           0       -1.689847   -0.935682   -1.378887
     10          1           0       -1.909716    1.666673    0.195322
     11          1           0       -1.281519   -0.418978    1.455345
 ---------------------------------------------------------------------

 SCF Done:  E(RHF) =  -374.719134969     A.U. after    2 cycles

 The electronic state is 1-A.
 Alpha  occ. eigenvalues --  -20.62305 -20.60553 -15.65170 -15.64678 -11.42017
 Alpha  occ. eigenvalues --  -11.36785 -11.35743  -1.43164  -1.39971  -1.26363
 Alpha  occ. eigenvalues --   -1.18180  -0.98858  -0.85875  -0.75727  -0.74622
 Alpha  occ. eigenvalues --   -0.72445  -0.70371  -0.67372  -0.65757  -0.63331
 Alpha  occ. eigenvalues --   -0.60365  -0.56161  -0.49520  -0.46370  -0.44197
 Alpha  occ. eigenvalues --   -0.42179
 Alpha virt. eigenvalues --    0.02692   0.03429   0.04205   0.06074   0.08180
 Alpha virt. eigenvalues --    0.08749   0.09763   0.10641   0.10876   0.12855
 Alpha virt. eigenvalues --    0.13442   0.13763   0.14344   0.15536   0.15713

 Mulliken charges:
               1
     1  N   -0.290181
     2  C    0.841853
     3  C    0.601823
     4  O   -0.410699
     5  C   -0.184051
     6  O   -0.195564
     7  N   -0.156395
     8  H   -0.002411
     9  H    0.013320
    10  H   -0.125155
    11  H   -0.092539
 Sum of Mulliken charges =  -0.00000

 Dipole moment (field-independent basis, Debye):
    X=             -4.3688    Y=             -1.7599    Z=              0.7821  Tot=              4.7745

 Test job not archived.
 1\1\GINC-SE043\SP\RHF\Aug-CC-pVDZ\C3H4N2O2\OHZDE\09-Apr-2025\0\\#t hf
 aug-cc-pvdz iop(5/13=1,5/36=2,99/5=2) pseudo=read geom=check guess=(re
 ad,tcheck) scf=(maxcycle=1)\\title\\0,1\N,0,-1.6081182,-0.26465166,-0.
 23515809\C,0,-0.31207666,-0.26590939,0.38599557\C,0,0.10136078,1.18764
 032,0.6062708\O,0,1.14730479,1.64204227,0.24788807\C,0,1.7986501,-0.74
 924013,-0.72889071\O,0,2.86166908,-0.66721817,-1.1884231\N,0,0.6985547
 1,-1.01753034,-0.30775376\H,0,-2.02724506,-1.1828589,-0.212124\H,0,-1.
 54784396,0.03033959,-1.20104741\H,0,-0.66392937,1.79323029,1.12481524\

 Normal termination of Gaussian 16 at Wed Apr  9 15:44:49 2025.
