 Gaussian 16, Revision C.01,

 ----------------------------------------------------------------------
 #t hf aug-cc-pvdz symm=none int=(grid=ultrafine) guess=(read,tcheck) s
 table=(opt,rrhf)
 ----------------------------------------------------------------------
 -----
 title
 -----
 Symbolic Z-matrix:
 Charge =  0 Multiplicity = 1

 SCF Done:  E(RHF) =  -283.532395911     A.U. after   17 cycles
 Normal termination of Gaussian 16 at Wed Apr  9 03:09:26 2025.
 Gaussian 16:  ES64L-G16RevC.01  3-Jul-2019

 ----------------------------------------------------------------------
 #t hf aug-cc-pvdz iop(5/13=1,5/36=2,99/5=2) pseudo=read geom=check gue
 ss=(read,tcheck) scf=(maxcycle=1)
 ----------------------------------------------------------------------
 -----
 title
 -----
 Structure from the checkpoint file:  "Grambow2020_b97d3_006720_reverse_mol1.chk"
 Charge =  0 Multiplicity = 1

                         Standard orientation:
 ---------------------------------------------------------------------
 Center     Atomic      Atomic             Coordinates (Angstroms)
 Number     Number       Type             X           Y           Z
 ---------------------------------------------------------------------
      1          6           0        1.678479   -0.262479   -0.607974
      2          6           0        0.281847    0.962926    0.479077
      3          8           0       -0.741654    1.204549   -0.251810
      4          6           0       -1.495658   -0.444833   -0.223404
      5          7           0       -0.727715   -1.285719    0.193333
      6          6           0        0.790190   -0.407754    0.485509
      7          1           0        1.345537    0.177516   -1.543115
      8          1           0        2.715840   -0.585920   -0.531240
      9          1           0        0.703512    1.738506    1.124853
     10          1           0       -2.491803   -0.261993   -0.600121
     11          1           0        1.225002   -0.791629    1.411528
 ---------------------------------------------------------------------

 SCF Done:  E(RHF) =  -283.616215328     A.U. after    2 cycles

 The electronic state is 1-A.
 Alpha  occ. eigenvalues --  -20.61098 -15.65373 -11.36671 -11.35662 -11.31574
 Alpha  occ. eigenvalues --  -11.22844  -1.37644  -1.20481  -1.07801  -0.87931
 Alpha  occ. eigenvalues --   -0.81085  -0.79595  -0.72822  -0.65422  -0.63332
 Alpha  occ. eigenvalues --   -0.60594  -0.56419  -0.53772  -0.52185  -0.46389
 Alpha  occ. eigenvalues --   -0.44488  -0.28403
 Alpha virt. eigenvalues --    0.03240   0.03781   0.04834   0.05220   0.06933
 Alpha virt. eigenvalues --    0.08551   0.09103   0.09642   0.11071   0.11360
 Alpha virt. eigenvalues --    0.13653   0.14195   0.14533   0.14746   0.15475

 Mulliken charges:
               1
     1  C    0.322301
     2  C    0.529693
     3  O   -0.619798
     4  C    0.522306
     5  N   -0.468748
     6  C    0.858044
     7  H   -0.293852
     8  H   -0.301398
     9  H   -0.243187
    10  H   -0.090485
    11  H   -0.214876
 Sum of Mulliken charges =   0.00000

 Dipole moment (field-independent basis, Debye):
    X=             -0.4931    Y=              0.7119    Z=              1.3858  Tot=              1.6341

 Test job not archived.
 1\1\GINC-SE092\SP\RHF\Aug-CC-pVDZ\C4H5N1O1\OHZDE\09-Apr-2025\0\\#t hf
 aug-cc-pvdz iop(5/13=1,5/36=2,99/5=2) pseudo=read geom=check guess=(re
 ad,tcheck) scf=(maxcycle=1)\\title\\0,1\C,0,-1.43912129,0.49599341,0.1
 4921592\C,0,0.05336823,-0.76956749,-0.74783975\O,0,0.96694155,-0.04878
 426,-1.28261752\C,0,1.76180659,0.55600554,0.23138602\N,0,1.07682408,0.
 35683703,1.21201285\C,0,-0.41330016,-0.37957648,0.58157673\H,0,-1.2417
 4891,1.26416243,-0.5923331\H,0,-2.44888313,0.41353016,0.54946744\H,0,-
 0.30165594,-1.6790424,-1.24095736\H,0,2.69564017,0.96135484,-0.1309640

 Normal termination of Gaussian 16 at Wed Apr  9 03:09:30 2025.
