 Gaussian 16, Revision C.01,

 ----------------------------------------------------------------------
 #t hf aug-cc-pvdz symm=none int=(grid=ultrafine) guess=(read,tcheck) s
 table=(opt,rrhf)
 ----------------------------------------------------------------------
 -----
 title
 -----
 Symbolic Z-matrix:
 Charge =  0 Multiplicity = 1

 SCF Done:  E(RHF) =  -394.351596945     A.U. after   16 cycles
 Normal termination of Gaussian 16 at Wed Apr  9 15:36:45 2025.
 Gaussian 16:  ES64L-G16RevC.01  3-Jul-2019

 ----------------------------------------------------------------------
 #t hf aug-cc-pvdz iop(5/13=1,5/36=2,99/5=2) pseudo=read geom=check gue
 ss=(read,tcheck) scf=(maxcycle=1)
 ----------------------------------------------------------------------
 -----
 title
 -----
 Structure from the checkpoint file:  "Grambow2020_wb97xd3_007201_reverse_mol1.chk"
 Charge =  0 Multiplicity = 1

                         Standard orientation:
 ---------------------------------------------------------------------
 Center     Atomic      Atomic             Coordinates (Angstroms)
 Number     Number       Type             X           Y           Z
 ---------------------------------------------------------------------
      1          7           0       -0.452173    1.171796    0.061270
      2          6           0        0.393288    0.199236    0.014898
      3          8           0       -0.177080   -0.931231    0.113922
      4          6           0       -1.710514   -0.116296    0.345207
      5          8           0       -2.545205   -0.285358   -0.456055
      6          6           0        1.896029    0.355076   -0.113010
      7          8           0        2.648867   -0.566151   -0.048142
      8          1           0       -0.212841    2.152001    0.044128
      9          1           0       -1.745824   -0.117500    1.435445
     10          1           0        2.238393    1.396757   -0.268833
 ---------------------------------------------------------------------

 SCF Done:  E(RHF) =  -394.475774831     A.U. after    2 cycles

 The electronic state is 1-A.
 Alpha  occ. eigenvalues --  -20.63117 -20.60996 -20.58692 -15.67136 -11.44516
 Alpha  occ. eigenvalues --  -11.40762 -11.39364  -1.44064  -1.41715  -1.38783
 Alpha  occ. eigenvalues --   -1.20267  -0.97548  -0.86742  -0.82643  -0.78009
 Alpha  occ. eigenvalues --   -0.72474  -0.71053  -0.69664  -0.64671  -0.63826
 Alpha  occ. eigenvalues --   -0.61345  -0.57655  -0.51377  -0.48325  -0.45074
 Alpha  occ. eigenvalues --   -0.44222
 Alpha virt. eigenvalues --    0.02048   0.03142   0.03710   0.04685   0.08111
 Alpha virt. eigenvalues --    0.09215   0.09645   0.10683   0.11871   0.12962
 Alpha virt. eigenvalues --    0.13925   0.14381   0.14702   0.15291   0.16332

 Mulliken charges:
               1
     1  N   -0.385426
     2  C    0.290893
     3  O   -0.649441
     4  C    0.992809
     5  O   -0.421933
     6  C    0.816256
     7  O   -0.381275
     8  H   -0.062100
     9  H   -0.066968
    10  H   -0.132816
 Sum of Mulliken charges =  -0.00000

 Dipole moment (field-independent basis, Debye):
    X=              1.3525    Y=              5.1382    Z=              2.0216  Tot=              5.6848

 Test job not archived.
 1\1\GINC-SE141\SP\RHF\Aug-CC-pVDZ\C3H3N1O3\OHZDE\09-Apr-2025\0\\#t hf
 aug-cc-pvdz iop(5/13=1,5/36=2,99/5=2) pseudo=read geom=check guess=(re
 ad,tcheck) scf=(maxcycle=1)\\title\\0,1\N,0,-0.01355943,0.85767885,-0.
 39785091\C,0,-0.47421374,-0.26419796,0.04034727\O,0,0.45165678,-1.0288
 7295,0.45401041\C,0,1.63491213,0.15447826,-0.06427414\O,0,2.31029913,0
 .64610038,0.75393896\C,0,-1.93689479,-0.66343257,0.0476382\O,0,-2.3084
 0459,-1.74985907,0.36589835\H,0,-0.5679848,1.59240973,-0.81156385\H,0,
 1.87393832,-0.25650145,-1.04602148\H,0,-2.63328202,0.13690679,-0.27031

 Normal termination of Gaussian 16 at Wed Apr  9 15:36:49 2025.
