 Gaussian 16, Revision C.01,

 ----------------------------------------------------------------------
 #t hf aug-cc-pvdz symm=none int=(grid=ultrafine) guess=(read,tcheck) s
 table=(opt,rrhf)
 ----------------------------------------------------------------------
 -----
 title
 -----
 Symbolic Z-matrix:
 Charge =  0 Multiplicity = 1

 SCF Done:  E(RHF) =  -358.541664290     A.U. after   15 cycles
 Normal termination of Gaussian 16 at Wed Apr  9 17:05:11 2025.
 Gaussian 16:  ES64L-G16RevC.01  3-Jul-2019

 ----------------------------------------------------------------------
 #t hf aug-cc-pvdz iop(5/13=1,5/36=2,99/5=2) pseudo=read geom=check gue
 ss=(read,tcheck) scf=(maxcycle=1)
 ----------------------------------------------------------------------
 -----
 title
 -----
 Structure from the checkpoint file:  "Grambow2020_wb97xd3_009139_reverse_mol2.chk"
 Charge =  0 Multiplicity = 1

                         Standard orientation:
 ---------------------------------------------------------------------
 Center     Atomic      Atomic             Coordinates (Angstroms)
 Number     Number       Type             X           Y           Z
 ---------------------------------------------------------------------
      1          6           0       -2.140743   -0.956562    0.036443
      2          6           0       -1.117752    0.143711   -0.018834
      3          6           0        0.167078   -0.195533    0.665705
      4          8           0        1.223776    0.858264    0.696576
      5          6           0        1.435303   -0.209705   -0.041854
      6          8           0        2.248830   -0.665871   -0.764306
      7          7           0       -1.229082    1.267512   -0.579777
      8          1           0       -3.029089   -0.692269   -0.535481
      9          1           0       -1.726198   -1.883582   -0.367090
     10          1           0       -2.433757   -1.155313    1.070152
     11          1           0        0.090207   -0.741046    1.602591
     12          1           0       -2.141751    1.369003   -1.018646
 ---------------------------------------------------------------------

 SCF Done:  E(RHF) =  -358.653947043     A.U. after    2 cycles

 The electronic state is 1-A.
 Alpha  occ. eigenvalues --  -20.64903 -20.59436 -15.63870 -11.42785 -11.35057
 Alpha  occ. eigenvalues --  -11.33152 -11.27361  -1.47557  -1.38144  -1.22049
 Alpha  occ. eigenvalues --   -1.03594  -0.97957  -0.85212  -0.79311  -0.73371
 Alpha  occ. eigenvalues --   -0.70227  -0.68465  -0.65918  -0.62490  -0.60947
 Alpha  occ. eigenvalues --   -0.58126  -0.56467  -0.51560  -0.48418  -0.44293
 Alpha  occ. eigenvalues --   -0.42854
 Alpha virt. eigenvalues --    0.02227   0.03514   0.04689   0.05211   0.06860
 Alpha virt. eigenvalues --    0.08589   0.09340   0.10078   0.11496   0.12300
 Alpha virt. eigenvalues --    0.13495   0.13712   0.13815   0.14224   0.14820

 Mulliken charges:
               1
     1  C    0.479497
     2  C   -0.194845
     3  C    1.100177
     4  O   -0.557561
     5  C    0.057139
     6  O   -0.308544
     7  N   -0.363742
     8  H   -0.144348
     9  H    0.082031
    10  H    0.074465
    11  H   -0.240299
    12  H    0.016028
 Sum of Mulliken charges =  -0.00000

 Dipole moment (field-independent basis, Debye):
    X=             -5.0347    Y=             -2.5242    Z=              1.8203  Tot=              5.9189

 Test job not archived.
 1\1\GINC-SE219\SP\RHF\Aug-CC-pVDZ\C4H5N1O2\OHZDE\09-Apr-2025\0\\#t hf
 aug-cc-pvdz iop(5/13=1,5/36=2,99/5=2) pseudo=read geom=check guess=(re
 ad,tcheck) scf=(maxcycle=1)\\title\\0,1\C,0,-1.4588236,-0.41406764,-0.
 47521778\C,0,0.04126005,-0.31645934,-0.45553051\C,0,0.55608965,0.87631
 958,0.2838576\O,0,2.03519075,1.07461155,0.31538702\C,0,1.42982624,0.74
 850526,1.43688955\O,0,1.6759146,0.53127505,2.57007207\N,0,0.86925098,-
 1.12006719,-0.96408297\H,0,-1.7835201,-1.33342253,-0.96046596\H,0,-1.8
 5579116,-0.39510208,0.54267731\H,0,-1.89088334,0.43664247,-1.00769401\

 Normal termination of Gaussian 16 at Wed Apr  9 17:05:19 2025.
