 Gaussian 16, Revision C.01,

 ----------------------------------------------------------------------
 #t hf aug-cc-pvdz symm=none int=(grid=ultrafine) guess=(read,tcheck) s
 table=(opt,rrhf)
 ----------------------------------------------------------------------
 -----
 title
 -----
 Symbolic Z-matrix:
 Charge =  0 Multiplicity = 1

 SCF Done:  E(RHF) =  -318.785830424     A.U. after   16 cycles
 Normal termination of Gaussian 16 at Wed Apr  9 15:27:58 2025.
 Gaussian 16:  ES64L-G16RevC.01  3-Jul-2019

 ----------------------------------------------------------------------
 #t hf aug-cc-pvdz iop(5/13=1,5/36=2,99/5=2) pseudo=read geom=check gue
 ss=(read,tcheck) scf=(maxcycle=1)
 ----------------------------------------------------------------------
 -----
 title
 -----
 Structure from the checkpoint file:  "Grambow2020_wb97xd3_006917_reverse_mol1.chk"
 Charge =  0 Multiplicity = 1

                         Standard orientation:
 ---------------------------------------------------------------------
 Center     Atomic      Atomic             Coordinates (Angstroms)
 Number     Number       Type             X           Y           Z
 ---------------------------------------------------------------------
      1          7           0        2.469939   -0.596926   -0.105353
      2          6           0        1.237731    0.016130    0.023332
      3          6           0        0.070485   -0.854914    0.046437
      4          6           0       -1.082794   -0.177797   -0.025885
      5          7           0       -2.471515   -0.512878    0.025186
      6          6           0       -1.514218    1.114806   -0.199870
      7          7           0        1.041401    1.286249    0.062301
      8          1           0        3.276368   -0.053372    0.147778
      9          1           0        2.527418   -1.567437    0.147641
     10          1           0        0.134331   -1.933713    0.057398
     11          1           0       -2.790581   -0.971810    0.863598
     12          1           0       -2.904932   -0.825191   -0.826115
     13          1           0       -1.689074    1.707713    0.697410
     14          1           0        1.900462    1.819342   -0.026736
 ---------------------------------------------------------------------

 SCF Done:  E(RHF) =  -318.880535932     A.U. after    2 cycles

 The electronic state is 1-A.
 Alpha  occ. eigenvalues --  -15.66790 -15.63641 -15.57171 -11.32185 -11.30057
 Alpha  occ. eigenvalues --  -11.26354 -11.22147  -1.23628  -1.21834  -1.10309
 Alpha  occ. eigenvalues --   -1.02285  -0.94139  -0.80577  -0.72689  -0.71887
 Alpha  occ. eigenvalues --   -0.70247  -0.68320  -0.62791  -0.58930  -0.54301
 Alpha  occ. eigenvalues --   -0.52536  -0.46051  -0.43051  -0.40102  -0.35540
 Alpha  occ. eigenvalues --   -0.29926
 Alpha virt. eigenvalues --    0.02499   0.03183   0.04305   0.05005   0.06111
 Alpha virt. eigenvalues --    0.06601   0.08774   0.10838   0.11709   0.12402
 Alpha virt. eigenvalues --    0.12503   0.13383   0.13987   0.14215   0.15671

 Mulliken charges:
               1
     1  N   -0.229384
     2  C    0.452760
     3  C    1.301885
     4  C   -0.129059
     5  N   -0.182931
     6  C   -0.086820
     7  N   -0.370633
     8  H   -0.026215
     9  H   -0.021210
    10  H   -0.573246
    11  H    0.016274
    12  H    0.074104
    13  H   -0.146168
    14  H   -0.079358
 Sum of Mulliken charges =   0.00000

 Dipole moment (field-independent basis, Debye):
    X=              0.2676    Y=             -3.8397    Z=              1.8831  Tot=              4.2849

 Test job not archived.
 1\1\GINC-SE100\SP\RHF\Aug-CC-pVDZ\C4H7N3\OHZDE\09-Apr-2025\0\\#t hf au
 g-cc-pvdz iop(5/13=1,5/36=2,99/5=2) pseudo=read geom=check guess=(read
 ,tcheck) scf=(maxcycle=1)\\title\\0,1\N,0,-2.45347171,-0.51384563,0.08
 21385\C,0,-1.22461359,0.11160447,-0.01508746\C,0,-0.04673669,-0.743583
 65,0.03945309\C,0,1.09398256,-0.0486654,0.13752978\N,0,2.48766472,-0.3
 6608567,0.15569207\C,0,1.50162931,1.25472392,0.28658736\N,0,-1.0425559
 7,1.38236674,-0.0877709\H,0,-3.25515374,0.01004375,-0.22232892\H,0,-2.
 48818614,-1.49276585,-0.14082118\H,0,-0.0966977,-1.82294564,0.06149462

 Normal termination of Gaussian 16 at Wed Apr  9 15:28:03 2025.
