 Gaussian 16, Revision C.01,

 ----------------------------------------------------------------------
 #t hf aug-cc-pvdz symm=none int=(grid=ultrafine) guess=(read,tcheck) s
 table=(opt,rrhf)
 ----------------------------------------------------------------------
 -----
 title
 -----
 Symbolic Z-matrix:
 Charge =  0 Multiplicity = 1

 SCF Done:  E(RHF) =  -306.565940021     A.U. after   18 cycles
 Normal termination of Gaussian 16 at Wed Apr  9 15:41:04 2025.
 Gaussian 16:  ES64L-G16RevC.01  3-Jul-2019

 ----------------------------------------------------------------------
 #t hf aug-cc-pvdz iop(5/13=1,5/36=2,99/5=2) pseudo=read geom=check gue
 ss=(read,tcheck) scf=(maxcycle=1)
 ----------------------------------------------------------------------
 -----
 title
 -----
 Structure from the checkpoint file:  "Grambow2020_wb97xd3_007298_forward_mol1.chk"
 Charge =  0 Multiplicity = 1

                         Standard orientation:
 ---------------------------------------------------------------------
 Center     Atomic      Atomic             Coordinates (Angstroms)
 Number     Number       Type             X           Y           Z
 ---------------------------------------------------------------------
      1          6           0       -2.798202   -0.473780    0.316994
      2          6           0       -1.407613   -0.815312   -0.189641
      3          6           0       -0.472707    0.381420   -0.195459
      4          8           0       -0.828186    1.503766    0.109161
      5          6           0        0.863972    0.114114   -0.643465
      6          6           0        2.023969    0.015700   -0.109159
      7          6           0        3.261987   -0.445199    0.270336
      8          1           0       -2.762405   -0.092386    1.337542
      9          1           0       -3.436257   -1.358435    0.299875
     10          1           0       -3.257760    0.296907   -0.301352
     11          1           0       -1.444825   -1.209877   -1.209420
     12          1           0       -0.943605   -1.601656    0.415541
     13          1           0        4.022320    0.251670    0.597393
     14          1           0        2.149742    0.528863    0.931329
     15          1           0        3.469829   -1.506870    0.358165
 ---------------------------------------------------------------------

 SCF Done:  E(RHF) =  -306.661825694     A.U. after    2 cycles

 The electronic state is 1-A.
 Alpha  occ. eigenvalues --  -20.53994 -11.34193 -11.32756 -11.28932 -11.26229
 Alpha  occ. eigenvalues --  -11.24497 -11.22300  -1.33730  -1.12528  -1.04971
 Alpha  occ. eigenvalues --   -0.99143  -0.89338  -0.80053  -0.73232  -0.68618
 Alpha  occ. eigenvalues --   -0.66369  -0.63395  -0.62882  -0.57985  -0.53776
 Alpha  occ. eigenvalues --   -0.52693  -0.51577  -0.49030  -0.43114  -0.41408
 Alpha  occ. eigenvalues --   -0.32156
 Alpha virt. eigenvalues --    0.01724   0.03639   0.03786   0.04425   0.05312
 Alpha virt. eigenvalues --    0.06166   0.06336   0.07692   0.08301   0.09574
 Alpha virt. eigenvalues --    0.11061   0.11663   0.12454   0.13133   0.13955

 Mulliken charges:
               1
     1  C    0.486036
     2  C   -0.047022
     3  C   -0.050387
     4  O   -0.559576
     5  C   -0.145310
     6  C   -0.123962
     7  C    0.930539
     8  H   -0.050714
     9  H   -0.043615
    10  H   -0.045145
    11  H    0.012920
    12  H   -0.006240
    13  H   -0.260781
    14  H    0.113261
    15  H   -0.210006
 Sum of Mulliken charges =   0.00000

 Dipole moment (field-independent basis, Debye):
    X=              3.2897    Y=             -3.7440    Z=              1.5111  Tot=              5.2080

 Test job not archived.
 1\1\GINC-SE041\SP\RHF\Aug-CC-pVDZ\C6H8O1\OHZDE\09-Apr-2025\0\\#t hf au
 g-cc-pvdz iop(5/13=1,5/36=2,99/5=2) pseudo=read geom=check guess=(read
 ,tcheck) scf=(maxcycle=1)\\title\\0,1\C,0,-2.64628226,-0.33680059,0.61
 116298\C,0,-1.38127776,-0.21376987,-0.22051598\C,0,-0.35336821,0.71288
 711,0.40475064\O,0,-0.55791479,1.33887007,1.42706442\C,0,0.87379203,0.
 85085761,-0.32594354\C,0,2.08586992,0.45782927,-0.1949593\C,0,3.319511
 1,-0.10103973,-0.42932542\H,0,-2.42731491,-0.72790792,1.60481735\H,0,-
 3.35701142,-1.00598904,0.12426212\H,0,-3.1201033,0.63569118,0.74252912

 Normal termination of Gaussian 16 at Wed Apr  9 15:41:09 2025.
