 Gaussian 16, Revision C.01,

 ----------------------------------------------------------------------
 #t hf aug-cc-pvdz symm=none int=(grid=ultrafine) guess=(read,tcheck) s
 table=(opt,rrhf)
 ----------------------------------------------------------------------
 -----
 title
 -----
 Symbolic Z-matrix:
 Charge =  0 Multiplicity = 1

 SCF Done:  E(RHF) =  -284.818285742     A.U. after   16 cycles
 Normal termination of Gaussian 16 at Wed Apr  9 14:22:17 2025.
 Gaussian 16:  ES64L-G16RevC.01  3-Jul-2019

 ----------------------------------------------------------------------
 #t hf aug-cc-pvdz iop(5/13=1,5/36=2,99/5=2) pseudo=read geom=check gue
 ss=(read,tcheck) scf=(maxcycle=1)
 ----------------------------------------------------------------------
 -----
 title
 -----
 Structure from the checkpoint file:  "Grambow2020_wb97xd3_006087_reverse_mol2.chk"
 Charge =  0 Multiplicity = 1

                         Standard orientation:
 ---------------------------------------------------------------------
 Center     Atomic      Atomic             Coordinates (Angstroms)
 Number     Number       Type             X           Y           Z
 ---------------------------------------------------------------------
      1          6           0       -2.245644   -0.581741    0.392757
      2          6           0       -1.172243   -0.204620   -0.613121
      3          7           0       -0.407678    0.972673   -0.172833
      4          6           0        0.786609    1.024737    0.305512
      5          6           0        1.569141   -0.175136    0.473560
      6          8           0        2.273442   -0.684160   -0.374845
      7          1           0       -1.801536   -0.849959    1.352590
      8          1           0       -2.817319   -1.436722    0.029898
      9          1           0       -2.943096    0.242271    0.557637
     10          1           0       -1.613928    0.032044   -1.583646
     11          1           0       -0.907676    1.848972   -0.262841
     12          1           0       -0.460634   -1.014917   -0.765040
     13          1           0        1.583223   -0.536553    1.527746
 ---------------------------------------------------------------------

 SCF Done:  E(RHF) =  -284.907780407     A.U. after    2 cycles

 The electronic state is 1-A.
 Alpha  occ. eigenvalues --  -20.55663 -15.70319 -11.33843 -11.29965 -11.27804
 Alpha  occ. eigenvalues --  -11.25562  -1.34511  -1.25979  -1.05372  -0.94993
 Alpha  occ. eigenvalues --   -0.88509  -0.78933  -0.69607  -0.68919  -0.65042
 Alpha  occ. eigenvalues --   -0.62854  -0.60383  -0.55997  -0.54794  -0.52501
 Alpha  occ. eigenvalues --   -0.46912  -0.44732  -0.35336
 Alpha virt. eigenvalues --    0.02424   0.03728   0.03973   0.05059   0.06657
 Alpha virt. eigenvalues --    0.07356   0.07684   0.09456   0.10285   0.11490
 Alpha virt. eigenvalues --    0.12120   0.12938   0.13312   0.14034   0.14601

 Mulliken charges:
               1
     1  C    0.327544
     2  C    0.563965
     3  N   -0.178140
     4  C   -0.278676
     5  C    0.627558
     6  O   -0.538971
     7  H   -0.074147
     8  H   -0.033383
     9  H   -0.046860
    10  H   -0.148175
    11  H   -0.033182
    12  H   -0.116796
    13  H   -0.070738
 Sum of Mulliken charges =  -0.00000

 Dipole moment (field-independent basis, Debye):
    X=             -5.5667    Y=              0.1799    Z=              0.7517  Tot=              5.6201

 Test job not archived.
 1\1\GINC-SE113\SP\RHF\Aug-CC-pVDZ\C4H7N1O1\OHZDE\09-Apr-2025\0\\#t hf
 aug-cc-pvdz iop(5/13=1,5/36=2,99/5=2) pseudo=read geom=check guess=(re
 ad,tcheck) scf=(maxcycle=1)\\title\\0,1\C,0,-1.06182146,-0.72057794,1.
 1261885\C,0,-0.04395963,-0.88075662,0.01061615\N,0,-0.29973245,0.05669
 27,-1.09401018\C,0,0.33806321,1.13199105,-1.40190407\C,0,1.47263746,1.
 56727132,-0.62501128\O,0,2.62268829,1.21638802,-0.79589141\H,0,-1.0097
 3616,0.27967295,1.55889689\H,0,-0.8694588,-1.44577592,1.91774109\H,0,-
 2.07879443,-0.88281969,0.7627808\H,0,-0.07294011,-1.89218285,-0.400711

 Normal termination of Gaussian 16 at Wed Apr  9 14:22:20 2025.
