 Gaussian 16, Revision C.01,

 ----------------------------------------------------------------------
 #t hf aug-cc-pvdz symm=none int=(grid=ultrafine) guess=(read,tcheck) s
 table=(opt,rrhf)
 ----------------------------------------------------------------------
 -----
 title
 -----
 Symbolic Z-matrix:
 Charge =  0 Multiplicity = 1

 SCF Done:  E(RHF) =  -375.667039234     A.U. after   15 cycles
 Normal termination of Gaussian 16 at Wed Apr  9 03:45:28 2025.
 Gaussian 16:  ES64L-G16RevC.01  3-Jul-2019

 ----------------------------------------------------------------------
 #t hf aug-cc-pvdz iop(5/13=1,5/36=2,99/5=2) pseudo=read geom=check gue
 ss=(read,tcheck) scf=(maxcycle=1)
 ----------------------------------------------------------------------
 -----
 title
 -----
 Structure from the checkpoint file:  "Grambow2020_wb97xd3_007869_reverse_mol1.chk"
 Charge =  0 Multiplicity = 1

                         Standard orientation:
 ---------------------------------------------------------------------
 Center     Atomic      Atomic             Coordinates (Angstroms)
 Number     Number       Type             X           Y           Z
 ---------------------------------------------------------------------
      1          7           0        2.005425    0.195040   -0.132267
      2          6           0        0.649518    0.023260    0.087248
      3          8           0        0.287060   -0.655028    1.169934
      4          6           0       -0.227912    1.280222   -0.083707
      5          8           0       -1.513790    0.653448    0.098209
      6          6           0       -1.237035   -0.629620   -0.063258
      7          7           0       -0.277909   -0.859526   -0.989397
      8          1           0        2.555501   -0.618096    0.090904
      9          1           0        2.267531    0.639714   -0.996498
     10          1           0       -0.157272    1.736711   -1.071433
     11          1           0       -0.088779    2.004735    0.715407
     12          1           0       -2.005101   -1.322078    0.263231
     13          1           0        0.041920   -1.820120   -0.936797
 ---------------------------------------------------------------------

 SCF Done:  E(RHF) =  -375.782064409     A.U. after    2 cycles

 The electronic state is 1-A.
 Alpha  occ. eigenvalues --  -20.63407 -20.50210 -15.63101 -15.63009 -11.42810
 Alpha  occ. eigenvalues --  -11.37395 -11.30786  -1.45197  -1.30338  -1.17308
 Alpha  occ. eigenvalues --   -1.15591  -1.00974  -0.85823  -0.80981  -0.77175
 Alpha  occ. eigenvalues --   -0.71495  -0.69782  -0.66353  -0.63711  -0.60863
 Alpha  occ. eigenvalues --   -0.58567  -0.56019  -0.51595  -0.48954  -0.42485
 Alpha  occ. eigenvalues --   -0.41104  -0.37436
 Alpha virt. eigenvalues --    0.03079   0.03655   0.04335   0.05471   0.06380
 Alpha virt. eigenvalues --    0.07468   0.09284   0.10281   0.11788   0.12792
 Alpha virt. eigenvalues --    0.12999   0.14230   0.14770   0.15519   0.15775

 Mulliken charges:
               1
     1  N   -0.237045
     2  C    0.614687
     3  O   -0.852037
     4  C    0.964294
     5  O   -0.588609
     6  C    1.056657
     7  N   -0.599098
     8  H    0.025440
     9  H   -0.005491
    10  H   -0.142299
    11  H   -0.089642
    12  H   -0.189828
    13  H    0.042972
 Sum of Mulliken charges =  -0.00000

 Dipole moment (field-independent basis, Debye):
    X=              0.1895    Y=             -0.2403    Z=             -3.0810  Tot=              3.0962

 Test job not archived.
 1\1\GINC-SE015\SP\RHF\Aug-CC-pVDZ\C3H6N2O2\OHZDE\09-Apr-2025\0\\#t hf
 aug-cc-pvdz iop(5/13=1,5/36=2,99/5=2) pseudo=read geom=check guess=(re
 ad,tcheck) scf=(maxcycle=1)\\title\\0,1\N,0,-1.68417753,-0.21305303,-0
 .7655044\C,0,-0.53731224,0.11052912,-0.06110705\O,0,-0.5110686,1.28574
 907,0.55681518\C,0,0.02962737,-0.99504085,0.85287197\O,0,1.23106494,-0
 .31473417,1.26898665\C,0,1.337643,0.65739352,0.37874206\N,0,0.92117932
 ,0.30069357,-0.85812347\H,0,-2.08168525,0.56449353,-1.26649166\H,0,-1.
 65957174,-1.06905513,-1.29463861\H,0,0.27165063,-1.92000252,0.32861565

 Normal termination of Gaussian 16 at Wed Apr  9 03:45:32 2025.
