 Gaussian 16, Revision C.01,

 ----------------------------------------------------------------------
 #t hf aug-cc-pvdz symm=none int=(grid=ultrafine) guess=(read,tcheck) s
 table=(opt,rrhf)
 ----------------------------------------------------------------------
 -----
 title
 -----
 Symbolic Z-matrix:
 Charge =  0 Multiplicity = 1

 SCF Done:  E(RHF) =  -338.622582055     A.U. after   15 cycles
 Normal termination of Gaussian 16 at Wed Apr  9 03:39:27 2025.
 Gaussian 16:  ES64L-G16RevC.01  3-Jul-2019

 ----------------------------------------------------------------------
 #t hf aug-cc-pvdz iop(5/13=1,5/36=2,99/5=2) pseudo=read geom=check gue
 ss=(read,tcheck) scf=(maxcycle=1)
 ----------------------------------------------------------------------
 -----
 title
 -----
 Structure from the checkpoint file:  "Grambow2020_wb97xd3_007480_reverse_mol2.chk"
 Charge =  0 Multiplicity = 1

                         Standard orientation:
 ---------------------------------------------------------------------
 Center     Atomic      Atomic             Coordinates (Angstroms)
 Number     Number       Type             X           Y           Z
 ---------------------------------------------------------------------
      1          6           0        2.510901    0.330629   -0.164705
      2          8           0        1.459911   -0.644199    0.000048
      3          6           0        0.272535   -0.278806    0.082933
      4          6           0       -0.262049    1.100096    0.033096
      5          7           0       -1.705723    0.940436   -0.049493
      6          6           0       -1.931019   -0.310105   -0.043146
      7          7           0       -0.801605   -1.116207    0.048026
      8          1           0        2.357232    1.128464    0.567239
      9          1           0        0.192033    1.595700   -0.845658
     10          1           0        3.426404   -0.221198    0.031626
     11          1           0        0.030452    1.712003    0.893229
     12          1           0       -2.913061   -0.763164   -0.093136
     13          1           0       -0.763254   -2.118692    0.007520
 ---------------------------------------------------------------------

 SCF Done:  E(RHF) =  -338.726428562     A.U. after    2 cycles

 The electronic state is 1-A.
 Alpha  occ. eigenvalues --  -20.66513 -15.72324 -15.65393 -11.41760 -11.37005
 Alpha  occ. eigenvalues --  -11.30745 -11.19973  -1.46013  -1.34638  -1.18894
 Alpha  occ. eigenvalues --   -1.04781  -0.94977  -0.86414  -0.85267  -0.76521
 Alpha  occ. eigenvalues --   -0.71688  -0.71161  -0.66511  -0.61826  -0.61382
 Alpha  occ. eigenvalues --   -0.58456  -0.55874  -0.48953  -0.46359  -0.41917
 Alpha  occ. eigenvalues --   -0.24754
 Alpha virt. eigenvalues --    0.01453   0.03756   0.04178   0.05428   0.06650
 Alpha virt. eigenvalues --    0.07815   0.08196   0.09210   0.10041   0.10364
 Alpha virt. eigenvalues --    0.12310   0.12571   0.12995   0.14125   0.14427

 Mulliken charges:
               1
     1  C    0.334460
     2  O   -0.415316
     3  C    0.467387
     4  C    0.533893
     5  N   -0.525163
     6  C    0.844422
     7  N   -0.450505
     8  H   -0.229665
     9  H    0.129729
    10  H   -0.361505
    11  H   -0.030793
    12  H   -0.188185
    13  H   -0.108759
 Sum of Mulliken charges =  -0.00000

 Dipole moment (field-independent basis, Debye):
    X=             -5.3240    Y=             -3.4827    Z=              1.7630  Tot=              6.6017

 Test job not archived.
 1\1\GINC-SE253\SP\RHF\Aug-CC-pVDZ\C4H6N2O1\OHZDE\09-Apr-2025\0\\#t hf
 aug-cc-pvdz iop(5/13=1,5/36=2,99/5=2) pseudo=read geom=check guess=(re
 ad,tcheck) scf=(maxcycle=1)\\title\\0,1\C,0,-2.32528616,-0.32893979,-0
 .25576972\O,0,-1.08243672,-1.02478311,-0.02524455\C,0,-0.00880138,-0.3
 9545628,0.01347493\C,0,0.2005781,1.06012626,-0.15106603\N,0,1.59378259
 ,1.28169655,0.20445194\C,0,2.07304965,0.14512103,0.50965819\N,0,1.1845
 7524,-0.9199227,0.40973666\H,0,-2.19007878,0.34241479,-1.10835258\H,0,
 -0.52458972,1.5719141,0.50940881\H,0,-3.04069227,-1.11671598,-0.476695

 Normal termination of Gaussian 16 at Wed Apr  9 03:39:31 2025.
