 Gaussian 16, Revision C.01,

 ----------------------------------------------------------------------
 #t hf aug-cc-pvdz symm=none int=(grid=ultrafine) guess=(read,tcheck) s
 table=(opt,rrhf)
 ----------------------------------------------------------------------
 -----
 title
 -----
 Symbolic Z-matrix:
 Charge =  0 Multiplicity = 1

 SCF Done:  E(RHF) =  -360.785618827     A.U. after   16 cycles
 Normal termination of Gaussian 16 at Wed Apr  9 14:49:58 2025.
 Gaussian 16:  ES64L-G16RevC.01  3-Jul-2019

 ----------------------------------------------------------------------
 #t hf aug-cc-pvdz iop(5/13=1,5/36=2,99/5=2) pseudo=read geom=check gue
 ss=(read,tcheck) scf=(maxcycle=1)
 ----------------------------------------------------------------------
 -----
 title
 -----
 Structure from the checkpoint file:  "Grambow2020_wb97xd3_006620_forward_mol1.chk"
 Charge =  0 Multiplicity = 1

                         Standard orientation:
 ---------------------------------------------------------------------
 Center     Atomic      Atomic             Coordinates (Angstroms)
 Number     Number       Type             X           Y           Z
 ---------------------------------------------------------------------
      1          6           0       -2.609659   -0.095175    0.094975
      2          6           0       -1.161847    0.043225   -0.335649
      3          8           0       -0.771924    1.368497   -0.073614
      4          6           0       -0.274456   -0.965949    0.395784
      5          7           0        1.050760   -1.118319   -0.206173
      6          6           0        2.301969   -0.097382   -0.107432
      7          8           0        2.082296    1.023016    0.206470
      8          1           0       -3.011543   -1.073886   -0.173570
      9          1           0       -3.209903    0.672946   -0.391854
     10          1           0       -2.699437    0.040993    1.174833
     11          1           0       -1.091296   -0.165560   -1.415904
     12          1           0        0.193223    1.434053   -0.063397
     13          1           0       -0.133334   -0.620923    1.423638
     14          1           0       -0.757788   -1.944961    0.431672
     15          1           0        1.079842   -1.605669   -1.097264
     16          1           0        2.255897   -1.349177    0.206135
 ---------------------------------------------------------------------

 SCF Done:  E(RHF) =  -360.899218866     A.U. after    2 cycles

 The electronic state is 1-A.
 Alpha  occ. eigenvalues --  -20.59718 -20.55728 -15.67870 -11.36727 -11.29868
 Alpha  occ. eigenvalues --  -11.28966 -11.22992  -1.39814  -1.32021  -1.20895
 Alpha  occ. eigenvalues --   -1.04219  -0.95445  -0.83149  -0.80674  -0.72085
 Alpha  occ. eigenvalues --   -0.71091  -0.69439  -0.66410  -0.61448  -0.58363
 Alpha  occ. eigenvalues --   -0.56793  -0.55867  -0.54699  -0.53182  -0.52290
 Alpha  occ. eigenvalues --   -0.45885  -0.43076  -0.37130
 Alpha virt. eigenvalues --    0.02534   0.03820   0.04129   0.05159   0.06434
 Alpha virt. eigenvalues --    0.06595   0.07347   0.07970   0.09089   0.09394
 Alpha virt. eigenvalues --    0.11105   0.12173   0.12495   0.13956   0.14444

 Mulliken charges:
               1
     1  C    0.405948
     2  C    0.062502
     3  O   -0.500452
     4  C    0.847476
     5  N   -0.641937
     6  C    0.113735
     7  O   -0.351498
     8  H    0.004489
     9  H   -0.039190
    10  H    0.005140
    11  H   -0.191249
    12  H    0.144211
    13  H   -0.151572
    14  H   -0.150415
    15  H    0.008891
    16  H    0.433922
 Sum of Mulliken charges =  -0.00000

 Dipole moment (field-independent basis, Debye):
    X=             -1.0732    Y=             -4.9553    Z=             -0.8095  Tot=              5.1344

 Test job not archived.
 1\1\GINC-SE100\SP\RHF\Aug-CC-pVDZ\C4H9N1O2\OHZDE\09-Apr-2025\0\\#t hf
 aug-cc-pvdz iop(5/13=1,5/36=2,99/5=2) pseudo=read geom=check guess=(re
 ad,tcheck) scf=(maxcycle=1)\\title\\0,1\C,0,-2.0300821,-0.79725878,-0.
 26032521\C,0,-0.62406591,-0.29853018,-0.53443892\O,0,-0.73943171,0.943
 22565,-1.18388696\C,0,0.1805295,-0.18960222,0.76234529\N,0,1.62012321,
 -0.04417868,0.54282605\C,0,2.41475021,1.27841118,0.05609133\O,0,1.7949
 1762,2.13529596,-0.47648533\H,0,-2.01909314,-1.80752587,0.15288334\H,0
 ,-2.60089917,-0.80712618,-1.18842908\H,0,-2.53884389,-0.13262353,0.441

 Normal termination of Gaussian 16 at Wed Apr  9 14:50:04 2025.
