 Gaussian 16, Revision C.01,

 ----------------------------------------------------------------------
 #t hf aug-cc-pvdz symm=none int=(grid=ultrafine) guess=(read,tcheck) s
 table=(opt,rrhf)
 ----------------------------------------------------------------------
 -----
 title
 -----
 Symbolic Z-matrix:
 Charge =  0 Multiplicity = 1

 SCF Done:  E(RHF) =  -269.975083060     A.U. after   13 cycles

 1\1\GINC-SE069\Stability\RHF\Aug-CC-pVDZ\C5H10O1\OHZDE\09-Apr-2025\0\\
 #t hf aug-cc-pvdz symm=none int=(grid=ultrafine) guess=(read,tcheck) s
 table=(opt,rrhf)\\title\\0,1\C,0,-2.7457683,0.25266357,-0.53522479\C,0
 ,-1.56126619,-0.56178595,-0.06013552\O,0,-0.51652405,0.24918052,-0.063
 5624\C,0,0.76519465,-0.35665595,0.35120677\C,0,1.59425961,-0.56616534,
 -0.90928019\C,0,1.39614935,0.5954007,1.35893704\H,0,-3.16895627,-0.260
 65625,-1.41479731\H,0,-2.54768082,1.31076698,-0.77951495\H,0,-3.528508
 19,0.18677596,0.23842047\H,0,0.50962953,-1.31993657,0.81216372\H,0,1.0

 Normal termination of Gaussian 16 at Wed Apr  9 03:16:05 2025.
 Gaussian 16:  ES64L-G16RevC.01  3-Jul-2019

 ----------------------------------------------------------------------
 #t hf aug-cc-pvdz iop(5/13=1,5/36=2,99/5=2) pseudo=read geom=check gue
 ss=(read,tcheck) scf=(maxcycle=1)
 ----------------------------------------------------------------------
 -----
 title
 -----
 Structure from the checkpoint file:  "Grambow2020_b97d3_007063_reverse_mol2.chk"
 Charge =  0 Multiplicity = 1

                         Standard orientation:
 ---------------------------------------------------------------------
 Center     Atomic      Atomic             Coordinates (Angstroms)
 Number     Number       Type             X           Y           Z
 ---------------------------------------------------------------------
      1          6           0       -2.682754   -0.054741    0.199297
      2          6           0       -1.406740    0.101266   -0.600411
      3          8           0       -0.405414   -0.121875    0.234287
      4          6           0        0.948588    0.002080   -0.342936
      5          6           0        1.530684    1.320325    0.150488
      6          6           0        1.730408   -1.227412    0.101072
      7          1           0       -3.249193    0.886868    0.105740
      8          1           0       -2.565136   -0.315718    1.265391
      9          1           0       -3.303226   -0.813172   -0.306020
     10          1           0        0.812673    0.021479   -1.432365
     11          1           0        0.912671    2.159462   -0.195278
     12          1           0        1.571335    1.339447    1.248446
     13          1           0        2.549944    1.452168   -0.237641
     14          1           0        2.751162   -1.186330   -0.302499
     15          1           0        1.249651   -2.145234   -0.262178
     16          1           0        1.792311   -1.273079    1.197043
 ---------------------------------------------------------------------

 SCF Done:  E(RHF) =  -270.060651433     A.U. after    2 cycles

 The electronic state is 1-A.
 Alpha  occ. eigenvalues --  -20.62109 -11.30289 -11.29903 -11.23656 -11.23566
 Alpha  occ. eigenvalues --  -11.22728  -1.38145  -1.07075  -0.97917  -0.94297
 Alpha  occ. eigenvalues --   -0.83725  -0.77671  -0.64873  -0.64013  -0.62625
 Alpha  occ. eigenvalues --   -0.59172  -0.56637  -0.56173  -0.55040  -0.52566
 Alpha  occ. eigenvalues --   -0.51167  -0.49153  -0.47978  -0.34988
 Alpha virt. eigenvalues --    0.03547   0.04487   0.04670   0.05046   0.06483
 Alpha virt. eigenvalues --    0.06522   0.06916   0.07526   0.07700   0.08608
 Alpha virt. eigenvalues --    0.11315   0.11657   0.12502   0.13893   0.14670

 Mulliken charges:
               1
     1  C    0.299633
     2  C   -0.264216
     3  O   -0.480775
     4  C   -0.054998
     5  C    0.439145
     6  C    0.472669
     7  H    0.008229
     8  H   -0.202457
     9  H    0.004513
    10  H   -0.111857
    11  H   -0.073847
    12  H    0.016041
    13  H   -0.011953
    14  H    0.000074
    15  H   -0.055007
    16  H    0.014806
 Sum of Mulliken charges =  -0.00000

 Dipole moment (field-independent basis, Debye):
    X=              1.1975    Y=             -0.1437    Z=              0.7090  Tot=              1.3991

 Test job not archived.
 1\1\GINC-SE069\SP\RHF\Aug-CC-pVDZ\C5H10O1\OHZDE\09-Apr-2025\0\\#t hf a
 ug-cc-pvdz iop(5/13=1,5/36=2,99/5=2) pseudo=read geom=check guess=(rea
 d,tcheck) scf=(maxcycle=1)\\title\\0,1\C,0,-2.7457683,0.25266357,-0.53
 522479\C,0,-1.56126619,-0.56178595,-0.06013552\O,0,-0.51652405,0.24918
 052,-0.0635624\C,0,0.76519465,-0.35665595,0.35120677\C,0,1.59425961,-0
 .56616534,-0.90928019\C,0,1.39614935,0.5954007,1.35893704\H,0,-3.16895
 627,-0.26065625,-1.41479731\H,0,-2.54768082,1.31076698,-0.77951495\H,0
 ,-3.52850819,0.18677596,0.23842047\H,0,0.50962953,-1.31993657,0.812163

 Normal termination of Gaussian 16 at Wed Apr  9 03:16:09 2025.
