 Gaussian 16, Revision C.01,

 ----------------------------------------------------------------------
 #t hf aug-cc-pvdz symm=none int=(grid=ultrafine) guess=(read,tcheck) s
 table=(opt,rrhf)
 ----------------------------------------------------------------------
 -----
 title
 -----
 Symbolic Z-matrix:
 Charge =  0 Multiplicity = 1

 SCF Done:  E(RHF) =  -304.492875371     A.U. after   17 cycles
 Normal termination of Gaussian 16 at Wed Apr  9 03:14:48 2025.
 Gaussian 16:  ES64L-G16RevC.01  3-Jul-2019

 ----------------------------------------------------------------------
 #t hf aug-cc-pvdz iop(5/13=1,5/36=2,99/5=2) pseudo=read geom=check gue
 ss=(read,tcheck) scf=(maxcycle=1)
 ----------------------------------------------------------------------
 -----
 title
 -----
 Structure from the checkpoint file:  "Grambow2020_b97d3_007025_forward_mol1.chk"
 Charge =  0 Multiplicity = 1

                         Standard orientation:
 ---------------------------------------------------------------------
 Center     Atomic      Atomic             Coordinates (Angstroms)
 Number     Number       Type             X           Y           Z
 ---------------------------------------------------------------------
      1          8           0        1.593161   -0.600151   -0.563695
      2          6           0        0.757802   -0.851749    0.686287
      3          6           0        0.955897    1.227066   -0.035772
      4          6           0       -0.105102    0.362823    0.573055
      5          6           0       -1.215489   -0.015659   -0.387453
      6          8           0       -2.395935   -0.118482   -0.081117
      7          1           0        2.495996   -0.470243   -0.227532
      8          1           0        0.276159   -1.832263    0.633983
      9          1           0        1.816681    1.471467    0.587292
     10          1           0        0.828494    1.782681   -0.963777
     11          1           0       -0.521368    0.779215    1.503237
     12          1           0       -0.832422   -0.316679   -1.391411
 ---------------------------------------------------------------------

 SCF Done:  E(RHF) =  -304.584009699     A.U. after    2 cycles

 The electronic state is 1-A.
 Alpha  occ. eigenvalues --  -20.62889 -20.56329 -11.42003 -11.34284 -11.27650
 Alpha  occ. eigenvalues --  -11.22514  -1.34850  -1.33786  -1.11294  -0.95624
 Alpha  occ. eigenvalues --   -0.84520  -0.79579  -0.72197  -0.70320  -0.66111
 Alpha  occ. eigenvalues --   -0.63391  -0.62662  -0.59716  -0.55572  -0.52696
 Alpha  occ. eigenvalues --   -0.47891  -0.43780  -0.27269
 Alpha virt. eigenvalues --    0.00692   0.01953   0.03703   0.04969   0.05567
 Alpha virt. eigenvalues --    0.06688   0.07171   0.10073   0.10266   0.10690
 Alpha virt. eigenvalues --    0.11664   0.13517   0.14138   0.15021   0.15423

 Mulliken charges:
               1
     1  O   -0.646717
     2  C    0.200379
     3  C    0.897055
     4  C    0.117525
     5  C    0.577428
     6  O   -0.502339
     7  H    0.253186
     8  H   -0.329321
     9  H   -0.154793
    10  H   -0.169765
    11  H   -0.183897
    12  H   -0.058740
 Sum of Mulliken charges =  -0.00000

 Dipole moment (field-independent basis, Debye):
    X=              4.4764    Y=              5.0232    Z=             -1.6539  Tot=              6.9286

 Test job not archived.
 1\1\GINC-SE365\SP\RHF\Aug-CC-pVDZ\C4H6O2\OHZDE\09-Apr-2025\0\\#t hf au
 g-cc-pvdz iop(5/13=1,5/36=2,99/5=2) pseudo=read geom=check guess=(read
 ,tcheck) scf=(maxcycle=1)\\title\\0,1\O,0,-1.37216044,0.76951494,-0.11
 136489\C,0,-1.03437391,-0.70282634,0.09281885\C,0,0.34090966,0.5243494
 6,-1.12567082\C,0,0.43967019,-0.57986769,-0.11856799\C,0,1.00690871,-0
 .14358868,1.21810058\O,0,1.74657399,-0.82449215,1.91605044\H,0,-1.9340
 5621,0.77964882,-0.90456255\H,0,-1.38769817,-1.04482883,1.06971116\H,0
 ,-0.12662347,0.28573105,-2.08137118\H,0,0.87719468,1.4689211,-1.046193

 Normal termination of Gaussian 16 at Wed Apr  9 03:14:52 2025.
