 Gaussian 16, Revision C.01,

 ----------------------------------------------------------------------
 #t hf aug-cc-pvdz symm=none int=(grid=ultrafine) guess=(read,tcheck) s
 table=(opt,rrhf)
 ----------------------------------------------------------------------
 -----
 title
 -----
 Symbolic Z-matrix:
 Charge =  0 Multiplicity = 1

 SCF Done:  E(RHF) =  -321.534984693     A.U. after   16 cycles
 Normal termination of Gaussian 16 at Wed Apr  9 03:45:15 2025.
 Gaussian 16:  ES64L-G16RevC.01  3-Jul-2019

 ----------------------------------------------------------------------
 #t hf aug-cc-pvdz iop(5/13=1,5/36=2,99/5=2) pseudo=read geom=check gue
 ss=(read,tcheck) scf=(maxcycle=1)
 ----------------------------------------------------------------------
 -----
 title
 -----
 Structure from the checkpoint file:  "Grambow2020_wb97xd3_007887_reverse_mol2.chk"
 Charge =  0 Multiplicity = 1

                         Standard orientation:
 ---------------------------------------------------------------------
 Center     Atomic      Atomic             Coordinates (Angstroms)
 Number     Number       Type             X           Y           Z
 ---------------------------------------------------------------------
      1          8           0       -2.151162   -0.513900    0.000871
      2          6           0       -1.019574   -0.112635   -0.040449
      3          6           0       -0.542730    1.284695    0.167301
      4          7           0        1.195257   -0.912388    0.734463
      5          6           0        0.214622   -0.928633   -0.365632
      6          6           0        1.338132    0.019202   -0.395106
      7          6           0        0.765916    1.361125   -0.064652
      8          1           0       -1.198646    2.082315    0.485494
      9          1           0        1.825485   -1.699903    0.617091
     10          1           0        0.131791   -1.794691   -1.007605
     11          1           0        2.173153   -0.085641   -1.074784
     12          1           0        1.372507    2.253309    0.022820
 ---------------------------------------------------------------------

 SCF Done:  E(RHF) =  -321.628998285     A.U. after    2 cycles

 The electronic state is 1-A.
 Alpha  occ. eigenvalues --  -20.56599 -15.65455 -11.34700 -11.29822 -11.28821
 Alpha  occ. eigenvalues --  -11.28008 -11.25538  -1.36155  -1.28015  -1.09652
 Alpha  occ. eigenvalues --   -0.94030  -0.91056  -0.79713  -0.75697  -0.73581
 Alpha  occ. eigenvalues --   -0.67471  -0.62697  -0.62029  -0.57096  -0.56718
 Alpha  occ. eigenvalues --   -0.52423  -0.50122  -0.45031  -0.40238  -0.38221
 Alpha virt. eigenvalues --    0.02529   0.03548   0.04553   0.04804   0.06090
 Alpha virt. eigenvalues --    0.07213   0.09140   0.11010   0.11829   0.12561
 Alpha virt. eigenvalues --    0.12928   0.13266   0.14310   0.15059   0.15534

 Mulliken charges:
               1
     1  O   -0.453468
     2  C   -0.014903
     3  C    0.661120
     4  N   -0.591928
     5  C    0.608967
     6  C    0.515442
     7  C    0.408591
     8  H   -0.314876
     9  H   -0.003859
    10  H   -0.262754
    11  H   -0.284905
    12  H   -0.267428
 Sum of Mulliken charges =  -0.00000

 Dipole moment (field-independent basis, Debye):
    X=              4.4729    Y=              0.8120    Z=             -1.6675  Tot=              4.8422

 Test job not archived.
 1\1\GINC-SE398\SP\RHF\Aug-CC-pVDZ\C5H5N1O1\OHZDE\09-Apr-2025\0\\#t hf
 aug-cc-pvdz iop(5/13=1,5/36=2,99/5=2) pseudo=read geom=check guess=(re
 ad,tcheck) scf=(maxcycle=1)\\title\\0,1\O,0,-0.55574906,-2.07469614,1.
 40247637\C,0,-0.17676747,-1.1488711,0.73731938\C,0,1.08351883,-1.05390
 531,-0.05371113\N,0,-1.20565001,0.46959203,-0.83352356\C,0,-0.87140905
 ,0.1873905,0.57387242\C,0,0.02444235,1.01925957,-0.24281421\C,0,1.2090
 2324,0.1666271,-0.57018829\H,0,1.75478627,-1.89095144,-0.18186703\H,0,
 -1.92829885,1.18258615,-0.85722935\H,0,-1.49867149,0.5670958,1.3684872

 Normal termination of Gaussian 16 at Wed Apr  9 03:45:20 2025.
