 Gaussian 16, Revision C.01,

 ----------------------------------------------------------------------
 #t hf aug-cc-pvdz symm=none int=(grid=ultrafine) guess=(read,tcheck) s
 table=(opt,rrhf)
 ----------------------------------------------------------------------
 -----
 title
 -----
 Symbolic Z-matrix:
 Charge =  0 Multiplicity = 1

 SCF Done:  E(RHF) =  -260.502005011     A.U. after   16 cycles
 Normal termination of Gaussian 16 at Wed Apr  9 14:19:58 2025.
 Gaussian 16:  ES64L-G16RevC.01  3-Jul-2019

 ----------------------------------------------------------------------
 #t hf aug-cc-pvdz iop(5/13=1,5/36=2,99/5=2) pseudo=read geom=check gue
 ss=(read,tcheck) scf=(maxcycle=1)
 ----------------------------------------------------------------------
 -----
 title
 -----
 Structure from the checkpoint file:  "Grambow2020_wb97xd3_006039_reverse_mol1.chk"
 Charge =  0 Multiplicity = 1

                         Standard orientation:
 ---------------------------------------------------------------------
 Center     Atomic      Atomic             Coordinates (Angstroms)
 Number     Number       Type             X           Y           Z
 ---------------------------------------------------------------------
      1          8           0       -2.120459   -0.182701   -0.002193
      2          6           0       -1.057053    0.517994    0.001115
      3          6           0        0.005879   -0.364486    0.003389
      4          7           0        1.271952   -0.068497    0.000779
      5          7           0        2.379370    0.074723   -0.002203
      6          1           0       -1.095370    1.606831    0.001035
      7          1           0       -1.193170   -1.109851   -0.000541
 ---------------------------------------------------------------------

 SCF Done:  E(RHF) =  -260.583876118     A.U. after    2 cycles

 The electronic state is 1-A.
 Alpha  occ. eigenvalues --  -20.59293 -15.84661 -15.77152 -11.37477 -11.26638
 Alpha  occ. eigenvalues --   -1.46337  -1.38462  -1.13777  -0.91792  -0.81722
 Alpha  occ. eigenvalues --   -0.69414  -0.69290  -0.69079  -0.64894  -0.58736
 Alpha  occ. eigenvalues --   -0.52686  -0.41511  -0.34535
 Alpha virt. eigenvalues --    0.03262   0.05014   0.05168   0.07240   0.08235
 Alpha virt. eigenvalues --    0.09744   0.10541   0.10964   0.11747   0.12961
 Alpha virt. eigenvalues --    0.14631   0.18054   0.18865   0.19730   0.22115

 Mulliken charges:
               1
     1  O   -0.622040
     2  C    0.664451
     3  C   -0.317609
     4  N    0.239839
     5  N   -0.296324
     6  H   -0.169957
     7  H    0.501639
 Sum of Mulliken charges =  -0.00000

 Dipole moment (field-independent basis, Debye):
    X=              1.9620    Y=              1.7666    Z=              0.0003  Tot=              2.6402

 Test job not archived.
 1\1\GINC-SE232\SP\RHF\Aug-CC-pVDZ\C2H2N2O1\OHZDE\09-Apr-2025\0\\#t hf
 aug-cc-pvdz iop(5/13=1,5/36=2,99/5=2) pseudo=read geom=check guess=(re
 ad,tcheck) scf=(maxcycle=1)\\title\\0,1\O,0,-0.87092392,1.38922919,-0.
 75356974\C,0,-0.55930202,0.71940547,0.28375613\C,0,0.28522697,-0.29265
 486,-0.12989359\N,0,0.84237757,-1.20290121,0.61279909\N,0,1.36915677,-
 2.02374186,1.15650887\H,0,-0.9451681,0.98504345,1.26741171\H,0,-0.0810
 2027,0.47242082,-1.25853247\\Version=ES64L-G16RevC.01\State=1-A\HF=-26
 0.5838761\RMSD=4.959e-03\Dipole=0.1653395,-0.4444331,0.9241662\Quadrup

 Normal termination of Gaussian 16 at Wed Apr  9 14:20:00 2025.
