 Gaussian 16, Revision C.01,

 ----------------------------------------------------------------------
 #t hf aug-cc-pvdz symm=none int=(grid=ultrafine) guess=(read,tcheck) s
 table=(opt,rrhf)
 ----------------------------------------------------------------------
 -----
 title
 -----
 Symbolic Z-matrix:
 Charge =  0 Multiplicity = 1

 SCF Done:  E(RHF) =  -358.367804723     A.U. after   17 cycles
 Normal termination of Gaussian 16 at Wed Apr  9 03:28:35 2025.
 Gaussian 16:  ES64L-G16RevC.01  3-Jul-2019

 ----------------------------------------------------------------------
 #t hf aug-cc-pvdz iop(5/13=1,5/36=2,99/5=2) pseudo=read geom=check gue
 ss=(read,tcheck) scf=(maxcycle=1)
 ----------------------------------------------------------------------
 -----
 title
 -----
 Structure from the checkpoint file:  "Grambow2020_wb97xd3_006795_reverse_mol1.chk"
 Charge =  0 Multiplicity = 1

                         Standard orientation:
 ---------------------------------------------------------------------
 Center     Atomic      Atomic             Coordinates (Angstroms)
 Number     Number       Type             X           Y           Z
 ---------------------------------------------------------------------
      1          8           0        1.695424   -0.725913   -0.534973
      2          6           0        1.208130   -0.158397    0.519710
      3          6           0        0.007708   -0.950319    0.192358
      4          6           0       -2.095390   -0.481790    0.251787
      5          7           0       -0.897452   -0.112381   -0.436445
      6          6           0       -0.461156    1.130975   -0.349786
      7          8           0        0.676795    1.284677    0.239054
      8          1           0        1.760592   -0.051926    1.453863
      9          1           0       -0.101585   -2.015909    0.213896
     10          1           0       -2.419186    0.210188    1.015872
     11          1           0       -2.822258   -1.048876   -0.313911
     12          1           0       -1.068906    1.980262   -0.631662
 ---------------------------------------------------------------------

 SCF Done:  E(RHF) =  -358.477850321     A.U. after    2 cycles

 The electronic state is 1-A.
 Alpha  occ. eigenvalues --  -20.66200 -20.55406 -15.71979 -11.42608 -11.39559
 Alpha  occ. eigenvalues --  -11.38485 -11.24472  -1.47445  -1.34115  -1.29645
 Alpha  occ. eigenvalues --   -1.02101  -0.94869  -0.90054  -0.84617  -0.77265
 Alpha  occ. eigenvalues --   -0.71487  -0.69425  -0.67593  -0.64296  -0.61825
 Alpha  occ. eigenvalues --   -0.61192  -0.57234  -0.50875  -0.47148  -0.41528
 Alpha  occ. eigenvalues --   -0.28049
 Alpha virt. eigenvalues --    0.02952   0.03668   0.04385   0.04951   0.05907
 Alpha virt. eigenvalues --    0.06868   0.08728   0.09726   0.10455   0.12016
 Alpha virt. eigenvalues --    0.12313   0.12767   0.14196   0.14745   0.15163

 Mulliken charges:
               1
     1  O   -0.700939
     2  C    1.079585
     3  C    0.616866
     4  C    0.734405
     5  N   -0.368863
     6  C    0.644231
     7  O   -0.572021
     8  H   -0.165849
     9  H   -0.324418
    10  H   -0.373042
    11  H   -0.370050
    12  H   -0.199904
 Sum of Mulliken charges =  -0.00000

 Dipole moment (field-independent basis, Debye):
    X=             -1.7789    Y=              1.5302    Z=              1.2451  Tot=              2.6564

 Test job not archived.
 1\1\GINC-SE094\SP\RHF\Aug-CC-pVDZ\C4H5N1O2\OHZDE\09-Apr-2025\0\\#t hf
 aug-cc-pvdz iop(5/13=1,5/36=2,99/5=2) pseudo=read geom=check guess=(re
 ad,tcheck) scf=(maxcycle=1)\\title\\0,1\O,0,1.8879622,-1.01916508,0.28
 523046\C,0,1.16099067,-0.70471529,-0.73678736\C,0,0.77554735,0.4488439
 8,0.09750854\C,0,-1.11434514,1.43372968,0.42058664\N,0,-0.46537735,0.1
 8009074,0.64952809\C,0,-0.95519377,-0.91131073,0.09031463\O,0,-0.19295
 337,-1.48485593,-0.77877929\H,0,1.51833648,-0.75411591,-1.76589123\H,0
 ,1.39561169,1.25957873,0.42326838\H,0,-1.80403172,1.44980827,-0.411023

 Normal termination of Gaussian 16 at Wed Apr  9 03:28:40 2025.
