 Gaussian 16, Revision C.01,

 ----------------------------------------------------------------------
 #t hf aug-cc-pvdz symm=none int=(grid=ultrafine) guess=(read,tcheck) s
 table=(opt,rrhf)
 ----------------------------------------------------------------------
 -----
 title
 -----
 Symbolic Z-matrix:
 Charge =  0 Multiplicity = 1

 SCF Done:  E(RHF) =  -308.947816648     A.U. after   15 cycles

 1\1\GINC-SE112\Stability\RHF\Aug-CC-pVDZ\C6H12O1\OHZDE\09-Apr-2025\0\\
 #t hf aug-cc-pvdz symm=none int=(grid=ultrafine) guess=(read,tcheck) s
 table=(opt,rrhf)\\title\\0,1\C,0,1.77991437,-0.22015382,-1.21281974\C,
 0,1.04959028,0.09500406,0.02509087\O,0,0.47261792,2.00834988,-0.748110
 16\C,0,-0.37783211,1.58911849,0.1523604\C,0,-0.2975917,-0.2084383,0.29
 966816\C,0,-0.71268128,-0.54869052,1.71137213\C,0,-1.14904032,-0.82993
 214,-0.78253792\H,0,2.63230188,0.43867869,-1.35097951\H,0,2.13470461,-
 1.25551512,-1.1010583\H,0,1.13384998,-0.17589335,-2.08488635\H,0,1.651

 Normal termination of Gaussian 16 at Wed Apr  9 14:36:10 2025.
 Gaussian 16:  ES64L-G16RevC.01  3-Jul-2019

 ----------------------------------------------------------------------
 #t hf aug-cc-pvdz iop(5/13=1,5/36=2,99/5=2) pseudo=read geom=check gue
 ss=(read,tcheck) scf=(maxcycle=1)
 ----------------------------------------------------------------------
 -----
 title
 -----
 Structure from the checkpoint file:  "Grambow2020_wb97xd3_006576_forward_mol1.chk"
 Charge =  0 Multiplicity = 1

                         Standard orientation:
 ---------------------------------------------------------------------
 Center     Atomic      Atomic             Coordinates (Angstroms)
 Number     Number       Type             X           Y           Z
 ---------------------------------------------------------------------
      1          6           0       -1.677438   -1.196359   -0.358864
      2          6           0       -0.547595   -0.334497   -0.740663
      3          8           0       -1.371986    1.310629    0.357322
      4          6           0       -0.073571    1.421153    0.248835
      5          6           0        0.669551   -0.197495   -0.046289
      6          6           0        1.945375    0.043159   -0.817869
      7          6           0        0.848179   -0.906064    1.275986
      8          1           0       -2.610253   -0.844116   -0.789555
      9          1           0       -1.446403   -2.194984   -0.758500
     10          1           0       -1.776293   -1.277863    0.719766
     11          1           0       -0.585036    0.091802   -1.739368
     12          1           0        0.504575    1.752627    1.141854
     13          1           0        0.331562    1.936116   -0.643382
     14          1           0        1.755334    0.440109   -1.816035
     15          1           0        2.517997   -0.882021   -0.926575
     16          1           0        2.579919    0.758116   -0.285016
     17          1           0        1.002790   -1.981818    1.150810
     18          1           0       -0.010824   -0.754972    1.930828
     19          1           0        1.725521   -0.507402    1.789777
 ---------------------------------------------------------------------

 SCF Done:  E(RHF) =  -309.044456325     A.U. after    2 cycles

 The electronic state is 1-A.
 Alpha  occ. eigenvalues --  -20.45654 -11.35386 -11.30591 -11.25409 -11.25374
 Alpha  occ. eigenvalues --  -11.24705 -11.23724  -1.24550  -1.12382  -1.03052
 Alpha  occ. eigenvalues --   -0.95387  -0.91388  -0.83139  -0.75418  -0.66220
 Alpha  occ. eigenvalues --   -0.64444  -0.63287  -0.60003  -0.58484  -0.56779
 Alpha  occ. eigenvalues --   -0.55860  -0.54911  -0.54582  -0.52263  -0.49971
 Alpha  occ. eigenvalues --   -0.48982  -0.36283  -0.32204
 Alpha virt. eigenvalues --    0.02624   0.03943   0.04097   0.04854   0.05654
 Alpha virt. eigenvalues --    0.06236   0.06451   0.07097   0.07506   0.08254
 Alpha virt. eigenvalues --    0.09242   0.09314   0.09672   0.12818   0.12936

 Mulliken charges:
               1
     1  C    0.197640
     2  C    0.383873
     3  O   -0.812450
     4  C    0.858439
     5  C   -1.927746
     6  C    0.834542
     7  C    1.003168
     8  H    0.057136
     9  H    0.172665
    10  H    0.098028
    11  H   -0.467144
    12  H   -0.119725
    13  H   -0.173692
    14  H   -0.091771
    15  H   -0.072922
    16  H    0.051902
    17  H   -0.012835
    18  H    0.032711
    19  H   -0.011818
 Sum of Mulliken charges =  -0.00000

 Dipole moment (field-independent basis, Debye):
    X=              2.9117    Y=             -3.7295    Z=             -2.1524  Tot=              5.1981

 Test job not archived.
 1\1\GINC-SE112\SP\RHF\Aug-CC-pVDZ\C6H12O1\OHZDE\09-Apr-2025\0\\#t hf a
 ug-cc-pvdz iop(5/13=1,5/36=2,99/5=2) pseudo=read geom=check guess=(rea
 d,tcheck) scf=(maxcycle=1)\\title\\0,1\C,0,1.77991437,-0.22015382,-1.2
 1281974\C,0,1.04959028,0.09500406,0.02509087\O,0,0.47261792,2.00834988
 ,-0.74811016\C,0,-0.37783211,1.58911849,0.1523604\C,0,-0.2975917,-0.20
 84383,0.29966816\C,0,-0.71268128,-0.54869052,1.71137213\C,0,-1.1490403
 2,-0.82993214,-0.78253792\H,0,2.63230188,0.43867869,-1.35097951\H,0,2.
 13470461,-1.25551512,-1.1010583\H,0,1.13384998,-0.17589335,-2.08488635

 Normal termination of Gaussian 16 at Wed Apr  9 14:36:17 2025.
