 Gaussian 16, Revision C.01,

 ----------------------------------------------------------------------
 #t hf aug-cc-pvdz symm=none int=(grid=ultrafine) guess=(read,tcheck) s
 table=(opt,rrhf)
 ----------------------------------------------------------------------
 -----
 title
 -----
 Symbolic Z-matrix:
 Charge =  0 Multiplicity = 1

 SCF Done:  E(RHF) =  -234.058460420     A.U. after   14 cycles
 Normal termination of Gaussian 16 at Wed Apr  9 14:09:33 2025.
 Gaussian 16:  ES64L-G16RevC.01  3-Jul-2019

 ----------------------------------------------------------------------
 #t hf aug-cc-pvdz iop(5/13=1,5/36=2,99/5=2) pseudo=read geom=check gue
 ss=(read,tcheck) scf=(maxcycle=1)
 ----------------------------------------------------------------------
 -----
 title
 -----
 Structure from the checkpoint file:  "Grambow2020_b97d3_006794_reverse_mol2.chk"
 Charge =  0 Multiplicity = 1

                         Standard orientation:
 ---------------------------------------------------------------------
 Center     Atomic      Atomic             Coordinates (Angstroms)
 Number     Number       Type             X           Y           Z
 ---------------------------------------------------------------------
      1          6           0       -3.406078   -0.026426    0.383071
      2          6           0       -0.412855    0.072743   -0.917927
      3          6           0        0.250309    1.125889   -0.122661
      4          6           0        1.362525    0.008974   -0.384971
      5          6           0        2.465058   -0.062459    0.680821
      6          6           0        0.202463   -1.075722   -0.221251
      7          1           0       -2.791309   -0.193543    1.276111
      8          1           0       -4.106895   -0.861290    0.259861
      9          1           0       -3.965426    0.910713    0.492905
     10          1           0       -2.755423    0.037371   -0.501058
     11          1           0        0.137727    1.165036    0.974186
     12          1           0        0.336854    2.126283   -0.560975
     13          1           0        1.806074    0.043227   -1.381826
     14          1           0        3.073686   -0.963992    0.524176
     15          1           0        3.117003    0.818561    0.599714
     16          1           0        2.046796   -0.095345    1.693635
     17          1           0        0.245421   -2.035962   -0.747278
     18          1           0        0.086956   -1.209049    0.868060
 ---------------------------------------------------------------------

 SCF Done:  E(RHF) =  -234.132399488     A.U. after    2 cycles

 The electronic state is 1-A.
 Alpha  occ. eigenvalues --  -11.27946 -11.25767 -11.25054 -11.24734 -11.24714
 Alpha  occ. eigenvalues --  -11.21585  -1.16468  -0.98525  -0.93054  -0.91303
 Alpha  occ. eigenvalues --   -0.79504  -0.73825  -0.66725  -0.59059  -0.57254
 Alpha  occ. eigenvalues --   -0.56780  -0.54599  -0.54015  -0.53971  -0.50941
 Alpha  occ. eigenvalues --   -0.49894  -0.49743  -0.44598  -0.32890
 Alpha virt. eigenvalues --    0.03176   0.04166   0.04342   0.04692   0.06171
 Alpha virt. eigenvalues --    0.06275   0.06549   0.07125   0.07555   0.08287
 Alpha virt. eigenvalues --    0.09133   0.09608   0.11662   0.12165   0.14328

 Mulliken charges:
               1
     1  C    0.660784
     2  C   -0.251585
     3  C    0.786279
     4  C   -0.518870
     5  C    0.548417
     6  C    0.756444
     7  H   -0.168848
     8  H   -0.121356
     9  H   -0.111861
    10  H   -0.188451
    11  H   -0.207986
    12  H   -0.258668
    13  H   -0.422846
    14  H    0.016501
    15  H    0.016734
    16  H   -0.064177
    17  H   -0.255491
    18  H   -0.215019
 Sum of Mulliken charges =  -0.00000

 Dipole moment (field-independent basis, Debye):
    X=              1.9436    Y=             -0.1356    Z=              2.1029  Tot=              2.8667

 Test job not archived.
 1\1\GINC-SE043\SP\RHF\Aug-CC-pVDZ\C6H12\OHZDE\09-Apr-2025\0\\#t hf aug
 -cc-pvdz iop(5/13=1,5/36=2,99/5=2) pseudo=read geom=check guess=(read,
 tcheck) scf=(maxcycle=1)\\title\\0,1\C,0,-3.26282163,0.36766216,0.3644
 5787\C,0,-0.31931684,0.26741602,-1.04534403\C,0,0.49666709,1.11225306,
 -0.14992732\C,0,1.44690855,-0.0889538,-0.60541968\C,0,2.56003563,-0.44
 091533,0.39140809\C,0,0.16095921,-1.03244982,-0.53287179\H,0,-2.650356
 88,0.00589875,1.19956464\H,0,-4.06914955,-0.3487974,0.16484936\H,0,-3.
 69263136,1.34376777,0.62067316\H,0,-2.63419663,0.46870224,-0.53205102\

 Normal termination of Gaussian 16 at Wed Apr  9 14:09:41 2025.
