 Gaussian 16, Revision C.01,

 ----------------------------------------------------------------------
 #t hf aug-cc-pvdz symm=none int=(grid=ultrafine) guess=(read,tcheck) s
 table=(opt,rrhf)
 ----------------------------------------------------------------------
 -----
 title
 -----
 Symbolic Z-matrix:
 Charge =  0 Multiplicity = 1

 SCF Done:  E(RHF) =  -283.547803933     A.U. after   15 cycles
 Normal termination of Gaussian 16 at Wed Apr  9 13:41:36 2025.
 Gaussian 16:  ES64L-G16RevC.01  3-Jul-2019

 ----------------------------------------------------------------------
 #t hf aug-cc-pvdz iop(5/13=1,5/36=2,99/5=2) pseudo=read geom=check gue
 ss=(read,tcheck) scf=(maxcycle=1)
 ----------------------------------------------------------------------
 -----
 title
 -----
 Structure from the checkpoint file:  "Grambow2020_b97d3_006657_reverse_mol1.chk"
 Charge =  0 Multiplicity = 1

                         Standard orientation:
 ---------------------------------------------------------------------
 Center     Atomic      Atomic             Coordinates (Angstroms)
 Number     Number       Type             X           Y           Z
 ---------------------------------------------------------------------
      1          7           0       -2.776360    0.524311   -0.143732
      2          6           0       -1.774426   -0.037663    0.077944
      3          6           0       -0.492533   -0.684326    0.336860
      4          6           0        0.604402   -0.302624   -0.706859
      5          6           0        1.741406    0.871444    0.203315
      6          8           0        1.861308   -0.516412   -0.058489
      7          1           0       -0.586656   -1.773181    0.170501
      8          1           0       -0.198416   -0.559834    1.392975
      9          1           0        0.862589    1.152658   -0.589437
     10          1           0        2.597080    1.438544   -0.178948
     11          1           0        1.396363    1.121941    1.211380
 ---------------------------------------------------------------------

 SCF Done:  E(RHF) =  -283.631909753     A.U. after    2 cycles

 The electronic state is 1-A.
 Alpha  occ. eigenvalues --  -20.63067 -15.65270 -11.36418 -11.36130 -11.31248
 Alpha  occ. eigenvalues --  -11.30275  -1.41131  -1.19422  -1.06699  -0.96940
 Alpha  occ. eigenvalues --   -0.86625  -0.74383  -0.69751  -0.67302  -0.64855
 Alpha  occ. eigenvalues --   -0.61563  -0.56620  -0.55065  -0.52928  -0.46913
 Alpha  occ. eigenvalues --   -0.46153  -0.38513
 Alpha virt. eigenvalues --    0.02663   0.03776   0.04623   0.05851   0.06717
 Alpha virt. eigenvalues --    0.08046   0.09073   0.09350   0.11582   0.12488
 Alpha virt. eigenvalues --    0.13453   0.13815   0.14703   0.15042   0.15508

 Mulliken charges:
               1
     1  N   -0.226213
     2  C   -0.145149
     3  C    0.331637
     4  C   -0.175084
     5  C    0.703459
     6  O   -0.649180
     7  H    0.133314
     8  H    0.050447
     9  H    0.220195
    10  H   -0.160488
    11  H   -0.082938
 Sum of Mulliken charges =  -0.00000

 Dipole moment (field-independent basis, Debye):
    X=              3.1975    Y=              0.4581    Z=              2.4175  Tot=              4.0346

 Test job not archived.
 1\1\GINC-SE054\SP\RHF\Aug-CC-pVDZ\C4H5N1O1\OHZDE\09-Apr-2025\0\\#t hf
 aug-cc-pvdz iop(5/13=1,5/36=2,99/5=2) pseudo=read geom=check guess=(re
 ad,tcheck) scf=(maxcycle=1)\\title\\0,1\N,0,3.06895661,0.33001283,0.39
 935027\C,0,2.05933942,-0.19949655,0.13644437\C,0,0.76880772,-0.8052669
 3,-0.1734414\C,0,-0.34662292,-0.41970779,0.84904243\C,0,-1.42675487,0.
 80591987,-0.06243104\O,0,-1.59001551,-0.58415268,0.1614126\H,0,0.82986
 89,-1.89994316,-0.03168907\H,0,0.50772155,-0.64751912,-1.23378603\H,0,
 -0.56346393,1.04435864,0.76081382\H,0,-2.27775184,1.38627511,0.3102579

 Normal termination of Gaussian 16 at Wed Apr  9 13:41:40 2025.
