 Gaussian 16, Revision C.01,

 ----------------------------------------------------------------------
 #t hf aug-cc-pvdz symm=none int=(grid=ultrafine) guess=(read,tcheck) s
 table=(opt,rrhf)
 ----------------------------------------------------------------------
 -----
 title
 -----
 Symbolic Z-matrix:
 Charge =  0 Multiplicity = 1

 SCF Done:  E(RHF) =  -269.842979543     A.U. after   16 cycles

 1\1\GINC-SE054\Stability\RHF\Aug-CC-pVDZ\C5H10O1\OHZDE\09-Apr-2025\0\\
 #t hf aug-cc-pvdz symm=none int=(grid=ultrafine) guess=(read,tcheck) s
 table=(opt,rrhf)\\title\\0,1\C,0,2.43485841,0.0007272,0.47350231\C,0,1
 .98954882,0.23753432,-0.89625588\C,0,-0.18149855,0.0295203,-0.13876253
 \O,0,0.20152995,-0.1805624,1.00126709\C,0,-1.67704579,0.06407369,-0.45
 019681\C,0,-2.62081501,-0.26511264,0.71628408\H,0,3.22328022,0.2546045
 4,-0.78410195\H,0,2.66522133,0.84195387,1.11845289\H,0,2.72457533,-1.0
 0034533,0.7756598\H,0,1.78987698,-0.5944137,-1.56588654\H,0,1.7334477,

 Normal termination of Gaussian 16 at Wed Apr  9 13:53:26 2025.
 Gaussian 16:  ES64L-G16RevC.01  3-Jul-2019

 ----------------------------------------------------------------------
 #t hf aug-cc-pvdz iop(5/13=1,5/36=2,99/5=2) pseudo=read geom=check gue
 ss=(read,tcheck) scf=(maxcycle=1)
 ----------------------------------------------------------------------
 -----
 title
 -----
 Structure from the checkpoint file:  "Grambow2020_b97d3_006741_forward_mol1.chk"
 Charge =  0 Multiplicity = 1

                         Standard orientation:
 ---------------------------------------------------------------------
 Center     Atomic      Atomic             Coordinates (Angstroms)
 Number     Number       Type             X           Y           Z
 ---------------------------------------------------------------------
      1          6           0       -2.359771   -0.612589   -0.007599
      2          6           0       -2.068976    0.817495    0.022604
      3          6           0        0.175668    0.277662   -0.003230
      4          8           0       -0.077945   -0.916511   -0.015219
      5          6           0        1.627830    0.752575   -0.026250
      6          6           0        2.701508   -0.344771    0.026557
      7          1           0       -3.284089    0.575736    0.026323
      8          1           0       -2.570960   -1.099847   -0.953468
      9          1           0       -2.560623   -1.136752    0.920999
     10          1           0       -1.891285    1.327247    0.965467
     11          1           0       -1.904984    1.371721   -0.897005
     12          1           0        1.741866    1.469573    0.803627
     13          1           0        1.727555    1.364551   -0.939477
     14          1           0        2.580100   -1.044742   -0.810193
     15          1           0        3.711499    0.086537   -0.022382
     16          1           0        2.616925   -0.924165    0.955371
 ---------------------------------------------------------------------

 SCF Done:  E(RHF) =  -269.927513914     A.U. after    2 cycles

 The electronic state is 1-A.
 Alpha  occ. eigenvalues --  -20.53729 -11.33450 -11.30008 -11.24895 -11.21281
 Alpha  occ. eigenvalues --  -11.20327  -1.30838  -1.08954  -1.00051  -0.85882
 Alpha  occ. eigenvalues --   -0.84308  -0.69475  -0.68585  -0.64260  -0.61666
 Alpha  occ. eigenvalues --   -0.59103  -0.56703  -0.56658  -0.52041  -0.50175
 Alpha  occ. eigenvalues --   -0.48469  -0.46336  -0.43842  -0.24872
 Alpha virt. eigenvalues --    0.02902   0.04380   0.04593   0.04685   0.06013
 Alpha virt. eigenvalues --    0.06406   0.06543   0.07157   0.08554   0.08791
 Alpha virt. eigenvalues --    0.09420   0.10901   0.13345   0.14219   0.14433

 Mulliken charges:
               1
     1  C    0.665606
     2  C    0.740969
     3  C   -0.377335
     4  O   -0.564534
     5  C   -0.136424
     6  C    0.458897
     7  H   -0.000626
     8  H   -0.220428
     9  H   -0.219361
    10  H   -0.064386
    11  H   -0.070722
    12  H   -0.018125
    13  H    0.000111
    14  H   -0.059627
    15  H   -0.070329
    16  H   -0.063688
 Sum of Mulliken charges =   0.00000

 Dipole moment (field-independent basis, Debye):
    X=             -3.8713    Y=              1.3876    Z=              0.0111  Tot=              4.1125

 Test job not archived.
 1\1\GINC-SE054\SP\RHF\Aug-CC-pVDZ\C5H10O1\OHZDE\09-Apr-2025\0\\#t hf a
 ug-cc-pvdz iop(5/13=1,5/36=2,99/5=2) pseudo=read geom=check guess=(rea
 d,tcheck) scf=(maxcycle=1)\\title\\0,1\C,0,2.43485841,0.0007272,0.4735
 0231\C,0,1.98954882,0.23753432,-0.89625588\C,0,-0.18149855,0.0295203,-
 0.13876253\O,0,0.20152995,-0.1805624,1.00126709\C,0,-1.67704579,0.0640
 7369,-0.45019681\C,0,-2.62081501,-0.26511264,0.71628408\H,0,3.22328022
 ,0.25460454,-0.78410195\H,0,2.66522133,0.84195387,1.11845289\H,0,2.724
 57533,-1.00034533,0.7756598\H,0,1.78987698,-0.5944137,-1.56588654\H,0,

 Normal termination of Gaussian 16 at Wed Apr  9 13:53:31 2025.
