 Gaussian 16, Revision C.01,

 ----------------------------------------------------------------------
 #t hf aug-cc-pvdz symm=none int=(grid=ultrafine) guess=(read,tcheck) s
 table=(opt,rrhf)
 ----------------------------------------------------------------------
 -----
 title
 -----
 Symbolic Z-matrix:
 Charge =  0 Multiplicity = 1

 SCF Done:  E(RHF) =  -304.507646009     A.U. after   15 cycles
 Normal termination of Gaussian 16 at Wed Apr  9 03:20:26 2025.
 Gaussian 16:  ES64L-G16RevC.01  3-Jul-2019

 ----------------------------------------------------------------------
 #t hf aug-cc-pvdz iop(5/13=1,5/36=2,99/5=2) pseudo=read geom=check gue
 ss=(read,tcheck) scf=(maxcycle=1)
 ----------------------------------------------------------------------
 -----
 title
 -----
 Structure from the checkpoint file:  "Grambow2020_wb97xd3_006102_reverse_mol1.chk"
 Charge =  0 Multiplicity = 1

                         Standard orientation:
 ---------------------------------------------------------------------
 Center     Atomic      Atomic             Coordinates (Angstroms)
 Number     Number       Type             X           Y           Z
 ---------------------------------------------------------------------
      1          6           0        0.805602   -1.020141   -0.231180
      2          8           0        1.299880    0.195012   -0.392145
      3          6           0        0.464926    1.245530    0.168837
      4          6           0       -0.838294    0.570644    0.462061
      5          8           0       -1.353562   -0.107039   -0.672014
      6          6           0       -0.602494   -0.858501    0.275890
      7          1           0        1.484772   -1.792481    0.583306
      8          1           0        1.290491   -1.524970    1.410914
      9          1           0        0.941096    1.619803    1.079724
     10          1           0        0.404259    2.035465   -0.578402
     11          1           0       -1.551371    0.986415    1.163517
     12          1           0       -1.118231   -1.653215    0.800575
 ---------------------------------------------------------------------

 SCF Done:  E(RHF) =  -304.604628593     A.U. after    2 cycles

 The electronic state is 1-A.
 Alpha  occ. eigenvalues --  -20.62488 -20.60584 -11.32649 -11.31653 -11.31597
 Alpha  occ. eigenvalues --  -11.31493  -1.43444  -1.37730  -1.03363  -0.99449
 Alpha  occ. eigenvalues --   -0.85404  -0.82321  -0.76783  -0.69142  -0.67826
 Alpha  occ. eigenvalues --   -0.66159  -0.60055  -0.58594  -0.55893  -0.51725
 Alpha  occ. eigenvalues --   -0.48159  -0.47099  -0.34075
 Alpha virt. eigenvalues --    0.02919   0.04067   0.04559   0.05146   0.06448
 Alpha virt. eigenvalues --    0.07434   0.09782   0.10768   0.11040   0.11917
 Alpha virt. eigenvalues --    0.13273   0.13481   0.13846   0.14971   0.15507

 Mulliken charges:
               1
     1  C    0.221000
     2  O   -0.579643
     3  C    0.847815
     4  C    0.416052
     5  O   -0.757235
     6  C    0.352447
     7  H    0.158707
     8  H   -0.062620
     9  H   -0.085765
    10  H   -0.083277
    11  H   -0.191168
    12  H   -0.236315
 Sum of Mulliken charges =  -0.00000

 Dipole moment (field-independent basis, Debye):
    X=             -0.6816    Y=              1.5518    Z=              3.2908  Tot=              3.7016

 Test job not archived.
 1\1\GINC-SE141\SP\RHF\Aug-CC-pVDZ\C4H6O2\OHZDE\09-Apr-2025\0\\#t hf au
 g-cc-pvdz iop(5/13=1,5/36=2,99/5=2) pseudo=read geom=check guess=(read
 ,tcheck) scf=(maxcycle=1)\\title\\0,1\C,0,-1.27463061,0.08051075,0.459
 96095\O,0,-0.81002704,1.16474737,-0.13618731\C,0,0.58004095,1.05508788
 ,-0.54985725\C,0,1.08166793,-0.17094807,0.14659087\O,0,0.8405508,-0.12
 573512,1.5432653\C,0,-0.09487651,-0.8169833,0.72200249\H,0,-2.18981617
 ,-0.57477871,-0.21398281\H,0,-1.76330977,-1.02216233,-0.85599698\H,0,0
 .61204316,0.94457951,-1.63765241\H,0,1.07433831,1.97754328,-0.24854439

 Normal termination of Gaussian 16 at Wed Apr  9 03:20:30 2025.
