 Gaussian 16, Revision C.01,

 ----------------------------------------------------------------------
 #t hf aug-cc-pvdz symm=none int=(grid=ultrafine) guess=(read,tcheck) s
 table=(opt,rrhf)
 ----------------------------------------------------------------------
 -----
 title
 -----
 Symbolic Z-matrix:
 Charge =  0 Multiplicity = 1

 SCF Done:  E(RHF) =  -322.532102781     A.U. after   17 cycles
 Normal termination of Gaussian 16 at Wed Apr  9 14:53:15 2025.
 Gaussian 16:  ES64L-G16RevC.01  3-Jul-2019

 ----------------------------------------------------------------------
 #t hf aug-cc-pvdz iop(5/13=1,5/36=2,99/5=2) pseudo=read geom=check gue
 ss=(read,tcheck) scf=(maxcycle=1)
 ----------------------------------------------------------------------
 -----
 title
 -----
 Structure from the checkpoint file:  "Grambow2020_wb97xd3_006639_forward_mol1.chk"
 Charge =  0 Multiplicity = 1

                         Standard orientation:
 ---------------------------------------------------------------------
 Center     Atomic      Atomic             Coordinates (Angstroms)
 Number     Number       Type             X           Y           Z
 ---------------------------------------------------------------------
      1          8           0       -1.244965   -1.134441    0.124098
      2          6           0       -1.616870    0.055967   -0.020060
      3          6           0       -0.782040    1.152370    0.162050
      4          6           0        0.674542    0.950611    0.346233
      5          6           0        1.126093   -0.413671    0.927915
      6          6           0        0.902344   -0.863648   -0.496718
      7          7           0        0.768008    0.412935   -1.052506
      8          1           0       -2.641722    0.259250   -0.368121
      9          1           0       -1.121276    2.141773   -0.111263
     10          1           0        1.248770    1.848287    0.559957
     11          1           0        0.499789   -0.873587    1.682327
     12          1           0        2.174144   -0.429671    1.233686
     13          1           0        0.738368   -1.799957   -1.014321
     14          1           0        1.861173   -0.250891   -1.124035
 ---------------------------------------------------------------------

 SCF Done:  E(RHF) =  -322.625253037     A.U. after    2 cycles

 The electronic state is 1-A.
 Alpha  occ. eigenvalues --  -20.50728 -15.72558 -11.36783 -11.30970 -11.28859
 Alpha  occ. eigenvalues --  -11.27185 -11.20806  -1.32774  -1.27823  -1.03479
 Alpha  occ. eigenvalues --   -0.99792  -0.90351  -0.79714  -0.74516  -0.71083
 Alpha  occ. eigenvalues --   -0.66111  -0.64500  -0.61025  -0.59116  -0.57322
 Alpha  occ. eigenvalues --   -0.53974  -0.49692  -0.48697  -0.47218  -0.39600
 Alpha  occ. eigenvalues --   -0.29008
 Alpha virt. eigenvalues --    0.02312   0.03719   0.04423   0.04852   0.06307
 Alpha virt. eigenvalues --    0.06823   0.07183   0.07442   0.09872   0.11514
 Alpha virt. eigenvalues --    0.11822   0.12743   0.13312   0.13801   0.14231

 Mulliken charges:
               1
     1  O   -0.676339
     2  C    0.473043
     3  C    0.445696
     4  C    0.402617
     5  C    0.749051
     6  C    0.608314
     7  N   -0.773713
     8  H   -0.226200
     9  H   -0.445956
    10  H   -0.342236
    11  H   -0.130199
    12  H   -0.096145
    13  H   -0.290804
    14  H    0.302870
 Sum of Mulliken charges =  -0.00000

 Dipole moment (field-independent basis, Debye):
    X=              4.5898    Y=              0.8282    Z=             -0.1506  Tot=              4.6663

 Test job not archived.
 1\1\GINC-SE114\SP\RHF\Aug-CC-pVDZ\C5H7N1O1\OHZDE\09-Apr-2025\0\\#t hf
 aug-cc-pvdz iop(5/13=1,5/36=2,99/5=2) pseudo=read geom=check guess=(re
 ad,tcheck) scf=(maxcycle=1)\\title\\0,1\O,0,0.91999104,0.68314107,1.47
 988922\C,0,1.23525372,1.2526287,0.40636315\C,0,0.89400882,0.77026703,-
 0.85184307\C,0,-0.05260965,-0.36299035,-0.97794484\C,0,-0.14739121,-1.
 33555552,0.22565387\C,0,-1.01579589,-0.23344578,0.78542843\N,0,-1.1422
 6851,0.49462186,-0.40223061\H,0,1.75946089,2.22030238,0.4464444\H,0,1.
 0727623,1.37523359,-1.72977386\H,0,-0.20920793,-0.73278019,-1.98788049

 Normal termination of Gaussian 16 at Wed Apr  9 14:53:20 2025.
