 Gaussian 16, Revision C.01,

 ----------------------------------------------------------------------
 #t hf aug-cc-pvdz symm=none int=(grid=ultrafine) guess=(read,tcheck) s
 table=(opt,rrhf)
 ----------------------------------------------------------------------
 -----
 title
 -----
 Symbolic Z-matrix:
 Charge =  0 Multiplicity = 1

 SCF Done:  E(RHF) =  -344.824726448     A.U. after   15 cycles

 1\1\GINC-SE343\Stability\RHF\Aug-CC-pVDZ\C5H10O2\OHZDE\09-Apr-2025\0\\
 #t hf aug-cc-pvdz symm=none int=(grid=ultrafine) guess=(read,tcheck) s
 table=(opt,rrhf)\\title\\0,1\C,0,-1.9409908,-0.59873334,-0.48868421\C,
 0,-0.77634202,0.23450655,-0.02279254\O,0,-0.88703934,1.51679549,-0.184
 46553\C,0,0.03633774,-0.22632286,1.20858722\C,0,1.48333956,-0.34527279
 ,0.70969283\C,0,1.46324548,0.34353497,-0.65964592\O,0,1.39097434,1.631
 32152,-0.70051498\H,0,-1.67632662,-1.652742,-0.57326059\H,0,-2.7420057
 ,-0.50510934,0.24968201\H,0,-2.31156472,-0.22848093,-1.44313741\H,0,0.

 Normal termination of Gaussian 16 at Wed Apr  9 03:33:34 2025.
 Gaussian 16:  ES64L-G16RevC.01  3-Jul-2019

 ----------------------------------------------------------------------
 #t hf aug-cc-pvdz iop(5/13=1,5/36=2,99/5=2) pseudo=read geom=check gue
 ss=(read,tcheck) scf=(maxcycle=1)
 ----------------------------------------------------------------------
 -----
 title
 -----
 Structure from the checkpoint file:  "Grambow2020_wb97xd3_007097_forward_mol1.chk"
 Charge =  0 Multiplicity = 1

                         Standard orientation:
 ---------------------------------------------------------------------
 Center     Atomic      Atomic             Coordinates (Angstroms)
 Number     Number       Type             X           Y           Z
 ---------------------------------------------------------------------
      1          6           0       -2.197523    0.073958    0.609490
      2          6           0       -0.863436   -0.081639   -0.071504
      3          8           0       -0.661022   -1.205251   -0.687282
      4          6           0       -0.180517    1.161349   -0.686085
      5          6           0        1.192096    1.240839   -0.003096
      6          6           0        1.332690   -0.109282    0.709192
      7          8           0        1.574314   -1.158755   -0.001803
      8          1           0       -2.196476    0.903197    1.316947
      9          1           0       -2.948347    0.279925   -0.158244
     10          1           0       -2.472082   -0.849669    1.116365
     11          1           0        0.024477   -0.167843    0.993427
     12          1           0        0.483164   -1.348026   -0.580715
     13          1           0       -0.110720    0.998582   -1.762045
     14          1           0       -0.775101    2.061424   -0.522361
     15          1           0        1.218088    2.046880    0.733472
     16          1           0        2.020378    1.386820   -0.697333
     17          1           0        1.750422   -0.110599    1.725189
 ---------------------------------------------------------------------

 SCF Done:  E(RHF) =  -344.931268713     A.U. after    2 cycles

 The electronic state is 1-A.
 Alpha  occ. eigenvalues --  -20.55892 -20.53917 -11.36137 -11.34233 -11.25325
 Alpha  occ. eigenvalues --  -11.25247 -11.25193  -1.36857  -1.30704  -1.09342
 Alpha  occ. eigenvalues --   -1.01299  -0.92209  -0.85268  -0.76820  -0.75318
 Alpha  occ. eigenvalues --   -0.68591  -0.65061  -0.63324  -0.60280  -0.59859
 Alpha  occ. eigenvalues --   -0.58468  -0.56554  -0.54812  -0.51910  -0.48315
 Alpha  occ. eigenvalues --   -0.47233  -0.41796  -0.41407
 Alpha virt. eigenvalues --    0.02839   0.04084   0.04152   0.04949   0.05893
 Alpha virt. eigenvalues --    0.06252   0.07078   0.07228   0.08306   0.09151
 Alpha virt. eigenvalues --    0.10070   0.12353   0.13071   0.13696   0.14137

 Mulliken charges:
               1
     1  C    0.618850
     2  C   -0.628156
     3  O   -0.745374
     4  C    0.459243
     5  C    0.053234
     6  C    0.833854
     7  O   -0.820477
     8  H    0.003570
     9  H    0.065433
    10  H   -0.037225
    11  H    0.310832
    12  H    0.481749
    13  H   -0.072682
    14  H   -0.138242
    15  H   -0.086909
    16  H   -0.099098
    17  H   -0.198603
 Sum of Mulliken charges =  -0.00000

 Dipole moment (field-independent basis, Debye):
    X=             -1.6001    Y=              4.3529    Z=              1.7638  Tot=              4.9618

 Test job not archived.
 1\1\GINC-SE343\SP\RHF\Aug-CC-pVDZ\C5H10O2\OHZDE\09-Apr-2025\0\\#t hf a
 ug-cc-pvdz iop(5/13=1,5/36=2,99/5=2) pseudo=read geom=check guess=(rea
 d,tcheck) scf=(maxcycle=1)\\title\\0,1\C,0,-1.9409908,-0.59873334,-0.4
 8868421\C,0,-0.77634202,0.23450655,-0.02279254\O,0,-0.88703934,1.51679
 549,-0.18446553\C,0,0.03633774,-0.22632286,1.20858722\C,0,1.48333956,-
 0.34527279,0.70969283\C,0,1.46324548,0.34353497,-0.65964592\O,0,1.3909
 7434,1.63132152,-0.70051498\H,0,-1.67632662,-1.652742,-0.57326059\H,0,
 -2.7420057,-0.50510934,0.24968201\H,0,-2.31156472,-0.22848093,-1.44313

 Normal termination of Gaussian 16 at Wed Apr  9 03:33:40 2025.
