 Gaussian 16, Revision C.01,

 ----------------------------------------------------------------------
 #t hf aug-cc-pvdz symm=none int=(grid=ultrafine) guess=(read,tcheck) s
 table=(opt,rrhf)
 ----------------------------------------------------------------------
 -----
 title
 -----
 Symbolic Z-matrix:
 Charge =  0 Multiplicity = 1

 SCF Done:  E(RHF) =  -321.345111958     A.U. after   18 cycles
 Normal termination of Gaussian 16 at Wed Apr  9 16:24:48 2025.
 Gaussian 16:  ES64L-G16RevC.01  3-Jul-2019

 ----------------------------------------------------------------------
 #t hf aug-cc-pvdz iop(5/13=1,5/36=2,99/5=2) pseudo=read geom=check gue
 ss=(read,tcheck) scf=(maxcycle=1)
 ----------------------------------------------------------------------
 -----
 title
 -----
 Structure from the checkpoint file:  "Grambow2020_wb97xd3_008190_forward_mol1.chk"
 Charge =  0 Multiplicity = 1

                         Standard orientation:
 ---------------------------------------------------------------------
 Center     Atomic      Atomic             Coordinates (Angstroms)
 Number     Number       Type             X           Y           Z
 ---------------------------------------------------------------------
      1          8           0        0.706071    2.019808   -0.551546
      2          6           0        0.254731    1.314561    0.588832
      3          6           0       -0.087481   -0.126594    0.314125
      4          6           0        0.929896   -1.079046    0.077213
      5          6           0        1.828990   -1.854805   -0.111519
      6          6           0       -1.413786   -0.471100    0.070961
      7          7           0       -2.553439   -0.719607   -0.200687
      8          1           0        1.517638    1.609518   -0.860510
      9          1           0        1.006309    1.339052    1.385722
     10          1           0       -0.627780    1.847928    0.941728
     11          1           0       -1.360572   -0.061397   -1.020671
     12          1           0        2.615810   -2.554405   -0.266764
 ---------------------------------------------------------------------

 SCF Done:  E(RHF) =  -321.442684821     A.U. after    2 cycles

 The electronic state is 1-A.
 Alpha  occ. eigenvalues --  -20.58795 -15.70568 -11.35758 -11.31938 -11.29930
 Alpha  occ. eigenvalues --  -11.26836 -11.25281  -1.34317  -1.26826  -1.10586
 Alpha  occ. eigenvalues --   -1.01677  -0.92505  -0.81007  -0.73372  -0.70249
 Alpha  occ. eigenvalues --   -0.68311  -0.66796  -0.62124  -0.59716  -0.55016
 Alpha  occ. eigenvalues --   -0.52054  -0.48186  -0.45780  -0.41554  -0.30004
 Alpha virt. eigenvalues --    0.02570   0.03536   0.04248   0.05033   0.06023
 Alpha virt. eigenvalues --    0.06725   0.08840   0.09341   0.10435   0.11164
 Alpha virt. eigenvalues --    0.11348   0.12683   0.13384   0.13857   0.14502

 Mulliken charges:
               1
     1  O   -0.568659
     2  C    0.741439
     3  C    0.487152
     4  C   -0.276961
     5  C    0.628313
     6  C   -0.503099
     7  N   -0.309264
     8  H    0.178071
     9  H    0.008364
    10  H   -0.171133
    11  H    0.264003
    12  H   -0.478227
 Sum of Mulliken charges =   0.00000

 Dipole moment (field-independent basis, Debye):
    X=              1.8007    Y=             -0.2141    Z=              0.0269  Tot=              1.8136

 Test job not archived.
 1\1\GINC-SE037\SP\RHF\Aug-CC-pVDZ\C5H5N1O1\OHZDE\09-Apr-2025\0\\#t hf
 aug-cc-pvdz iop(5/13=1,5/36=2,99/5=2) pseudo=read geom=check guess=(re
 ad,tcheck) scf=(maxcycle=1)\\title\\0,1\O,0,-1.89915376,-0.37565972,-0
 .69063509\C,0,-1.11063974,-0.57449473,0.46705802\C,0,0.34082191,-0.216
 70544,0.28065097\C,0,0.7464009,1.13422617,0.18664389\C,0,1.04508751,2.
 29698605,0.1190573\C,0,1.2507908,-1.22445182,-0.02480127\N,0,1.9926248
 4,-2.10544415,-0.35327302\H,0,-1.88339398,0.55886428,-0.91166402\H,0,-
 1.49885724,0.00962519,1.30883924\H,0,-1.20636745,-1.63086308,0.7175836

 Normal termination of Gaussian 16 at Wed Apr  9 16:24:52 2025.
