 Gaussian 16, Revision C.01,

 ----------------------------------------------------------------------
 #t hf aug-cc-pvdz symm=none int=(grid=ultrafine) guess=(read,tcheck) s
 table=(opt,rrhf)
 ----------------------------------------------------------------------
 -----
 title
 -----
 Symbolic Z-matrix:
 Charge =  0 Multiplicity = 1

 SCF Done:  E(RHF) =  -354.679243520     A.U. after   15 cycles
 Normal termination of Gaussian 16 at Wed Apr  9 03:39:15 2025.
 Gaussian 16:  ES64L-G16RevC.01  3-Jul-2019

 ----------------------------------------------------------------------
 #t hf aug-cc-pvdz iop(5/13=1,5/36=2,99/5=2) pseudo=read geom=check gue
 ss=(read,tcheck) scf=(maxcycle=1)
 ----------------------------------------------------------------------
 -----
 title
 -----
 Structure from the checkpoint file:  "Grambow2020_wb97xd3_007463_reverse_mol2.chk"
 Charge =  0 Multiplicity = 1

                         Standard orientation:
 ---------------------------------------------------------------------
 Center     Atomic      Atomic             Coordinates (Angstroms)
 Number     Number       Type             X           Y           Z
 ---------------------------------------------------------------------
      1          7           0       -2.374151   -0.510282   -0.089642
      2          6           0       -1.095319    0.056249    0.011682
      3          6           0       -0.724249    1.341268    0.021651
      4          7           0        0.794828    1.165896    0.011329
      5          6           0        1.172827   -0.299454    0.002020
      6          8           0        2.305763   -0.689804   -0.020551
      7          7           0       -0.013676   -0.897388    0.019220
      8          1           0       -2.678167   -0.934742    0.778081
      9          1           0       -3.032192    0.214629   -0.339315
     10          1           0        1.206167    1.614885    0.826933
     11          1           0        1.207345    1.617866   -0.802689
     12          1           0       -0.117829   -1.890171   -0.097074
 ---------------------------------------------------------------------

 SCF Done:  E(RHF) =  -354.784940797     A.U. after    2 cycles

 The electronic state is 1-A.
 Alpha  occ. eigenvalues --  -20.58448 -15.74995 -15.68743 -15.62876 -11.43555
 Alpha  occ. eigenvalues --  -11.29840 -11.21007  -1.41358  -1.30675  -1.22094
 Alpha  occ. eigenvalues --   -1.16047  -0.97169  -0.88198  -0.80246  -0.77391
 Alpha  occ. eigenvalues --   -0.72589  -0.69606  -0.67746  -0.62557  -0.62028
 Alpha  occ. eigenvalues --   -0.60412  -0.51194  -0.50931  -0.43638  -0.34558
 Alpha  occ. eigenvalues --   -0.30556
 Alpha virt. eigenvalues --    0.02852   0.03151   0.04394   0.04869   0.07042
 Alpha virt. eigenvalues --    0.09145   0.10551   0.10915   0.11864   0.13207
 Alpha virt. eigenvalues --    0.13260   0.13779   0.14687   0.15830   0.16320

 Mulliken charges:
               1
     1  N   -0.338941
     2  C    0.961086
     3  C   -0.150701
     4  N   -0.458693
     5  C    0.545329
     6  O   -0.406502
     7  N   -0.452972
     8  H    0.012786
     9  H    0.043934
    10  H    0.166646
    11  H    0.163760
    12  H   -0.085733
 Sum of Mulliken charges =   0.00000

 Dipole moment (field-independent basis, Debye):
    X=              0.1938    Y=             -0.6985    Z=              0.7770  Tot=              1.0627

 Test job not archived.
 1\1\GINC-SE084\SP\RHF\Aug-CC-pVDZ\C3H5N3O1\OHZDE\09-Apr-2025\0\\#t hf
 aug-cc-pvdz iop(5/13=1,5/36=2,99/5=2) pseudo=read geom=check guess=(re
 ad,tcheck) scf=(maxcycle=1)\\title\\0,1\N,0,2.13651363,-0.33556878,0.1
 6749264\C,0,0.80365493,0.08160908,0.04066577\C,0,0.285234,1.31453633,0
 .05471481\N,0,-1.20254993,0.9637799,0.01082623\C,0,-1.40661994,-0.5350
 9777,-0.03324282\O,0,-2.48628067,-1.05483543,-0.05839768\N,0,-0.158311
 9,-0.99041672,-0.02870702\H,0,2.51309501,-0.6941987,-0.70147638\H,0,2.
 69771696,0.45255972,0.45861969\H,0,-1.63980903,1.38756845,-0.80477748\

 Normal termination of Gaussian 16 at Wed Apr  9 03:39:21 2025.
