 Gaussian 16, Revision C.01,

 ----------------------------------------------------------------------
 #t hf aug-cc-pvdz symm=none int=(grid=ultrafine) guess=(read,tcheck) s
 table=(opt,rrhf)
 ----------------------------------------------------------------------
 -----
 title
 -----
 Symbolic Z-matrix:
 Charge =  0 Multiplicity = 1

 SCF Done:  E(RHF) =  -343.606095773     A.U. after   15 cycles
 Normal termination of Gaussian 16 at Wed Apr  9 15:38:05 2025.
 Gaussian 16:  ES64L-G16RevC.01  3-Jul-2019

 ----------------------------------------------------------------------
 #t hf aug-cc-pvdz iop(5/13=1,5/36=2,99/5=2) pseudo=read geom=check gue
 ss=(read,tcheck) scf=(maxcycle=1)
 ----------------------------------------------------------------------
 -----
 title
 -----
 Structure from the checkpoint file:  "Grambow2020_wb97xd3_007228_reverse_mol2.chk"
 Charge =  0 Multiplicity = 1

                         Standard orientation:
 ---------------------------------------------------------------------
 Center     Atomic      Atomic             Coordinates (Angstroms)
 Number     Number       Type             X           Y           Z
 ---------------------------------------------------------------------
      1          8           0       -0.034050    1.579455   -0.556494
      2          6           0       -1.087326    1.173807    0.297703
      3          6           0       -1.029272   -0.305023    0.465589
      4          6           0        2.509383   -0.805812   -0.490542
      5          6           0        2.824170   -0.073482    0.564977
      6          6           0       -2.268672   -1.144772    0.476821
      7          8           0       -1.604151   -1.105553   -0.614889
      8          1           0       -0.087242    2.526739   -0.691615
      9          1           0       -2.063852    1.461965   -0.107930
     10          1           0       -0.984950    1.624640    1.293591
     11          1           0       -0.108312   -0.729249    0.849337
     12          1           0        2.986861   -1.759544   -0.685973
     13          1           0        1.759063   -0.471254   -1.198221
     14          1           0        2.339933    0.880003    0.744760
     15          1           0        3.574408   -0.392825    1.279827
 ---------------------------------------------------------------------

 SCF Done:  E(RHF) =  -343.716540871     A.U. after    2 cycles

 The electronic state is 1-A.
 Alpha  occ. eigenvalues --  -20.66438 -20.59396 -11.34188 -11.31612 -11.31320
 Alpha  occ. eigenvalues --  -11.23700 -11.23523  -1.48058  -1.34736  -1.02815
 Alpha  occ. eigenvalues --   -1.02534  -0.88370  -0.82921  -0.78719  -0.73480
 Alpha  occ. eigenvalues --   -0.71788  -0.67319  -0.64381  -0.63288  -0.58938
 Alpha  occ. eigenvalues --   -0.58031  -0.54802  -0.51450  -0.50367  -0.48763
 Alpha  occ. eigenvalues --   -0.39505  -0.37884
 Alpha virt. eigenvalues --    0.02913   0.04118   0.04721   0.05129   0.05912
 Alpha virt. eigenvalues --    0.06392   0.07473   0.08045   0.09437   0.09580
 Alpha virt. eigenvalues --    0.10104   0.10910   0.12166   0.13665   0.14181

 Mulliken charges:
               1
     1  O   -0.581865
     2  C    0.567624
     3  C    0.821265
     4  C    0.562176
     5  C    0.562109
     6  C   -0.018348
     7  O   -0.495726
     8  H    0.164527
     9  H   -0.128809
    10  H   -0.023979
    11  H   -0.319803
    12  H   -0.278881
    13  H   -0.261732
    14  H   -0.288377
    15  H   -0.280183
 Sum of Mulliken charges =   0.00000

 Dipole moment (field-independent basis, Debye):
    X=              0.6722    Y=              2.9388    Z=              1.2273  Tot=              3.2549

 Test job not archived.
 1\1\GINC-SE097\SP\RHF\Aug-CC-pVDZ\C5H8O2\OHZDE\09-Apr-2025\0\\#t hf au
 g-cc-pvdz iop(5/13=1,5/36=2,99/5=2) pseudo=read geom=check guess=(read
 ,tcheck) scf=(maxcycle=1)\\title\\0,1\O,0,1.52694503,0.14242207,-0.685
 26709\C,0,1.27612605,-1.24628082,-0.57486659\C,0,0.20775717,-1.4638573
 2,0.43989574\C,0,-1.27528717,1.92494009,0.37916874\C,0,-1.59381195,1.6
 8561763,-0.8820945\C,0,0.27511926,-2.59002149,1.42408698\O,0,0.6253576
 6,-1.43314152,1.84112104\H,0,2.23560047,0.28386339,-1.31473957\H,0,2.1
 7999617,-1.7933419,-0.28345774\H,0,0.91843226,-1.66057952,-1.52667322\

 Normal termination of Gaussian 16 at Wed Apr  9 15:38:11 2025.
