 Gaussian 16, Revision C.01,

 ----------------------------------------------------------------------
 #t hf aug-cc-pvdz symm=none int=(grid=ultrafine) guess=(read,tcheck) s
 table=(opt,rrhf)
 ----------------------------------------------------------------------
 -----
 title
 -----
 Symbolic Z-matrix:
 Charge =  0 Multiplicity = 1

 SCF Done:  E(RHF) =  -299.606208143     A.U. after   15 cycles
 Normal termination of Gaussian 16 at Wed Apr  9 14:20:02 2025.
 Gaussian 16:  ES64L-G16RevC.01  3-Jul-2019

 ----------------------------------------------------------------------
 #t hf aug-cc-pvdz iop(5/13=1,5/36=2,99/5=2) pseudo=read geom=check gue
 ss=(read,tcheck) scf=(maxcycle=1)
 ----------------------------------------------------------------------
 -----
 title
 -----
 Structure from the checkpoint file:  "Grambow2020_b97d3_007179_reverse_mol1.chk"
 Charge =  0 Multiplicity = 1

                         Standard orientation:
 ---------------------------------------------------------------------
 Center     Atomic      Atomic             Coordinates (Angstroms)
 Number     Number       Type             X           Y           Z
 ---------------------------------------------------------------------
      1          6           0       -2.192128   -0.256098    0.000792
      2          6           0       -0.506933   -0.032771   -0.000263
      3          7           0       -0.827641    1.165568   -0.001116
      4          8           0        1.882433    0.733679    0.000877
      5          6           0        1.613723   -0.466670   -0.000174
      6          7           0        0.332841   -1.025898   -0.000431
      7          1           0       -2.874562    0.596674   -0.007414
      8          1           0       -2.301854   -0.840857   -0.917110
      9          1           0       -2.306054   -0.826537    0.927023
     10          1           0        2.398635   -1.243163   -0.000824
 ---------------------------------------------------------------------

 SCF Done:  E(RHF) =  -299.694288116     A.U. after    2 cycles

 The electronic state is 1-A.
 Alpha  occ. eigenvalues --  -20.55803 -15.74324 -15.63560 -11.39736 -11.36971
 Alpha  occ. eigenvalues --  -11.34007  -1.35671  -1.28614  -1.17876  -0.99462
 Alpha  occ. eigenvalues --   -0.87467  -0.72474  -0.67604  -0.67497  -0.65567
 Alpha  occ. eigenvalues --   -0.60650  -0.59040  -0.57967  -0.52184  -0.48632
 Alpha  occ. eigenvalues --   -0.44166  -0.39799
 Alpha virt. eigenvalues --    0.02162   0.04200   0.04586   0.04930   0.06421
 Alpha virt. eigenvalues --    0.09244   0.09725   0.10529   0.11935   0.13057
 Alpha virt. eigenvalues --    0.13105   0.13736   0.14026   0.15444   0.16466

 Mulliken charges:
               1
     1  C    0.377177
     2  C   -0.130163
     3  N   -0.203424
     4  O   -0.500199
     5  C    0.896172
     6  N   -0.456004
     7  H   -0.055160
     8  H    0.115440
     9  H    0.114808
    10  H   -0.158646
 Sum of Mulliken charges =  -0.00000

 Dipole moment (field-independent basis, Debye):
    X=             -4.4236    Y=             -2.1421    Z=             -0.0016  Tot=              4.9149

 Test job not archived.
 1\1\GINC-SE026\SP\RHF\Aug-CC-pVDZ\C3H4N2O1\OHZDE\09-Apr-2025\0\\#t hf
 aug-cc-pvdz iop(5/13=1,5/36=2,99/5=2) pseudo=read geom=check guess=(re
 ad,tcheck) scf=(maxcycle=1)\\title\\0,1\C,0,-1.71016252,0.05984386,-0.
 08988577\C,0,-0.02044033,-0.11917509,-0.14034364\N,0,-0.29152521,-0.89
 099767,-1.07290626\O,0,2.39383011,-0.66283951,-0.55537013\C,0,2.076875
 56,0.12049122,0.33848478\N,0,0.77662167,0.50846118,0.67346591\H,0,-2.3
 565311,-0.48620727,-0.78056734\H,0,-1.89910401,-0.2568083,0.93994801\H
 ,0,-1.79083031,1.13677799,-0.26306596\H,0,2.82801814,0.60828759,0.9841

 Normal termination of Gaussian 16 at Wed Apr  9 14:20:05 2025.
