 Gaussian 16, Revision C.01,

 ----------------------------------------------------------------------
 #t hf aug-cc-pvdz symm=none int=(grid=ultrafine) guess=(read,tcheck) s
 table=(opt,rrhf)
 ----------------------------------------------------------------------
 -----
 title
 -----
 Symbolic Z-matrix:
 Charge =  0 Multiplicity = 1

 SCF Done:  E(RHF) =  -302.813364136     A.U. after   15 cycles
 Normal termination of Gaussian 16 at Wed Apr  9 16:48:43 2025.
 Gaussian 16:  ES64L-G16RevC.01  3-Jul-2019

 ----------------------------------------------------------------------
 #t hf aug-cc-pvdz iop(5/13=1,5/36=2,99/5=2) pseudo=read geom=check gue
 ss=(read,tcheck) scf=(maxcycle=1)
 ----------------------------------------------------------------------
 -----
 title
 -----
 Structure from the checkpoint file:  "Grambow2020_wb97xd3_008912_reverse_mol2.chk"
 Charge =  0 Multiplicity = 1

                         Standard orientation:
 ---------------------------------------------------------------------
 Center     Atomic      Atomic             Coordinates (Angstroms)
 Number     Number       Type             X           Y           Z
 ---------------------------------------------------------------------
      1          6           0       -1.683375   -1.169983   -0.004526
      2          7           0       -0.371921   -0.571370    0.001445
      3          6           0        0.927754   -1.302195    0.005905
      4          6           0        1.986625   -0.494398    0.001827
      5          6           0        1.365279    0.892113   -0.004627
      6          6           0       -0.126725    0.700897    0.000220
      7          7           0       -1.065851    1.659165   -0.003213
      8          1           0       -2.275267   -0.811284   -0.851291
      9          1           0       -1.571214   -2.247570   -0.101592
     10          1           0       -2.218546   -0.962486    0.926222
     11          1           0        0.817786   -2.379728    0.010255
     12          1           0        1.660563    1.468131   -0.888072
     13          1           0        1.666651    1.484300    0.865638
     14          1           0       -2.047221    1.454619    0.043338
     15          1           0       -0.785693    2.620852    0.015080
 ---------------------------------------------------------------------

 SCF Done:  E(RHF) =  -302.904632143     A.U. after    2 cycles

 The electronic state is 1-A.
 Alpha  occ. eigenvalues --  -15.69384 -15.68549 -11.36834 -11.30247 -11.23697
 Alpha  occ. eigenvalues --  -11.21281 -11.14770  -1.31431  -1.20863  -1.06554
 Alpha  occ. eigenvalues --   -0.95888  -0.93821  -0.79810  -0.79035  -0.73150
 Alpha  occ. eigenvalues --   -0.69282  -0.66989  -0.62015  -0.59815  -0.57106
 Alpha  occ. eigenvalues --   -0.55097  -0.52153  -0.47790  -0.45059  -0.28464
 Alpha  occ. eigenvalues --   -0.28002
 Alpha virt. eigenvalues --    0.01188   0.02752   0.03954   0.04510   0.06126
 Alpha virt. eigenvalues --    0.06850   0.06946   0.08580   0.10253   0.11631
 Alpha virt. eigenvalues --    0.12202   0.12610   0.12920   0.13811   0.14015

 Mulliken charges:
               1
     1  C    0.821988
     2  N   -0.420631
     3  C    0.843100
     4  C   -0.604517
     5  C    0.196193
     6  C    0.336228
     7  N   -0.227857
     8  H   -0.112170
     9  H   -0.270139
    10  H   -0.085642
    11  H   -0.427424
    12  H    0.015945
    13  H    0.011201
    14  H   -0.047927
    15  H   -0.028350
 Sum of Mulliken charges =  -0.00000

 Dipole moment (field-independent basis, Debye):
    X=             -8.5796    Y=              3.8643    Z=              0.0748  Tot=              9.4100

 Test job not archived.
 1\1\GINC-SE118\SP\RHF\Aug-CC-pVDZ\C5H8N2\OHZDE\09-Apr-2025\0\\#t hf au
 g-cc-pvdz iop(5/13=1,5/36=2,99/5=2) pseudo=read geom=check guess=(read
 ,tcheck) scf=(maxcycle=1)\\title\\0,1\C,0,-1.31753838,-1.21509625,0.52
 588283\N,0,-0.07406666,-0.56225489,0.20052009\C,0,1.28733056,-1.160782
 77,0.30841825\C,0,2.25897855,-0.33154163,-0.06843677\C,0,1.50659426,0.
 92836598,-0.46223426\C,0,0.04501399,0.65010047,-0.24084233\N,0,-0.9807
 0565,1.48702106,-0.4592666\H,0,-2.00383653,-1.20004757,-0.32545726\H,0
 ,-1.10840993,-2.25321839,0.77440529\H,0,-1.79860226,-0.74532964,1.3882

 Normal termination of Gaussian 16 at Wed Apr  9 16:48:58 2025.
