 Gaussian 16, Revision C.01,

 ----------------------------------------------------------------------
 #t hf aug-cc-pvdz symm=none int=(grid=ultrafine) guess=(read,tcheck) s
 table=(opt,rrhf)
 ----------------------------------------------------------------------
 -----
 title
 -----
 Symbolic Z-matrix:
 Charge =  0 Multiplicity = 1

 SCF Done:  E(RHF) =  -317.654656939     A.U. after   16 cycles
 Normal termination of Gaussian 16 at Wed Apr  9 16:50:57 2025.
 Gaussian 16:  ES64L-G16RevC.01  3-Jul-2019

 ----------------------------------------------------------------------
 #t hf aug-cc-pvdz iop(5/13=1,5/36=2,99/5=2) pseudo=read geom=check gue
 ss=(read,tcheck) scf=(maxcycle=1)
 ----------------------------------------------------------------------
 -----
 title
 -----
 Structure from the checkpoint file:  "Grambow2020_wb97xd3_008982_reverse_mol2.chk"
 Charge =  0 Multiplicity = 1

                         Standard orientation:
 ---------------------------------------------------------------------
 Center     Atomic      Atomic             Coordinates (Angstroms)
 Number     Number       Type             X           Y           Z
 ---------------------------------------------------------------------
      1          7           0        2.195933    0.010287    0.028551
      2          6           0        0.808690    0.095971   -0.003641
      3          6           0        0.093898   -1.244305    0.225346
      4          7           0       -1.319717   -1.145356   -0.284602
      5          6           0       -1.564443    0.030199   -0.058442
      6          7           0       -1.332862    1.206660    0.195786
      7          6           0        0.107559    1.236281   -0.094811
      8          1           0        2.589398   -0.738829   -0.518658
      9          1           0        2.681215    0.878257   -0.130439
     10          1           0        0.563985   -2.035156   -0.359987
     11          1           0        0.154054   -1.529030    1.282137
     12          1           0        0.533652    2.214745   -0.261908
 ---------------------------------------------------------------------

 SCF Done:  E(RHF) =  -317.746377943     A.U. after    2 cycles

 The electronic state is 1-A.
 Alpha  occ. eigenvalues --  -15.64823 -15.64163 -15.64037 -11.37697 -11.31290
 Alpha  occ. eigenvalues --  -11.30197 -11.28387  -1.30957  -1.20202  -1.19200
 Alpha  occ. eigenvalues --   -1.01954  -0.93880  -0.80823  -0.71849  -0.70606
 Alpha  occ. eigenvalues --   -0.66891  -0.64535  -0.62795  -0.56895  -0.55272
 Alpha  occ. eigenvalues --   -0.53411  -0.50512  -0.44062  -0.39988  -0.30646
 Alpha virt. eigenvalues --    0.02506   0.03742   0.04808   0.05241   0.06757
 Alpha virt. eigenvalues --    0.07556   0.10295   0.10486   0.11202   0.11706
 Alpha virt. eigenvalues --    0.12331   0.13102   0.14394   0.14503   0.15445

 Mulliken charges:
               1
     1  N   -0.361665
     2  C    0.043159
     3  C    0.806261
     4  N   -0.329387
     5  C   -0.387249
     6  N   -0.492854
     7  C    1.176889
     8  H   -0.029624
     9  H    0.003706
    10  H   -0.082791
    11  H    0.011486
    12  H   -0.357929
 Sum of Mulliken charges =  -0.00000

 Dipole moment (field-independent basis, Debye):
    X=              3.3847    Y=             -0.4642    Z=             -0.6138  Tot=              3.4710

 Test job not archived.
 1\1\GINC-SE138\SP\RHF\Aug-CC-pVDZ\C4H5N3\OHZDE\09-Apr-2025\0\\#t hf au
 g-cc-pvdz iop(5/13=1,5/36=2,99/5=2) pseudo=read geom=check guess=(read
 ,tcheck) scf=(maxcycle=1)\\title\\0,1\N,0,-1.71368513,0.15014157,0.314
 35804\C,0,-0.37739937,-0.12096547,0.04294979\C,0,0.56664258,1.06190654
 ,0.30619699\N,0,1.85673817,0.84151115,-0.43893804\C,0,1.94228596,-0.37
 660948,-0.39613291\N,0,1.56669987,-1.5337741,-0.24704348\C,0,0.1130126
 4,-1.32284652,-0.29643295\H,0,-2.05904654,1.01602655,-0.06825954\H,0,-
 2.34846801,-0.61129352,0.13711211\H,0,0.14751152,1.98466609,-0.0961541

 Normal termination of Gaussian 16 at Wed Apr  9 16:51:02 2025.
