 Gaussian 16, Revision C.01,

 ----------------------------------------------------------------------
 #t hf aug-cc-pvdz symm=none int=(grid=ultrafine) guess=(read,tcheck) s
 table=(opt,rrhf)
 ----------------------------------------------------------------------
 -----
 title
 -----
 Symbolic Z-matrix:
 Charge =  0 Multiplicity = 1

 SCF Done:  E(RHF) =  -267.616062519     A.U. after   15 cycles
 Normal termination of Gaussian 16 at Wed Apr  9 14:14:01 2025.
 Gaussian 16:  ES64L-G16RevC.01  3-Jul-2019

 ----------------------------------------------------------------------
 #t hf aug-cc-pvdz iop(5/13=1,5/36=2,99/5=2) pseudo=read geom=check gue
 ss=(read,tcheck) scf=(maxcycle=1)
 ----------------------------------------------------------------------
 -----
 title
 -----
 Structure from the checkpoint file:  "Grambow2020_b97d3_006839_reverse_mol2.chk"
 Charge =  0 Multiplicity = 1

                         Standard orientation:
 ---------------------------------------------------------------------
 Center     Atomic      Atomic             Coordinates (Angstroms)
 Number     Number       Type             X           Y           Z
 ---------------------------------------------------------------------
      1          6           0       -3.178947   -0.350378   -0.047983
      2          6           0       -1.905020    0.023345   -0.033635
      3          6           0       -0.685482    0.397458   -0.026985
      4          6           0        0.599420    0.739939   -0.005379
      5          6           0        1.697871   -0.131251    0.562504
      6          8           0        2.703738   -0.406938   -0.415096
      7          1           0       -3.952623    0.278227   -0.494862
      8          1           0        2.249543   -0.836950   -1.164646
      9          1           0       -3.499757   -1.300561    0.385424
     10          1           0        0.921286    1.685126   -0.453780
     11          1           0        1.262015   -1.049807    0.991143
     12          1           0        2.222587    0.404788    1.366363
 ---------------------------------------------------------------------

 SCF Done:  E(RHF) =  -267.699852804     A.U. after    2 cycles

 The electronic state is 1-A.
 Alpha  occ. eigenvalues --  -20.58337 -11.30635 -11.28109 -11.27788 -11.27582
 Alpha  occ. eigenvalues --  -11.27408  -1.32633  -1.09294  -1.03140  -0.94015
 Alpha  occ. eigenvalues --   -0.86465  -0.71227  -0.70340  -0.66593  -0.62295
 Alpha  occ. eigenvalues --   -0.62125  -0.59770  -0.53086  -0.48694  -0.47381
 Alpha  occ. eigenvalues --   -0.38207  -0.33755
 Alpha virt. eigenvalues --    0.03344   0.04108   0.04530   0.04995   0.05877
 Alpha virt. eigenvalues --    0.06178   0.07150   0.09440   0.11531   0.12174
 Alpha virt. eigenvalues --    0.12662   0.13199   0.13441   0.14585   0.15080

 Mulliken charges:
               1
     1  C    0.501784
     2  C   -0.322162
     3  C   -0.010350
     4  C    0.280189
     5  C    0.748095
     6  O   -0.567758
     7  H   -0.147047
     8  H    0.177307
     9  H   -0.128582
    10  H   -0.300334
    11  H   -0.146360
    12  H   -0.084781
 Sum of Mulliken charges =  -0.00000

 Dipole moment (field-independent basis, Debye):
    X=             -1.7520    Y=             -0.4031    Z=             -0.0511  Tot=              1.7985

 Test job not archived.
 1\1\GINC-SE114\SP\RHF\Aug-CC-pVDZ\C5H6O1\OHZDE\09-Apr-2025\0\\#t hf au
 g-cc-pvdz iop(5/13=1,5/36=2,99/5=2) pseudo=read geom=check guess=(read
 ,tcheck) scf=(maxcycle=1)\\title\\0,1\C,0,-2.94139886,0.60063678,0.409
 56858\C,0,-1.63538838,0.51874739,0.1850772\C,0,-0.38244286,0.45012764,
 -0.04447925\C,0,0.9276721,0.34306456,-0.24664056\C,0,1.86424146,-0.422
 24324,0.66176448\O,0,2.56911069,-1.44004676,-0.05287671\H,0,-3.6061724
 3,1.12864301,-0.27796624\H,0,1.89055149,-2.02037945,-0.44759216\H,0,-3
 .39901116,0.14201573,1.28926518\H,0,1.38224235,0.78988092,-1.13644986\

 Normal termination of Gaussian 16 at Wed Apr  9 14:14:05 2025.
