 Gaussian 16, Revision C.01,

 ----------------------------------------------------------------------
 #t hf aug-cc-pvdz symm=none int=(grid=ultrafine) guess=(read,tcheck) s
 table=(opt,rrhf)
 ----------------------------------------------------------------------
 -----
 title
 -----
 Symbolic Z-matrix:
 Charge =  0 Multiplicity = 1

 SCF Done:  E(RHF) =  -346.041849011     A.U. after   13 cycles

 1\1\GINC-SE141\Stability\RHF\Aug-CC-pVDZ\C5H12O2\OHZDE\09-Apr-2025\0\\
 #t hf aug-cc-pvdz symm=none int=(grid=ultrafine) guess=(read,tcheck) s
 table=(opt,rrhf)\\title\\0,1\C,0,2.23849167,0.446878,1.20124171\C,0,0.
 82454984,0.50293313,0.6424013\C,0,0.4699744,-0.74000547,-0.17663575\O,
 0,0.56958571,-1.92581798,0.59010156\C,0,-0.90154693,-0.61919936,-0.788
 01409\C,0,-1.14999383,-0.41721622,-2.074656\O,0,-1.86088469,-0.7236437
 8,0.17597185\H,0,2.37150312,-0.43147472,1.83332797\H,0,2.97636712,0.39
 194261,0.39696347\H,0,2.45970304,1.33354361,1.79746519\H,0,0.09754881,

 Normal termination of Gaussian 16 at Wed Apr  9 16:20:22 2025.
 Gaussian 16:  ES64L-G16RevC.01  3-Jul-2019

 ----------------------------------------------------------------------
 #t hf aug-cc-pvdz iop(5/13=1,5/36=2,99/5=2) pseudo=read geom=check gue
 ss=(read,tcheck) scf=(maxcycle=1)
 ----------------------------------------------------------------------
 -----
 title
 -----
 Structure from the checkpoint file:  "Grambow2020_wb97xd3_008078_reverse_mol2.chk"
 Charge =  0 Multiplicity = 1

                         Standard orientation:
 ---------------------------------------------------------------------
 Center     Atomic      Atomic             Coordinates (Angstroms)
 Number     Number       Type             X           Y           Z
 ---------------------------------------------------------------------
      1          6           0       -2.647697    0.508824    0.190591
      2          6           0       -1.165459    0.765837   -0.036551
      3          6           0       -0.297241   -0.430006    0.360437
      4          8           0       -0.635756   -1.595514   -0.368232
      5          6           0        1.168271   -0.116989    0.206345
      6          6           0        2.016050    0.085267    1.205512
      7          8           0        1.501364   -0.046402   -1.114477
      8          1           0       -2.981716   -0.361815   -0.374341
      9          1           0       -2.855715    0.319189    1.246578
     10          1           0       -3.246213    1.367092   -0.118842
     11          1           0       -0.976255    1.001514   -1.088671
     12          1           0       -0.835789    1.634199    0.541720
     13          1           0       -0.481008   -0.674957    1.408896
     14          1           0       -0.293344   -1.489517   -1.260232
     15          1           0        1.441165    2.667400   -1.007539
     16          1           0        3.054767    0.345405    1.036499
     17          1           0        1.678242    3.367864   -1.102350
     18          1           0        1.679894   -0.006287    2.227850
     19          1           0        2.447560    0.087641   -1.205901
 ---------------------------------------------------------------------

 SCF Done:  E(RHF) =  -346.156025634     A.U. after    2 cycles

 The electronic state is 1-A.
 Alpha  occ. eigenvalues --  -20.61460 -20.56928 -11.31452 -11.29626 -11.23073
 Alpha  occ. eigenvalues --  -11.22727 -11.21962  -1.38305  -1.32372  -1.06717
 Alpha  occ. eigenvalues --   -1.02130  -0.92730  -0.83719  -0.81694  -0.70601
 Alpha  occ. eigenvalues --   -0.70056  -0.64451  -0.63929  -0.62327  -0.60222
 Alpha  occ. eigenvalues --   -0.58406  -0.56908  -0.55999  -0.53544  -0.53035
 Alpha  occ. eigenvalues --   -0.48643  -0.48454  -0.44920  -0.35887
 Alpha virt. eigenvalues --    0.03209   0.04193   0.04426   0.05107   0.06027
 Alpha virt. eigenvalues --    0.06249   0.06831   0.07116   0.08228   0.08566
 Alpha virt. eigenvalues --    0.09267   0.10932   0.12891   0.13450   0.14239

 Mulliken charges:
               1
     1  C    0.394371
     2  C   -0.066670
     3  C    0.375937
     4  O   -0.642351
     5  C    0.617687
     6  C    0.977726
     7  O   -0.624168
     8  H   -0.006328
     9  H   -0.050175
    10  H   -0.046564
    11  H   -0.101924
    12  H   -0.095254
    13  H   -0.305048
    14  H    0.172801
    15  H    0.016970
    16  H   -0.476410
    17  H   -0.004364
    18  H   -0.302119
    19  H    0.165883
 Sum of Mulliken charges =  -0.00000

 Dipole moment (field-independent basis, Debye):
    X=              1.6418    Y=              1.5474    Z=             -0.1336  Tot=              2.2600

 Test job not archived.
 1\1\GINC-SE141\SP\RHF\Aug-CC-pVDZ\C5H12O2\OHZDE\09-Apr-2025\0\\#t hf a
 ug-cc-pvdz iop(5/13=1,5/36=2,99/5=2) pseudo=read geom=check guess=(rea
 d,tcheck) scf=(maxcycle=1)\\title\\0,1\C,0,2.23849167,0.446878,1.20124
 171\C,0,0.82454984,0.50293313,0.6424013\C,0,0.4699744,-0.74000547,-0.1
 7663575\O,0,0.56958571,-1.92581798,0.59010156\C,0,-0.90154693,-0.61919
 936,-0.78801409\C,0,-1.14999383,-0.41721622,-2.074656\O,0,-1.86088469,
 -0.72364378,0.17597185\H,0,2.37150312,-0.43147472,1.83332797\H,0,2.976
 36712,0.39194261,0.39696347\H,0,2.45970304,1.33354361,1.79746519\H,0,0

 Normal termination of Gaussian 16 at Wed Apr  9 16:20:29 2025.
