 Gaussian 16, Revision C.01,

 ----------------------------------------------------------------------
 #t hf aug-cc-pvdz symm=none int=(grid=ultrafine) guess=(read,tcheck) s
 table=(opt,rrhf)
 ----------------------------------------------------------------------
 -----
 title
 -----
 Symbolic Z-matrix:
 Charge =  0 Multiplicity = 1

 SCF Done:  E(RHF) =  -325.077078494     A.U. after   13 cycles
 Normal termination of Gaussian 16 at Wed Apr  9 16:50:26 2025.
 Gaussian 16:  ES64L-G16RevC.01  3-Jul-2019

 ----------------------------------------------------------------------
 #t hf aug-cc-pvdz iop(5/13=1,5/36=2,99/5=2) pseudo=read geom=check gue
 ss=(read,tcheck) scf=(maxcycle=1)
 ----------------------------------------------------------------------
 -----
 title
 -----
 Structure from the checkpoint file:  "Grambow2020_wb97xd3_008959_reverse_mol2.chk"
 Charge =  0 Multiplicity = 1

                         Standard orientation:
 ---------------------------------------------------------------------
 Center     Atomic      Atomic             Coordinates (Angstroms)
 Number     Number       Type             X           Y           Z
 ---------------------------------------------------------------------
      1          6           0       -2.524202    1.129102    0.007496
      2          6           0       -2.203887   -0.298409    0.428948
      3          7           0        0.143409   -0.248750   -0.292807
      4          6           0       -1.115167   -0.954326   -0.414221
      5          6           0        1.165747   -0.866431    0.097691
      6          6           0        2.469775   -0.138986    0.232066
      7          8           0        2.356773    1.210476   -0.103483
      8          1           0       -3.310004    1.555236    0.633308
      9          1           0       -2.867152    1.163749   -1.029607
     10          1           0       -1.643844    1.767261    0.088080
     11          1           0       -1.894283   -0.317352    1.478453
     12          1           0       -3.102637   -0.918084    0.358998
     13          1           0       -1.009463   -2.011826   -0.132809
     14          1           0       -1.408727   -0.920753   -1.468429
     15          1           0        1.154405   -1.935298    0.349275
     16          1           0        2.825954   -0.250763    1.265529
     17          1           0        3.210410   -0.637192   -0.409525
     18          1           0        1.433699    1.336761   -0.367644
 ---------------------------------------------------------------------

 SCF Done:  E(RHF) =  -325.179824066     A.U. after    2 cycles

 The electronic state is 1-A.
 Alpha  occ. eigenvalues --  -20.56015 -15.63048 -11.29769 -11.29370 -11.26709
 Alpha  occ. eigenvalues --  -11.23368 -11.22051  -1.32593  -1.21365  -1.05568
 Alpha  occ. eigenvalues --   -0.97559  -0.91683  -0.82185  -0.76532  -0.70981
 Alpha  occ. eigenvalues --   -0.67429  -0.64730  -0.62335  -0.61160  -0.58648
 Alpha  occ. eigenvalues --   -0.56541  -0.52591  -0.50514  -0.49362  -0.47788
 Alpha  occ. eigenvalues --   -0.46597  -0.41394  -0.41097
 Alpha virt. eigenvalues --    0.03152   0.03907   0.04214   0.04613   0.06170
 Alpha virt. eigenvalues --    0.06311   0.06764   0.07450   0.07871   0.09005
 Alpha virt. eigenvalues --    0.09773   0.11689   0.11983   0.12526   0.13749

 Mulliken charges:
               1
     1  C    0.369395
     2  C    0.140488
     3  N   -0.515389
     4  C    0.572097
     5  C    0.321148
     6  C    0.649471
     7  O   -0.522189
     8  H   -0.054211
     9  H   -0.083021
    10  H   -0.081450
    11  H   -0.130970
    12  H   -0.076181
    13  H   -0.136062
    14  H   -0.217538
    15  H   -0.356303
    16  H   -0.037012
    17  H   -0.036911
    18  H    0.194636
 Sum of Mulliken charges =   0.00000

 Dipole moment (field-independent basis, Debye):
    X=             -1.3319    Y=             -2.9489    Z=              0.4499  Tot=              3.2668

 Test job not archived.
 1\1\GINC-SE226\SP\RHF\Aug-CC-pVDZ\C5H11N1O1\OHZDE\09-Apr-2025\0\\#t hf
  aug-cc-pvdz iop(5/13=1,5/36=2,99/5=2) pseudo=read geom=check guess=(r
 ead,tcheck) scf=(maxcycle=1)\\title\\0,1\C,0,-2.22313334,-1.11600669,-
 0.00089128\C,0,-1.82234075,0.25815368,0.51781818\N,0,0.59119894,-0.041
 93295,0.17435062\C,0,-0.43153728,0.29306048,1.1430523\C,0,1.52529041,0
 .76898374,-0.04718851\C,0,2.58285205,0.43023073,-1.05442686\O,0,2.3616
 2564,-0.81040777,-1.65299738\H,0,-3.22464528,-1.09448394,-0.43358687\H
 ,0,-2.22293023,-1.85426089,0.80494934\H,0,-1.53008242,-1.46142232,-0.7

 Normal termination of Gaussian 16 at Wed Apr  9 16:50:32 2025.
