 Gaussian 16, Revision C.01,

 ----------------------------------------------------------------------
 #t hf aug-cc-pvdz symm=none int=(grid=ultrafine) guess=(read,tcheck) s
 table=(opt,rrhf)
 ----------------------------------------------------------------------
 -----
 title
 -----
 Symbolic Z-matrix:
 Charge =  0 Multiplicity = 1

 SCF Done:  E(RHF) =  -343.619048608     A.U. after   15 cycles
 Normal termination of Gaussian 16 at Wed Apr  9 03:34:26 2025.
 Gaussian 16:  ES64L-G16RevC.01  3-Jul-2019

 ----------------------------------------------------------------------
 #t hf aug-cc-pvdz iop(5/13=1,5/36=2,99/5=2) pseudo=read geom=check gue
 ss=(read,tcheck) scf=(maxcycle=1)
 ----------------------------------------------------------------------
 -----
 title
 -----
 Structure from the checkpoint file:  "Grambow2020_wb97xd3_007142_reverse_mol1.chk"
 Charge =  0 Multiplicity = 1

                         Standard orientation:
 ---------------------------------------------------------------------
 Center     Atomic      Atomic             Coordinates (Angstroms)
 Number     Number       Type             X           Y           Z
 ---------------------------------------------------------------------
      1          8           0       -0.399981    1.229855   -0.777579
      2          6           0       -0.603981    0.033684   -0.058950
      3          6           0        0.466105   -0.994543   -0.376437
      4          6           0        1.841184   -0.533044    0.015426
      5          8           0        2.108341    0.585088    0.372738
      6          6           0       -2.051166   -0.431174   -0.222777
      7          6           0       -1.105909    0.071676    1.320496
      8          1           0        0.424791    1.600376   -0.442123
      9          1           0        0.265795   -1.934878    0.143945
     10          1           0        0.496509   -1.218672   -1.450214
     11          1           0        2.639697   -1.297812   -0.053256
     12          1           0       -2.156197   -1.473821   -0.504056
     13          1           0       -2.609658    0.275979   -0.825921
     14          1           0       -1.517494    1.084269    1.456626
     15          1           0       -2.487718   -0.434578    0.847179
 ---------------------------------------------------------------------

 SCF Done:  E(RHF) =  -343.724110916     A.U. after    2 cycles

 The electronic state is 1-A.
 Alpha  occ. eigenvalues --  -20.58971 -20.57495 -11.36087 -11.31710 -11.27757
 Alpha  occ. eigenvalues --  -11.26261 -11.25818  -1.38297  -1.33760  -1.12698
 Alpha  occ. eigenvalues --   -1.03010  -0.87937  -0.84157  -0.78839  -0.71191
 Alpha  occ. eigenvalues --   -0.69851  -0.65373  -0.64043  -0.60579  -0.60359
 Alpha  occ. eigenvalues --   -0.57557  -0.56350  -0.53416  -0.50884  -0.45934
 Alpha  occ. eigenvalues --   -0.44630  -0.35699
 Alpha virt. eigenvalues --    0.03018   0.03867   0.04935   0.04977   0.06367
 Alpha virt. eigenvalues --    0.06838   0.07270   0.07896   0.09454   0.10428
 Alpha virt. eigenvalues --    0.11766   0.12549   0.13346   0.13972   0.14394

 Mulliken charges:
               1
     1  O   -0.702302
     2  C    0.077391
     3  C    0.134451
     4  C    0.629677
     5  O   -0.476726
     6  C    0.477319
     7  C   -0.316937
     8  H    0.194694
     9  H   -0.021462
    10  H    0.060756
    11  H   -0.141326
    12  H   -0.084766
    13  H    0.009492
    14  H    0.013986
    15  H    0.145754
 Sum of Mulliken charges =  -0.00000

 Dipole moment (field-independent basis, Debye):
    X=             -0.8960    Y=             -2.8680    Z=             -1.8990  Tot=              3.5545

 Test job not archived.
 1\1\GINC-SE292\SP\RHF\Aug-CC-pVDZ\C5H8O2\OHZDE\09-Apr-2025\0\\#t hf au
 g-cc-pvdz iop(5/13=1,5/36=2,99/5=2) pseudo=read geom=check guess=(read
 ,tcheck) scf=(maxcycle=1)\\title\\0,1\O,0,-0.0512493,-0.61471146,-1.44
 109824\C,0,-0.30159751,-0.02552744,-0.18449331\C,0,0.81132011,-0.32723
 083,0.80218023\C,0,2.13500073,0.23304707,0.36475663\O,0,2.34781341,0.7
 1004691,-0.7198847\C,0,-1.7185568,-0.36687576,0.27701045\C,0,-0.932307
 15,1.2976042,-0.09632363\H,0,0.73157902,-0.17094242,-1.78796379\H,0,0.
 5789719,0.08794199,1.78645486\H,0,0.94699892,-1.40855781,0.93055261\H,

 Normal termination of Gaussian 16 at Wed Apr  9 03:34:31 2025.
