 Gaussian 16, Revision C.01,

 ----------------------------------------------------------------------
 #t hf aug-cc-pvdz symm=none int=(grid=ultrafine) guess=(read,tcheck) s
 table=(opt,rrhf)
 ----------------------------------------------------------------------
 -----
 title
 -----
 Symbolic Z-matrix:
 Charge =  0 Multiplicity = 1

 SCF Done:  E(RHF) =  -359.764127032     A.U. after   13 cycles
 Normal termination of Gaussian 16 at Wed Apr  9 16:26:01 2025.
 Gaussian 16:  ES64L-G16RevC.01  3-Jul-2019

 ----------------------------------------------------------------------
 #t hf aug-cc-pvdz iop(5/13=1,5/36=2,99/5=2) pseudo=read geom=check gue
 ss=(read,tcheck) scf=(maxcycle=1)
 ----------------------------------------------------------------------
 -----
 title
 -----
 Structure from the checkpoint file:  "Grambow2020_wb97xd3_008282_reverse_mol2.chk"
 Charge =  0 Multiplicity = 1

                         Standard orientation:
 ---------------------------------------------------------------------
 Center     Atomic      Atomic             Coordinates (Angstroms)
 Number     Number       Type             X           Y           Z
 ---------------------------------------------------------------------
      1          6           0        2.614453   -0.059257   -0.003167
      2          6           0        1.607276   -0.914490    0.000858
      3          6           0       -2.406505   -0.771137    0.001027
      4          7           0       -1.645627    0.458421   -0.007172
      5          6           0       -0.296222    0.558283    0.000670
      6          8           0        0.313406    1.596517    0.004265
      7          8           0        0.251242   -0.685616    0.002710
      8          1           0        3.611217   -0.479647   -0.005866
      9          1           0       -2.220436   -1.353703    0.905028
     10          1           0        2.491399    1.010491   -0.005231
     11          1           0        1.762312   -1.986005    0.003008
     12          1           0       -3.464564   -0.517648   -0.034949
     13          1           0       -2.171546   -1.391734   -0.864881
     14          1           0       -2.120184    1.341694    0.000974
 ---------------------------------------------------------------------

 SCF Done:  E(RHF) =  -359.882187377     A.U. after    2 cycles

 The electronic state is 1-A.
 Alpha  occ. eigenvalues --  -20.63250 -20.54384 -15.65478 -11.42334 -11.31185
 Alpha  occ. eigenvalues --  -11.28422 -11.22868  -1.43850  -1.33706  -1.21388
 Alpha  occ. eigenvalues --   -1.04061  -0.96276  -0.90249  -0.76909  -0.72812
 Alpha  occ. eigenvalues --   -0.69091  -0.68809  -0.66732  -0.63236  -0.60803
 Alpha  occ. eigenvalues --   -0.57366  -0.56541  -0.55373  -0.53583  -0.46715
 Alpha  occ. eigenvalues --   -0.40696  -0.36513
 Alpha virt. eigenvalues --    0.02917   0.03861   0.04683   0.05576   0.05825
 Alpha virt. eigenvalues --    0.06427   0.08312   0.10825   0.11116   0.12493
 Alpha virt. eigenvalues --    0.12588   0.13151   0.13800   0.14971   0.15189

 Mulliken charges:
               1
     1  C    0.581367
     2  C    0.625854
     3  C    0.837635
     4  N   -0.244944
     5  C    0.495264
     6  O   -0.432761
     7  O   -0.406099
     8  H   -0.254966
     9  H   -0.084445
    10  H   -0.259876
    11  H   -0.433793
    12  H   -0.234360
    13  H   -0.088165
    14  H   -0.100712
 Sum of Mulliken charges =  -0.00000

 Dipole moment (field-independent basis, Debye):
    X=             -2.3794    Y=             -2.2617    Z=              0.0027  Tot=              3.2828

 Test job not archived.
 1\1\GINC-SE168\SP\RHF\Aug-CC-pVDZ\C4H7N1O2\OHZDE\09-Apr-2025\0\\#t hf
 aug-cc-pvdz iop(5/13=1,5/36=2,99/5=2) pseudo=read geom=check guess=(re
 ad,tcheck) scf=(maxcycle=1)\\title\\0,1\C,0,-1.24914204,-2.28750927,-0
 .66889633\C,0,-1.21700419,-0.98765468,-0.90381986\C,0,0.86543873,2.205
 18997,0.36115502\N,0,1.16394164,0.8963415,0.89839621\C,0,0.53956041,-0
 .25862428,0.57109035\O,0,0.80095508,-1.33543431,1.04198553\O,0,-0.4159
 1588,-0.00954386,-0.36273456\H,0,-1.97508797,-2.86575597,-1.22469081\H
 ,0,-0.15351006,2.51536314,0.599397\H,0,-0.60086853,-2.78533801,0.03211

 Normal termination of Gaussian 16 at Wed Apr  9 16:26:05 2025.
