 Gaussian 16, Revision C.01,

 ----------------------------------------------------------------------
 #t hf aug-cc-pvdz symm=none int=(grid=ultrafine) guess=(read,tcheck) s
 table=(opt,rrhf)
 ----------------------------------------------------------------------
 -----
 title
 -----
 Symbolic Z-matrix:
 Charge =  0 Multiplicity = 1

 SCF Done:  E(RHF) =  -306.479535536     A.U. after   17 cycles
 Normal termination of Gaussian 16 at Wed Apr  9 16:28:11 2025.
 Gaussian 16:  ES64L-G16RevC.01  3-Jul-2019

 ----------------------------------------------------------------------
 #t hf aug-cc-pvdz iop(5/13=1,5/36=2,99/5=2) pseudo=read geom=check gue
 ss=(read,tcheck) scf=(maxcycle=1)
 ----------------------------------------------------------------------
 -----
 title
 -----
 Structure from the checkpoint file:  "Grambow2020_wb97xd3_008455_reverse_mol1.chk"
 Charge =  0 Multiplicity = 1

                         Standard orientation:
 ---------------------------------------------------------------------
 Center     Atomic      Atomic             Coordinates (Angstroms)
 Number     Number       Type             X           Y           Z
 ---------------------------------------------------------------------
      1          6           0        1.256834   -0.733456   -0.798275
      2          6           0        1.655658    0.445305    0.030933
      3          6           0       -0.671520    1.175764   -0.270179
      4          8           0       -1.536106    0.192591   -0.510419
      5          6           0       -1.524930   -0.835642    0.347880
      6          6           0        0.550299   -0.728355    0.519837
      7          6           0        0.393080    0.785549    0.675724
      8          1           0        0.653815   -0.592980   -1.693048
      9          1           0        2.019943   -1.496072   -0.933445
     10          1           0        2.653252    0.627579    0.412047
     11          1           0       -0.486365    1.777686   -1.151910
     12          1           0       -2.104808   -1.670246   -0.032419
     13          1           0       -1.666985   -0.606790    1.397990
     14          1           0        0.896002   -1.350536    1.334235
     15          1           0        0.367469    1.115638    1.714385
 ---------------------------------------------------------------------

 SCF Done:  E(RHF) =  -306.573088035     A.U. after    2 cycles

 The electronic state is 1-A.
 Alpha  occ. eigenvalues --  -20.63872 -11.29186 -11.28155 -11.27216 -11.26796
 Alpha  occ. eigenvalues --  -11.26361 -11.25671  -1.41377  -1.20251  -0.99606
 Alpha  occ. eigenvalues --   -0.94524  -0.84644  -0.81385  -0.74746  -0.71561
 Alpha  occ. eigenvalues --   -0.70548  -0.65864  -0.63856  -0.58178  -0.54263
 Alpha  occ. eigenvalues --   -0.53350  -0.52140  -0.49252  -0.47641  -0.35403
 Alpha  occ. eigenvalues --   -0.22799
 Alpha virt. eigenvalues --    0.03058   0.04236   0.04300   0.04479   0.06107
 Alpha virt. eigenvalues --    0.06197   0.06586   0.07473   0.08158   0.09908
 Alpha virt. eigenvalues --    0.11625   0.12846   0.13364   0.13567   0.14558

 Mulliken charges:
               1
     1  C    0.536115
     2  C    0.362082
     3  C    0.572993
     4  O   -0.459936
     5  C    0.834966
     6  C    0.548362
     7  C    0.270793
     8  H   -0.241953
     9  H   -0.256360
    10  H   -0.422507
    11  H   -0.388517
    12  H   -0.347826
    13  H   -0.187084
    14  H   -0.488889
    15  H   -0.332237
 Sum of Mulliken charges =   0.00000

 Dipole moment (field-independent basis, Debye):
    X=              1.9488    Y=             -1.5000    Z=              1.1923  Tot=              2.7330

 Test job not archived.
 1\1\GINC-SE163\SP\RHF\Aug-CC-pVDZ\C6H8O1\OHZDE\09-Apr-2025\0\\#t hf au
 g-cc-pvdz iop(5/13=1,5/36=2,99/5=2) pseudo=read geom=check guess=(read
 ,tcheck) scf=(maxcycle=1)\\title\\0,1\C,0,1.01670066,1.07316604,0.3743
 2964\C,0,1.41136723,0.15324544,-0.73657511\C,0,0.05253941,-1.5167027,0
 .44869232\O,0,-0.90574123,-1.00779227,1.21977078\C,0,-1.7316758,-0.125
 58792,0.64217739\C,0,-0.16205176,0.68936996,-0.46225884\C,0,0.26283869
 ,-0.74313876,-0.79136672\H,0,1.03698983,0.72510904,1.40507218\H,0,1.35
 987663,2.10068907,0.28150499\H,0,2.0761772,0.41305049,-1.55155592\H,0,

 Normal termination of Gaussian 16 at Wed Apr  9 16:28:17 2025.
