 Gaussian 16, Revision C.01,

 ----------------------------------------------------------------------
 #t hf aug-cc-pvdz symm=none int=(grid=ultrafine) guess=(read,tcheck) s
 table=(opt,rrhf)
 ----------------------------------------------------------------------
 -----
 title
 -----
 Symbolic Z-matrix:
 Charge =  0 Multiplicity = 1

 SCF Done:  E(RHF) =  -286.680498667     A.U. after   17 cycles
 Normal termination of Gaussian 16 at Wed Apr  9 16:14:10 2025.
 Gaussian 16:  ES64L-G16RevC.01  3-Jul-2019

 ----------------------------------------------------------------------
 #t hf aug-cc-pvdz iop(5/13=1,5/36=2,99/5=2) pseudo=read geom=check gue
 ss=(read,tcheck) scf=(maxcycle=1)
 ----------------------------------------------------------------------
 -----
 title
 -----
 Structure from the checkpoint file:  "Grambow2020_wb97xd3_007993_forward_mol1.chk"
 Charge =  0 Multiplicity = 1

                         Standard orientation:
 ---------------------------------------------------------------------
 Center     Atomic      Atomic             Coordinates (Angstroms)
 Number     Number       Type             X           Y           Z
 ---------------------------------------------------------------------
      1          6           0        3.388874    0.470759    0.017128
      2          6           0        2.192471   -0.236447   -0.485955
      3          6           0        1.091394   -0.560107    0.099398
      4          6           0       -0.273861   -0.684012    0.300753
      5          6           0       -1.263727    0.297831   -0.168352
      6          6           0       -2.610482   -0.162421   -0.609963
      7          7           0       -2.450448    0.510367    0.664307
      8          1           0        3.534740    1.363892   -0.597489
      9          1           0        4.284141   -0.134964   -0.137517
     10          1           0        3.345762    0.784474    1.067994
     11          1           0        1.008894   -0.605879    1.269472
     12          1           0       -0.647876   -1.512604    0.893665
     13          1           0       -0.848355    1.153309   -0.688849
     14          1           0       -2.856651   -1.215858   -0.545636
     15          1           0       -3.064891    0.365970   -1.440804
     16          1           0       -2.750638    1.475471    0.610970
 ---------------------------------------------------------------------

 SCF Done:  E(RHF) =  -286.766392048     A.U. after    2 cycles

 The electronic state is 1-A.
 Alpha  occ. eigenvalues --  -15.64638 -11.31069 -11.29410 -11.28925 -11.24334
 Alpha  occ. eigenvalues --  -11.23107 -11.22096  -1.26657  -1.09994  -1.00664
 Alpha  occ. eigenvalues --   -0.92139  -0.88691  -0.83693  -0.74887  -0.69604
 Alpha  occ. eigenvalues --   -0.65022  -0.59467  -0.58837  -0.56427  -0.55430
 Alpha  occ. eigenvalues --   -0.53711  -0.50412  -0.48692  -0.42350  -0.36442
 Alpha  occ. eigenvalues --   -0.27580
 Alpha virt. eigenvalues --    0.02845   0.03650   0.03929   0.04544   0.05646
 Alpha virt. eigenvalues --    0.06120   0.06657   0.07093   0.08100   0.08918
 Alpha virt. eigenvalues --    0.10360   0.11720   0.12285   0.12938   0.13161

 Mulliken charges:
               1
     1  C    0.328369
     2  C   -0.866478
     3  C    0.479117
     4  C    0.166995
     5  C    0.756963
     6  C    0.936776
     7  N   -0.558597
     8  H    0.028253
     9  H    0.043503
    10  H   -0.145415
    11  H    0.077575
    12  H   -0.364452
    13  H   -0.365312
    14  H   -0.272307
    15  H   -0.242982
    16  H   -0.002009
 Sum of Mulliken charges =  -0.00000

 Dipole moment (field-independent basis, Debye):
    X=             -2.4594    Y=              1.5231    Z=              0.5872  Tot=              2.9518

 Test job not archived.
 1\1\GINC-SE113\SP\RHF\Aug-CC-pVDZ\C6H9N1\OHZDE\09-Apr-2025\0\\#t hf au
 g-cc-pvdz iop(5/13=1,5/36=2,99/5=2) pseudo=read geom=check guess=(read
 ,tcheck) scf=(maxcycle=1)\\title\\0,1\C,0,2.37300918,0.42874035,2.4060
 0325\C,0,1.71600364,0.84305683,1.14850599\C,0,1.15165014,0.15097075,0.
 21991295\C,0,0.18116893,-0.23807948,-0.68927589\C,0,-1.26393649,-0.084
 83621,-0.46102828\C,0,-2.16737377,0.20818245,-1.60930578\N,0,-2.147543
 27,-1.11404799,-1.01488944\H,0,1.84891781,0.91368066,3.23478531\H,0,3.
 39476116,0.81163934,2.44757386\H,0,2.38727379,-0.65171181,2.59839643\H

 Normal termination of Gaussian 16 at Wed Apr  9 16:14:15 2025.
