 Gaussian 16, Revision C.01,

 ----------------------------------------------------------------------
 #t hf aug-cc-pvdz symm=none int=(grid=ultrafine) guess=(read,tcheck) s
 table=(opt,rrhf)
 ----------------------------------------------------------------------
 -----
 title
 -----
 Symbolic Z-matrix:
 Charge =  0 Multiplicity = 1

 SCF Done:  E(RHF) =  -359.748780308     A.U. after   14 cycles
 Normal termination of Gaussian 16 at Wed Apr  9 04:04:41 2025.
 Gaussian 16:  ES64L-G16RevC.01  3-Jul-2019

 ----------------------------------------------------------------------
 #t hf aug-cc-pvdz iop(5/13=1,5/36=2,99/5=2) pseudo=read geom=check gue
 ss=(read,tcheck) scf=(maxcycle=1)
 ----------------------------------------------------------------------
 -----
 title
 -----
 Structure from the checkpoint file:  "Grambow2020_wb97xd3_009240_reverse_mol2.chk"
 Charge =  0 Multiplicity = 1

                         Standard orientation:
 ---------------------------------------------------------------------
 Center     Atomic      Atomic             Coordinates (Angstroms)
 Number     Number       Type             X           Y           Z
 ---------------------------------------------------------------------
      1          6           0       -1.809769   -1.600957   -0.601768
      2          6           0       -0.386611   -1.111065   -0.583317
      3          6           0       -0.519349    2.241970    0.288416
      4          8           0       -1.641927    2.218307    0.252714
      5          6           0        0.366817   -1.128475    0.485104
      6          8           0        1.014420   -1.147082    1.448516
      7          7           0        2.478788    0.620497   -0.819810
      8          1           0       -2.115702   -1.971704    0.376604
      9          1           0       -2.494966   -0.797266   -0.881118
     10          1           0       -1.936911   -2.413623   -1.319926
     11          1           0        0.098261   -0.704915   -1.461581
     12          1           0        2.076600    1.382455   -0.288375
     13          1           0        2.978453    1.021595   -1.602039
     14          1           0        3.156279    0.161337   -0.225350
 ---------------------------------------------------------------------

 SCF Done:  E(RHF) =  -359.867823615     A.U. after    2 cycles

 The electronic state is 1-A.
 Alpha  occ. eigenvalues --  -20.68110 -20.62266 -15.60912 -11.37269 -11.37258
 Alpha  occ. eigenvalues --  -11.24638 -11.23587  -1.49273  -1.42116  -1.11206
 Alpha  occ. eigenvalues --   -1.06716  -0.92295  -0.81720  -0.74550  -0.67650
 Alpha  occ. eigenvalues --   -0.66061  -0.65840  -0.64640  -0.63661  -0.63135
 Alpha  occ. eigenvalues --   -0.61615  -0.57333  -0.55616  -0.55447  -0.52819
 Alpha  occ. eigenvalues --   -0.42602  -0.34075
 Alpha virt. eigenvalues --    0.03590   0.04226   0.05236   0.05491   0.06602
 Alpha virt. eigenvalues --    0.07006   0.07287   0.09200   0.09758   0.10429
 Alpha virt. eigenvalues --    0.11644   0.13089   0.13196   0.13792   0.14444

 Mulliken charges:
               1
     1  C    0.213464
     2  C    1.028686
     3  C    0.228771
     4  O   -0.230783
     5  C   -0.498175
     6  O   -0.259558
     7  N   -0.223627
     8  H   -0.125618
     9  H    0.003292
    10  H    0.018565
    11  H   -0.341877
    12  H    0.062176
    13  H    0.039908
    14  H    0.084774
 Sum of Mulliken charges =   0.00000

 Dipole moment (field-independent basis, Debye):
    X=              0.2013    Y=              1.0460    Z=             -1.5763  Tot=              1.9024

 Test job not archived.
 1\1\GINC-SE423\SP\RHF\Aug-CC-pVDZ\C4H7N1O2\OHZDE\09-Apr-2025\0\\#t hf
 aug-cc-pvdz iop(5/13=1,5/36=2,99/5=2) pseudo=read geom=check guess=(re
 ad,tcheck) scf=(maxcycle=1)\\title\\0,1\C,0,-1.35369785,-1.63310694,0.
 99163942\C,0,-0.19946095,-0.93407375,0.32470262\C,0,-1.26262886,2.3005
 9058,-0.32875257\O,0,-2.29756339,2.04375755,0.02474746\C,0,0.71160124,
 -0.26326701,0.9800373\O,0,1.50476668,0.33296759,1.58277425\N,0,1.82350
 056,0.96244132,-1.56622298\H,0,-1.32058501,-1.51157622,2.07441085\H,0,
 -2.30741408,-1.23133003,0.64170682\H,0,-1.34270196,-2.70363709,0.77672

 Normal termination of Gaussian 16 at Wed Apr  9 04:04:45 2025.
