 Gaussian 16, Revision C.01,

 ----------------------------------------------------------------------
 #t hf aug-cc-pvdz symm=none int=(grid=ultrafine) guess=(read,tcheck) s
 table=(opt,rrhf)
 ----------------------------------------------------------------------
 -----
 title
 -----
 Symbolic Z-matrix:
 Charge =  0 Multiplicity = 1

 SCF Done:  E(RHF) =  -344.771971548     A.U. after   15 cycles

 1\1\GINC-SE457\Stability\RHF\Aug-CC-pVDZ\C5H10O2\OHZDE\09-Apr-2025\0\\
 #t hf aug-cc-pvdz symm=none int=(grid=ultrafine) guess=(read,tcheck) s
 table=(opt,rrhf)\\title\\0,1\C,0,2.64535168,0.18479268,-0.31176437\C,0
 ,1.3576275,-0.4687168,0.0015758\C,0,0.50118473,-0.02205427,1.03995148\
 O,0,-0.71292506,-0.55448029,1.12749518\C,0,-1.38056881,-0.4109905,-0.3
 846254\C,0,-2.69605897,0.2693998,-0.08251156\O,0,-0.54934786,0.2265066
 1,-1.14074534\H,0,2.63058119,0.56822407,-1.33430938\H,0,3.43707088,-0.
 56790884,-0.26623635\H,0,2.87744625,0.9990906,0.37471694\H,0,1.0631829

 Normal termination of Gaussian 16 at Wed Apr  9 03:33:34 2025.
 Gaussian 16:  ES64L-G16RevC.01  3-Jul-2019

 ----------------------------------------------------------------------
 #t hf aug-cc-pvdz iop(5/13=1,5/36=2,99/5=2) pseudo=read geom=check gue
 ss=(read,tcheck) scf=(maxcycle=1)
 ----------------------------------------------------------------------
 -----
 title
 -----
 Structure from the checkpoint file:  "Grambow2020_wb97xd3_007105_forward_mol1.chk"
 Charge =  0 Multiplicity = 1

                         Standard orientation:
 ---------------------------------------------------------------------
 Center     Atomic      Atomic             Coordinates (Angstroms)
 Number     Number       Type             X           Y           Z
 ---------------------------------------------------------------------
      1          6           0        2.765093   -0.385767   -0.192529
      2          6           0        1.477386    0.045274    0.390142
      3          6           0        0.626800    0.990086   -0.238396
      4          8           0       -0.588076    1.176945    0.265948
      5          6           0       -1.262446   -0.333541    0.394412
      6          6           0       -2.574987   -0.153074   -0.333178
      7          8           0       -0.433339   -1.195365   -0.094350
      8          1           0        2.746409   -1.460490   -0.386068
      9          1           0        3.555330   -0.209067    0.542151
     10          1           0        3.002210    0.142270   -1.116194
     11          1           0        1.178217   -0.400344    1.329334
     12          1           0        0.522977    0.037377   -0.951484
     13          1           0        1.059754    1.776508   -0.857508
     14          1           0       -1.399048   -0.355242    1.489484
     15          1           0       -2.384505   -0.013989   -1.398161
     16          1           0       -3.178055   -1.053430   -0.201431
     17          1           0       -3.123043    0.705904    0.054384
 ---------------------------------------------------------------------

 SCF Done:  E(RHF) =  -344.880557906     A.U. after    2 cycles

 The electronic state is 1-A.
 Alpha  occ. eigenvalues --  -20.54168 -20.47808 -11.36678 -11.31437 -11.31032
 Alpha  occ. eigenvalues --  -11.28540 -11.19866  -1.33369  -1.23845  -1.12027
 Alpha  occ. eigenvalues --   -0.98605  -0.94648  -0.83383  -0.77059  -0.70384
 Alpha  occ. eigenvalues --   -0.67345  -0.65305  -0.62911  -0.60849  -0.58536
 Alpha  occ. eigenvalues --   -0.57800  -0.55368  -0.52309  -0.50578  -0.48516
 Alpha  occ. eigenvalues --   -0.43073  -0.39254  -0.36494
 Alpha virt. eigenvalues --    0.02269   0.03771   0.04479   0.04782   0.05565
 Alpha virt. eigenvalues --    0.06216   0.06690   0.07320   0.07717   0.08964
 Alpha virt. eigenvalues --    0.09856   0.10808   0.11895   0.12804   0.13848

 Mulliken charges:
               1
     1  C    0.262014
     2  C   -0.123127
     3  C    0.679717
     4  O   -0.731828
     5  C    0.830497
     6  C    0.227778
     7  O   -0.882704
     8  H    0.116151
     9  H    0.052598
    10  H   -0.085088
    11  H   -0.380474
    12  H    0.612812
    13  H   -0.180716
    14  H   -0.366006
    15  H   -0.046056
    16  H    0.015793
    17  H   -0.001360
 Sum of Mulliken charges =  -0.00000

 Dipole moment (field-independent basis, Debye):
    X=              5.3106    Y=              1.0572    Z=              0.2514  Tot=              5.4207

 Test job not archived.
 1\1\GINC-SE457\SP\RHF\Aug-CC-pVDZ\C5H10O2\OHZDE\09-Apr-2025\0\\#t hf a
 ug-cc-pvdz iop(5/13=1,5/36=2,99/5=2) pseudo=read geom=check guess=(rea
 d,tcheck) scf=(maxcycle=1)\\title\\0,1\C,0,2.64535168,0.18479268,-0.31
 176437\C,0,1.3576275,-0.4687168,0.0015758\C,0,0.50118473,-0.02205427,1
 .03995148\O,0,-0.71292506,-0.55448029,1.12749518\C,0,-1.38056881,-0.41
 09905,-0.3846254\C,0,-2.69605897,0.2693998,-0.08251156\O,0,-0.54934786
 ,0.22650661,-1.14074534\H,0,2.63058119,0.56822407,-1.33430938\H,0,3.43
 707088,-0.56790884,-0.26623635\H,0,2.87744625,0.9990906,0.37471694\H,0

 Normal termination of Gaussian 16 at Wed Apr  9 03:33:41 2025.
