 Gaussian 16, Revision C.01,

 ----------------------------------------------------------------------
 #t hf aug-cc-pvdz symm=none int=(grid=ultrafine) guess=(read,tcheck) s
 table=(opt,rrhf)
 ----------------------------------------------------------------------
 -----
 title
 -----
 Symbolic Z-matrix:
 Charge =  0 Multiplicity = 1

 SCF Done:  E(RHF) =  -344.879785290     A.U. after   13 cycles

 1\1\GINC-SE037\Stability\RHF\Aug-CC-pVDZ\C5H10O2\OHZDE\09-Apr-2025\0\\
 #t hf aug-cc-pvdz symm=none int=(grid=ultrafine) guess=(read,tcheck) s
 table=(opt,rrhf)\\title\\0,1\C,0,-2.12064785,-1.07744497,-0.8438148\C,
 0,-1.75929358,0.08282387,0.02882103\C,0,-0.80351598,0.07171854,0.95228
 229\O,0,-0.05840796,-1.03370962,1.22143441\C,0,2.44325932,1.03180735,0
 .31749808\C,0,2.34073278,0.25879814,-0.7602376\O,0,1.2483236,0.0478105
 2,-1.51332664\H,0,-2.1749181,-0.77780215,-1.89285221\H,0,-1.38953031,-
 1.87913784,-0.74975974\H,0,-3.10106127,-1.47725422,-0.57224159\H,0,0.4

 Normal termination of Gaussian 16 at Wed Apr  9 16:11:14 2025.
 Gaussian 16:  ES64L-G16RevC.01  3-Jul-2019

 ----------------------------------------------------------------------
 #t hf aug-cc-pvdz iop(5/13=1,5/36=2,99/5=2) pseudo=read geom=check gue
 ss=(read,tcheck) scf=(maxcycle=1)
 ----------------------------------------------------------------------
 -----
 title
 -----
 Structure from the checkpoint file:  "Grambow2020_wb97xd3_007843_reverse_mol2.chk"
 Charge =  0 Multiplicity = 1

                         Standard orientation:
 ---------------------------------------------------------------------
 Center     Atomic      Atomic             Coordinates (Angstroms)
 Number     Number       Type             X           Y           Z
 ---------------------------------------------------------------------
      1          6           0       -2.434295    0.911870   -0.213502
      2          6           0       -1.815763   -0.093242    0.705989
      3          6           0       -0.951109   -1.032283    0.335868
      4          8           0       -0.553998   -1.194078   -0.954762
      5          6           0        2.463844   -0.586493    0.410989
      6          6           0        2.211245    0.572950   -0.190222
      7          8           0        1.145214    1.370797   -0.011235
      8          1           0       -2.347450    1.921890    0.193348
      9          1           0       -1.957724    0.890450   -1.192538
     10          1           0       -3.499994    0.710158   -0.349176
     11          1           0        0.469046    0.919944    0.514820
     12          1           0       -2.113325   -0.095214    1.748638
     13          1           0       -0.551992   -1.746137    1.051840
     14          1           0        0.345124   -1.535486   -0.971926
     15          1           0        3.370501   -1.123721    0.173971
     16          1           0        1.816309   -0.989672    1.180911
     17          1           0        2.896244    0.997218   -0.916652
 ---------------------------------------------------------------------

 SCF Done:  E(RHF) =  -344.993135377     A.U. after    2 cycles

 The electronic state is 1-A.
 Alpha  occ. eigenvalues --  -20.60051 -20.59766 -11.31668 -11.30407 -11.23887
 Alpha  occ. eigenvalues --  -11.22919 -11.22758  -1.36937  -1.36130  -1.05960
 Alpha  occ. eigenvalues --   -1.02337  -0.93404  -0.84556  -0.78613  -0.73910
 Alpha  occ. eigenvalues --   -0.69235  -0.68457  -0.64694  -0.61889  -0.59484
 Alpha  occ. eigenvalues --   -0.57388  -0.55825  -0.55774  -0.54502  -0.52306
 Alpha  occ. eigenvalues --   -0.50734  -0.36130  -0.35182
 Alpha virt. eigenvalues --    0.03274   0.04165   0.04462   0.05227   0.05848
 Alpha virt. eigenvalues --    0.06249   0.06807   0.07438   0.08421   0.09321
 Alpha virt. eigenvalues --    0.11448   0.12598   0.12867   0.13435   0.14203

 Mulliken charges:
               1
     1  C    0.296929
     2  C   -0.032766
     3  C    0.993525
     4  O   -0.592214
     5  C    0.511648
     6  C    0.764871
     7  O   -0.430518
     8  H   -0.002774
     9  H   -0.134582
    10  H    0.005855
    11  H    0.189590
    12  H   -0.409222
    13  H   -0.363684
    14  H    0.212368
    15  H   -0.292423
    16  H   -0.419014
    17  H   -0.297591
 Sum of Mulliken charges =  -0.00000

 Dipole moment (field-independent basis, Debye):
    X=              0.5286    Y=             -1.2339    Z=              1.1917  Tot=              1.7951

 Test job not archived.
 1\1\GINC-SE037\SP\RHF\Aug-CC-pVDZ\C5H10O2\OHZDE\09-Apr-2025\0\\#t hf a
 ug-cc-pvdz iop(5/13=1,5/36=2,99/5=2) pseudo=read geom=check guess=(rea
 d,tcheck) scf=(maxcycle=1)\\title\\0,1\C,0,-2.12064785,-1.07744497,-0.
 8438148\C,0,-1.75929358,0.08282387,0.02882103\C,0,-0.80351598,0.071718
 54,0.95228229\O,0,-0.05840796,-1.03370962,1.22143441\C,0,2.44325932,1.
 03180735,0.31749808\C,0,2.34073278,0.25879814,-0.7602376\O,0,1.2483236
 ,0.04781052,-1.51332664\H,0,-2.1749181,-0.77780215,-1.89285221\H,0,-1.
 38953031,-1.87913784,-0.74975974\H,0,-3.10106127,-1.47725422,-0.572241

 Normal termination of Gaussian 16 at Wed Apr  9 16:11:21 2025.
