 Gaussian 16, Revision C.01,

 ----------------------------------------------------------------------
 #t hf aug-cc-pvdz symm=none int=(grid=ultrafine) guess=(read,tcheck) s
 table=(opt,rrhf)
 ----------------------------------------------------------------------
 -----
 title
 -----
 Symbolic Z-matrix:
 Charge =  0 Multiplicity = 1

 SCF Done:  E(RHF) =  -346.086605200     A.U. after   14 cycles

 1\1\GINC-SE113\Stability\RHF\Aug-CC-pVDZ\C5H12O2\OHZDE\09-Apr-2025\0\\
 #t hf aug-cc-pvdz symm=none int=(grid=ultrafine) guess=(read,tcheck) s
 table=(opt,rrhf)\\title\\0,1\C,0,1.93925426,0.66413029,1.46830832\C,0,
 0.70067259,0.69202888,2.35403902\C,0,0.25070963,-1.07261821,-1.0527815
 3\O,0,0.36996637,-2.08705157,-0.41897336\C,0,-0.97111039,-0.19482925,-
 0.94113066\C,0,-1.61509291,0.01059837,-2.30663523\O,0,-1.87984467,-0.7
 3737935,-0.02822989\H,0,2.21557401,-0.35873871,1.2054428\H,0,1.7790856
 ,1.21540621,0.53766519\H,0,2.79701548,1.11973597,1.96652701\H,0,0.8698

 Normal termination of Gaussian 16 at Wed Apr  9 16:20:21 2025.
 Gaussian 16:  ES64L-G16RevC.01  3-Jul-2019

 ----------------------------------------------------------------------
 #t hf aug-cc-pvdz iop(5/13=1,5/36=2,99/5=2) pseudo=read geom=check gue
 ss=(read,tcheck) scf=(maxcycle=1)
 ----------------------------------------------------------------------
 -----
 title
 -----
 Structure from the checkpoint file:  "Grambow2020_wb97xd3_008084_reverse_mol2.chk"
 Charge =  0 Multiplicity = 1

                         Standard orientation:
 ---------------------------------------------------------------------
 Center     Atomic      Atomic             Coordinates (Angstroms)
 Number     Number       Type             X           Y           Z
 ---------------------------------------------------------------------
      1          6           0        2.674151    0.267158    0.739797
      2          6           0        2.629150   -0.847651   -0.296812
      3          6           0       -0.690490    1.060069    0.216482
      4          8           0       -0.385987    1.639570   -0.791718
      5          6           0       -1.108234   -0.389520    0.214658
      6          6           0       -2.485607   -0.555396    0.844614
      7          8           0       -1.079445   -0.903906   -1.084620
      8          1           0        2.381147    1.224683    0.305049
      9          1           0        2.002418    0.062541    1.577987
     10          1           0        3.676652    0.386455    1.154902
     11          1           0        3.306853   -0.640233   -1.126840
     12          1           0        2.923052   -1.805559    0.136794
     13          1           0       -0.680609    1.569310    1.198707
     14          1           0       -0.775233   -0.189117   -1.660396
     15          1           0       -0.367662   -0.914334    0.840136
     16          1           0       -3.235933   -0.017322    0.263219
     17          1           0       -2.752142   -1.611478    0.853256
     18          1           0       -2.497704   -0.187645    1.872933
     19          1           0        1.628802   -0.970571   -0.717474
 ---------------------------------------------------------------------

 SCF Done:  E(RHF) =  -346.200666522     A.U. after    2 cycles

 The electronic state is 1-A.
 Alpha  occ. eigenvalues --  -20.59516 -20.57708 -11.35892 -11.31251 -11.24694
 Alpha  occ. eigenvalues --  -11.22520 -11.22090  -1.39289  -1.33306  -1.04944
 Alpha  occ. eigenvalues --   -1.01433  -0.91123  -0.84263  -0.80871  -0.74676
 Alpha  occ. eigenvalues --   -0.70284  -0.66830  -0.60928  -0.60153  -0.59616
 Alpha  occ. eigenvalues --   -0.57815  -0.56550  -0.55229  -0.54725  -0.51639
 Alpha  occ. eigenvalues --   -0.49058  -0.48862  -0.46757  -0.45064
 Alpha virt. eigenvalues --    0.03062   0.04194   0.04397   0.04853   0.05954
 Alpha virt. eigenvalues --    0.06389   0.06443   0.07162   0.08249   0.08621
 Alpha virt. eigenvalues --    0.09342   0.10036   0.10879   0.11837   0.13649

 Mulliken charges:
               1
     1  C    0.303195
     2  C    0.442258
     3  C    0.803648
     4  O   -0.522330
     5  C   -0.109841
     6  C    0.576162
     7  O   -0.587476
     8  H   -0.074748
     9  H   -0.128548
    10  H   -0.143343
    11  H   -0.079370
    12  H   -0.046931
    13  H   -0.214898
    14  H    0.192019
    15  H   -0.096089
    16  H    0.009533
    17  H   -0.024048
    18  H    0.010729
    19  H   -0.309920
 Sum of Mulliken charges =  -0.00000

 Dipole moment (field-independent basis, Debye):
    X=             -0.5539    Y=             -0.1111    Z=              2.9463  Tot=              3.0000

 Test job not archived.
 1\1\GINC-SE113\SP\RHF\Aug-CC-pVDZ\C5H12O2\OHZDE\09-Apr-2025\0\\#t hf a
 ug-cc-pvdz iop(5/13=1,5/36=2,99/5=2) pseudo=read geom=check guess=(rea
 d,tcheck) scf=(maxcycle=1)\\title\\0,1\C,0,1.93925426,0.66413029,1.468
 30832\C,0,0.70067259,0.69202888,2.35403902\C,0,0.25070963,-1.07261821,
 -1.05278153\O,0,0.36996637,-2.08705157,-0.41897336\C,0,-0.97111039,-0.
 19482925,-0.94113066\C,0,-1.61509291,0.01059837,-2.30663523\O,0,-1.879
 84467,-0.73737935,-0.02822989\H,0,2.21557401,-0.35873871,1.2054428\H,0
 ,1.7790856,1.21540621,0.53766519\H,0,2.79701548,1.11973597,1.96652701\

 Normal termination of Gaussian 16 at Wed Apr  9 16:20:28 2025.
