 Gaussian 16, Revision C.01,

 ----------------------------------------------------------------------
 #t hf aug-cc-pvdz symm=none int=(grid=ultrafine) guess=(read,tcheck) s
 table=(opt,rrhf)
 ----------------------------------------------------------------------
 -----
 title
 -----
 Symbolic Z-matrix:
 Charge =  0 Multiplicity = 1

 SCF Done:  E(RHF) =  -308.877619888     A.U. after   14 cycles

 1\1\GINC-SE097\Stability\RHF\Aug-CC-pVDZ\C6H12O1\OHZDE\09-Apr-2025\0\\
 #t hf aug-cc-pvdz symm=none int=(grid=ultrafine) guess=(read,tcheck) s
 table=(opt,rrhf)\\title\\0,1\C,0,-0.65518219,-1.71287874,-0.94574383\C
 ,0,-0.4787044,-0.3043333,-0.79108241\C,0,-1.20127682,0.47389828,1.0012
 2247\C,0,-0.55282864,1.78399913,0.67778633\O,0,0.74736949,1.55894376,0
 .13547829\C,0,0.87004567,0.34434453,-0.5713752\C,0,1.89307751,-0.54574
 716,0.10917723\H,0,-1.06765623,-0.86833264,0.18604918\H,0,-1.51052366,
 -2.08346289,-1.48818268\H,0,0.09609213,-2.40370059,-0.59814105\H,0,-1.

 Normal termination of Gaussian 16 at Wed Apr  9 03:28:14 2025.
 Gaussian 16:  ES64L-G16RevC.01  3-Jul-2019

 ----------------------------------------------------------------------
 #t hf aug-cc-pvdz iop(5/13=1,5/36=2,99/5=2) pseudo=read geom=check gue
 ss=(read,tcheck) scf=(maxcycle=1)
 ----------------------------------------------------------------------
 -----
 title
 -----
 Structure from the checkpoint file:  "Grambow2020_wb97xd3_006734_reverse_mol1.chk"
 Charge =  0 Multiplicity = 1

                         Standard orientation:
 ---------------------------------------------------------------------
 Center     Atomic      Atomic             Coordinates (Angstroms)
 Number     Number       Type             X           Y           Z
 ---------------------------------------------------------------------
      1          6           0        1.943101   -1.123124   -0.095277
      2          6           0        0.662957   -0.659325   -0.525611
      3          6           0       -0.921094   -1.190697    0.718791
      4          6           0       -1.822356   -0.289460   -0.066677
      5          8           0       -1.146717    0.931855   -0.361916
      6          6           0        0.251615    0.795883   -0.488884
      7          6           0        0.947506    1.619827    0.578290
      8          1           0        0.638184   -1.343159    0.547470
      9          1           0        2.338064   -2.041102   -0.500866
     10          1           0        2.551351   -0.527026    0.565915
     11          1           0        0.221656   -1.219723   -1.344077
     12          1           0       -0.808817   -0.896176    1.765000
     13          1           0       -1.151672   -2.251475    0.622031
     14          1           0       -2.732489    0.001062    0.462962
     15          1           0       -2.131195   -0.780638   -0.999587
     16          1           0        0.539113    1.180504   -1.477735
     17          1           0        0.792008    1.190036    1.570173
     18          1           0        2.018981    1.688814    0.386086
     19          1           0        0.528183    2.625416    0.574169
 ---------------------------------------------------------------------

 SCF Done:  E(RHF) =  -308.975110338     A.U. after    2 cycles

 The electronic state is 1-A.
 Alpha  occ. eigenvalues --  -20.56816 -11.32096 -11.30386 -11.28788 -11.22806
 Alpha  occ. eigenvalues --  -11.22494 -11.20845  -1.34252  -1.10620  -1.03392
 Alpha  occ. eigenvalues --   -0.96729  -0.88865  -0.82919  -0.76330  -0.70248
 Alpha  occ. eigenvalues --   -0.66878  -0.65046  -0.63984  -0.58522  -0.56789
 Alpha  occ. eigenvalues --   -0.55886  -0.53968  -0.52581  -0.51029  -0.50325
 Alpha  occ. eigenvalues --   -0.48339  -0.42990  -0.25514
 Alpha virt. eigenvalues --    0.03338   0.04365   0.04514   0.04622   0.06221
 Alpha virt. eigenvalues --    0.06354   0.06478   0.06647   0.07440   0.09026
 Alpha virt. eigenvalues --    0.09500   0.09506   0.12094   0.13059   0.13643

 Mulliken charges:
               1
     1  C    0.544122
     2  C   -0.224315
     3  C    0.000785
     4  C    0.808705
     5  O   -0.757508
     6  C    0.939146
     7  C    0.382255
     8  H    0.307093
     9  H   -0.326171
    10  H   -0.355288
    11  H   -0.323719
    12  H   -0.199045
    13  H   -0.134021
    14  H   -0.238092
    15  H   -0.177972
    16  H   -0.164727
    17  H   -0.028769
    18  H    0.022231
    19  H   -0.074709
 Sum of Mulliken charges =  -0.00000

 Dipole moment (field-independent basis, Debye):
    X=             -0.0721    Y=             -0.8911    Z=             -0.1762  Tot=              0.9112

 Test job not archived.
 1\1\GINC-SE097\SP\RHF\Aug-CC-pVDZ\C6H12O1\OHZDE\09-Apr-2025\0\\#t hf a
 ug-cc-pvdz iop(5/13=1,5/36=2,99/5=2) pseudo=read geom=check guess=(rea
 d,tcheck) scf=(maxcycle=1)\\title\\0,1\C,0,-0.65518219,-1.71287874,-0.
 94574383\C,0,-0.4787044,-0.3043333,-0.79108241\C,0,-1.20127682,0.47389
 828,1.00122247\C,0,-0.55282864,1.78399913,0.67778633\O,0,0.74736949,1.
 55894376,0.13547829\C,0,0.87004567,0.34434453,-0.5713752\C,0,1.8930775
 1,-0.54574716,0.10917723\H,0,-1.06765623,-0.86833264,0.18604918\H,0,-1
 .51052366,-2.08346289,-1.48818268\H,0,0.09609213,-2.40370059,-0.598141

 Normal termination of Gaussian 16 at Wed Apr  9 03:28:22 2025.
