 Gaussian 16, Revision C.01,

 ----------------------------------------------------------------------
 #t hf aug-cc-pvdz symm=none int=(grid=ultrafine) guess=(read,tcheck) s
 table=(opt,rrhf)
 ----------------------------------------------------------------------
 -----
 title
 -----
 Symbolic Z-matrix:
 Charge =  0 Multiplicity = 1

 SCF Done:  E(RHF) =  -359.740716768     A.U. after   13 cycles
 Normal termination of Gaussian 16 at Wed Apr  9 14:41:39 2025.
 Gaussian 16:  ES64L-G16RevC.01  3-Jul-2019

 ----------------------------------------------------------------------
 #t hf aug-cc-pvdz iop(5/13=1,5/36=2,99/5=2) pseudo=read geom=check gue
 ss=(read,tcheck) scf=(maxcycle=1)
 ----------------------------------------------------------------------
 -----
 title
 -----
 Structure from the checkpoint file:  "Grambow2020_wb97xd3_006594_forward_mol2.chk"
 Charge =  0 Multiplicity = 1

                         Standard orientation:
 ---------------------------------------------------------------------
 Center     Atomic      Atomic             Coordinates (Angstroms)
 Number     Number       Type             X           Y           Z
 ---------------------------------------------------------------------
      1          6           0        2.578290   -0.294572   -0.030761
      2          7           0        1.516183    0.689459    0.022570
      3          6           0        0.326932    0.309189    0.019085
      4          6           0       -0.897821    1.187569    0.093172
      5          8           0       -1.955690    0.310837   -0.243082
      6          6           0       -1.522022   -0.963109    0.123206
      7          8           0       -0.113373   -0.980102   -0.049439
      8          1           0        2.912377   -0.413006   -1.064759
      9          1           0        3.427379    0.071175    0.546644
     10          1           0        2.285567   -1.277667    0.348231
     11          1           0       -0.859770    2.004249   -0.623971
     12          1           0       -1.015541    1.594473    1.104860
     13          1           0       -1.973791   -1.705577   -0.533363
     14          1           0       -1.749273   -1.180197    1.176330
 ---------------------------------------------------------------------

 SCF Done:  E(RHF) =  -359.855402242     A.U. after    2 cycles

 The electronic state is 1-A.
 Alpha  occ. eigenvalues --  -20.62001 -20.60253 -15.60953 -11.36578 -11.35085
 Alpha  occ. eigenvalues --  -11.31244 -11.25241  -1.44473  -1.33863  -1.19741
 Alpha  occ. eigenvalues --   -1.02727  -0.93240  -0.90242  -0.80447  -0.74726
 Alpha  occ. eigenvalues --   -0.72197  -0.65546  -0.64807  -0.61932  -0.59950
 Alpha  occ. eigenvalues --   -0.59022  -0.57040  -0.55464  -0.52318  -0.46555
 Alpha  occ. eigenvalues --   -0.40948  -0.39024
 Alpha virt. eigenvalues --    0.03364   0.04449   0.04635   0.04778   0.06405
 Alpha virt. eigenvalues --    0.07098   0.07163   0.08979   0.10567   0.12134
 Alpha virt. eigenvalues --    0.12843   0.13912   0.14515   0.15494   0.15844

 Mulliken charges:
               1
     1  C    0.722069
     2  N   -0.568142
     3  C    0.242462
     4  C    0.707924
     5  O   -0.655749
     6  C    1.110242
     7  O   -0.640749
     8  H   -0.096189
     9  H   -0.193240
    10  H   -0.117316
    11  H   -0.087193
    12  H    0.013447
    13  H   -0.273159
    14  H   -0.164405
 Sum of Mulliken charges =  -0.00000

 Dipole moment (field-independent basis, Debye):
    X=             -0.9498    Y=             -0.9186    Z=              0.8083  Tot=              1.5490

 Test job not archived.
 1\1\GINC-SE114\SP\RHF\Aug-CC-pVDZ\C4H7N1O2\OHZDE\09-Apr-2025\0\\#t hf
 aug-cc-pvdz iop(5/13=1,5/36=2,99/5=2) pseudo=read geom=check guess=(re
 ad,tcheck) scf=(maxcycle=1)\\title\\0,1\C,0,2.31416207,-0.3491229,-0.7
 1624265\N,0,1.34955229,0.6505239,-0.3045783\C,0,0.13929542,0.34871343,
 -0.24868945\C,0,-0.99301949,1.24999356,0.17864894\O,0,-2.15017267,0.53
 97564,-0.21805313\C,0,-1.78725937,-0.8068892,-0.21424155\O,0,-0.411621
 61,-0.85989173,-0.55949522\H,0,2.5242759,-0.23389706,-1.78271685\H,0,3
 .24782052,-0.18047759,-0.17962328\H,0,1.98299698,-1.37671865,-0.542536

 Normal termination of Gaussian 16 at Wed Apr  9 14:41:44 2025.
