 Gaussian 16, Revision C.01,

 ----------------------------------------------------------------------
 #t hf aug-cc-pvdz symm=none int=(grid=ultrafine) guess=(read,tcheck) s
 table=(opt,rrhf)
 ----------------------------------------------------------------------
 -----
 title
 -----
 Symbolic Z-matrix:
 Charge =  0 Multiplicity = 1

 SCF Done:  E(RHF) =  -336.317011798     A.U. after   15 cycles
 Normal termination of Gaussian 16 at Wed Apr  9 03:45:40 2025.
 Gaussian 16:  ES64L-G16RevC.01  3-Jul-2019

 ----------------------------------------------------------------------
 #t hf aug-cc-pvdz iop(5/13=1,5/36=2,99/5=2) pseudo=read geom=check gue
 ss=(read,tcheck) scf=(maxcycle=1)
 ----------------------------------------------------------------------
 -----
 title
 -----
 Structure from the checkpoint file:  "Grambow2020_wb97xd3_007923_reverse_mol2.chk"
 Charge =  0 Multiplicity = 1

                         Standard orientation:
 ---------------------------------------------------------------------
 Center     Atomic      Atomic             Coordinates (Angstroms)
 Number     Number       Type             X           Y           Z
 ---------------------------------------------------------------------
      1          7           0       -0.901894   -1.457591    0.002260
      2          6           0       -1.044399   -0.117455   -0.000081
      3          8           0       -2.091977    0.472630   -0.003234
      4          6           0        0.282992    0.636123    0.001072
      5          6           0        0.384521    1.945560    0.002979
      6          6           0        1.549370   -0.024592   -0.000890
      7          7           0        2.536766   -0.612806   -0.002175
      8          1           0       -0.005654   -1.910277    0.005573
      9          1           0       -1.737537   -2.015809    0.001221
 ---------------------------------------------------------------------

 SCF Done:  E(RHF) =  -336.415371878     A.U. after    2 cycles

 The electronic state is 1-A.
 Alpha  occ. eigenvalues --  -20.58074 -15.69179 -15.68629 -11.43160 -11.38878
 Alpha  occ. eigenvalues --  -11.33893 -11.32722  -1.40413  -1.24966  -1.22703
 Alpha  occ. eigenvalues --   -1.14438  -0.90431  -0.84004  -0.79646  -0.72455
 Alpha  occ. eigenvalues --   -0.66748  -0.64479  -0.59244  -0.55976  -0.53603
 Alpha  occ. eigenvalues --   -0.52803  -0.47959  -0.46128  -0.44001
 Alpha virt. eigenvalues --    0.00451   0.02517   0.04337   0.05428   0.06906
 Alpha virt. eigenvalues --    0.07681   0.08957   0.09577   0.10927   0.12541
 Alpha virt. eigenvalues --    0.12960   0.13479   0.13560   0.15044   0.15551

 Mulliken charges:
               1
     1  N   -0.064743
     2  C    0.312527
     3  O   -0.443236
     4  C    1.219351
     5  C   -0.131228
     6  C   -0.744248
     7  N   -0.166924
     8  H   -0.014174
     9  H    0.032675
 Sum of Mulliken charges =  -0.00000

 Dipole moment (field-independent basis, Debye):
    X=             -0.3037    Y=             -2.8805    Z=              0.0129  Tot=              2.8965

 Test job not archived.
 1\1\GINC-SE454\SP\RHF\Aug-CC-pVDZ\C4H2N2O1\OHZDE\09-Apr-2025\0\\#t hf
 aug-cc-pvdz iop(5/13=1,5/36=2,99/5=2) pseudo=read geom=check guess=(re
 ad,tcheck) scf=(maxcycle=1)\\title\\0,1\N,0,-1.22225163,0.55461699,0.8
 4084501\C,0,-0.70339188,-0.63386521,0.47400582\O,0,-1.33642854,-1.6286
 605,0.2388963\C,0,0.81966659,-0.6284691,0.37343517\C,0,1.53702476,-1.6
 7346423,0.0294587\C,0,1.61054916,0.52857664,0.64913524\N,0,2.19211252,
 1.49183031,0.88338669\H,0,-0.65566769,1.36229216,1.02746092\H,0,-2.221
 29229,0.62116194,0.92685714\\Version=ES64L-G16RevC.01\State=1-A\HF=-33

 Normal termination of Gaussian 16 at Wed Apr  9 03:45:43 2025.
