 Gaussian 16, Revision C.01,

 ----------------------------------------------------------------------
 #t hf aug-cc-pvdz symm=none int=(grid=ultrafine) guess=(read,tcheck) s
 table=(opt,rrhf)
 ----------------------------------------------------------------------
 -----
 title
 -----
 Symbolic Z-matrix:
 Charge =  0 Multiplicity = 1

 SCF Done:  E(RHF) =  -284.753587375     A.U. after   17 cycles
 Normal termination of Gaussian 16 at Wed Apr  9 14:20:17 2025.
 Gaussian 16:  ES64L-G16RevC.01  3-Jul-2019

 ----------------------------------------------------------------------
 #t hf aug-cc-pvdz iop(5/13=1,5/36=2,99/5=2) pseudo=read geom=check gue
 ss=(read,tcheck) scf=(maxcycle=1)
 ----------------------------------------------------------------------
 -----
 title
 -----
 Structure from the checkpoint file:  "Grambow2020_b97d3_007210_reverse_mol2.chk"
 Charge =  0 Multiplicity = 1

                         Standard orientation:
 ---------------------------------------------------------------------
 Center     Atomic      Atomic             Coordinates (Angstroms)
 Number     Number       Type             X           Y           Z
 ---------------------------------------------------------------------
      1          6           0       -2.485986   -0.456851   -0.135670
      2          6           0       -1.088636   -0.305984    0.428807
      3          8           0       -0.404543    0.858868   -0.235876
      4          6           0        1.153649    1.142032    0.033434
      5          6           0        1.796695   -0.113820    0.016620
      6          7           0        2.337543   -1.158886   -0.129806
      7          1           0       -2.462622   -0.717995   -1.203732
      8          1           0       -2.997056   -1.274870    0.390853
      9          1           0       -3.073427    0.460280   -0.002628
     10          1           0       -0.452751   -1.184818    0.274755
     11          1           0       -1.076196   -0.019896    1.483793
     12          1           0        1.118651    1.646963    1.000711
     13          1           0       -0.437400    0.739337   -1.207250
 ---------------------------------------------------------------------

 SCF Done:  E(RHF) =  -284.840399415     A.U. after    2 cycles

 The electronic state is 1-A.
 Alpha  occ. eigenvalues --  -20.70195 -15.61401 -11.35097 -11.28110 -11.27566
 Alpha  occ. eigenvalues --  -11.26979  -1.42976  -1.15158  -1.07455  -0.96321
 Alpha  occ. eigenvalues --   -0.91634  -0.79001  -0.72495  -0.69710  -0.64912
 Alpha  occ. eigenvalues --   -0.60498  -0.58532  -0.57535  -0.54725  -0.52073
 Alpha  occ. eigenvalues --   -0.47645  -0.43479  -0.31958
 Alpha virt. eigenvalues --    0.01996   0.03482   0.04075   0.04799   0.06227
 Alpha virt. eigenvalues --    0.06936   0.07390   0.09632   0.10531   0.11242
 Alpha virt. eigenvalues --    0.12692   0.13126   0.14381   0.14712   0.15073

 Mulliken charges:
               1
     1  C    0.239917
     2  C    0.723351
     3  O   -0.668202
     4  C    0.434567
     5  C   -0.128494
     6  N   -0.323107
     7  H   -0.066944
     8  H    0.006468
     9  H   -0.004989
    10  H   -0.156084
    11  H   -0.168689
    12  H   -0.238917
    13  H    0.351124
 Sum of Mulliken charges =  -0.00000

 Dipole moment (field-independent basis, Debye):
    X=             -7.0612    Y=              0.3849    Z=              0.5342  Tot=              7.0918

 Test job not archived.
 1\1\GINC-SE163\SP\RHF\Aug-CC-pVDZ\C4H7N1O1\OHZDE\09-Apr-2025\0\\#t hf
 aug-cc-pvdz iop(5/13=1,5/36=2,99/5=2) pseudo=read geom=check guess=(re
 ad,tcheck) scf=(maxcycle=1)\\title\\0,1\C,0,-1.88008723,-0.43535399,-0
 .06416545\C,0,-0.38278097,-0.54598899,-0.26370432\O,0,0.31458724,0.446
 82588,0.62773401\C,0,1.89818055,0.68090758,0.49316416\C,0,2.18287107,0
 .70253872,-0.88866006\N,0,2.38328203,0.84759532,-2.04836427\H,0,-2.257
 91639,0.54544425,-0.38786076\H,0,-2.37913441,-1.19796774,-0.67812527\H
 ,0,-2.1581205,-0.59943197,0.98449647\H,0,-0.05772132,-0.3425962,-1.290

 Normal termination of Gaussian 16 at Wed Apr  9 14:20:21 2025.
