 Gaussian 16, Revision C.01,

 ----------------------------------------------------------------------
 #t hf aug-cc-pvdz symm=none int=(grid=ultrafine) guess=(read,tcheck) s
 table=(opt,rrhf)
 ----------------------------------------------------------------------
 -----
 title
 -----
 Symbolic Z-matrix:
 Charge =  0 Multiplicity = 1

 SCF Done:  E(RHF) =  -354.483200697     A.U. after   21 cycles
 Normal termination of Gaussian 16 at Wed Apr  9 15:44:46 2025.
 Gaussian 16:  ES64L-G16RevC.01  3-Jul-2019

 ----------------------------------------------------------------------
 #t hf aug-cc-pvdz iop(5/13=1,5/36=2,99/5=2) pseudo=read geom=check gue
 ss=(read,tcheck) scf=(maxcycle=1)
 ----------------------------------------------------------------------
 -----
 title
 -----
 Structure from the checkpoint file:  "Grambow2020_wb97xd3_007318_forward_mol1.chk"
 Charge =  0 Multiplicity = 1

                         Standard orientation:
 ---------------------------------------------------------------------
 Center     Atomic      Atomic             Coordinates (Angstroms)
 Number     Number       Type             X           Y           Z
 ---------------------------------------------------------------------
      1          8           0        2.128583   -0.936198   -0.313329
      2          6           0        1.845924    0.415359   -0.112641
      3          6           0        0.362922    0.607228    0.090702
      4          7           0       -0.407655   -0.387755    0.716068
      5          7           0       -1.566686   -0.727425    0.070730
      6          6           0       -2.452926    0.052584   -0.432204
      7          7           0       -0.433915    1.540265    0.056170
      8          1           0        1.649114   -1.437812    0.355475
      9          1           0        2.166983    0.972129   -0.992383
     10          1           0        2.361485    0.827096    0.763438
     11          1           0       -1.666474   -1.738190    0.138718
     12          1           0       -3.217498   -0.560259   -0.934540
 ---------------------------------------------------------------------

 SCF Done:  E(RHF) =  -354.586809872     A.U. after    2 cycles

 The electronic state is 1-A.
 Alpha  occ. eigenvalues --  -20.60551 -15.73527 -15.72400 -15.68830 -11.36330
 Alpha  occ. eigenvalues --  -11.34085 -11.25403  -1.37161  -1.34141  -1.23772
 Alpha  occ. eigenvalues --   -1.05472  -0.99700  -0.86875  -0.79594  -0.72802
 Alpha  occ. eigenvalues --   -0.70228  -0.65876  -0.64376  -0.61850  -0.60361
 Alpha  occ. eigenvalues --   -0.56776  -0.51672  -0.49418  -0.45037  -0.35780
 Alpha  occ. eigenvalues --   -0.33783
 Alpha virt. eigenvalues --    0.01456   0.02966   0.03635   0.04908   0.05645
 Alpha virt. eigenvalues --    0.07111   0.08811   0.09578   0.10875   0.12096
 Alpha virt. eigenvalues --    0.12485   0.13245   0.13441   0.15120   0.15830

 Mulliken charges:
               1
     1  O   -0.510431
     2  C    0.867558
     3  C    0.542422
     4  N   -0.605126
     5  N    0.036764
     6  C    0.028901
     7  N   -0.315162
     8  H    0.181034
     9  H   -0.040459
    10  H    0.046497
    11  H    0.021085
    12  H   -0.253083
 Sum of Mulliken charges =  -0.00000

 Dipole moment (field-independent basis, Debye):
    X=              1.8565    Y=             -1.7963    Z=              0.0101  Tot=              2.5833

 Test job not archived.
 1\1\GINC-SE162\SP\RHF\Aug-CC-pVDZ\C3H5N3O1\OHZDE\09-Apr-2025\0\\#t hf
 aug-cc-pvdz iop(5/13=1,5/36=2,99/5=2) pseudo=read geom=check guess=(re
 ad,tcheck) scf=(maxcycle=1)\\title\\0,1\O,0,-1.80260676,0.9455045,-1.1
 2378312\C,0,-1.84860882,-0.16363565,-0.2784602\C,0,-0.46415905,-0.4808
 9141,0.23154528\N,0,0.47202649,0.54534314,0.44429357\N,0,1.71618075,0.
 32627746,-0.08417365\C,0,2.4311426,-0.73722848,-0.01661363\N,0,0.09961
 225,-1.43277445,0.76331705\H,0,-1.2644506,1.61925907,-0.69337848\H,0,-
 2.23215588,-1.01407021,-0.84119442\H,0,-2.49846512,-0.00337581,0.59035

 Normal termination of Gaussian 16 at Wed Apr  9 15:44:51 2025.
