 Gaussian 16, Revision C.01,

 ----------------------------------------------------------------------
 #t hf aug-cc-pvdz symm=none int=(grid=ultrafine) guess=(read,tcheck) s
 table=(opt,rrhf)
 ----------------------------------------------------------------------
 -----
 title
 -----
 Symbolic Z-matrix:
 Charge =  0 Multiplicity = 1

 SCF Done:  E(RHF) =  -394.312645908     A.U. after   15 cycles
 Normal termination of Gaussian 16 at Wed Apr  9 04:04:26 2025.
 Gaussian 16:  ES64L-G16RevC.01  3-Jul-2019

 ----------------------------------------------------------------------
 #t hf aug-cc-pvdz iop(5/13=1,5/36=2,99/5=2) pseudo=read geom=check gue
 ss=(read,tcheck) scf=(maxcycle=1)
 ----------------------------------------------------------------------
 -----
 title
 -----
 Structure from the checkpoint file:  "Grambow2020_wb97xd3_009239_forward_mol1.chk"
 Charge =  0 Multiplicity = 1

                         Standard orientation:
 ---------------------------------------------------------------------
 Center     Atomic      Atomic             Coordinates (Angstroms)
 Number     Number       Type             X           Y           Z
 ---------------------------------------------------------------------
      1          6           0       -2.542133   -0.500973   -0.001410
      2          6           0       -1.292736    0.230626    0.002383
      3          7           0       -0.560017    1.155501    0.000844
      4          8           0        0.707602    1.256717   -0.000460
      5          6           0        1.294617   -0.421143    0.000065
      6          8           0        2.469474   -0.391218   -0.001490
      7          8           0        0.290134   -1.104225    0.001884
      8          1           0       -2.617130   -1.115585    0.894650
      9          1           0       -3.361675    0.219220   -0.019731
     10          1           0       -2.597233   -1.133396   -0.886530
 ---------------------------------------------------------------------

 SCF Done:  E(RHF) =  -394.438199499     A.U. after    2 cycles

 The electronic state is 1-A.
 Alpha  occ. eigenvalues --  -20.63364 -20.60871 -20.58036 -15.77523 -11.44732
 Alpha  occ. eigenvalues --  -11.40645 -11.32861  -1.47111  -1.41118  -1.36007
 Alpha  occ. eigenvalues --   -1.21430  -1.07529  -0.82998  -0.78513  -0.73770
 Alpha  occ. eigenvalues --   -0.71105  -0.70465  -0.69518  -0.66078  -0.64622
 Alpha  occ. eigenvalues --   -0.62931  -0.58780  -0.52144  -0.50335  -0.44463
 Alpha  occ. eigenvalues --   -0.44358
 Alpha virt. eigenvalues --    0.01615   0.04126   0.04405   0.06136   0.08037
 Alpha virt. eigenvalues --    0.10032   0.10129   0.10624   0.11378   0.12498
 Alpha virt. eigenvalues --    0.13419   0.14072   0.14127   0.14941   0.15452

 Mulliken charges:
               1
     1  C    0.399988
     2  C   -0.036643
     3  N    0.176372
     4  O   -0.742309
     5  C    0.538185
     6  O   -0.293635
     7  O   -0.379045
     8  H    0.099763
     9  H    0.137896
    10  H    0.099427
 Sum of Mulliken charges =  -0.00000

 Dipole moment (field-independent basis, Debye):
    X=             -7.7237    Y=             -0.7051    Z=             -0.0045  Tot=              7.7558

 Test job not archived.
 1\1\GINC-SE402\SP\RHF\Aug-CC-pVDZ\C3H3N1O3\OHZDE\09-Apr-2025\0\\#t hf
 aug-cc-pvdz iop(5/13=1,5/36=2,99/5=2) pseudo=read geom=check guess=(re
 ad,tcheck) scf=(maxcycle=1)\\title\\0,1\C,0,-1.724007,0.1775508,0.0209
 9546\C,0,-0.44352545,-0.44080685,0.29347588\N,0,0.33542667,-1.28854234
 ,0.55203232\O,0,1.59715793,-1.28689403,0.71057267\C,0,2.08258059,0.403
 482,0.45212739\O,0,3.2482715,0.46766452,0.5871529\O,0,1.04825164,0.992
 7052,0.21011277\H,0,-1.72448962,0.60908667,-0.97904047\H,0,-2.49697864
 ,-0.58972108,0.08785355\H,0,-1.92268762,0.95547511,0.75706053\\Version

 Normal termination of Gaussian 16 at Wed Apr  9 04:04:30 2025.
