 Gaussian 16, Revision C.01,

 ----------------------------------------------------------------------
 #t hf aug-cc-pvdz symm=none int=(grid=ultrafine) guess=(read,tcheck) s
 table=(opt,rrhf)
 ----------------------------------------------------------------------
 -----
 title
 -----
 Symbolic Z-matrix:
 Charge =  0 Multiplicity = 1

 SCF Done:  E(RHF) =  -302.795924460     A.U. after   15 cycles
 Normal termination of Gaussian 16 at Wed Apr  9 16:48:44 2025.
 Gaussian 16:  ES64L-G16RevC.01  3-Jul-2019

 ----------------------------------------------------------------------
 #t hf aug-cc-pvdz iop(5/13=1,5/36=2,99/5=2) pseudo=read geom=check gue
 ss=(read,tcheck) scf=(maxcycle=1)
 ----------------------------------------------------------------------
 -----
 title
 -----
 Structure from the checkpoint file:  "Grambow2020_wb97xd3_008910_reverse_mol1.chk"
 Charge =  0 Multiplicity = 1

                         Standard orientation:
 ---------------------------------------------------------------------
 Center     Atomic      Atomic             Coordinates (Angstroms)
 Number     Number       Type             X           Y           Z
 ---------------------------------------------------------------------
      1          6           0        1.443198    1.451812    0.007174
      2          7           0        0.240896    0.654763    0.009814
      3          6           0       -1.033172    1.087947   -0.061241
      4          6           0       -1.900055    0.025706   -0.042085
      5          6           0       -1.186412   -1.218149   -0.006774
      6          6           0        0.182949   -0.751966    0.123187
      7          7           0        1.350053   -1.485829   -0.181774
      8          1           0        2.199254    0.949771   -0.596909
      9          1           0        1.231545    2.425796   -0.431226
     10          1           0        1.834826    1.599660    1.017000
     11          1           0       -1.239327    2.150940   -0.084379
     12          1           0       -2.975408    0.120417   -0.076850
     13          1           0       -0.319788   -1.030189    1.176530
     14          1           0        2.001620   -1.565555    0.584574
     15          1           0        1.091583   -2.405485   -0.506584
 ---------------------------------------------------------------------

 SCF Done:  E(RHF) =  -302.885999433     A.U. after    2 cycles

 The electronic state is 1-A.
 Alpha  occ. eigenvalues --  -15.67111 -15.62899 -11.31724 -11.29669 -11.28929
 Alpha  occ. eigenvalues --  -11.21908 -11.21119  -1.29430  -1.16713  -1.07824
 Alpha  occ. eigenvalues --   -0.97010  -0.93296  -0.79175  -0.75029  -0.70308
 Alpha  occ. eigenvalues --   -0.69467  -0.64599  -0.61983  -0.59325  -0.57509
 Alpha  occ. eigenvalues --   -0.55990  -0.51863  -0.44505  -0.39307  -0.33667
 Alpha  occ. eigenvalues --   -0.32692
 Alpha virt. eigenvalues --    0.02567   0.03365   0.04299   0.04822   0.06252
 Alpha virt. eigenvalues --    0.07019   0.07297   0.07889   0.10248   0.10692
 Alpha virt. eigenvalues --    0.11898   0.12695   0.13627   0.14554   0.14677

 Mulliken charges:
               1
     1  C    0.831084
     2  N   -0.446074
     3  C    0.368014
     4  C    0.594879
     5  C   -0.964971
     6  C    0.865887
     7  N   -0.393983
     8  H   -0.117506
     9  H   -0.220588
    10  H   -0.094604
    11  H   -0.418724
    12  H   -0.332040
    13  H    0.249359
    14  H    0.028166
    15  H    0.051100
 Sum of Mulliken charges =  -0.00000

 Dipole moment (field-independent basis, Debye):
    X=              3.2931    Y=              3.3015    Z=              1.1630  Tot=              4.8060

 Test job not archived.
 1\1\GINC-SE100\SP\RHF\Aug-CC-pVDZ\C5H8N2\OHZDE\09-Apr-2025\0\\#t hf au
 g-cc-pvdz iop(5/13=1,5/36=2,99/5=2) pseudo=read geom=check guess=(read
 ,tcheck) scf=(maxcycle=1)\\title\\0,1\C,0,-1.30755056,-1.19531977,0.45
 120293\N,0,-0.08136841,-0.50645894,0.13062392\C,0,1.17137497,-1.002382
 37,0.15592496\C,0,2.07263427,-0.04164294,-0.22475735\C,0,1.40385535,1.
 17562383,-0.58351339\C,0,0.02964453,0.85101227,-0.24360254\N,0,-1.1282
 2328,1.49709017,-0.72900116\H,0,-2.08032642,-0.88905656,-0.2542067\H,0
 ,-1.15408202,-2.26956309,0.36128937\H,0,-1.64461726,-0.97328251,1.4671

 Normal termination of Gaussian 16 at Wed Apr  9 16:48:58 2025.
