 Gaussian 16, Revision C.01,

 ----------------------------------------------------------------------
 #t hf aug-cc-pvdz symm=none int=(grid=ultrafine) guess=(read,tcheck) s
 table=(opt,rrhf)
 ----------------------------------------------------------------------
 -----
 title
 -----
 Symbolic Z-matrix:
 Charge =  0 Multiplicity = 1

 SCF Done:  E(RHF) =  -307.713454541     A.U. after   15 cycles

 1\1\GINC-SE009\Stability\RHF\Aug-CC-pVDZ\C6H10O1\OHZDE\09-Apr-2025\0\\
 #t hf aug-cc-pvdz symm=none int=(grid=ultrafine) guess=(read,tcheck) s
 table=(opt,rrhf)\\title\\0,1\C,0,1.81405413,0.34806998,-0.66636419\C,0
 ,0.5339038,0.28664931,0.11885433\C,0,0.06755848,-1.12749181,0.58188036
 \C,0,-1.20535963,-0.99215281,-0.2946104\C,0,-0.83148355,0.45705476,-0.
 59007093\C,0,-0.89804768,1.52418898,1.18018151\O,0,0.48539598,1.307071
 28,1.08989684\H,0,2.66126413,0.12701052,-0.01419797\H,0,1.80077777,-0.
 38591132,-1.47504543\H,0,1.95129193,1.34242165,-1.09267588\H,0,0.74369

 Normal termination of Gaussian 16 at Wed Apr  9 03:33:04 2025.
 Gaussian 16:  ES64L-G16RevC.01  3-Jul-2019

 ----------------------------------------------------------------------
 #t hf aug-cc-pvdz iop(5/13=1,5/36=2,99/5=2) pseudo=read geom=check gue
 ss=(read,tcheck) scf=(maxcycle=1)
 ----------------------------------------------------------------------
 -----
 title
 -----
 Structure from the checkpoint file:  "Grambow2020_wb97xd3_007030_reverse_mol1.chk"
 Charge =  0 Multiplicity = 1

                         Standard orientation:
 ---------------------------------------------------------------------
 Center     Atomic      Atomic             Coordinates (Angstroms)
 Number     Number       Type             X           Y           Z
 ---------------------------------------------------------------------
      1          6           0       -1.760340   -0.878028    0.287373
      2          6           0       -0.506968   -0.126311   -0.063491
      3          6           0        0.514801   -0.864902   -0.981171
      4          6           0        1.561414   -0.834508    0.163622
      5          6           0        0.622651    0.048163    0.980261
      6          6           0        0.390229    1.848685   -0.010245
      7          8           0       -0.796093    1.210591   -0.403545
      8          1           0       -2.399908   -0.966066   -0.593056
      9          1           0       -1.516399   -1.883163    0.638182
     10          1           0       -2.311734   -0.354143    1.068923
     11          1           0        0.196037   -1.857154   -1.297732
     12          1           0        0.786928   -0.288925   -1.863890
     13          1           0        2.542068   -0.424486   -0.075122
     14          1           0        1.708767   -1.806910    0.639020
     15          1           0        0.472033   -0.128539    2.048202
     16          1           0        1.200571    1.546624   -0.697896
     17          1           0        0.759660    1.319438    1.103639
 ---------------------------------------------------------------------

 SCF Done:  E(RHF) =  -307.806455810     A.U. after    2 cycles

 The electronic state is 1-A.
 Alpha  occ. eigenvalues --  -20.57643 -11.31162 -11.29690 -11.28215 -11.25589
 Alpha  occ. eigenvalues --  -11.24296 -11.23533  -1.36551  -1.13310  -1.01075
 Alpha  occ. eigenvalues --   -0.94549  -0.87098  -0.86115  -0.73790  -0.70344
 Alpha  occ. eigenvalues --   -0.66040  -0.64732  -0.59959  -0.59039  -0.58352
 Alpha  occ. eigenvalues --   -0.55467  -0.51691  -0.50180  -0.49936  -0.45400
 Alpha  occ. eigenvalues --   -0.43387  -0.32260
 Alpha virt. eigenvalues --    0.02990   0.04065   0.04227   0.04898   0.05891
 Alpha virt. eigenvalues --    0.06562   0.06924   0.07126   0.07494   0.09578
 Alpha virt. eigenvalues --    0.10783   0.10905   0.12394   0.13755   0.13949

 Mulliken charges:
               1
     1  C    0.666343
     2  C   -0.802248
     3  C    0.781956
     4  C    0.632021
     5  C    0.007860
     6  C   -0.046079
     7  O   -0.702975
     8  H    0.061807
     9  H    0.081039
    10  H    0.052138
    11  H   -0.235455
    12  H   -0.136848
    13  H   -0.202965
    14  H   -0.131309
    15  H   -0.343546
    16  H   -0.051794
    17  H    0.370056
 Sum of Mulliken charges =  -0.00000

 Dipole moment (field-independent basis, Debye):
    X=              1.3847    Y=             -3.9328    Z=              0.6751  Tot=              4.2237

 Test job not archived.
 1\1\GINC-SE009\SP\RHF\Aug-CC-pVDZ\C6H10O1\OHZDE\09-Apr-2025\0\\#t hf a
 ug-cc-pvdz iop(5/13=1,5/36=2,99/5=2) pseudo=read geom=check guess=(rea
 d,tcheck) scf=(maxcycle=1)\\title\\0,1\C,0,1.81405413,0.34806998,-0.66
 636419\C,0,0.5339038,0.28664931,0.11885433\C,0,0.06755848,-1.12749181,
 0.58188036\C,0,-1.20535963,-0.99215281,-0.2946104\C,0,-0.83148355,0.45
 705476,-0.59007093\C,0,-0.89804768,1.52418898,1.18018151\O,0,0.4853959
 8,1.30707128,1.08989684\H,0,2.66126413,0.12701052,-0.01419797\H,0,1.80
 077777,-0.38591132,-1.47504543\H,0,1.95129193,1.34242165,-1.09267588\H

 Normal termination of Gaussian 16 at Wed Apr  9 03:33:10 2025.
