 Gaussian 16, Revision C.01,

 ----------------------------------------------------------------------
 #t hf aug-cc-pvdz symm=none int=(grid=ultrafine) guess=(read,tcheck) s
 table=(opt,rrhf)
 ----------------------------------------------------------------------
 -----
 title
 -----
 Symbolic Z-matrix:
 Charge =  0 Multiplicity = 1

 SCF Done:  E(RHF) =  -360.800482067     A.U. after   14 cycles
 Normal termination of Gaussian 16 at Wed Apr  9 03:58:54 2025.
 Gaussian 16:  ES64L-G16RevC.01  3-Jul-2019

 ----------------------------------------------------------------------
 #t hf aug-cc-pvdz iop(5/13=1,5/36=2,99/5=2) pseudo=read geom=check gue
 ss=(read,tcheck) scf=(maxcycle=1)
 ----------------------------------------------------------------------
 -----
 title
 -----
 Structure from the checkpoint file:  "Grambow2020_wb97xd3_008735_forward_mol1.chk"
 Charge =  0 Multiplicity = 1

                         Standard orientation:
 ---------------------------------------------------------------------
 Center     Atomic      Atomic             Coordinates (Angstroms)
 Number     Number       Type             X           Y           Z
 ---------------------------------------------------------------------
      1          6           0       -2.628080   -0.719513    0.040755
      2          6           0       -0.985543    0.154950   -0.381279
      3          8           0       -1.131633    1.416076    0.033199
      4          6           0        0.035859   -0.713938    0.319870
      5          6           0        1.466269   -0.241170    0.038949
      6          8           0        2.353025   -1.038075   -0.182040
      7          7           0        1.643843    1.093933    0.098949
      8          1           0       -2.563151   -1.165170    1.029446
      9          1           0       -2.553601   -1.459813   -0.748552
     10          1           0       -3.583488   -0.194138   -0.091570
     11          1           0       -1.017997   -0.011458   -1.467812
     12          1           0       -2.146537    0.510725    0.141051
     13          1           0       -0.127376   -0.652901    1.398319
     14          1           0       -0.019859   -1.754128    0.004036
     15          1           0        2.559343    1.461164   -0.089239
     16          1           0        0.843600    1.702199    0.212632
 ---------------------------------------------------------------------

 SCF Done:  E(RHF) =  -360.913687861     A.U. after    2 cycles

 The electronic state is 1-A.
 Alpha  occ. eigenvalues --  -20.53352 -20.52777 -15.63681 -11.38484 -11.36728
 Alpha  occ. eigenvalues --  -11.28068 -11.26648  -1.35010  -1.32409  -1.17615
 Alpha  occ. eigenvalues --   -1.05602  -1.00148  -0.84639  -0.79191  -0.73919
 Alpha  occ. eigenvalues --   -0.70558  -0.69524  -0.64198  -0.62105  -0.61582
 Alpha  occ. eigenvalues --   -0.60232  -0.58763  -0.56553  -0.53987  -0.44866
 Alpha  occ. eigenvalues --   -0.43278  -0.41376  -0.40444
 Alpha virt. eigenvalues --    0.02504   0.04113   0.04413   0.04607   0.05835
 Alpha virt. eigenvalues --    0.07012   0.07162   0.07228   0.09547   0.10880
 Alpha virt. eigenvalues --    0.12066   0.13127   0.13556   0.13964   0.14474

 Mulliken charges:
               1
     1  C    0.256970
     2  C    0.747292
     3  O   -1.010699
     4  C    0.252369
     5  C    0.407039
     6  O   -0.517967
     7  N   -0.094407
     8  H   -0.071418
     9  H   -0.082262
    10  H   -0.101485
    11  H   -0.187742
    12  H    0.443538
    13  H    0.004698
    14  H   -0.071756
    15  H   -0.047845
    16  H    0.073675
 Sum of Mulliken charges =  -0.00000

 Dipole moment (field-independent basis, Debye):
    X=             -4.2747    Y=             -0.6477    Z=             -0.0666  Tot=              4.3240

 Test job not archived.
 1\1\GINC-SE116\SP\RHF\Aug-CC-pVDZ\C4H9N1O2\OHZDE\09-Apr-2025\0\\#t hf
 aug-cc-pvdz iop(5/13=1,5/36=2,99/5=2) pseudo=read geom=check guess=(re
 ad,tcheck) scf=(maxcycle=1)\\title\\0,1\C,0,-2.16464419,-0.16756921,-0
 .7418063\C,0,-0.32647528,0.343713,-0.76305641\O,0,-0.29591416,1.598316
 39,-0.30631918\C,0,0.32227416,-0.73741006,0.0736838\C,0,1.84548556,-0.
 57592101,0.12110764\O,0,2.5764857,-1.53941622,0.03424286\N,0,2.2758302
 4,0.68884116,0.30224664\H,0,-2.40419481,-0.63657833,0.20844709\H,0,-2.
 07721847,-0.89065616,-1.54560898\H,0,-2.9416951,0.55251415,-1.03164025

 Normal termination of Gaussian 16 at Wed Apr  9 03:59:00 2025.
