 Gaussian 16, Revision C.01,

 ----------------------------------------------------------------------
 #t hf aug-cc-pvdz symm=none int=(grid=ultrafine) guess=(read,tcheck) s
 table=(opt,rrhf)
 ----------------------------------------------------------------------
 -----
 title
 -----
 Symbolic Z-matrix:
 Charge =  0 Multiplicity = 1

 SCF Done:  E(RHF) =  -333.587941816     A.U. after   15 cycles
 Normal termination of Gaussian 16 at Wed Apr  9 15:33:42 2025.
 Gaussian 16:  ES64L-G16RevC.01  3-Jul-2019

 ----------------------------------------------------------------------
 #t hf aug-cc-pvdz iop(5/13=1,5/36=2,99/5=2) pseudo=read geom=check gue
 ss=(read,tcheck) scf=(maxcycle=1)
 ----------------------------------------------------------------------
 -----
 title
 -----
 Structure from the checkpoint file:  "Grambow2020_wb97xd3_006980_reverse_mol1.chk"
 Charge =  0 Multiplicity = 1

                         Standard orientation:
 ---------------------------------------------------------------------
 Center     Atomic      Atomic             Coordinates (Angstroms)
 Number     Number       Type             X           Y           Z
 ---------------------------------------------------------------------
      1          7           0       -2.190852    0.030408    0.000200
      2          6           0       -0.740912   -0.134945    0.000192
      3          6           0       -0.254152    1.182074   -0.000629
      4          7           0        1.075557    1.275593    0.000059
      5          6           0        1.722758    0.099406    0.000270
      6          7           0        1.223200   -1.129374   -0.000210
      7          7           0       -0.105335   -1.262734   -0.000184
      8          1           0       -2.660901   -0.311120   -0.832101
      9          1           0       -2.661008   -0.309188    0.833386
     10          1           0       -1.870095    1.207187   -0.000653
     11          1           0        2.807842    0.136654    0.001311
 ---------------------------------------------------------------------

 SCF Done:  E(RHF) =  -333.681546603     A.U. after    2 cycles

 The electronic state is 1-A.
 Alpha  occ. eigenvalues --  -15.74582 -15.70009 -15.66532 -15.63481 -11.32187
 Alpha  occ. eigenvalues --  -11.31557 -11.25731  -1.34546  -1.27075  -1.19359
 Alpha  occ. eigenvalues --   -1.08099  -0.93479  -0.88324  -0.77320  -0.77309
 Alpha  occ. eigenvalues --   -0.69866  -0.66117  -0.63160  -0.59263  -0.51141
 Alpha  occ. eigenvalues --   -0.46844  -0.43231  -0.43205  -0.38046  -0.33629
 Alpha virt. eigenvalues --    0.00990   0.03476   0.04910   0.05027   0.07297
 Alpha virt. eigenvalues --    0.08929   0.10130   0.10305   0.10979   0.11958
 Alpha virt. eigenvalues --    0.12399   0.13344   0.14598   0.15190   0.17198

 Mulliken charges:
               1
     1  N   -0.533591
     2  C    0.768812
     3  C   -0.124453
     4  N   -0.415711
     5  C    0.505188
     6  N   -0.360892
     7  N   -0.436504
     8  H    0.141458
     9  H    0.141902
    10  H    0.538959
    11  H   -0.225169
 Sum of Mulliken charges =  -0.00000

 Dipole moment (field-independent basis, Debye):
    X=             -5.6877    Y=             -0.9032    Z=              0.0033  Tot=              5.7590

 Test job not archived.
 1\1\GINC-SE138\SP\RHF\Aug-CC-pVDZ\C3H4N4\OHZDE\09-Apr-2025\0\\#t hf au
 g-cc-pvdz iop(5/13=1,5/36=2,99/5=2) pseudo=read geom=check guess=(read
 ,tcheck) scf=(maxcycle=1)\\title\\0,1\N,0,1.81773136,0.10342555,-0.399
 60123\C,0,0.40812236,-0.17677879,-0.14631207\C,0,-0.10889501,1.0600618
 9,0.27129186\N,0,-1.40962253,1.04101077,0.56218425\C,0,-2.00354883,-0.
 15311328,0.40855025\N,0,-1.47658707,-1.30361951,0.01092417\N,0,-0.1758
 8393,-1.32314019,-0.29003953\H,0,2.46724977,-0.37988717,0.21264642\H,0
 ,2.10733422,0.00409025,-1.36750323\H,0,1.46720592,1.21797333,-0.049442

 Normal termination of Gaussian 16 at Wed Apr  9 15:33:46 2025.
