 Gaussian 16, Revision C.01,

 ----------------------------------------------------------------------
 #t hf aug-cc-pvdz symm=none int=(grid=ultrafine) guess=(read,tcheck) s
 table=(opt,rrhf)
 ----------------------------------------------------------------------
 -----
 title
 -----
 Symbolic Z-matrix:
 Charge =  0 Multiplicity = 1

 SCF Done:  E(RHF) =  -284.650392142     A.U. after   16 cycles
 Normal termination of Gaussian 16 at Wed Apr  9 03:05:28 2025.
 Gaussian 16:  ES64L-G16RevC.01  3-Jul-2019

 ----------------------------------------------------------------------
 #t hf aug-cc-pvdz iop(5/13=1,5/36=2,99/5=2) pseudo=read geom=check gue
 ss=(read,tcheck) scf=(maxcycle=1)
 ----------------------------------------------------------------------
 -----
 title
 -----
 Structure from the checkpoint file:  "Grambow2020_b97d3_006528_reverse_mol1.chk"
 Charge =  0 Multiplicity = 1

                         Standard orientation:
 ---------------------------------------------------------------------
 Center     Atomic      Atomic             Coordinates (Angstroms)
 Number     Number       Type             X           Y           Z
 ---------------------------------------------------------------------
      1          6           0        0.179012    1.311824    0.069598
      2          6           0       -1.929026    0.290066    0.324121
      3          8           0       -0.726932   -0.223727   -0.628693
      4          6           0        0.033779   -1.193542   -0.045183
      5          7           0        1.235058   -0.907411    0.299092
      6          6           0        1.467015    0.508823   -0.039863
      7          1           0       -0.112188    2.015660   -0.707215
      8          1           0       -0.134509    1.593631    1.069484
      9          1           0       -1.863356   -0.367482    1.210837
     10          1           0       -2.834545    0.037251   -0.252221
     11          1           0       -0.461674   -2.146941    0.164980
     12          1           0        1.864367    0.582914   -1.061816
     13          1           0        2.207272    0.923632    0.659813
 ---------------------------------------------------------------------

 SCF Done:  E(RHF) =  -284.735365841     A.U. after    2 cycles

 The electronic state is 1-A.
 Alpha  occ. eigenvalues --  -20.62562 -15.63752 -11.38334 -11.35970 -11.30283
 Alpha  occ. eigenvalues --  -11.22297  -1.38184  -1.19610  -1.05101  -0.88932
 Alpha  occ. eigenvalues --   -0.87204  -0.80395  -0.71461  -0.69433  -0.65059
 Alpha  occ. eigenvalues --   -0.61274  -0.58664  -0.57688  -0.53843  -0.49858
 Alpha  occ. eigenvalues --   -0.44777  -0.41781  -0.28914
 Alpha virt. eigenvalues --    0.02712   0.04057   0.04456   0.04763   0.06257
 Alpha virt. eigenvalues --    0.06928   0.07568   0.08011   0.10360   0.11365
 Alpha virt. eigenvalues --    0.12156   0.13187   0.13826   0.14264   0.15681

 Mulliken charges:
               1
     1  C    0.752666
     2  C    0.329653
     3  O   -0.723953
     4  C    0.668869
     5  N   -0.529914
     6  C    0.547400
     7  H   -0.118929
     8  H   -0.057803
     9  H   -0.256344
    10  H   -0.259104
    11  H   -0.183086
    12  H   -0.074868
    13  H   -0.094588
 Sum of Mulliken charges =  -0.00000

 Dipole moment (field-independent basis, Debye):
    X=              2.1614    Y=              1.6930    Z=             -0.2992  Tot=              2.7618

 Test job not archived.
 1\1\GINC-SE120\SP\RHF\Aug-CC-pVDZ\C4H7N1O1\OHZDE\09-Apr-2025\0\\#t hf
 aug-cc-pvdz iop(5/13=1,5/36=2,99/5=2) pseudo=read geom=check guess=(re
 ad,tcheck) scf=(maxcycle=1)\\title\\0,1\C,0,0.88436041,-0.57915397,0.4
 5151378\C,0,-1.31679733,-1.32748846,0.06746432\O,0,-0.8815972,0.154552
 87,0.54811033\C,0,-0.79201854,1.04113119,-0.48419853\N,0,0.36703876,1.
 46652658,-0.82929517\C,0,1.35756458,0.80806505,0.04231187\H,0,0.956400
 65,-0.91579409,1.4835529\H,0,0.99598299,-1.36774696,-0.28546886\H,0,-1
 .51365951,-1.20775471,-1.01413509\H,0,-2.26988835,-1.49536094,0.596130

 Normal termination of Gaussian 16 at Wed Apr  9 03:05:32 2025.
