 Gaussian 16, Revision C.01,

 ----------------------------------------------------------------------
 #t hf aug-cc-pvdz symm=none int=(grid=ultrafine) guess=(read,tcheck) s
 table=(opt,rrhf)
 ----------------------------------------------------------------------
 -----
 title
 -----
 Symbolic Z-matrix:
 Charge =  0 Multiplicity = 1

 SCF Done:  E(RHF) =  -245.659145509     A.U. after   15 cycles
 Normal termination of Gaussian 16 at Wed Apr  9 03:20:50 2025.
 Gaussian 16:  ES64L-G16RevC.01  3-Jul-2019

 ----------------------------------------------------------------------
 #t hf aug-cc-pvdz iop(5/13=1,5/36=2,99/5=2) pseudo=read geom=check gue
 ss=(read,tcheck) scf=(maxcycle=1)
 ----------------------------------------------------------------------
 -----
 title
 -----
 Structure from the checkpoint file:  "Grambow2020_wb97xd3_006112_forward_mol1.chk"
 Charge =  0 Multiplicity = 1

                         Standard orientation:
 ---------------------------------------------------------------------
 Center     Atomic      Atomic             Coordinates (Angstroms)
 Number     Number       Type             X           Y           Z
 ---------------------------------------------------------------------
      1          6           0        1.120134   -0.240027    0.311800
      2          6           0        0.518751    1.002147   -0.249961
      3          7           0       -0.822088    0.916675    0.078875
      4          6           0       -1.111482   -0.322652    0.195699
      5          8           0        0.038377   -1.099054   -0.264923
      6          1           0        2.067921   -0.589276   -0.088654
      7          1           0        1.035570   -0.377155    1.400256
      8          1           0        0.999437    1.969533   -0.228610
      9          1           0        0.240629   -0.438591   -1.174038
     10          1           0       -2.060368   -0.825606    0.113069
 ---------------------------------------------------------------------

 SCF Done:  E(RHF) =  -245.733009525     A.U. after    2 cycles

 The electronic state is 1-A.
 Alpha  occ. eigenvalues --  -20.69061 -15.65224 -11.33087 -11.32076 -11.24062
 Alpha  occ. eigenvalues --   -1.45584  -1.20839  -1.02752  -0.87197  -0.80413
 Alpha  occ. eigenvalues --   -0.77273  -0.74326  -0.64059  -0.59744  -0.58817
 Alpha  occ. eigenvalues --   -0.55624  -0.47864  -0.44621  -0.29097
 Alpha virt. eigenvalues --    0.03325   0.04134   0.04740   0.05318   0.07109
 Alpha virt. eigenvalues --    0.09823   0.10183   0.11025   0.12419   0.13255
 Alpha virt. eigenvalues --    0.13899   0.15575   0.16298   0.16387   0.17845

 Mulliken charges:
               1
     1  C    0.749258
     2  C    0.253811
     3  N   -0.426798
     4  C    0.636244
     5  O   -0.711980
     6  H   -0.163616
     7  H   -0.158290
     8  H   -0.315088
     9  H    0.396180
    10  H   -0.259720
 Sum of Mulliken charges =   0.00000

 Dipole moment (field-independent basis, Debye):
    X=              1.4776    Y=             -1.8107    Z=              0.1653  Tot=              2.3429

 Test job not archived.
 1\1\GINC-SE054\SP\RHF\Aug-CC-pVDZ\C3H5N1O1\OHZDE\09-Apr-2025\0\\#t hf
 aug-cc-pvdz iop(5/13=1,5/36=2,99/5=2) pseudo=read geom=check guess=(re
 ad,tcheck) scf=(maxcycle=1)\\title\\0,1\C,0,-0.7913515,-0.60049846,-0.
 03221816\C,0,-0.60088992,0.87714423,-0.00919768\N,0,0.65719327,1.07224
 753,-0.54998449\C,0,1.3379773,0.01264763,-0.3329355\O,0,0.56156734,-0.
 84671658,0.55915715\H,0,-1.52793992,-1.0430057,0.63280959\H,0,-0.75695
 45,-1.08420608,-1.01991004\H,0,-1.38053771,1.59061532,-0.23382656\H,0,
 0.22475312,0.00459158,1.24138701\H,0,2.40445051,-0.13076047,-0.2855733

 Normal termination of Gaussian 16 at Wed Apr  9 03:20:54 2025.
