 Gaussian 16, Revision C.01,

 ----------------------------------------------------------------------
 #t hf aug-cc-pvdz symm=none int=(grid=ultrafine) guess=(read,tcheck) s
 table=(opt,rrhf)
 ----------------------------------------------------------------------
 -----
 title
 -----
 Symbolic Z-matrix:
 Charge =  0 Multiplicity = 1

 SCF Done:  E(RHF) =  -224.605448809     A.U. after   19 cycles
 Normal termination of Gaussian 16 at Wed Apr  9 14:15:59 2025.
 Gaussian 16:  ES64L-G16RevC.01  3-Jul-2019

 ----------------------------------------------------------------------
 #t hf aug-cc-pvdz iop(5/13=1,5/36=2,99/5=2) pseudo=read geom=check gue
 ss=(read,tcheck) scf=(maxcycle=1)
 ----------------------------------------------------------------------
 -----
 title
 -----
 Structure from the checkpoint file:  "Grambow2020_b97d3_006891_reverse_mol1.chk"
 Charge =  0 Multiplicity = 1

                         Standard orientation:
 ---------------------------------------------------------------------
 Center     Atomic      Atomic             Coordinates (Angstroms)
 Number     Number       Type             X           Y           Z
 ---------------------------------------------------------------------
      1          7           0       -0.944892   -1.107789   -0.120198
      2          6           0        1.511136   -0.683945   -0.006458
      3          6           0        1.541743    0.547855    0.017842
      4          6           0       -0.712892    1.241504    0.063707
      5          7           0       -1.195273    0.115579    0.013652
      6          1           0       -1.438507   -1.649347    0.606983
      7          1           0        1.594568   -1.748439   -0.051616
      8          1           0        1.934181    1.544703    0.045998
      9          1           0       -1.149010    2.166062   -0.306089
 ---------------------------------------------------------------------

 SCF Done:  E(RHF) =  -224.673734327     A.U. after    2 cycles

 The electronic state is 1-A.
 Alpha  occ. eigenvalues --  -15.75370 -15.67372 -11.31159 -11.24880 -11.24373
 Alpha  occ. eigenvalues --   -1.32973  -1.09798  -1.00615  -0.78525  -0.75381
 Alpha  occ. eigenvalues --   -0.70886  -0.66215  -0.63567  -0.59252  -0.40438
 Alpha  occ. eigenvalues --   -0.39114  -0.38504  -0.33314
 Alpha virt. eigenvalues --    0.03257   0.03964   0.04686   0.05744   0.08453
 Alpha virt. eigenvalues --    0.08835   0.10063   0.11806   0.13339   0.13926
 Alpha virt. eigenvalues --    0.14566   0.14653   0.15530   0.16323   0.17325

 Mulliken charges:
               1
     1  N   -0.178381
     2  C    0.126786
     3  C    0.410197
     4  C    0.157607
     5  N    0.154252
     6  H    0.090738
     7  H   -0.256600
     8  H   -0.253810
     9  H   -0.250789
 Sum of Mulliken charges =  -0.00000

 Dipole moment (field-independent basis, Debye):
    X=             -1.1629    Y=              0.9590    Z=              0.5108  Tot=              1.5915

 Test job not archived.
 1\1\GINC-SE043\SP\RHF\Aug-CC-pVDZ\C3H4N2\OHZDE\09-Apr-2025\0\\#t hf au
 g-cc-pvdz iop(5/13=1,5/36=2,99/5=2) pseudo=read geom=check guess=(read
 ,tcheck) scf=(maxcycle=1)\\title\\0,1\N,0,-1.15432466,-1.04501749,0.28
 564304\C,0,-0.72028378,1.39001875,-0.0412554\C,0,0.50929432,1.40624483
 ,-0.12331797\C,0,1.18556832,-0.85183823,-0.02160791\N,0,0.0600154,-1.3
 174418,0.11712412\H,0,-1.73169288,-1.58896577,-0.37503875\H,0,-1.78104
 496,1.487434,0.04501445\H,0,1.50632775,1.7852137,-0.22730778\H,0,2.123
 21449,-1.26670399,0.3395872\\Version=ES64L-G16RevC.01\State=1-A\HF=-22

 Normal termination of Gaussian 16 at Wed Apr  9 14:16:02 2025.
