 Gaussian 16, Revision C.01,

 ----------------------------------------------------------------------
 #t hf aug-cc-pvdz symm=none int=(grid=ultrafine) guess=(read,tcheck) s
 table=(opt,rrhf)
 ----------------------------------------------------------------------
 -----
 title
 -----
 Symbolic Z-matrix:
 Charge =  0 Multiplicity = 1

 SCF Done:  E(RHF) =  -321.492924814     A.U. after   14 cycles
 Normal termination of Gaussian 16 at Wed Apr  9 16:24:59 2025.
 Gaussian 16:  ES64L-G16RevC.01  3-Jul-2019

 ----------------------------------------------------------------------
 #t hf aug-cc-pvdz iop(5/13=1,5/36=2,99/5=2) pseudo=read geom=check gue
 ss=(read,tcheck) scf=(maxcycle=1)
 ----------------------------------------------------------------------
 -----
 title
 -----
 Structure from the checkpoint file:  "Grambow2020_wb97xd3_008193_reverse_mol2.chk"
 Charge =  0 Multiplicity = 1

                         Standard orientation:
 ---------------------------------------------------------------------
 Center     Atomic      Atomic             Coordinates (Angstroms)
 Number     Number       Type             X           Y           Z
 ---------------------------------------------------------------------
      1          8           0        1.858642   -1.254388    0.086474
      2          6           0        0.515404   -1.213159   -0.297923
      3          6           0       -0.241049   -0.083491    0.433591
      4          6           0        0.345323    1.221903    0.116914
      5          6           0        0.877532    2.256805   -0.157850
      6          6           0       -2.739655   -0.225527   -0.223041
      7          7           0       -1.620917   -0.132942    0.085107
      8          1           0        2.300239   -0.465936   -0.240213
      9          1           0        0.388552   -1.076692   -1.377508
     10          1           0        0.066649   -2.164943   -0.013491
     11          1           0       -0.154712   -0.256502    1.509378
     12          1           0        1.331226    3.190596   -0.395863
 ---------------------------------------------------------------------

 SCF Done:  E(RHF) =  -321.594254858     A.U. after    2 cycles

 The electronic state is 1-A.
 Alpha  occ. eigenvalues --  -20.59744 -15.67265 -11.35438 -11.32182 -11.29836
 Alpha  occ. eigenvalues --  -11.27602 -11.26954  -1.35724  -1.25985  -1.10688
 Alpha  occ. eigenvalues --   -1.02968  -0.92399  -0.80117  -0.75170  -0.73799
 Alpha  occ. eigenvalues --   -0.70071  -0.64561  -0.63214  -0.55055  -0.51703
 Alpha  occ. eigenvalues --   -0.49731  -0.48543  -0.47712  -0.43204  -0.42041
 Alpha virt. eigenvalues --    0.02755   0.03913   0.04447   0.05637   0.06354
 Alpha virt. eigenvalues --    0.09072   0.09501   0.10239   0.10396   0.10588
 Alpha virt. eigenvalues --    0.11825   0.12503   0.13280   0.13886   0.14460

 Mulliken charges:
               1
     1  O   -0.536347
     2  C    0.936388
     3  C   -0.094584
     4  C   -0.469156
     5  C    1.133414
     6  C   -0.404306
     7  N   -0.092385
     8  H    0.176459
     9  H   -0.045518
    10  H   -0.077166
    11  H   -0.030458
    12  H   -0.496342
 Sum of Mulliken charges =  -0.00000

 Dipole moment (field-independent basis, Debye):
    X=              2.6644    Y=              1.2925    Z=             -0.1071  Tot=              2.9633

 Test job not archived.
 1\1\GINC-SE105\SP\RHF\Aug-CC-pVDZ\C5H5N1O1\OHZDE\09-Apr-2025\0\\#t hf
 aug-cc-pvdz iop(5/13=1,5/36=2,99/5=2) pseudo=read geom=check guess=(re
 ad,tcheck) scf=(maxcycle=1)\\title\\0,1\O,0,-2.00772325,-0.082939,-0.3
 1566822\C,0,-0.95426608,-0.73914465,0.3272724\C,0,0.39645555,-0.427566
 58,-0.35239981\C,0,0.68110225,1.00938281,-0.30420818\C,0,0.85090437,2.
 19203568,-0.25663528\C,0,2.23081399,-1.83385177,0.81029689\N,0,1.42826
 769,-1.18413019,0.27281719\H,0,-1.91876617,0.86310555,-0.17257345\H,0,
 -0.87944111,-0.47944289,1.38895704\H,0,-1.13960632,-1.81010144,0.24435

 Normal termination of Gaussian 16 at Wed Apr  9 16:25:03 2025.
