 Gaussian 16, Revision C.01,

 ----------------------------------------------------------------------
 #t hf aug-cc-pvdz symm=none int=(grid=ultrafine) guess=(read,tcheck) s
 table=(opt,rrhf)
 ----------------------------------------------------------------------
 -----
 title
 -----
 Symbolic Z-matrix:
 Charge =  0 Multiplicity = 1

 SCF Done:  E(RHF) =  -306.677197865     A.U. after   15 cycles
 Normal termination of Gaussian 16 at Wed Apr  9 04:05:23 2025.
 Gaussian 16:  ES64L-G16RevC.01  3-Jul-2019

 ----------------------------------------------------------------------
 #t hf aug-cc-pvdz iop(5/13=1,5/36=2,99/5=2) pseudo=read geom=check gue
 ss=(read,tcheck) scf=(maxcycle=1)
 ----------------------------------------------------------------------
 -----
 title
 -----
 Structure from the checkpoint file:  "Grambow2020_wb97xd3_009289_reverse_mol2.chk"
 Charge =  0 Multiplicity = 1

                         Standard orientation:
 ---------------------------------------------------------------------
 Center     Atomic      Atomic             Coordinates (Angstroms)
 Number     Number       Type             X           Y           Z
 ---------------------------------------------------------------------
      1          6           0       -2.211517   -0.288620   -0.021992
      2          6           0       -0.826062    0.293598   -0.008545
      3          6           0       -0.746621    1.789124    0.020511
      4          6           0        0.265909   -0.480498    0.000512
      5          8           0        0.259518   -1.848396    0.011498
      6          6           0        1.601948    0.038316   -0.004602
      7          6           0        2.724422    0.457184   -0.013550
      8          1           0       -2.878468    0.345875   -0.608872
      9          1           0       -2.632752   -0.345818    0.986770
     10          1           0       -2.265529   -1.286287   -0.465053
     11          1           0       -0.644842   -2.157098    0.099421
     12          1           0       -1.204427    2.215725   -0.877029
     13          1           0       -1.299202    2.184408    0.878472
     14          1           0        0.279583    2.145431    0.082767
     15          1           0        3.721019    0.830310   -0.022455
 ---------------------------------------------------------------------

 SCF Done:  E(RHF) =  -306.775694919     A.U. after    2 cycles

 The electronic state is 1-A.
 Alpha  occ. eigenvalues --  -20.60020 -11.31876 -11.25142 -11.24909 -11.24870
 Alpha  occ. eigenvalues --  -11.24159 -11.23395  -1.36647  -1.09970  -1.03443
 Alpha  occ. eigenvalues --   -0.95479  -0.93765  -0.82136  -0.73627  -0.68794
 Alpha  occ. eigenvalues --   -0.67407  -0.62431  -0.59667  -0.58020  -0.56535
 Alpha  occ. eigenvalues --   -0.55217  -0.53336  -0.51041  -0.43470  -0.40596
 Alpha  occ. eigenvalues --   -0.31950
 Alpha virt. eigenvalues --    0.03122   0.03933   0.04545   0.05037   0.05794
 Alpha virt. eigenvalues --    0.07276   0.07521   0.08871   0.09695   0.10263
 Alpha virt. eigenvalues --    0.11042   0.12851   0.13747   0.13823   0.14490

 Mulliken charges:
               1
     1  C    0.431148
     2  C   -0.539649
     3  C    0.346765
     4  C    0.075929
     5  O   -0.550650
     6  C   -0.221707
     7  C    0.770118
     8  H   -0.047571
     9  H    0.105710
    10  H   -0.090541
    11  H    0.117400
    12  H    0.078382
    13  H    0.092910
    14  H   -0.064920
    15  H   -0.503324
 Sum of Mulliken charges =  -0.00000

 Dipole moment (field-independent basis, Debye):
    X=             -2.1050    Y=              0.9728    Z=              0.1423  Tot=              2.3233

 Test job not archived.
 1\1\GINC-SE128\SP\RHF\Aug-CC-pVDZ\C6H8O1\OHZDE\09-Apr-2025\0\\#t hf au
 g-cc-pvdz iop(5/13=1,5/36=2,99/5=2) pseudo=read geom=check guess=(read
 ,tcheck) scf=(maxcycle=1)\\title\\0,1\C,0,-1.49369299,0.48157941,-1.12
 204928\C,0,-0.42441027,0.11231271,-0.13264428\C,0,-0.83711634,-0.83559
 188,0.9512854\C,0,0.82390026,0.58522416,-0.23155296\O,0,1.27131754,1.4
 2279248,-1.21623804\C,0,1.864372,0.26971159,0.70228986\C,0,2.74291571,
 0.01881264,1.47733162\H,0,-2.46077874,0.54946847,-0.62008091\H,0,-1.59
 445321,-0.27605903,-1.90572145\H,0,-1.32964559,1.4468054,-1.6078327\H,

 Normal termination of Gaussian 16 at Wed Apr  9 04:05:28 2025.
