 Gaussian 16, Revision C.01,

 ----------------------------------------------------------------------
 #t hf aug-cc-pvdz symm=none int=(grid=ultrafine) guess=(read,tcheck) s
 table=(opt,rrhf)
 ----------------------------------------------------------------------
 -----
 title
 -----
 Symbolic Z-matrix:
 Charge =  0 Multiplicity = 1

 SCF Done:  E(RHF) =  -324.878176425     A.U. after   16 cycles
 Normal termination of Gaussian 16 at Wed Apr  9 16:21:24 2025.
 Gaussian 16:  ES64L-G16RevC.01  3-Jul-2019

 ----------------------------------------------------------------------
 #t hf aug-cc-pvdz iop(5/13=1,5/36=2,99/5=2) pseudo=read geom=check gue
 ss=(read,tcheck) scf=(maxcycle=1)
 ----------------------------------------------------------------------
 -----
 title
 -----
 Structure from the checkpoint file:  "Grambow2020_wb97xd3_008105_forward_mol1.chk"
 Charge =  0 Multiplicity = 1

                         Standard orientation:
 ---------------------------------------------------------------------
 Center     Atomic      Atomic             Coordinates (Angstroms)
 Number     Number       Type             X           Y           Z
 ---------------------------------------------------------------------
      1          6           0        1.280508   -0.144615    1.327771
      2          6           0        1.518542   -0.847063   -0.587099
      3          7           0        0.423596    0.130315   -0.183078
      4          6           0        0.664972    1.492306   -0.628337
      5          6           0       -0.916316   -0.314245   -0.126331
      6          8           0       -1.179382   -1.479211   -0.305902
      7          6           0       -1.938446    0.695617    0.328320
      8          1           0        2.337361    0.059946    1.424436
      9          1           0        1.041146   -1.138132    1.681834
     10          1           0        0.707588    0.620464    1.888468
     11          1           0        1.052673   -1.804870   -0.793580
     12          1           0        2.030283   -0.439578   -1.461016
     13          1           0        0.407282    1.587841   -1.685883
     14          1           0        0.098519    2.212804   -0.040299
     15          1           0        1.728678    1.698805   -0.513562
     16          1           0       -2.870422    0.171025    0.520837
     17          1           0       -2.112201    1.467606   -0.422905
     18          1           0       -1.606583    1.193574    1.244500
 ---------------------------------------------------------------------

 SCF Done:  E(RHF) =  -324.981988179     A.U. after    2 cycles

 The electronic state is 1-A.
 Alpha  occ. eigenvalues --  -20.56733 -15.69437 -11.37701 -11.33000 -11.29218
 Alpha  occ. eigenvalues --  -11.26314 -11.17729  -1.37640  -1.24064  -1.02833
 Alpha  occ. eigenvalues --   -0.98450  -0.94071  -0.86983  -0.74386  -0.70835
 Alpha  occ. eigenvalues --   -0.67340  -0.65760  -0.62432  -0.60842  -0.59777
 Alpha  occ. eigenvalues --   -0.58819  -0.57707  -0.56148  -0.52960  -0.49186
 Alpha  occ. eigenvalues --   -0.46376  -0.45433  -0.23484
 Alpha virt. eigenvalues --    0.02464   0.03747   0.03901   0.04928   0.06091
 Alpha virt. eigenvalues --    0.06521   0.07167   0.07279   0.08122   0.09127
 Alpha virt. eigenvalues --    0.09421   0.10277   0.11344   0.12877   0.13653

 Mulliken charges:
               1
     1  C    0.826798
     2  C    0.613361
     3  N   -0.858207
     4  C    0.956300
     5  C    0.185658
     6  O   -0.528576
     7  C    0.230930
     8  H   -0.131713
     9  H   -0.075668
    10  H   -0.097326
    11  H   -0.341144
    12  H   -0.411770
    13  H   -0.076625
    14  H   -0.209041
    15  H   -0.113145
    16  H   -0.118042
    17  H    0.106793
    18  H    0.041417
 Sum of Mulliken charges =  -0.00000

 Dipole moment (field-independent basis, Debye):
    X=             -1.0447    Y=              5.2976    Z=              1.9611  Tot=              5.7447

 Test job not archived.
 1\1\GINC-SE113\SP\RHF\Aug-CC-pVDZ\C5H11N1O1\OHZDE\09-Apr-2025\0\\#t hf
  aug-cc-pvdz iop(5/13=1,5/36=2,99/5=2) pseudo=read geom=check guess=(r
 ead,tcheck) scf=(maxcycle=1)\\title\\0,1\C,0,-1.28516409,0.90507375,-0
 .72088279\C,0,-1.67330786,-0.86522167,0.24463233\N,0,-0.2927337,-0.226
 22019,0.18895513\C,0,0.11359523,0.39292499,1.43919205\C,0,0.71294097,-
 0.81661651,-0.60870955\O,0,0.45459967,-1.76431815,-1.31135961\C,0,2.03
 880466,-0.10148722,-0.65289224\H,0,-2.15162916,1.37845061,-0.28124751\
 H,0,-1.52674987,0.45822107,-1.67570723\H,0,-0.47635601,1.65442036,-0.8

 Normal termination of Gaussian 16 at Wed Apr  9 16:21:32 2025.
