 Gaussian 16, Revision C.01,

 ----------------------------------------------------------------------
 #t hf aug-cc-pvdz symm=none int=(grid=ultrafine) guess=(read,tcheck) s
 table=(opt,rrhf)
 ----------------------------------------------------------------------
 -----
 title
 -----
 Symbolic Z-matrix:
 Charge =  0 Multiplicity = 1

 SCF Done:  E(RHF) =  -232.740241596     A.U. after   15 cycles
 Normal termination of Gaussian 16 at Wed Apr  9 03:07:01 2025.
 Gaussian 16:  ES64L-G16RevC.01  3-Jul-2019

 ----------------------------------------------------------------------
 #t hf aug-cc-pvdz iop(5/13=1,5/36=2,99/5=2) pseudo=read geom=check gue
 ss=(read,tcheck) scf=(maxcycle=1)
 ----------------------------------------------------------------------
 -----
 title
 -----
 Structure from the checkpoint file:  "Grambow2020_b97d3_006593_reverse_mol1.chk"
 Charge =  0 Multiplicity = 1

                         Standard orientation:
 ---------------------------------------------------------------------
 Center     Atomic      Atomic             Coordinates (Angstroms)
 Number     Number       Type             X           Y           Z
 ---------------------------------------------------------------------
      1          6           0        1.524705   -0.026470    0.863586
      2          6           0        1.716638   -0.218672   -0.629297
      3          6           0        0.339035   -0.047121   -0.060348
      4          6           0       -0.653996    1.188130   -0.256124
      5          6           0       -1.764925    0.182216    0.139389
      6          6           0       -0.894380   -0.943103   -0.093508
      7          1           0        1.826953    0.927008    1.298624
      8          1           0        1.674613   -0.887626    1.514374
      9          1           0        2.008207   -1.205010   -0.993785
     10          1           0        2.141299    0.613211   -1.194056
     11          1           0       -0.636832    1.486233   -1.313585
     12          1           0       -0.482039    2.069156    0.381099
     13          1           0       -2.824046   -0.922711    0.002516
     14          1           0       -2.193005    0.357020    1.122993
     15          1           0       -0.979761   -1.554368   -0.992213
     16          1           0       -2.137845   -1.692796    0.391846
 ---------------------------------------------------------------------

 SCF Done:  E(RHF) =  -232.810670611     A.U. after    2 cycles

 The electronic state is 1-A.
 Alpha  occ. eigenvalues --  -11.27092 -11.26981 -11.26118 -11.25152 -11.24441
 Alpha  occ. eigenvalues --  -11.24094  -1.16599  -1.08224  -0.90860  -0.83407
 Alpha  occ. eigenvalues --   -0.82391  -0.72688  -0.67976  -0.65342  -0.60202
 Alpha  occ. eigenvalues --   -0.56550  -0.54922  -0.52075  -0.47950  -0.43115
 Alpha  occ. eigenvalues --   -0.42557  -0.37275  -0.34363
 Alpha virt. eigenvalues --    0.03512   0.04363   0.04435   0.04765   0.06042
 Alpha virt. eigenvalues --    0.06479   0.06578   0.07336   0.08079   0.08517
 Alpha virt. eigenvalues --    0.09223   0.11277   0.12792   0.13254   0.13626

 Mulliken charges:
               1
     1  C    0.521617
     2  C    0.525373
     3  C   -0.098677
     4  C    0.293101
     5  C    0.295318
     6  C    0.013274
     7  H   -0.266436
     8  H   -0.262770
     9  H   -0.250869
    10  H   -0.241659
    11  H   -0.069201
    12  H   -0.172986
    13  H    0.150886
    14  H   -0.301865
    15  H   -0.282683
    16  H    0.147577
 Sum of Mulliken charges =  -0.00000

 Dipole moment (field-independent basis, Debye):
    X=              1.4283    Y=              1.0048    Z=             -0.1505  Tot=              1.7528

 Test job not archived.
 1\1\GINC-SE227\SP\RHF\Aug-CC-pVDZ\C6H10\OHZDE\09-Apr-2025\0\\#t hf aug
 -cc-pvdz iop(5/13=1,5/36=2,99/5=2) pseudo=read geom=check guess=(read,
 tcheck) scf=(maxcycle=1)\\title\\0,1\C,0,-1.62157772,0.26491081,0.7786
 8744\C,0,-1.78514889,-0.07607064,-0.69082081\C,0,-0.41810436,-0.022890
 95,-0.07496139\C,0,0.58511282,-1.23735759,0.1875444\C,0,1.68270911,-0.
 14365444,0.22692649\C,0,0.81096048,0.82018468,-0.39717416\H,0,-1.92726
 129,-0.48139156,1.51307276\H,0,-1.78880629,1.29674709,1.08680411\H,0,-
 2.07472049,0.71855578,-1.38034546\H,0,-2.19421586,-1.05733822,-0.93799

 Normal termination of Gaussian 16 at Wed Apr  9 03:07:06 2025.
