 Gaussian 16, Revision C.01,

 ----------------------------------------------------------------------
 #t hf aug-cc-pvdz symm=none int=(grid=ultrafine) guess=(read,tcheck) s
 table=(opt,rrhf)
 ----------------------------------------------------------------------
 -----
 title
 -----
 Symbolic Z-matrix:
 Charge =  0 Multiplicity = 1

 SCF Done:  E(RHF) =  -302.296926802     A.U. after   14 cycles
 Normal termination of Gaussian 16 at Wed Apr  9 13:49:01 2025.
 Gaussian 16:  ES64L-G16RevC.01  3-Jul-2019

 ----------------------------------------------------------------------
 #t hf aug-cc-pvdz iop(5/13=1,5/36=2,99/5=2) pseudo=read geom=check gue
 ss=(read,tcheck) scf=(maxcycle=1)
 ----------------------------------------------------------------------
 -----
 title
 -----
 Structure from the checkpoint file:  "Grambow2020_b97d3_006707_forward_mol2.chk"
 Charge =  0 Multiplicity = 1

                         Standard orientation:
 ---------------------------------------------------------------------
 Center     Atomic      Atomic             Coordinates (Angstroms)
 Number     Number       Type             X           Y           Z
 ---------------------------------------------------------------------
      1          8           0       -2.814592   -0.464038    0.308932
      2          6           0       -2.037216    0.233426   -0.324956
      3          6           0       -0.605585    0.233301   -0.097733
      4          6           0        0.605511    0.231068    0.101397
      5          6           0        2.036579    0.224372    0.331468
      6          8           0        2.815448   -0.455054   -0.319927
      7          1           0       -2.370424    0.926136   -1.129617
      8          1           0        2.367837    0.893601    1.156526
 ---------------------------------------------------------------------

 SCF Done:  E(RHF) =  -302.390476732     A.U. after    2 cycles

 The electronic state is 1-A.
 Alpha  occ. eigenvalues --  -20.61583 -20.61581 -11.40443 -11.40439 -11.31584
 Alpha  occ. eigenvalues --  -11.31244  -1.38977  -1.38917  -1.09869  -0.97531
 Alpha  occ. eigenvalues --   -0.90104  -0.76500  -0.74276  -0.69829  -0.69460
 Alpha  occ. eigenvalues --   -0.59050  -0.58877  -0.50520  -0.49386  -0.44857
 Alpha  occ. eigenvalues --   -0.44792
 Alpha virt. eigenvalues --    0.02668   0.02986   0.03764   0.03987   0.07991
 Alpha virt. eigenvalues --    0.08209   0.08639   0.10380   0.10544   0.12154
 Alpha virt. eigenvalues --    0.13475   0.14522   0.16439   0.16460   0.20131

 Mulliken charges:
               1
     1  O   -0.451443
     2  C    0.511302
     3  C   -0.048687
     4  C   -0.050168
     5  C    0.511529
     6  O   -0.451468
     7  H   -0.010654
     8  H   -0.010412
 Sum of Mulliken charges =   0.00000

 Dipole moment (field-independent basis, Debye):
    X=             -0.0046    Y=              3.3906    Z=              0.0452  Tot=              3.3909

 Test job not archived.
 1\1\GINC-SE054\SP\RHF\Aug-CC-pVDZ\C4H2O2\OHZDE\09-Apr-2025\0\\#t hf au
 g-cc-pvdz iop(5/13=1,5/36=2,99/5=2) pseudo=read geom=check guess=(read
 ,tcheck) scf=(maxcycle=1)\\title\\0,1\O,0,-2.76454912,0.075234,0.82586
 658\C,0,-2.02082456,-0.40845095,-0.01407821\C,0,-0.60066923,-0.1241963
 ,-0.07369935\C,0,0.60066138,0.12275536,-0.12094299\C,0,2.02064605,0.40
 876704,-0.1736013\O,0,2.86661031,-0.30772365,0.33977775\H,0,-2.3785988
 4,-1.10798286,-0.80211782\H,0,2.27672401,1.34159736,-0.72366704\\Versi
 on=ES64L-G16RevC.01\State=1-A\HF=-302.3904767\RMSD=8.512e-03\Dipole=-0

 Normal termination of Gaussian 16 at Wed Apr  9 13:49:04 2025.
