 Gaussian 16, Revision C.01,

 ----------------------------------------------------------------------
 #t hf aug-cc-pvdz symm=none int=(grid=ultrafine) guess=(read,tcheck) s
 table=(opt,rrhf)
 ----------------------------------------------------------------------
 -----
 title
 -----
 Symbolic Z-matrix:
 Charge =  0 Multiplicity = 1

 SCF Done:  E(RHF) =  -305.846648728     A.U. after   13 cycles
 Normal termination of Gaussian 16 at Wed Apr  9 03:04:19 2025.
 Gaussian 16:  ES64L-G16RevC.01  3-Jul-2019

 ----------------------------------------------------------------------
 #t hf aug-cc-pvdz iop(5/13=1,5/36=2,99/5=2) pseudo=read geom=check gue
 ss=(read,tcheck) scf=(maxcycle=1)
 ----------------------------------------------------------------------
 -----
 title
 -----
 Structure from the checkpoint file:  "Grambow2020_b97d3_006519_reverse_mol2.chk"
 Charge =  0 Multiplicity = 1

                         Standard orientation:
 ---------------------------------------------------------------------
 Center     Atomic      Atomic             Coordinates (Angstroms)
 Number     Number       Type             X           Y           Z
 ---------------------------------------------------------------------
      1          8           0       -0.693031   -1.304118   -0.691457
      2          6           0       -1.107523   -0.829896    0.563601
      3          6           0       -1.480074    0.633322    0.523881
      4          6           0        2.436244   -0.462094    0.120131
      5          6           0        2.193166    0.845212   -0.046361
      6          8           0       -1.386617    1.288945   -0.503173
      7          1           0       -0.746248   -0.522768   -1.286415
      8          1           0       -1.981488   -1.396188    0.941615
      9          1           0       -0.306943   -0.938556    1.321446
     10          1           0       -1.835414    1.082736    1.478476
     11          1           0        3.330758   -0.815741    0.636366
     12          1           0        1.746767   -1.217359   -0.259615
     13          1           0        1.302029    1.198941   -0.566690
     14          1           0        2.876840    1.611043    0.324345
 ---------------------------------------------------------------------

 SCF Done:  E(RHF) =  -305.945035354     A.U. after    2 cycles

 The electronic state is 1-A.
 Alpha  occ. eigenvalues --  -20.60015 -20.58717 -11.37143 -11.31788 -11.24097
 Alpha  occ. eigenvalues --  -11.23913  -1.38488  -1.33156  -1.02143  -1.00142
 Alpha  occ. eigenvalues --   -0.82130  -0.78707  -0.74361  -0.69635  -0.67445
 Alpha  occ. eigenvalues --   -0.63525  -0.62086  -0.58549  -0.57354  -0.55665
 Alpha  occ. eigenvalues --   -0.50105  -0.47952  -0.46512  -0.37547
 Alpha virt. eigenvalues --    0.03029   0.04358   0.04609   0.05568   0.06309
 Alpha virt. eigenvalues --    0.06789   0.08055   0.08566   0.09047   0.10317
 Alpha virt. eigenvalues --    0.11539   0.12926   0.13573   0.14446   0.14792

 Mulliken charges:
               1
     1  O   -0.605627
     2  C    0.522201
     3  C    0.563767
     4  C    0.603047
     5  C    0.530599
     6  O   -0.522379
     7  H    0.254417
     8  H   -0.061546
     9  H   -0.038680
    10  H   -0.123165
    11  H   -0.261926
    12  H   -0.288790
    13  H   -0.299544
    14  H   -0.272374
 Sum of Mulliken charges =  -0.00000

 Dipole moment (field-independent basis, Debye):
    X=             -0.8273    Y=             -0.2267    Z=              3.0273  Tot=              3.1465

 Test job not archived.
 1\1\GINC-SE143\SP\RHF\Aug-CC-pVDZ\C4H8O2\OHZDE\09-Apr-2025\0\\#t hf au
 g-cc-pvdz iop(5/13=1,5/36=2,99/5=2) pseudo=read geom=check guess=(read
 ,tcheck) scf=(maxcycle=1)\\title\\0,1\O,0,-1.63060635,0.39505945,-0.67
 320889\C,0,-1.50826475,-0.57400831,0.33565297\C,0,-1.04471465,0.022301
 37,1.64367256\C,0,1.55046467,-0.19469435,-1.50568488\C,0,2.01677524,0.
 45534681,-0.43057772\O,0,-0.79278517,1.21342605,1.74935578\H,0,-1.3598
 3991,1.23883864,-0.24655204\H,0,-2.47017646,-1.09286983,0.5170491\H,0,
 -0.77342708,-1.35532047,0.05883588\H,0,-0.9376455,-0.68001641,2.500863

 Normal termination of Gaussian 16 at Wed Apr  9 03:04:24 2025.
