 Gaussian 16, Revision C.01,

 ----------------------------------------------------------------------
 #t hf aug-cc-pvdz symm=none int=(grid=ultrafine) guess=(read,tcheck) s
 table=(opt,rrhf)
 ----------------------------------------------------------------------
 -----
 title
 -----
 Symbolic Z-matrix:
 Charge =  0 Multiplicity = 1

 SCF Done:  E(RHF) =  -268.813104851     A.U. after   13 cycles
 Normal termination of Gaussian 16 at Wed Apr  9 14:21:16 2025.
 Gaussian 16:  ES64L-G16RevC.01  3-Jul-2019

 ----------------------------------------------------------------------
 #t hf aug-cc-pvdz iop(5/13=1,5/36=2,99/5=2) pseudo=read geom=check gue
 ss=(read,tcheck) scf=(maxcycle=1)
 ----------------------------------------------------------------------
 -----
 title
 -----
 Structure from the checkpoint file:  "Grambow2020_wb97xd3_006046_forward_mol2.chk"
 Charge =  0 Multiplicity = 1

                         Standard orientation:
 ---------------------------------------------------------------------
 Center     Atomic      Atomic             Coordinates (Angstroms)
 Number     Number       Type             X           Y           Z
 ---------------------------------------------------------------------
      1          6           0        1.991259    1.061342    0.145114
      2          8           0        1.844746   -0.196678   -0.465989
      3          6           0        0.897226   -1.017977    0.169207
      4          6           0       -0.480089   -0.513592    0.086753
      5          6           0       -1.603722   -0.100669    0.020794
      6          6           0       -2.971895    0.395837   -0.061129
      7          1           0        2.285189    0.959290    1.198419
      8          1           0        2.777684    1.588515   -0.392601
      9          1           0        1.065042    1.644629    0.094817
     10          1           0        0.959568   -1.989906   -0.322759
     11          1           0        1.162800   -1.162059    1.226470
     12          1           0       -3.389007    0.228198   -1.055046
     13          1           0       -3.607934   -0.110949    0.666160
     14          1           0       -3.007992    1.466059    0.148018
 ---------------------------------------------------------------------

 SCF Done:  E(RHF) =  -268.902462885     A.U. after    2 cycles

 The electronic state is 1-A.
 Alpha  occ. eigenvalues --  -20.57485 -11.31028 -11.27874 -11.25940 -11.23954
 Alpha  occ. eigenvalues --  -11.22881  -1.34387  -1.05945  -1.00239  -0.94568
 Alpha  occ. eigenvalues --   -0.87890  -0.70184  -0.67397  -0.67163  -0.63241
 Alpha  occ. eigenvalues --   -0.59442  -0.59273  -0.57789  -0.54716  -0.50299
 Alpha  occ. eigenvalues --   -0.44956  -0.38434  -0.37423
 Alpha virt. eigenvalues --    0.03234   0.04149   0.04865   0.05339   0.06299
 Alpha virt. eigenvalues --    0.06566   0.07720   0.07821   0.10118   0.11280
 Alpha virt. eigenvalues --    0.12354   0.13817   0.13969   0.15139   0.15912

 Mulliken charges:
               1
     1  C    0.742141
     2  O   -0.644108
     3  C    0.513890
     4  C   -0.150404
     5  C   -0.714316
     6  C    0.109825
     7  H   -0.073290
     8  H   -0.242484
     9  H   -0.075123
    10  H   -0.020011
    11  H    0.105727
    12  H    0.151178
    13  H    0.150067
    14  H    0.146909
 Sum of Mulliken charges =  -0.00000

 Dipole moment (field-independent basis, Debye):
    X=             -1.2698    Y=              0.6743    Z=              1.1874  Tot=              1.8647

 Test job not archived.
 1\1\GINC-SE041\SP\RHF\Aug-CC-pVDZ\C5H8O1\OHZDE\09-Apr-2025\0\\#t hf au
 g-cc-pvdz iop(5/13=1,5/36=2,99/5=2) pseudo=read geom=check guess=(read
 ,tcheck) scf=(maxcycle=1)\\title\\0,1\C,0,-2.30134524,0.24555556,-0.14
 645882\O,0,-1.80111764,-1.06863869,-0.1325356\C,0,-0.6982077,-1.254313
 55,-0.98395526\C,0,0.49878591,-0.50350148,-0.58184945\C,0,1.47487274,0
 .1108344,-0.25435513\C,0,2.66512044,0.8527529,0.14312895\H,0,-2.602697
 44,0.54498814,-1.15927104\H,0,-3.17541291,0.26200673,0.50257687\H,0,-1
 .56119799,0.9629264,0.22528429\H,0,-0.47999956,-2.32330065,-0.96931043

 Normal termination of Gaussian 16 at Wed Apr  9 14:21:19 2025.
