 Gaussian 16, Revision C.01,

 ----------------------------------------------------------------------
 #t hf aug-cc-pvdz symm=none int=(grid=ultrafine) guess=(read,tcheck) s
 table=(opt,rrhf)
 ----------------------------------------------------------------------
 -----
 title
 -----
 Symbolic Z-matrix:
 Charge =  0 Multiplicity = 1

 SCF Done:  E(RHF) =  -302.643324524     A.U. after   17 cycles
 Normal termination of Gaussian 16 at Wed Apr  9 16:16:59 2025.
 Gaussian 16:  ES64L-G16RevC.01  3-Jul-2019

 ----------------------------------------------------------------------
 #t hf aug-cc-pvdz iop(5/13=1,5/36=2,99/5=2) pseudo=read geom=check gue
 ss=(read,tcheck) scf=(maxcycle=1)
 ----------------------------------------------------------------------
 -----
 title
 -----
 Structure from the checkpoint file:  "Grambow2020_wb97xd3_008036_reverse_mol1.chk"
 Charge =  0 Multiplicity = 1

                         Standard orientation:
 ---------------------------------------------------------------------
 Center     Atomic      Atomic             Coordinates (Angstroms)
 Number     Number       Type             X           Y           Z
 ---------------------------------------------------------------------
      1          6           0        1.034284   -1.670801   -0.365657
      2          6           0        1.076842   -0.349469    0.227838
      3          6           0        1.108776    1.051026   -0.582803
      4          7           0        0.295219    1.763086    0.299175
      5          6           0       -0.274846   -0.384013    0.903500
      6          6           0       -1.461292   -0.201146    0.119641
      7          7           0       -2.404863   -0.132981   -0.536726
      8          1           0        0.237638   -1.862210   -1.080486
      9          1           0        1.911281   -2.305413   -0.482682
     10          1           0       -0.068548   -1.706692    0.779075
     11          1           0        1.836211   -0.258321    1.000310
     12          1           0        0.738102    0.905287   -1.602240
     13          1           0        2.143170    1.397365   -0.598529
     14          1           0       -0.596860    1.973872   -0.140921
     15          1           0       -0.336071   -0.228196    1.973213
 ---------------------------------------------------------------------

 SCF Done:  E(RHF) =  -302.731886989     A.U. after    2 cycles

 The electronic state is 1-A.
 Alpha  occ. eigenvalues --  -15.63716 -15.61602 -11.33030 -11.32421 -11.29645
 Alpha  occ. eigenvalues --  -11.28973 -11.27784  -1.21023  -1.17284  -1.10054
 Alpha  occ. eigenvalues --   -0.98142  -0.89406  -0.82078  -0.72484  -0.69983
 Alpha  occ. eigenvalues --   -0.66067  -0.63813  -0.59867  -0.56668  -0.55100
 Alpha  occ. eigenvalues --   -0.53437  -0.49432  -0.46608  -0.43201  -0.40784
 Alpha  occ. eigenvalues --   -0.28374
 Alpha virt. eigenvalues --   -0.01368   0.02255   0.03773   0.04416   0.04889
 Alpha virt. eigenvalues --    0.06433   0.06752   0.07241   0.07961   0.09472
 Alpha virt. eigenvalues --    0.11633   0.12847   0.13471   0.13809   0.14155

 Mulliken charges:
               1
     1  C    0.337801
     2  C    0.039603
     3  C    0.920909
     4  N   -0.580502
     5  C    0.400371
     6  C   -0.249642
     7  N   -0.269579
     8  H   -0.120709
     9  H   -0.231391
    10  H    0.439415
    11  H   -0.132747
    12  H   -0.172199
    13  H   -0.171673
    14  H    0.068401
    15  H   -0.278057
 Sum of Mulliken charges =  -0.00000

 Dipole moment (field-independent basis, Debye):
    X=              4.0852    Y=             -3.1560    Z=              0.1329  Tot=              5.1640

 Test job not archived.
 1\1\GINC-SE141\SP\RHF\Aug-CC-pVDZ\C5H8N2\OHZDE\09-Apr-2025\0\\#t hf au
 g-cc-pvdz iop(5/13=1,5/36=2,99/5=2) pseudo=read geom=check guess=(read
 ,tcheck) scf=(maxcycle=1)\\title\\0,1\C,0,1.57848429,-0.29723166,-0.60
 182312\C,0,0.63084742,0.41309401,0.23327457\C,0,-0.55247876,1.38354045
 ,-0.29352567\N,0,-1.49963797,1.01074228,0.66078015\C,0,-0.07481701,-0.
 79114154,0.81346955\C,0,-1.02614692,-1.50574024,0.01356428\N,0,-1.7256
 1394,-2.11388436,-0.66958826\H,0,1.16550518,-0.93039096,-1.38337327\H,
 0,2.59348524,0.05009914,-0.78806328\H,0,1.07930951,-1.37826221,0.45180

 Normal termination of Gaussian 16 at Wed Apr  9 16:17:04 2025.
