 Gaussian 16, Revision C.01,

 ----------------------------------------------------------------------
 #t hf aug-cc-pvdz symm=none int=(grid=ultrafine) guess=(read,tcheck) s
 table=(opt,rrhf)
 ----------------------------------------------------------------------
 -----
 title
 -----
 Symbolic Z-matrix:
 Charge =  0 Multiplicity = 1

 SCF Done:  E(RHF) =  -359.533459969     A.U. after   20 cycles
 Normal termination of Gaussian 16 at Wed Apr  9 15:41:04 2025.
 Gaussian 16:  ES64L-G16RevC.01  3-Jul-2019

 ----------------------------------------------------------------------
 #t hf aug-cc-pvdz iop(5/13=1,5/36=2,99/5=2) pseudo=read geom=check gue
 ss=(read,tcheck) scf=(maxcycle=1)
 ----------------------------------------------------------------------
 -----
 title
 -----
 Structure from the checkpoint file:  "Grambow2020_wb97xd3_007290_forward_mol1.chk"
 Charge =  0 Multiplicity = 1

                         Standard orientation:
 ---------------------------------------------------------------------
 Center     Atomic      Atomic             Coordinates (Angstroms)
 Number     Number       Type             X           Y           Z
 ---------------------------------------------------------------------
      1          8           0        2.006982   -0.610256    0.709700
      2          6           0       -0.072273   -0.886923   -0.601366
      3          6           0       -1.424579   -1.054161   -0.039735
      4          7           0       -1.883640    0.314730    0.197224
      5          6           0       -0.721175    1.196175    0.310989
      6          6           0        0.348609    0.432849   -0.442225
      7          8           0        1.528313    0.790834   -0.618149
      8          1           0        2.808961   -0.752386    1.239803
      9          1           0        0.528166   -1.663183   -1.049689
     10          1           0       -2.084175   -1.594317   -0.729416
     11          1           0       -1.350829   -1.669930    0.871361
     12          1           0       -2.503114    0.381015    0.988452
     13          1           0       -0.365884    1.351339    1.338996
     14          1           0       -0.913491    2.172086   -0.138469
 ---------------------------------------------------------------------

 SCF Done:  E(RHF) =  -359.640709673     A.U. after    2 cycles

 The electronic state is 1-A.
 Alpha  occ. eigenvalues --  -20.63772 -20.54247 -15.63271 -11.33084 -11.31708
 Alpha  occ. eigenvalues --  -11.30230 -11.27737  -1.37458  -1.22953  -1.18981
 Alpha  occ. eigenvalues --   -1.04908  -0.99219  -0.85608  -0.77443  -0.73235
 Alpha  occ. eigenvalues --   -0.68343  -0.65033  -0.63057  -0.61998  -0.59217
 Alpha  occ. eigenvalues --   -0.58263  -0.55911  -0.49704  -0.46758  -0.45367
 Alpha  occ. eigenvalues --   -0.39479  -0.34110
 Alpha virt. eigenvalues --   -0.02799   0.02888   0.03761   0.04581   0.04868
 Alpha virt. eigenvalues --    0.06753   0.06939   0.07325   0.09376   0.10797
 Alpha virt. eigenvalues --    0.12735   0.13326   0.13815   0.14165   0.14979

 Mulliken charges:
               1
     1  O   -0.515769
     2  C    0.199711
     3  C    0.815175
     4  N   -0.591507
     5  C    0.756240
     6  C   -0.127944
     7  O   -0.427199
     8  H    0.096120
     9  H   -0.238893
    10  H   -0.014755
    11  H    0.062278
    12  H   -0.010212
    13  H    0.029096
    14  H   -0.032341
 Sum of Mulliken charges =  -0.00000

 Dipole moment (field-independent basis, Debye):
    X=             -3.9819    Y=             -1.6276    Z=              0.5240  Tot=              4.3334

 Test job not archived.
 1\1\GINC-SE129\SP\RHF\Aug-CC-pVDZ\C4H7N1O2\OHZDE\09-Apr-2025\0\\#t hf
 aug-cc-pvdz iop(5/13=1,5/36=2,99/5=2) pseudo=read geom=check guess=(re
 ad,tcheck) scf=(maxcycle=1)\\title\\0,1\O,0,2.0484512,-1.28167622,-0.3
 1538924\C,0,0.51736059,0.40690739,0.64543689\C,0,-0.17326286,1.4671775
 5,-0.11020458\N,0,-1.38203817,0.81528466,-0.61483285\C,0,-1.16541795,-
 0.63140757,-0.65183773\C,0,-0.06910059,-0.82879978,0.37459277\O,0,0.45
 660123,-1.91055468,0.69747023\H,0,2.81627962,-1.75702898,-0.67436016\H
 ,0,1.36723805,0.54326677,1.29598605\H,0,-0.40730159,2.32921314,0.52589

 Normal termination of Gaussian 16 at Wed Apr  9 15:41:09 2025.
