 Gaussian 16, Revision C.01,

 ----------------------------------------------------------------------
 #t hf aug-cc-pvdz symm=none int=(grid=ultrafine) guess=(read,tcheck) s
 table=(opt,rrhf)
 ----------------------------------------------------------------------
 -----
 title
 -----
 Symbolic Z-matrix:
 Charge =  0 Multiplicity = 1

 SCF Done:  E(RHF) =  -358.409887928     A.U. after   15 cycles
 Normal termination of Gaussian 16 at Wed Apr  9 03:28:33 2025.
 Gaussian 16:  ES64L-G16RevC.01  3-Jul-2019

 ----------------------------------------------------------------------
 #t hf aug-cc-pvdz iop(5/13=1,5/36=2,99/5=2) pseudo=read geom=check gue
 ss=(read,tcheck) scf=(maxcycle=1)
 ----------------------------------------------------------------------
 -----
 title
 -----
 Structure from the checkpoint file:  "Grambow2020_wb97xd3_006789_reverse_mol1.chk"
 Charge =  0 Multiplicity = 1

                         Standard orientation:
 ---------------------------------------------------------------------
 Center     Atomic      Atomic             Coordinates (Angstroms)
 Number     Number       Type             X           Y           Z
 ---------------------------------------------------------------------
      1          8           0        2.474746   -0.206581   -0.090931
      2          6           0        1.454032    0.282979    0.094930
      3          6           0       -0.091342   -0.710840   -0.534368
      4          6           0       -0.753060   -1.182788    0.713282
      5          7           0       -1.572334   -0.528205   -0.273792
      6          6           0       -0.990280    0.750684   -0.460952
      7          8           0       -0.573811    1.549261    0.452780
      8          1           0        0.625669    1.213343    0.521751
      9          1           0        0.168891   -1.346187   -1.370675
     10          1           0       -0.522743   -0.660404    1.638871
     11          1           0       -0.968991   -2.239252    0.806251
     12          1           0       -1.220067    1.148278   -1.451790
 ---------------------------------------------------------------------

 SCF Done:  E(RHF) =  -358.517184232     A.U. after    2 cycles

 The electronic state is 1-A.
 Alpha  occ. eigenvalues --  -20.65447 -20.56313 -15.67673 -11.39303 -11.38236
 Alpha  occ. eigenvalues --  -11.30686 -11.30310  -1.46183  -1.38129  -1.28985
 Alpha  occ. eigenvalues --   -0.97688  -0.89642  -0.81630  -0.80364  -0.75658
 Alpha  occ. eigenvalues --   -0.72450  -0.67619  -0.64994  -0.63629  -0.62562
 Alpha  occ. eigenvalues --   -0.58326  -0.54742  -0.48194  -0.45901  -0.44043
 Alpha  occ. eigenvalues --   -0.37871
 Alpha virt. eigenvalues --    0.03216   0.03848   0.04767   0.05567   0.07141
 Alpha virt. eigenvalues --    0.08384   0.09621   0.10081   0.10869   0.11381
 Alpha virt. eigenvalues --    0.12686   0.13265   0.13726   0.14269   0.14825

 Mulliken charges:
               1
     1  O   -0.290584
     2  C    0.235595
     3  C    0.399013
     4  C    0.856551
     5  N   -0.789263
     6  C    0.905838
     7  O   -0.721479
     8  H    0.522620
     9  H   -0.485570
    10  H   -0.241045
    11  H   -0.235859
    12  H   -0.155817
 Sum of Mulliken charges =  -0.00000

 Dipole moment (field-independent basis, Debye):
    X=             -0.1068    Y=             -1.5677    Z=             -0.5558  Tot=              1.6667

 Test job not archived.
 1\1\GINC-SE059\SP\RHF\Aug-CC-pVDZ\C4H5N1O2\OHZDE\09-Apr-2025\0\\#t hf
 aug-cc-pvdz iop(5/13=1,5/36=2,99/5=2) pseudo=read geom=check guess=(re
 ad,tcheck) scf=(maxcycle=1)\\title\\0,1\O,0,2.51199212,-0.17038165,-0.
 78673801\C,0,1.39653864,-0.4364159,-0.81927871\C,0,0.32780198,0.201564
 02,0.67157911\C,0,-0.51732518,1.27540912,0.08009469\N,0,-1.17228598,0.
 26640416,0.87188986\C,0,-0.85737619,-0.96721452,0.24868025\O,0,-0.8810
 8275,-1.22410624,-1.00811067\H,0,0.30177915,-0.97398622,-1.31572464\H,
 0,0.93121002,0.31445114,1.5626188\H,0,-0.65835612,1.27436102,-0.998216

 Normal termination of Gaussian 16 at Wed Apr  9 03:28:37 2025.
