 Gaussian 16, Revision C.01,

 ----------------------------------------------------------------------
 #t hf aug-cc-pvdz symm=none int=(grid=ultrafine) guess=(read,tcheck) s
 table=(opt,rrhf)
 ----------------------------------------------------------------------
 -----
 title
 -----
 Symbolic Z-matrix:
 Charge =  0 Multiplicity = 1

 SCF Done:  E(RHF) =  -345.851090503     A.U. after   16 cycles

 1\1\GINC-SE100\Stability\RHF\Aug-CC-pVDZ\C5H12O2\OHZDE\09-Apr-2025\0\\
 #t hf aug-cc-pvdz symm=none int=(grid=ultrafine) guess=(read,tcheck) s
 table=(opt,rrhf)\\title\\0,1\C,0,-1.72933451,-0.67836875,1.17438775\O,
 0,-0.39939338,-0.24373316,1.01596442\C,0,-0.18216554,0.55826704,-0.141
 29237\C,0,-0.37164776,2.0323244,0.19332703\C,0,1.23145866,0.29428856,-
 0.59938732\C,0,1.03957154,-1.61538423,-1.29265835\O,0,1.85765766,-1.24
 074247,-0.01702402\H,0,-2.41909358,0.16475247,1.29180497\H,0,-1.764516
 91,-1.28396862,2.07887404\H,0,-2.0460405,-1.28559237,0.31931339\H,0,-0

 Normal termination of Gaussian 16 at Wed Apr  9 16:15:32 2025.
 Gaussian 16:  ES64L-G16RevC.01  3-Jul-2019

 ----------------------------------------------------------------------
 #t hf aug-cc-pvdz iop(5/13=1,5/36=2,99/5=2) pseudo=read geom=check gue
 ss=(read,tcheck) scf=(maxcycle=1)
 ----------------------------------------------------------------------
 -----
 title
 -----
 Structure from the checkpoint file:  "Grambow2020_wb97xd3_008011_forward_mol1.chk"
 Charge =  0 Multiplicity = 1

                         Standard orientation:
 ---------------------------------------------------------------------
 Center     Atomic      Atomic             Coordinates (Angstroms)
 Number     Number       Type             X           Y           Z
 ---------------------------------------------------------------------
      1          6           0       -1.541313    1.664758    0.119484
      2          8           0       -0.751989    0.669154   -0.487549
      3          6           0       -0.551175   -0.487871    0.319051
      4          6           0       -1.638088   -1.519370    0.044553
      5          6           0        0.807900   -1.039999   -0.035830
      6          6           0        2.008434    0.398430    0.772832
      7          8           0        1.860372    0.164355   -0.763446
      8          1           0       -2.552490    1.302914    0.336273
      9          1           0       -1.612585    2.492727   -0.584414
     10          1           0       -1.078887    2.017378    1.047922
     11          1           0       -0.541086   -0.194611    1.370664
     12          1           0       -1.669340   -1.771702   -1.016224
     13          1           0       -2.615706   -1.131691    0.335335
     14          1           0       -1.459394   -2.430322    0.619597
     15          1           0        0.760476   -1.556910   -1.006726
     16          1           0        1.204727   -1.714834    0.710443
     17          1           0        2.054324    1.484460    0.917915
     18          1           0        3.002231   -0.005990    0.977458
     19          1           0        1.126121    0.744824   -1.020829
 ---------------------------------------------------------------------

 SCF Done:  E(RHF) =  -345.962002834     A.U. after    2 cycles

 The electronic state is 1-A.
 Alpha  occ. eigenvalues --  -20.59572 -20.58965 -11.33962 -11.30845 -11.29403
 Alpha  occ. eigenvalues --  -11.24169 -11.20168  -1.36126  -1.32128  -1.07144
 Alpha  occ. eigenvalues --   -0.94963  -0.93319  -0.85198  -0.81891  -0.71386
 Alpha  occ. eigenvalues --   -0.70161  -0.66396  -0.64019  -0.61681  -0.60041
 Alpha  occ. eigenvalues --   -0.58471  -0.56808  -0.54706  -0.53078  -0.51881
 Alpha  occ. eigenvalues --   -0.49570  -0.47584  -0.45001  -0.26676
 Alpha virt. eigenvalues --    0.03149   0.04110   0.04616   0.04875   0.06179
 Alpha virt. eigenvalues --    0.06275   0.06658   0.07221   0.07503   0.09015
 Alpha virt. eigenvalues --    0.09142   0.09635   0.12691   0.12808   0.13110

 Mulliken charges:
               1
     1  C    0.723948
     2  O   -0.765731
     3  C    0.120648
     4  C    0.473334
     5  C    0.670810
     6  C    0.631404
     7  O   -0.610798
     8  H   -0.087984
     9  H   -0.258542
    10  H   -0.072614
    11  H   -0.132818
    12  H    0.011426
    13  H   -0.102475
    14  H    0.034321
    15  H   -0.175642
    16  H   -0.030128
    17  H   -0.408132
    18  H   -0.308858
    19  H    0.287830
 Sum of Mulliken charges =   0.00000

 Dipole moment (field-independent basis, Debye):
    X=             -3.4581    Y=             -0.8278    Z=              0.3164  Tot=              3.5698

 Test job not archived.
 1\1\GINC-SE100\SP\RHF\Aug-CC-pVDZ\C5H12O2\OHZDE\09-Apr-2025\0\\#t hf a
 ug-cc-pvdz iop(5/13=1,5/36=2,99/5=2) pseudo=read geom=check guess=(rea
 d,tcheck) scf=(maxcycle=1)\\title\\0,1\C,0,-1.72933451,-0.67836875,1.1
 7438775\O,0,-0.39939338,-0.24373316,1.01596442\C,0,-0.18216554,0.55826
 704,-0.14129237\C,0,-0.37164776,2.0323244,0.19332703\C,0,1.23145866,0.
 29428856,-0.59938732\C,0,1.03957154,-1.61538423,-1.29265835\O,0,1.8576
 5766,-1.24074247,-0.01702402\H,0,-2.41909358,0.16475247,1.29180497\H,0
 ,-1.76451691,-1.28396862,2.07887404\H,0,-2.0460405,-1.28559237,0.31931

 Normal termination of Gaussian 16 at Wed Apr  9 16:15:57 2025.
