 Gaussian 16, Revision C.01,

 ----------------------------------------------------------------------
 #t hf aug-cc-pvdz symm=none int=(grid=ultrafine) guess=(read,tcheck) s
 table=(opt,rrhf)
 ----------------------------------------------------------------------
 -----
 title
 -----
 Symbolic Z-matrix:
 Charge =  0 Multiplicity = 1

 SCF Done:  E(RHF) =  -339.784608284     A.U. after   15 cycles
 Normal termination of Gaussian 16 at Wed Apr  9 14:27:46 2025.
 Gaussian 16:  ES64L-G16RevC.01  3-Jul-2019

 ----------------------------------------------------------------------
 #t hf aug-cc-pvdz iop(5/13=1,5/36=2,99/5=2) pseudo=read geom=check gue
 ss=(read,tcheck) scf=(maxcycle=1)
 ----------------------------------------------------------------------
 -----
 title
 -----
 Structure from the checkpoint file:  "Grambow2020_wb97xd3_006540_reverse_mol1.chk"
 Charge =  0 Multiplicity = 1

                         Standard orientation:
 ---------------------------------------------------------------------
 Center     Atomic      Atomic             Coordinates (Angstroms)
 Number     Number       Type             X           Y           Z
 ---------------------------------------------------------------------
      1          6           0       -1.308870    1.747738    0.326796
      2          7           0       -0.182444    1.189056   -0.411383
      3          6           0        0.114161   -0.336120   -0.339282
      4          6           0        1.326552   -0.631706    0.487904
      5          8           0        2.477439    0.015135   -0.034243
      6          6           0       -1.058690   -1.096486   -0.129737
      7          7           0       -2.018413   -1.724737    0.006987
      8          1           0       -1.198859    1.558696    1.397653
      9          1           0       -1.367390    2.819491    0.141830
     10          1           0       -2.229188    1.277967   -0.014555
     11          1           0        0.707139    1.651890   -0.268503
     12          1           0       -0.081267    0.515530   -1.372197
     13          1           0        1.459251   -1.716239    0.553557
     14          1           0        1.231524   -0.244249    1.509879
     15          1           0        2.626367   -0.334948   -0.917035
 ---------------------------------------------------------------------

 SCF Done:  E(RHF) =  -339.888841747     A.U. after    2 cycles

 The electronic state is 1-A.
 Alpha  occ. eigenvalues --  -20.58919 -15.70259 -15.61724 -11.30842 -11.29786
 Alpha  occ. eigenvalues --  -11.27754 -11.27393  -1.34337  -1.25421  -1.17343
 Alpha  occ. eigenvalues --   -1.03304  -0.95615  -0.88925  -0.74833  -0.71824
 Alpha  occ. eigenvalues --   -0.70608  -0.67048  -0.63399  -0.62195  -0.58148
 Alpha  occ. eigenvalues --   -0.54870  -0.53406  -0.52120  -0.48165  -0.47869
 Alpha  occ. eigenvalues --   -0.43880  -0.31764
 Alpha virt. eigenvalues --    0.02418   0.03450   0.04116   0.05101   0.06342
 Alpha virt. eigenvalues --    0.06609   0.07753   0.08331   0.10670   0.11086
 Alpha virt. eigenvalues --    0.11964   0.12241   0.13537   0.14239   0.14747

 Mulliken charges:
               1
     1  C    0.823060
     2  N   -0.816163
     3  C    0.376052
     4  C    0.868034
     5  O   -0.563628
     6  C   -0.416620
     7  N   -0.256632
     8  H   -0.071280
     9  H   -0.186395
    10  H   -0.186967
    11  H    0.094692
    12  H    0.360075
    13  H   -0.095718
    14  H   -0.089389
    15  H    0.160879
 Sum of Mulliken charges =  -0.00000

 Dipole moment (field-independent basis, Debye):
    X=              1.8075    Y=              4.1741    Z=             -0.4744  Tot=              4.5733

 Test job not archived.
 1\1\GINC-SE026\SP\RHF\Aug-CC-pVDZ\C4H8N2O1\OHZDE\09-Apr-2025\0\\#t hf
 aug-cc-pvdz iop(5/13=1,5/36=2,99/5=2) pseudo=read geom=check guess=(re
 ad,tcheck) scf=(maxcycle=1)\\title\\0,1\C,0,-1.82758037,0.12147649,0.8
 4238544\N,0,-0.55070428,0.74248729,0.5110196\C,0,0.35378806,0.11944256
 ,-0.59036305\C,0,1.55527037,-0.5593264,-0.00966353\O,0,2.34474298,0.34
 692269,0.74599853\C,0,-0.39950842,-0.55211451,-1.57990815\N,0,-1.01242
 099,-1.0725824,-2.40931406\H,0,-1.67849765,-0.90582387,1.18444264\H,0,
 -2.32330161,0.70400834,1.61776159\H,0,-2.45761082,0.10261279,-0.044685

 Normal termination of Gaussian 16 at Wed Apr  9 14:27:51 2025.
