 Gaussian 16, Revision C.01,

 ----------------------------------------------------------------------
 #t hf aug-cc-pvdz symm=none int=(grid=ultrafine) guess=(read,tcheck) s
 table=(opt,rrhf)
 ----------------------------------------------------------------------
 -----
 title
 -----
 Symbolic Z-matrix:
 Charge =  0 Multiplicity = 1

 SCF Done:  E(RHF) =  -301.995286041     A.U. after   14 cycles
 Normal termination of Gaussian 16 at Wed Apr  9 14:17:14 2025.
 Gaussian 16:  ES64L-G16RevC.01  3-Jul-2019

 ----------------------------------------------------------------------
 #t hf aug-cc-pvdz iop(5/13=1,5/36=2,99/5=2) pseudo=read geom=check gue
 ss=(read,tcheck) scf=(maxcycle=1)
 ----------------------------------------------------------------------
 -----
 title
 -----
 Structure from the checkpoint file:  "Grambow2020_b97d3_006945_reverse_mol2.chk"
 Charge =  0 Multiplicity = 1

                         Standard orientation:
 ---------------------------------------------------------------------
 Center     Atomic      Atomic             Coordinates (Angstroms)
 Number     Number       Type             X           Y           Z
 ---------------------------------------------------------------------
      1          6           0       -1.786417   -1.289034   -0.218269
      2          7           0       -1.716650    0.151205   -0.140868
      3          6           0       -0.851274    0.991355   -0.027709
      4          8           0       -0.136685    1.939119    0.077135
      5          7           0        1.639951   -0.970738   -0.162470
      6          6           0        2.481440   -0.008068   -0.162304
      7          1           0       -2.272550   -1.684089    0.684915
      8          1           0       -0.782164   -1.719295   -0.310272
      9          1           0       -2.396897   -1.576506   -1.085036
     10          1           0        0.266276   -0.952730    2.282063
     11          1           0        2.124596   -1.876448   -0.253169
     12          1           0       -0.042540   -1.025405    2.957260
     13          1           0        3.574928   -0.119757   -0.249123
     14          1           0        2.096226    1.012487   -0.070664
 ---------------------------------------------------------------------

 SCF Done:  E(RHF) =  -302.095585687     A.U. after    2 cycles

 The electronic state is 1-A.
 Alpha  occ. eigenvalues --  -20.60762 -15.64462 -15.64190 -11.40697 -11.30657
 Alpha  occ. eigenvalues --  -11.28726  -1.39701  -1.22127  -1.18383  -0.97637
 Alpha  occ. eigenvalues --   -0.84377  -0.73514  -0.69221  -0.68290  -0.65148
 Alpha  occ. eigenvalues --   -0.65062  -0.60306  -0.58899  -0.58320  -0.57780
 Alpha  occ. eigenvalues --   -0.45550  -0.43672  -0.42985  -0.41018
 Alpha virt. eigenvalues --    0.03025   0.03805   0.05050   0.05436   0.06769
 Alpha virt. eigenvalues --    0.07841   0.08257   0.08490   0.10085   0.11001
 Alpha virt. eigenvalues --    0.11810   0.12672   0.13655   0.15379   0.15976

 Mulliken charges:
               1
     1  C    0.869459
     2  N   -0.181596
     3  C   -0.102170
     4  O   -0.270245
     5  N   -0.222970
     6  C    0.590713
     7  H   -0.086481
     8  H   -0.089693
     9  H   -0.128229
    10  H   -0.055731
    11  H    0.000797
    12  H    0.063668
    13  H   -0.155116
    14  H   -0.232405
 Sum of Mulliken charges =   0.00000

 Dipole moment (field-independent basis, Debye):
    X=              1.6935    Y=             -3.0494    Z=             -0.4466  Tot=              3.5165

 Test job not archived.
 1\1\GINC-SE168\SP\RHF\Aug-CC-pVDZ\C3H8N2O1\OHZDE\09-Apr-2025\0\\#t hf
 aug-cc-pvdz iop(5/13=1,5/36=2,99/5=2) pseudo=read geom=check guess=(re
 ad,tcheck) scf=(maxcycle=1)\\title\\0,1\C,0,-2.11020271,0.14680765,0.2
 8132164\N,0,-1.55809096,1.02248534,-0.72540921\C,0,-0.4751568,1.218235
 42,-1.23183657\O,0,0.50473517,1.53818147,-1.82960908\N,0,1.08662571,-1
 .12678625,0.22962902\C,0,2.15415502,-0.92430837,-0.4443283\H,0,-2.4059
 1537,0.73585375,1.16093121\H,0,-1.37502843,-0.61012472,0.57912323\H,0,
 -3.00952933,-0.34220652,-0.11703569\H,0,0.58634431,1.13749137,1.806275

 Normal termination of Gaussian 16 at Wed Apr  9 14:17:18 2025.
