 Gaussian 16, Revision C.01,

 ----------------------------------------------------------------------
 #t hf aug-cc-pvdz symm=none int=(grid=ultrafine) guess=(read,tcheck) s
 table=(opt,rrhf)
 ----------------------------------------------------------------------
 -----
 title
 -----
 Symbolic Z-matrix:
 Charge =  0 Multiplicity = 1

 SCF Done:  E(RHF) =  -354.663051679     A.U. after   15 cycles
 Normal termination of Gaussian 16 at Wed Apr  9 03:39:12 2025.
 Gaussian 16:  ES64L-G16RevC.01  3-Jul-2019

 ----------------------------------------------------------------------
 #t hf aug-cc-pvdz iop(5/13=1,5/36=2,99/5=2) pseudo=read geom=check gue
 ss=(read,tcheck) scf=(maxcycle=1)
 ----------------------------------------------------------------------
 -----
 title
 -----
 Structure from the checkpoint file:  "Grambow2020_wb97xd3_007474_reverse_mol1.chk"
 Charge =  0 Multiplicity = 1

                         Standard orientation:
 ---------------------------------------------------------------------
 Center     Atomic      Atomic             Coordinates (Angstroms)
 Number     Number       Type             X           Y           Z
 ---------------------------------------------------------------------
      1          7           0       -2.298618   -0.420775   -0.221053
      2          6           0       -1.042753   -0.250841    0.096018
      3          6           0       -0.747008    1.154516    0.087575
      4          7           0        0.691244    1.134935   -0.093983
      5          6           0        1.206206   -0.115994    0.003126
      6          8           0        2.341082   -0.503215   -0.100447
      7          7           0        0.078083   -0.984210    0.217513
      8          1           0       -2.822960   -1.256706    0.005041
      9          1           0       -2.130674    0.868514   -0.474783
     10          1           0       -1.041218    1.624451    1.029571
     11          1           0        1.294793    1.922686   -0.232756
     12          1           0        0.177776   -1.968961    0.038850
 ---------------------------------------------------------------------

 SCF Done:  E(RHF) =  -354.770552544     A.U. after    2 cycles

 The electronic state is 1-A.
 Alpha  occ. eigenvalues --  -20.54752 -15.69593 -15.65853 -15.64628 -11.41045
 Alpha  occ. eigenvalues --  -11.37186 -11.25182  -1.38613  -1.30767  -1.20673
 Alpha  occ. eigenvalues --   -1.17243  -0.97318  -0.85991  -0.83298  -0.78169
 Alpha  occ. eigenvalues --   -0.68828  -0.68685  -0.65375  -0.63309  -0.58660
 Alpha  occ. eigenvalues --   -0.55450  -0.51021  -0.47338  -0.45474  -0.41765
 Alpha  occ. eigenvalues --   -0.32248
 Alpha virt. eigenvalues --    0.02433   0.03700   0.04619   0.05264   0.06682
 Alpha virt. eigenvalues --    0.09881   0.10203   0.10609   0.12230   0.12426
 Alpha virt. eigenvalues --    0.13260   0.13939   0.14438   0.15490   0.16085

 Mulliken charges:
               1
     1  N   -0.428858
     2  C    0.484906
     3  C    0.374931
     4  N   -0.375188
     5  C    0.665935
     6  O   -0.441256
     7  N   -0.443708
     8  H   -0.033536
     9  H    0.508134
    10  H   -0.101918
    11  H   -0.116485
    12  H   -0.092955
 Sum of Mulliken charges =  -0.00000

 Dipole moment (field-independent basis, Debye):
    X=             -3.1852    Y=             -0.8507    Z=              0.8887  Tot=              3.4145

 Test job not archived.
 1\1\GINC-SE396\SP\RHF\Aug-CC-pVDZ\C3H5N3O1\OHZDE\09-Apr-2025\0\\#t hf
 aug-cc-pvdz iop(5/13=1,5/36=2,99/5=2) pseudo=read geom=check guess=(re
 ad,tcheck) scf=(maxcycle=1)\\title\\0,1\N,0,2.0202506,-0.05289042,0.09
 240587\C,0,0.73960465,-0.16442116,-0.1402234\C,0,0.12106066,1.11944471
 ,0.03769771\N,0,-1.25373118,0.73342136,0.28839245\C,0,-1.46371994,-0.5
 9023972,0.08038342\O,0,-2.46350333,-1.24996087,0.19790242\N,0,-0.18162
 475,-1.13357923,-0.28490626\H,0,2.70897614,-0.71086478,-0.25046495\H,0
 ,1.57149946,1.1268218,0.49458741\H,0,0.22365471,1.73378834,-0.86052933

 Normal termination of Gaussian 16 at Wed Apr  9 03:39:16 2025.
