 Gaussian 16, Revision C.01,

 ----------------------------------------------------------------------
 #t hf aug-cc-pvdz symm=none int=(grid=ultrafine) guess=(read,tcheck) s
 table=(opt,rrhf)
 ----------------------------------------------------------------------
 -----
 title
 -----
 Symbolic Z-matrix:
 Charge =  0 Multiplicity = 1

 SCF Done:  E(RHF) =  -307.684107770     A.U. after   15 cycles

 1\1\GINC-SE100\Stability\RHF\Aug-CC-pVDZ\C6H10O1\OHZDE\09-Apr-2025\0\\
 #t hf aug-cc-pvdz symm=none int=(grid=ultrafine) guess=(read,tcheck) s
 table=(opt,rrhf)\\title\\0,1\C,0,-2.11791153,-0.4861185,0.21992125\C,0
 ,-0.74846733,-0.04858577,-0.14177209\O,0,-0.54159729,1.23337141,-0.124
 87749\C,0,0.88666734,1.49804306,-0.29533035\C,0,1.54979767,0.15055212,
 -0.19237514\C,0,1.33946252,-0.57614913,1.09499025\C,0,0.45889999,-0.89
 870427,-0.10110379\H,0,-2.87699734,0.15032605,-0.22928947\H,0,-2.19385
 835,-0.40603387,1.30978934\H,0,-2.2627198,-1.52464888,-0.06291204\H,0,

 Normal termination of Gaussian 16 at Wed Apr  9 15:27:13 2025.
 Gaussian 16:  ES64L-G16RevC.01  3-Jul-2019

 ----------------------------------------------------------------------
 #t hf aug-cc-pvdz iop(5/13=1,5/36=2,99/5=2) pseudo=read geom=check gue
 ss=(read,tcheck) scf=(maxcycle=1)
 ----------------------------------------------------------------------
 -----
 title
 -----
 Structure from the checkpoint file:  "Grambow2020_wb97xd3_006904_forward_mol1.chk"
 Charge =  0 Multiplicity = 1

                         Standard orientation:
 ---------------------------------------------------------------------
 Center     Atomic      Atomic             Coordinates (Angstroms)
 Number     Number       Type             X           Y           Z
 ---------------------------------------------------------------------
      1          6           0        2.237481   -0.303670   -0.197335
      2          6           0        0.831141    0.020743    0.141191
      3          8           0        0.399862    1.171787   -0.277844
      4          6           0       -1.042850    1.261282   -0.055093
      5          6           0       -1.460932   -0.122451    0.365102
      6          6           0       -1.187194   -1.207894   -0.623092
      7          6           0       -0.207058   -0.962368    0.512304
      8          1           0        2.892471    0.554898   -0.067291
      9          1           0        2.245658   -0.593624   -1.253675
     10          1           0        2.577386   -1.146819    0.396865
     11          1           0        1.135069    0.030823    1.948523
     12          1           0       -1.191926    2.010101    0.723381
     13          1           0       -1.461548    1.618299   -0.996605
     14          1           0       -2.269233   -0.199082    1.081534
     15          1           0       -0.955389   -0.915081   -1.645057
     16          1           0       -1.763592   -2.121195   -0.549703
     17          1           0        0.568684   -0.726465    1.726322
 ---------------------------------------------------------------------

 SCF Done:  E(RHF) =  -307.781250471     A.U. after    2 cycles

 The electronic state is 1-A.
 Alpha  occ. eigenvalues --  -20.65177 -11.39490 -11.31414 -11.25989 -11.23916
 Alpha  occ. eigenvalues --  -11.23497 -11.19913  -1.44286  -1.14115  -1.07604
 Alpha  occ. eigenvalues --   -0.96649  -0.89311  -0.81755  -0.76123  -0.72574
 Alpha  occ. eigenvalues --   -0.69838  -0.64766  -0.61922  -0.60178  -0.58327
 Alpha  occ. eigenvalues --   -0.57592  -0.54868  -0.51614  -0.48115  -0.44175
 Alpha  occ. eigenvalues --   -0.38894  -0.29143
 Alpha virt. eigenvalues --    0.03309   0.03973   0.04565   0.04878   0.06012
 Alpha virt. eigenvalues --    0.06557   0.06628   0.07213   0.08077   0.10014
 Alpha virt. eigenvalues --    0.10647   0.11532   0.11811   0.12414   0.13445

 Mulliken charges:
               1
     1  C    0.629418
     2  C   -0.563173
     3  O   -0.587348
     4  C    0.974383
     5  C    0.268063
     6  C    0.895429
     7  C   -0.524307
     8  H   -0.033519
     9  H    0.120328
    10  H    0.005020
    11  H    0.011952
    12  H   -0.185845
    13  H   -0.161270
    14  H   -0.353874
    15  H   -0.345226
    16  H   -0.366068
    17  H    0.216037
 Sum of Mulliken charges =  -0.00000

 Dipole moment (field-independent basis, Debye):
    X=             -0.0429    Y=              1.3960    Z=             -2.1773  Tot=              2.5868

 Test job not archived.
 1\1\GINC-SE100\SP\RHF\Aug-CC-pVDZ\C6H10O1\OHZDE\09-Apr-2025\0\\#t hf a
 ug-cc-pvdz iop(5/13=1,5/36=2,99/5=2) pseudo=read geom=check guess=(rea
 d,tcheck) scf=(maxcycle=1)\\title\\0,1\C,0,-2.11791153,-0.4861185,0.21
 992125\C,0,-0.74846733,-0.04858577,-0.14177209\O,0,-0.54159729,1.23337
 141,-0.12487749\C,0,0.88666734,1.49804306,-0.29533035\C,0,1.54979767,0
 .15055212,-0.19237514\C,0,1.33946252,-0.57614913,1.09499025\C,0,0.4588
 9999,-0.89870427,-0.10110379\H,0,-2.87699734,0.15032605,-0.22928947\H,
 0,-2.19385835,-0.40603387,1.30978934\H,0,-2.2627198,-1.52464888,-0.062

 Normal termination of Gaussian 16 at Wed Apr  9 15:27:20 2025.
