 Gaussian 16, Revision C.01,

 ----------------------------------------------------------------------
 #t hf aug-cc-pvdz symm=none int=(grid=ultrafine) guess=(read,tcheck) s
 table=(opt,rrhf)
 ----------------------------------------------------------------------
 -----
 title
 -----
 Symbolic Z-matrix:
 Charge =  0 Multiplicity = 1

 SCF Done:  E(RHF) =  -270.877048814     A.U. after   14 cycles
 Normal termination of Gaussian 16 at Wed Apr  9 03:52:47 2025.
 Gaussian 16:  ES64L-G16RevC.01  3-Jul-2019

 ----------------------------------------------------------------------
 #t hf aug-cc-pvdz iop(5/13=1,5/36=2,99/5=2) pseudo=read geom=check gue
 ss=(read,tcheck) scf=(maxcycle=1)
 ----------------------------------------------------------------------
 -----
 title
 -----
 Structure from the checkpoint file:  "Grambow2020_wb97xd3_008387_reverse_mol2.chk"
 Charge =  0 Multiplicity = 1

                         Standard orientation:
 ---------------------------------------------------------------------
 Center     Atomic      Atomic             Coordinates (Angstroms)
 Number     Number       Type             X           Y           Z
 ---------------------------------------------------------------------
      1          6           0       -2.028401    0.463641   -0.445800
      2          6           0       -0.661755    0.123912    0.083713
      3          6           0       -0.475898   -1.110862    0.911778
      4          6           0        1.664377    0.682932   -0.001209
      5          6           0        0.317455    1.266436    0.344097
      6          6           0        1.562064   -0.555413   -0.471781
      7          6           0        0.153008   -1.028871   -0.458769
      8          1           0       -1.957199    1.051587   -1.364352
      9          1           0       -2.600514   -0.439039   -0.669060
     10          1           0       -2.599066    1.045880    0.282665
     11          1           0        0.187009   -1.081899    1.768771
     12          1           0       -1.340182   -1.754479    1.024858
     13          1           0        2.592728    1.223004    0.137628
     14          1           0        0.088166    2.129578   -0.291388
     15          1           0        0.272075    1.620626    1.378779
     16          1           0        2.391886   -1.171289   -0.795623
     17          1           0       -0.220004   -1.674617   -1.244449
 ---------------------------------------------------------------------

 SCF Done:  E(RHF) =  -270.959443790     A.U. after    2 cycles

 The electronic state is 1-A.
 Alpha  occ. eigenvalues --  -11.23852 -11.23234 -11.23112 -11.23097 -11.22763
 Alpha  occ. eigenvalues --  -11.22759 -11.22528  -1.17684  -1.03449  -0.98010
 Alpha  occ. eigenvalues --   -0.92032  -0.82444  -0.74218  -0.73215  -0.67542
 Alpha  occ. eigenvalues --   -0.61920  -0.59171  -0.57727  -0.55353  -0.54197
 Alpha  occ. eigenvalues --   -0.51894  -0.50228  -0.47092  -0.44074  -0.39050
 Alpha  occ. eigenvalues --   -0.33038
 Alpha virt. eigenvalues --    0.03530   0.04261   0.04457   0.04776   0.05937
 Alpha virt. eigenvalues --    0.06334   0.06693   0.06819   0.08583   0.09191
 Alpha virt. eigenvalues --    0.10308   0.12328   0.13471   0.13614   0.14443

 Mulliken charges:
               1
     1  C    0.653608
     2  C   -0.569007
     3  C    0.736413
     4  C    0.270174
     5  C    0.393365
     6  C    0.227803
     7  C    0.321811
     8  H    0.030990
     9  H   -0.096488
    10  H    0.006948
    11  H   -0.385689
    12  H   -0.383832
    13  H   -0.322424
    14  H   -0.097566
    15  H   -0.020005
    16  H   -0.329119
    17  H   -0.436980
 Sum of Mulliken charges =  -0.00000

 Dipole moment (field-independent basis, Debye):
    X=             -0.3289    Y=              0.0795    Z=              0.0029  Tot=              0.3384

 Test job not archived.
 1\1\GINC-SE460\SP\RHF\Aug-CC-pVDZ\C7H10\OHZDE\09-Apr-2025\0\\#t hf aug
 -cc-pvdz iop(5/13=1,5/36=2,99/5=2) pseudo=read geom=check guess=(read,
 tcheck) scf=(maxcycle=1)\\title\\0,1\C,0,1.95358895,-0.08823926,-0.258
 42134\C,0,0.48416769,-0.17898818,0.05155546\C,0,0.03588332,-0.31088667
 ,1.47512282\C,0,-1.7226818,0.01099272,-0.85637036\C,0,-0.44291135,-0.7
 7220269,-1.00704589\C,0,-1.61139094,0.97168591,0.05472062\C,0,-0.27607
 633,0.95176911,0.70764358\H,0,2.12420736,0.45898005,-1.1889734\H,0,2.4
 9353564,0.42791534,0.53783953\H,0,2.39487114,-1.08258424,-0.36738183\H

 Normal termination of Gaussian 16 at Wed Apr  9 03:52:53 2025.
