 Gaussian 16, Revision C.01,

 ----------------------------------------------------------------------
 #t hf aug-cc-pvdz symm=none int=(grid=ultrafine) guess=(read,tcheck) s
 table=(opt,rrhf)
 ----------------------------------------------------------------------
 -----
 title
 -----
 Symbolic Z-matrix:
 Charge =  0 Multiplicity = 1

 SCF Done:  E(RHF) =  -191.805560761     A.U. after   16 cycles
 Normal termination of Gaussian 16 at Wed Apr  9 14:10:52 2025.
 Gaussian 16:  ES64L-G16RevC.01  3-Jul-2019

 ----------------------------------------------------------------------
 #t hf aug-cc-pvdz iop(5/13=1,5/36=2,99/5=2) pseudo=read geom=check gue
 ss=(read,tcheck) scf=(maxcycle=1)
 ----------------------------------------------------------------------
 -----
 title
 -----
 Structure from the checkpoint file:  "Grambow2020_b97d3_006807_forward_mol1.chk"
 Charge =  0 Multiplicity = 1

                         Standard orientation:
 ---------------------------------------------------------------------
 Center     Atomic      Atomic             Coordinates (Angstroms)
 Number     Number       Type             X           Y           Z
 ---------------------------------------------------------------------
      1          6           0        0.977327   -1.012369   -0.077682
      2          6           0        0.222813    0.176285    0.265801
      3          8           0        0.414751    1.385046   -0.106938
      4          6           0       -1.351631   -0.328472   -0.113274
      5          1           0        1.810704   -0.994634   -0.784228
      6          1           0        0.062027    0.026736    1.387100
      7          1           0        0.716476   -1.965717    0.382405
      8          1           0       -1.957523    0.475283    0.311266
      9          1           0       -1.422954   -0.334175   -1.202751
     10          1           0       -1.617788   -1.300524    0.312643
 ---------------------------------------------------------------------

 SCF Done:  E(RHF) =  -191.865363573     A.U. after    2 cycles

 The electronic state is 1-A.
 Alpha  occ. eigenvalues --  -20.45516 -11.36508 -11.31248 -11.27891  -1.24502
 Alpha  occ. eigenvalues --   -1.05262  -0.94796  -0.79693  -0.69145  -0.64156
 Alpha  occ. eigenvalues --   -0.60534  -0.55697  -0.54038  -0.52800  -0.37135
 Alpha  occ. eigenvalues --   -0.34174
 Alpha virt. eigenvalues --   -0.01561   0.02295   0.04109   0.05045   0.05267
 Alpha virt. eigenvalues --    0.06926   0.07425   0.11387   0.11795   0.12266
 Alpha virt. eigenvalues --    0.14530   0.15470   0.15612   0.15749   0.17047

 Mulliken charges:
               1
     1  C    0.652709
     2  C    0.130773
     3  O   -0.801472
     4  C    0.259618
     5  H   -0.127193
     6  H    0.196549
     7  H   -0.172869
     8  H   -0.031509
     9  H   -0.006137
    10  H   -0.100470
 Sum of Mulliken charges =  -0.00000

 Dipole moment (field-independent basis, Debye):
    X=             -0.1720    Y=             -6.8156    Z=              0.5279  Tot=              6.8382

 Test job not archived.
 1\1\GINC-SE141\SP\RHF\Aug-CC-pVDZ\C3H6O1\OHZDE\09-Apr-2025\0\\#t hf au
 g-cc-pvdz iop(5/13=1,5/36=2,99/5=2) pseudo=read geom=check guess=(read
 ,tcheck) scf=(maxcycle=1)\\title\\0,1\C,0,-1.06244084,0.11421281,0.814
 43749\C,0,-0.41744895,0.40532062,-0.45024124\O,0,-0.31075982,1.5259665
 4,-1.05822801\C,0,1.10889852,-0.28872855,-0.19350716\H,0,-1.503717,0.8
 9307283,1.44108829\H,0,-0.77116364,-0.47114111,-1.09229304\H,0,-1.1199
 8777,-0.91713962,1.1631436\H,0,1.54799813,-0.2508512,-1.19306563\H,0,1
 .64192245,0.37529752,0.48989318\H,0,1.06901092,-1.31283385,0.18956852\

 Normal termination of Gaussian 16 at Wed Apr  9 14:10:54 2025.
