 Gaussian 16, Revision C.01,

 ----------------------------------------------------------------------
 #t hf aug-cc-pvdz symm=none int=(grid=ultrafine) guess=(read,tcheck) s
 table=(opt,rrhf)
 ----------------------------------------------------------------------
 -----
 title
 -----
 Symbolic Z-matrix:
 Charge =  0 Multiplicity = 1

 SCF Done:  E(RHF) =  -335.442591344     A.U. after   19 cycles
 Normal termination of Gaussian 16 at Wed Apr  9 03:09:41 2025.
 Gaussian 16:  ES64L-G16RevC.01  3-Jul-2019

 ----------------------------------------------------------------------
 #t hf aug-cc-pvdz iop(5/13=1,5/36=2,99/5=2) pseudo=read geom=check gue
 ss=(read,tcheck) scf=(maxcycle=1)
 ----------------------------------------------------------------------
 -----
 title
 -----
 Structure from the checkpoint file:  "Grambow2020_b97d3_006735_reverse_mol1.chk"
 Charge =  0 Multiplicity = 1

                         Standard orientation:
 ---------------------------------------------------------------------
 Center     Atomic      Atomic             Coordinates (Angstroms)
 Number     Number       Type             X           Y           Z
 ---------------------------------------------------------------------
      1          8           0        2.156648    0.432277   -0.002924
      2          6           0        1.179192   -0.224117    0.000168
      3          7           0       -0.593569    1.273219    0.004285
      4          6           0       -1.508037    0.356024   -0.001143
      5          7           0       -1.601460   -0.919774   -0.002393
      6          8           0        0.452706   -1.185012    0.003163
      7          1           0       -0.904960    2.243339   -0.003501
      8          1           0       -2.631602    0.512977   -0.005803
 ---------------------------------------------------------------------

 SCF Done:  E(RHF) =  -335.545435554     A.U. after    2 cycles

 The electronic state is 1-A.
 Alpha  occ. eigenvalues --  -20.65833 -20.64934 -15.75592 -15.63350 -11.48762
 Alpha  occ. eigenvalues --  -11.37746  -1.46806  -1.41505  -1.26537  -1.13359
 Alpha  occ. eigenvalues --   -0.81854  -0.77504  -0.74791  -0.73565  -0.70703
 Alpha  occ. eigenvalues --   -0.67755  -0.60889  -0.58752  -0.55106  -0.54301
 Alpha  occ. eigenvalues --   -0.45097  -0.39701
 Alpha virt. eigenvalues --    0.02133   0.04107   0.05090   0.06956   0.08077
 Alpha virt. eigenvalues --    0.10566   0.11130   0.11349   0.12144   0.14592
 Alpha virt. eigenvalues --    0.16032   0.16743   0.17540   0.18323   0.19285

 Mulliken charges:
               1
     1  O   -0.190132
     2  C    0.408172
     3  N   -0.319194
     4  C    0.549210
     5  N   -0.169020
     6  O   -0.246394
     7  H    0.003728
     8  H   -0.036372
 Sum of Mulliken charges =  -0.00000

 Dipole moment (field-independent basis, Debye):
    X=             -3.0643    Y=              1.5545    Z=             -0.0202  Tot=              3.4361

 Test job not archived.
 1\1\GINC-SE229\SP\RHF\Aug-CC-pVDZ\C2H2N2O2\OHZDE\09-Apr-2025\0\\#t hf
 aug-cc-pvdz iop(5/13=1,5/36=2,99/5=2) pseudo=read geom=check guess=(re
 ad,tcheck) scf=(maxcycle=1)\\title\\0,1\O,0,2.56874778,0.09315908,0.20
 896229\C,0,1.58310609,-0.52676391,0.38357242\N,0,-0.17064308,0.9310416
 3,-0.04523406\C,0,-1.096527,0.05753408,0.19403622\N,0,-1.20599734,-1.1
 6769951,0.54504834\O,0,0.84457535,-1.44183404,0.64496976\H,0,-0.469730
 31,1.86417029,-0.32447751\H,0,-2.21796549,0.21843838,0.13453753\\Versi
 on=ES64L-G16RevC.01\State=1-A\HF=-335.5454356\RMSD=2.177e-03\Dipole=-1

 Normal termination of Gaussian 16 at Wed Apr  9 03:09:44 2025.
