 Gaussian 16, Revision C.01,

 ----------------------------------------------------------------------
 #t hf aug-cc-pvdz symm=none int=(grid=ultrafine) guess=(read,tcheck) s
 table=(opt,rrhf)
 ----------------------------------------------------------------------
 -----
 title
 -----
 Symbolic Z-matrix:
 Charge =  0 Multiplicity = 1

 SCF Done:  E(RHF) =  -302.726034795     A.U. after   16 cycles
 Normal termination of Gaussian 16 at Wed Apr  9 16:48:49 2025.
 Gaussian 16:  ES64L-G16RevC.01  3-Jul-2019

 ----------------------------------------------------------------------
 #t hf aug-cc-pvdz iop(5/13=1,5/36=2,99/5=2) pseudo=read geom=check gue
 ss=(read,tcheck) scf=(maxcycle=1)
 ----------------------------------------------------------------------
 -----
 title
 -----
 Structure from the checkpoint file:  "Grambow2020_wb97xd3_008917_reverse_mol1.chk"
 Charge =  0 Multiplicity = 1

                         Standard orientation:
 ---------------------------------------------------------------------
 Center     Atomic      Atomic             Coordinates (Angstroms)
 Number     Number       Type             X           Y           Z
 ---------------------------------------------------------------------
      1          6           0        0.144333    1.570310    0.749966
      2          7           0       -0.032206    0.734458   -0.531634
      3          6           0       -1.419322    0.377464   -0.520815
      4          6           0       -1.584550   -0.815315    0.037059
      5          6           0       -0.236611   -1.216740    0.502268
      6          6           0        0.648519   -0.410295   -0.264640
      7          7           0        1.983715   -0.433646   -0.280193
      8          1           0        1.201875    1.825169    0.859117
      9          1           0       -0.403411    2.506656    0.615704
     10          1           0       -0.111645   -0.231389    1.363517
     11          1           0       -2.137955    1.101425   -0.871039
     12          1           0       -2.507123   -1.329744    0.250956
     13          1           0        0.006393   -2.201690    0.879475
     14          1           0        2.487669    0.386020   -0.567436
     15          1           0        2.489413   -1.194675    0.129468
 ---------------------------------------------------------------------

 SCF Done:  E(RHF) =  -302.816443436     A.U. after    2 cycles

 The electronic state is 1-A.
 Alpha  occ. eigenvalues --  -15.67981 -15.64013 -11.36508 -11.26419 -11.25991
 Alpha  occ. eigenvalues --  -11.23997 -11.20238  -1.30495  -1.20258  -1.04946
 Alpha  occ. eigenvalues --   -0.97852  -0.86273  -0.80731  -0.78959  -0.72444
 Alpha  occ. eigenvalues --   -0.70557  -0.64064  -0.62293  -0.58194  -0.54313
 Alpha  occ. eigenvalues --   -0.51090  -0.49715  -0.47386  -0.44099  -0.34288
 Alpha  occ. eigenvalues --   -0.24839
 Alpha virt. eigenvalues --    0.02270   0.03549   0.04361   0.05799   0.06035
 Alpha virt. eigenvalues --    0.06445   0.07995   0.08712   0.09155   0.10923
 Alpha virt. eigenvalues --    0.11779   0.12544   0.13103   0.13384   0.14379

 Mulliken charges:
               1
     1  C    0.355674
     2  N   -0.649864
     3  C    0.755923
     4  C    0.359429
     5  C    0.009129
     6  C    0.287646
     7  N   -0.181727
     8  H   -0.367079
     9  H   -0.299445
    10  H    0.615720
    11  H   -0.297281
    12  H   -0.305016
    13  H   -0.290916
    14  H    0.018416
    15  H   -0.010608
 Sum of Mulliken charges =  -0.00000

 Dipole moment (field-independent basis, Debye):
    X=              2.3360    Y=             -3.1340    Z=             -1.0087  Tot=              4.0369

 Test job not archived.
 1\1\GINC-SE131\SP\RHF\Aug-CC-pVDZ\C5H8N2\OHZDE\09-Apr-2025\0\\#t hf au
 g-cc-pvdz iop(5/13=1,5/36=2,99/5=2) pseudo=read geom=check guess=(read
 ,tcheck) scf=(maxcycle=1)\\title\\0,1\C,0,-1.02478676,-1.00045174,0.80
 215593\N,0,-0.30047709,-0.7388646,-0.53173325\C,0,1.02442462,-1.234338
 68,-0.3063623\C,0,1.82408354,-0.25110257,0.08738741\C,0,0.94635206,0.9
 3516325,0.21723813\C,0,-0.18892162,0.61416211,-0.57653092\N,0,-1.24687
 919,1.3806594,-0.85355453\H,0,-2.0327388,-0.58137942,0.74155433\H,0,-1
 .12909696,-2.08227991,0.91860627\H,0,0.20401596,0.42726089,1.17601638\

 Normal termination of Gaussian 16 at Wed Apr  9 16:48:58 2025.
