 Gaussian 16, Revision C.01,

 ----------------------------------------------------------------------
 #t hf aug-cc-pvdz symm=none int=(grid=ultrafine) guess=(read,tcheck) s
 table=(opt,rrhf)
 ----------------------------------------------------------------------
 -----
 title
 -----
 Symbolic Z-matrix:
 Charge =  0 Multiplicity = 1

 SCF Done:  E(RHF) =  -343.576750933     A.U. after   15 cycles
 Normal termination of Gaussian 16 at Wed Apr  9 16:00:10 2025.
 Gaussian 16:  ES64L-G16RevC.01  3-Jul-2019

 ----------------------------------------------------------------------
 #t hf aug-cc-pvdz iop(5/13=1,5/36=2,99/5=2) pseudo=read geom=check gue
 ss=(read,tcheck) scf=(maxcycle=1)
 ----------------------------------------------------------------------
 -----
 title
 -----
 Structure from the checkpoint file:  "Grambow2020_wb97xd3_007677_reverse_mol2.chk"
 Charge =  0 Multiplicity = 1

                         Standard orientation:
 ---------------------------------------------------------------------
 Center     Atomic      Atomic             Coordinates (Angstroms)
 Number     Number       Type             X           Y           Z
 ---------------------------------------------------------------------
      1          6           0       -2.038854    0.858585    0.121109
      2          6           0       -1.459980   -0.272725    0.486059
      3          6           0       -0.464934   -1.002925   -0.335594
      4          8           0        0.180714   -0.315148   -1.390613
      5          6           0        0.988859   -0.757441   -0.283895
      6          6           0        1.555533    0.263124    0.640624
      7          8           0        1.285642    1.454307    0.218684
      8          1           0       -2.771405    1.342386    0.753721
      9          1           0       -1.805135    1.332706   -0.825424
     10          1           0        0.919122   -1.433797    2.801500
     11          1           0       -1.716965   -0.750271    1.426556
     12          1           0       -0.754701   -2.021634   -0.589853
     13          1           0        1.646154   -1.593924   -0.501160
     14          1           0        0.504724   -1.945450    3.155562
     15          1           0        0.763614    1.424999   -0.615273
 ---------------------------------------------------------------------

 SCF Done:  E(RHF) =  -343.687604790     A.U. after    2 cycles

 The electronic state is 1-A.
 Alpha  occ. eigenvalues --  -20.64320 -20.61819 -11.33488 -11.31535 -11.31462
 Alpha  occ. eigenvalues --  -11.26565 -11.25629  -1.43267  -1.39658  -1.07719
 Alpha  occ. eigenvalues --   -0.99088  -0.92475  -0.85118  -0.80351  -0.75500
 Alpha  occ. eigenvalues --   -0.71560  -0.66832  -0.63528  -0.62339  -0.60594
 Alpha  occ. eigenvalues --   -0.58574  -0.56121  -0.53876  -0.50250  -0.49464
 Alpha  occ. eigenvalues --   -0.39069  -0.37315
 Alpha virt. eigenvalues --    0.03275   0.03963   0.04583   0.05252   0.06092
 Alpha virt. eigenvalues --    0.07298   0.07909   0.08744   0.09192   0.09917
 Alpha virt. eigenvalues --    0.11093   0.12485   0.12973   0.13564   0.14052

 Mulliken charges:
               1
     1  C    0.529382
     2  C    0.613325
     3  C    0.572512
     4  O   -0.822419
     5  C    0.613655
     6  C    0.106482
     7  O   -0.353325
     8  H   -0.285031
     9  H   -0.333876
    10  H    0.016337
    11  H   -0.356710
    12  H   -0.266050
    13  H   -0.299504
    14  H    0.015997
    15  H    0.249225
 Sum of Mulliken charges =  -0.00000

 Dipole moment (field-independent basis, Debye):
    X=             -2.1684    Y=             -1.5148    Z=             -0.9260  Tot=              2.8025

 Test job not archived.
 1\1\GINC-SE125\SP\RHF\Aug-CC-pVDZ\C5H8O2\OHZDE\09-Apr-2025\0\\#t hf au
 g-cc-pvdz iop(5/13=1,5/36=2,99/5=2) pseudo=read geom=check guess=(read
 ,tcheck) scf=(maxcycle=1)\\title\\0,1\C,0,2.02252292,-0.0427812,-0.673
 55229\C,0,1.17888163,0.36996386,0.25706919\C,0,-0.11470854,1.03661029,
 -0.02688542\O,0,-0.66657567,0.92342387,-1.32519031\C,0,-1.38627173,0.3
 1802176,-0.23474438\C,0,-1.4425928,-1.16773139,-0.15245225\O,0,-0.8775
 8456,-1.69912623,-1.18597822\H,0,2.96211959,-0.51037837,-0.41010584\H,
 0,1.80459413,0.08122958,-1.72828832\H,0,-1.04511034,-0.96482989,2.6322

 Normal termination of Gaussian 16 at Wed Apr  9 16:00:15 2025.
