 Gaussian 16, Revision C.01,

 ----------------------------------------------------------------------
 #t hf aug-cc-pvdz symm=none int=(grid=ultrafine) guess=(read,tcheck) s
 table=(opt,rrhf)
 ----------------------------------------------------------------------
 -----
 title
 -----
 Symbolic Z-matrix:
 Charge =  0 Multiplicity = 1

 SCF Done:  E(RHF) =  -268.652814311     A.U. after   18 cycles
 Normal termination of Gaussian 16 at Wed Apr  9 03:15:05 2025.
 Gaussian 16:  ES64L-G16RevC.01  3-Jul-2019

 ----------------------------------------------------------------------
 #t hf aug-cc-pvdz iop(5/13=1,5/36=2,99/5=2) pseudo=read geom=check gue
 ss=(read,tcheck) scf=(maxcycle=1)
 ----------------------------------------------------------------------
 -----
 title
 -----
 Structure from the checkpoint file:  "Grambow2020_b97d3_007029_forward_mol1.chk"
 Charge =  0 Multiplicity = 1

                         Standard orientation:
 ---------------------------------------------------------------------
 Center     Atomic      Atomic             Coordinates (Angstroms)
 Number     Number       Type             X           Y           Z
 ---------------------------------------------------------------------
      1          6           0       -2.481145   -0.407614    0.101565
      2          6           0       -1.089793    0.135012    0.094634
      3          6           0       -0.369425    1.041962   -0.526855
      4          6           0        0.990604    1.165415    0.000724
      5          6           0        1.454072   -0.247059    0.539608
      6          8           0        1.492504   -1.255997   -0.352613
      7          1           0       -2.494645   -1.502975   -0.006837
      8          1           0       -2.994426   -0.167147    1.045510
      9          1           0       -3.056161    0.032488   -0.723453
     10          1           0        1.783983    1.435970   -0.724682
     11          1           0        1.046178    1.907071    0.812094
     12          1           0        2.382632   -0.287535    1.130116
     13          1           0       -0.305127   -0.340004    0.927404
     14          1           0        0.671663   -1.156180   -0.897301
 ---------------------------------------------------------------------

 SCF Done:  E(RHF) =  -268.734557558     A.U. after    2 cycles

 The electronic state is 1-A.
 Alpha  occ. eigenvalues --  -20.66387 -11.41373 -11.27542 -11.23847 -11.23417
 Alpha  occ. eigenvalues --  -11.19725  -1.42147  -1.08917  -1.00358  -0.93360
 Alpha  occ. eigenvalues --   -0.86712  -0.74946  -0.71211  -0.65595  -0.65092
 Alpha  occ. eigenvalues --   -0.60587  -0.58358  -0.56358  -0.55846  -0.52405
 Alpha  occ. eigenvalues --   -0.46902  -0.33884  -0.28398
 Alpha virt. eigenvalues --    0.01035   0.02861   0.04223   0.04761   0.05098
 Alpha virt. eigenvalues --    0.06502   0.06866   0.07243   0.08358   0.10573
 Alpha virt. eigenvalues --    0.11586   0.12248   0.13181   0.13801   0.14725

 Mulliken charges:
               1
     1  C    0.337596
     2  C   -0.166217
     3  C   -0.749119
     4  C    0.304679
     5  C    0.520771
     6  O   -0.449374
     7  H    0.005661
     8  H    0.041950
     9  H    0.015990
    10  H    0.041845
    11  H    0.020213
    12  H   -0.202038
    13  H   -0.009554
    14  H    0.287598
 Sum of Mulliken charges =  -0.00000

 Dipole moment (field-independent basis, Debye):
    X=              2.5091    Y=             -1.3682    Z=              1.8563  Tot=              3.4078

 Test job not archived.
 1\1\GINC-SE070\SP\RHF\Aug-CC-pVDZ\C5H8O1\OHZDE\09-Apr-2025\0\\#t hf au
 g-cc-pvdz iop(5/13=1,5/36=2,99/5=2) pseudo=read geom=check guess=(read
 ,tcheck) scf=(maxcycle=1)\\title\\0,1\C,0,2.29768492,0.21831919,0.1790
 7148\C,0,0.87106492,-0.09505187,-0.13222535\C,0,0.07334006,-0.21511233
 ,-1.16999093\C,0,-1.27973656,-0.64758632,-0.81586091\C,0,-1.62792976,-
 0.09174367,0.62291689\O,0,-1.61381094,1.2466314,0.77797781\H,0,2.38758
 259,1.02939452,0.91787014\H,0,2.81358115,-0.66067828,0.59564019\H,0,2.
 82065614,0.52070042,-0.73747272\H,0,-2.10678399,-0.2634248,-1.44616018

 Normal termination of Gaussian 16 at Wed Apr  9 03:15:09 2025.
