 Gaussian 16, Revision C.01,

 ----------------------------------------------------------------------
 #t hf aug-cc-pvdz symm=none int=(grid=ultrafine) guess=(read,tcheck) s
 table=(opt,rrhf)
 ----------------------------------------------------------------------
 -----
 title
 -----
 Symbolic Z-matrix:
 Charge =  0 Multiplicity = 1

 SCF Done:  E(RHF) =  -373.295878620     A.U. after   17 cycles
 Normal termination of Gaussian 16 at Wed Apr  9 04:04:26 2025.
 Gaussian 16:  ES64L-G16RevC.01  3-Jul-2019

 ----------------------------------------------------------------------
 #t hf aug-cc-pvdz iop(5/13=1,5/36=2,99/5=2) pseudo=read geom=check gue
 ss=(read,tcheck) scf=(maxcycle=1)
 ----------------------------------------------------------------------
 -----
 title
 -----
 Structure from the checkpoint file:  "Grambow2020_wb97xd3_009222_forward_mol1.chk"
 Charge =  0 Multiplicity = 1

                         Standard orientation:
 ---------------------------------------------------------------------
 Center     Atomic      Atomic             Coordinates (Angstroms)
 Number     Number       Type             X           Y           Z
 ---------------------------------------------------------------------
      1          7           0        1.675493   -1.346109   -0.000077
      2          6           0        0.866335   -0.496313    0.000200
      3          8           0       -1.086214   -1.236596   -0.000069
      4          6           0       -1.675807   -0.159359   -0.000008
      5          8           0       -1.086962    0.983253   -0.000052
      6          6           0        0.470710    0.883954   -0.000022
      7          7           0        1.254788    1.790473   -0.000006
      8          1           0        1.678921   -2.348879    0.000073
      9          1           0       -2.772911   -0.104627    0.000462
 ---------------------------------------------------------------------

 SCF Done:  E(RHF) =  -373.410615096     A.U. after    2 cycles

 The electronic state is 1-A.
 Alpha  occ. eigenvalues --  -20.64388 -20.60990 -15.72554 -15.60937 -11.44920
 Alpha  occ. eigenvalues --  -11.43275 -11.35109  -1.46370  -1.35552  -1.30850
 Alpha  occ. eigenvalues --   -1.18339  -0.95874  -0.89970  -0.84062  -0.76739
 Alpha  occ. eigenvalues --   -0.74296  -0.69028  -0.63424  -0.59751  -0.58986
 Alpha  occ. eigenvalues --   -0.54423  -0.52367  -0.50239  -0.42992  -0.36492
 Alpha virt. eigenvalues --    0.02186   0.03480   0.06589   0.07223   0.07640
 Alpha virt. eigenvalues --    0.08316   0.09518   0.10663   0.10771   0.11833
 Alpha virt. eigenvalues --    0.13307   0.13947   0.14230   0.15407   0.15450

 Mulliken charges:
               1
     1  N   -0.161624
     2  C    0.373138
     3  O   -0.467485
     4  C    0.690722
     5  O   -0.513875
     6  C    0.700306
     7  N   -0.461558
     8  H    0.075162
     9  H   -0.234785
 Sum of Mulliken charges =  -0.00000

 Dipole moment (field-independent basis, Debye):
    X=             -1.6106    Y=             -5.2925    Z=              0.0010  Tot=              5.5321

 Test job not archived.
 1\1\GINC-SE127\SP\RHF\Aug-CC-pVDZ\C3H2N2O2\OHZDE\09-Apr-2025\0\\#t hf
 aug-cc-pvdz iop(5/13=1,5/36=2,99/5=2) pseudo=read geom=check guess=(re
 ad,tcheck) scf=(maxcycle=1)\\title\\0,1\N,0,-1.81528572,-1.00191795,0.
 13954838\C,0,-0.95605265,-0.20815269,0.04711202\O,0,0.94659057,-1.0685
 5541,0.05818772\C,0,1.60070142,-0.03459643,-0.04729689\O,0,1.08316509,
 1.13930768,-0.12733071\C,0,-0.47689959,1.13956108,-0.07834048\N,0,-1.2
 0365575,2.09104809,-0.13360258\H,0,-1.88006774,-1.99908999,0.22327607\
 H,0,2.69854538,-0.04994037,-0.08102154\\Version=ES64L-G16RevC.01\State

 Normal termination of Gaussian 16 at Wed Apr  9 04:04:29 2025.
