 Gaussian 16, Revision C.01,

 ----------------------------------------------------------------------
 #t hf aug-cc-pvdz symm=none int=(grid=ultrafine) guess=(read,tcheck) s
 table=(opt,rrhf)
 ----------------------------------------------------------------------
 -----
 title
 -----
 Symbolic Z-matrix:
 Charge =  0 Multiplicity = 1

 SCF Done:  E(RHF) =  -309.079866064     A.U. after   13 cycles

 1\1\GINC-SE219\Stability\RHF\Aug-CC-pVDZ\C6H12O1\OHZDE\09-Apr-2025\0\\
 #t hf aug-cc-pvdz symm=none int=(grid=ultrafine) guess=(read,tcheck) s
 table=(opt,rrhf)\\title\\0,1\C,0,1.88190542,-0.90711639,0.76126189\C,0
 ,1.49261447,0.50978262,0.50388161\O,0,2.60645195,1.25721239,0.23791787
 \C,0,0.2659286,1.02804767,0.51093341\C,0,-1.02583509,0.31304358,0.7744
 8769\C,0,-1.88648469,0.12759426,-0.48102956\C,0,-1.27374578,-0.8318580
 3,-1.49188131\H,0,2.38429333,-1.31452232,-0.11857846\H,0,1.02346809,-1
 .53238166,0.99105513\H,0,2.58797914,-0.9534724,1.59267403\H,0,2.342829

 Normal termination of Gaussian 16 at Wed Apr  9 16:36:22 2025.
 Gaussian 16:  ES64L-G16RevC.01  3-Jul-2019

 ----------------------------------------------------------------------
 #t hf aug-cc-pvdz iop(5/13=1,5/36=2,99/5=2) pseudo=read geom=check gue
 ss=(read,tcheck) scf=(maxcycle=1)
 ----------------------------------------------------------------------
 -----
 title
 -----
 Structure from the checkpoint file:  "Grambow2020_wb97xd3_008668_reverse_mol2.chk"
 Charge =  0 Multiplicity = 1

                         Standard orientation:
 ---------------------------------------------------------------------
 Center     Atomic      Atomic             Coordinates (Angstroms)
 Number     Number       Type             X           Y           Z
 ---------------------------------------------------------------------
      1          6           0       -1.498957    1.245839    0.645986
      2          6           0       -1.328828   -0.091111    0.006443
      3          8           0       -2.436144   -0.395955   -0.735813
      4          6           0       -0.280980   -0.907608    0.099999
      5          6           0        0.987484   -0.680943    0.867440
      6          6           0        2.198416   -0.394023   -0.028526
      7          6           0        2.105137    0.941508   -0.753421
      8          1           0       -1.632734    2.006693   -0.125829
      9          1           0       -0.643465    1.519024    1.257688
     10          1           0       -2.396082    1.248838    1.268154
     11          1           0       -2.314708   -1.258251   -1.141032
     12          1           0       -0.328573   -1.843955   -0.456530
     13          1           0        1.209639    0.988668   -1.376754
     14          1           0        0.868028    0.139415    1.579864
     15          1           0        1.198864   -1.570938    1.468485
     16          1           0        2.301159   -1.202997   -0.759525
     17          1           0        3.104727   -0.417301    0.584077
     18          1           0        2.970577    1.106094   -1.397809
     19          1           0        2.058084    1.770378   -0.041803
 ---------------------------------------------------------------------

 SCF Done:  E(RHF) =  -309.179435790     A.U. after    2 cycles

 The electronic state is 1-A.
 Alpha  occ. eigenvalues --  -20.59260 -11.30114 -11.23225 -11.23065 -11.22594
 Alpha  occ. eigenvalues --  -11.21754 -11.21703  -1.35800  -1.07961  -1.02639
 Alpha  occ. eigenvalues --   -0.96389  -0.90044  -0.81060  -0.77719  -0.69057
 Alpha  occ. eigenvalues --   -0.64159  -0.61971  -0.60130  -0.59849  -0.56186
 Alpha  occ. eigenvalues --   -0.54753  -0.54048  -0.53516  -0.50646  -0.48549
 Alpha  occ. eigenvalues --   -0.47466  -0.46794  -0.32931
 Alpha virt. eigenvalues --    0.03328   0.04227   0.04311   0.04544   0.06136
 Alpha virt. eigenvalues --    0.06479   0.06745   0.06929   0.07567   0.09074
 Alpha virt. eigenvalues --    0.09303   0.09703   0.12446   0.14044   0.14117

 Mulliken charges:
               1
     1  C    0.383963
     2  C   -0.239383
     3  O   -0.530822
     4  C    0.835819
     5  C    0.132012
     6  C    0.066236
     7  C    0.421872
     8  H    0.084559
     9  H   -0.135955
    10  H    0.041581
    11  H    0.113159
    12  H   -0.591272
    13  H   -0.072217
    14  H   -0.109720
    15  H   -0.003436
    16  H   -0.100351
    17  H   -0.100739
    18  H   -0.120433
    19  H   -0.074874
 Sum of Mulliken charges =  -0.00000

 Dipole moment (field-independent basis, Debye):
    X=              0.8844    Y=             -0.5903    Z=              0.1116  Tot=              1.0692

 Test job not archived.
 1\1\GINC-SE219\SP\RHF\Aug-CC-pVDZ\C6H12O1\OHZDE\09-Apr-2025\0\\#t hf a
 ug-cc-pvdz iop(5/13=1,5/36=2,99/5=2) pseudo=read geom=check guess=(rea
 d,tcheck) scf=(maxcycle=1)\\title\\0,1\C,0,1.88190542,-0.90711639,0.76
 126189\C,0,1.49261447,0.50978262,0.50388161\O,0,2.60645195,1.25721239,
 0.23791787\C,0,0.2659286,1.02804767,0.51093341\C,0,-1.02583509,0.31304
 358,0.77448769\C,0,-1.88648469,0.12759426,-0.48102956\C,0,-1.27374578,
 -0.83185803,-1.49188131\H,0,2.38429333,-1.31452232,-0.11857846\H,0,1.0
 2346809,-1.53238166,0.99105513\H,0,2.58797914,-0.9534724,1.59267403\H,

 Normal termination of Gaussian 16 at Wed Apr  9 16:36:30 2025.
