 Gaussian 16, Revision C.01,

 ----------------------------------------------------------------------
 #t hf aug-cc-pvdz symm=none int=(grid=ultrafine) guess=(read,tcheck) s
 table=(opt,rrhf)
 ----------------------------------------------------------------------
 -----
 title
 -----
 Symbolic Z-matrix:
 Charge =  0 Multiplicity = 1

 SCF Done:  E(RHF) =  -338.539293576     A.U. after   19 cycles
 Normal termination of Gaussian 16 at Wed Apr  9 16:33:04 2025.
 Gaussian 16:  ES64L-G16RevC.01  3-Jul-2019

 ----------------------------------------------------------------------
 #t hf aug-cc-pvdz iop(5/13=1,5/36=2,99/5=2) pseudo=read geom=check gue
 ss=(read,tcheck) scf=(maxcycle=1)
 ----------------------------------------------------------------------
 -----
 title
 -----
 Structure from the checkpoint file:  "Grambow2020_wb97xd3_008564_forward_mol1.chk"
 Charge =  0 Multiplicity = 1

                         Standard orientation:
 ---------------------------------------------------------------------
 Center     Atomic      Atomic             Coordinates (Angstroms)
 Number     Number       Type             X           Y           Z
 ---------------------------------------------------------------------
      1          7           0        2.403103    1.095793   -0.094042
      2          6           0        2.351790   -0.149452   -0.033501
      3          8           0        1.164955   -0.832010    0.067302
      4          6           0        0.021310   -0.148265    0.176737
      5          6           0       -1.211271   -0.859000   -0.161491
      6          6           0       -2.191519    0.268562    0.207297
      7          7           0       -3.195718    0.737768   -0.217379
      8          1           0        3.358575    1.427137   -0.156189
      9          1           0        3.168484   -0.868573   -0.041603
     10          1           0        0.108638    0.926138    0.117012
     11          1           0       -1.521859    0.610669    1.166587
     12          1           0       -1.197227   -1.337543   -1.152304
     13          1           0       -1.509814   -1.607745    0.573775
 ---------------------------------------------------------------------

 SCF Done:  E(RHF) =  -338.642789548     A.U. after    2 cycles

 The electronic state is 1-A.
 Alpha  occ. eigenvalues --  -20.70071 -15.66974 -15.58665 -11.40980 -11.40908
 Alpha  occ. eigenvalues --  -11.29054 -11.26247  -1.48478  -1.23954  -1.15822
 Alpha  occ. eigenvalues --   -1.08781  -0.96789  -0.86003  -0.78091  -0.76516
 Alpha  occ. eigenvalues --   -0.72529  -0.69880  -0.66413  -0.60580  -0.59558
 Alpha  occ. eigenvalues --   -0.54459  -0.49900  -0.48810  -0.48621  -0.41464
 Alpha  occ. eigenvalues --   -0.26104
 Alpha virt. eigenvalues --   -0.00229   0.01548   0.03433   0.04539   0.04790
 Alpha virt. eigenvalues --    0.06233   0.07880   0.08419   0.09793   0.10434
 Alpha virt. eigenvalues --    0.11815   0.12376   0.12946   0.13828   0.14340

 Mulliken charges:
               1
     1  N   -0.231165
     2  C    0.748477
     3  O   -0.464771
     4  C    0.266920
     5  C    0.377669
     6  C    0.256965
     7  N   -0.508882
     8  H    0.044166
     9  H   -0.258091
    10  H   -0.376821
    11  H    0.088531
    12  H   -0.127171
    13  H    0.184173
 Sum of Mulliken charges =  -0.00000

 Dipole moment (field-independent basis, Debye):
    X=              8.4322    Y=             -2.8894    Z=              0.1154  Tot=              8.9142

 Test job not archived.
 1\1\GINC-SE113\SP\RHF\Aug-CC-pVDZ\C4H6N2O1\OHZDE\09-Apr-2025\0\\#t hf
 aug-cc-pvdz iop(5/13=1,5/36=2,99/5=2) pseudo=read geom=check guess=(re
 ad,tcheck) scf=(maxcycle=1)\\title\\0,1\N,0,-2.29784218,0.55198311,-0.
 91526369\C,0,-2.18995119,0.13097758,0.25437191\O,0,-0.97946523,-0.2136
 2131,0.80264217\C,0,0.12129011,-0.16860908,0.04519886\C,0,1.40462953,-
 0.1035469,0.74348499\C,0,2.30568675,-0.17093033,-0.50224461\N,0,3.3092
 7196,0.32849441,-0.89251699\H,0,-3.26291125,0.74799973,-1.15358403\H,0
 ,-2.96896742,-0.0350537,0.99582782\H,0,-0.01428721,0.20362554,-0.95908

 Normal termination of Gaussian 16 at Wed Apr  9 16:33:10 2025.
