 Gaussian 16, Revision C.01,

 ----------------------------------------------------------------------
 #t hf aug-cc-pvdz symm=none int=(grid=ultrafine) guess=(read,tcheck) s
 table=(opt,rrhf)
 ----------------------------------------------------------------------
 -----
 title
 -----
 Symbolic Z-matrix:
 Charge =  0 Multiplicity = 1

 SCF Done:  E(RHF) =  -325.001608341     A.U. after   15 cycles
 Normal termination of Gaussian 16 at Wed Apr  9 16:50:29 2025.
 Gaussian 16:  ES64L-G16RevC.01  3-Jul-2019

 ----------------------------------------------------------------------
 #t hf aug-cc-pvdz iop(5/13=1,5/36=2,99/5=2) pseudo=read geom=check gue
 ss=(read,tcheck) scf=(maxcycle=1)
 ----------------------------------------------------------------------
 -----
 title
 -----
 Structure from the checkpoint file:  "Grambow2020_wb97xd3_008963_reverse_mol2.chk"
 Charge =  0 Multiplicity = 1

                         Standard orientation:
 ---------------------------------------------------------------------
 Center     Atomic      Atomic             Coordinates (Angstroms)
 Number     Number       Type             X           Y           Z
 ---------------------------------------------------------------------
      1          6           0       -2.296258   -0.919769   -0.457790
      2          6           0       -1.773543    0.376497    0.130342
      3          7           0       -0.362206    0.258934    0.464351
      4          6           0        0.405093    1.466457    0.499601
      5          6           0        0.562215    0.503123   -0.631443
      6          6           0        1.778830   -0.355201   -0.707622
      7          8           0        2.344889   -0.806043    0.248734
      8          1           0       -3.363994   -0.844470   -0.668932
      9          1           0       -2.134422   -1.745115    0.236103
     10          1           0       -1.784794   -1.159505   -1.392916
     11          1           0       -1.952310    1.212653   -0.565332
     12          1           0       -2.301760    0.611598    1.057686
     13          1           0       -0.094743    2.404526    0.272287
     14          1           0        1.186426    1.504820    1.249619
     15          1           0        0.135956    0.798388   -1.587591
     16          1           0        2.158384   -0.543969   -1.733162
     17          1           0       -0.112619   -2.292539    2.692498
     18          1           0       -0.017816   -1.737215    2.200878
 ---------------------------------------------------------------------

 SCF Done:  E(RHF) =  -325.106291259     A.U. after    2 cycles

 The electronic state is 1-A.
 Alpha  occ. eigenvalues --  -20.57218 -15.64202 -11.34512 -11.28438 -11.28277
 Alpha  occ. eigenvalues --  -11.27381 -11.23142  -1.36549  -1.27353  -1.05106
 Alpha  occ. eigenvalues --   -0.94884  -0.88966  -0.82477  -0.77290  -0.72372
 Alpha  occ. eigenvalues --   -0.67690  -0.65485  -0.62158  -0.59557  -0.56774
 Alpha  occ. eigenvalues --   -0.56064  -0.55989  -0.53699  -0.51161  -0.47907
 Alpha  occ. eigenvalues --   -0.46617  -0.43701  -0.38569
 Alpha virt. eigenvalues --    0.02811   0.03656   0.04048   0.04952   0.06317
 Alpha virt. eigenvalues --    0.06778   0.06915   0.07173   0.07591   0.09351
 Alpha virt. eigenvalues --    0.09889   0.11330   0.11917   0.12703   0.13042

 Mulliken charges:
               1
     1  C    0.273931
     2  C    0.822809
     3  N   -0.630394
     4  C    0.904385
     5  C    0.533269
     6  C    0.436909
     7  O   -0.462675
     8  H   -0.060378
     9  H   -0.064315
    10  H   -0.119418
    11  H   -0.218557
    12  H   -0.300169
    13  H   -0.290314
    14  H   -0.318698
    15  H   -0.387295
    16  H   -0.139631
    17  H   -0.086565
    18  H    0.107104
 Sum of Mulliken charges =  -0.00000

 Dipole moment (field-independent basis, Debye):
    X=             -2.4398    Y=              2.5550    Z=             -2.8096  Tot=              4.5137

 Test job not archived.
 1\1\GINC-SE173\SP\RHF\Aug-CC-pVDZ\C5H11N1O1\OHZDE\09-Apr-2025\0\\#t hf
  aug-cc-pvdz iop(5/13=1,5/36=2,99/5=2) pseudo=read geom=check guess=(r
 ead,tcheck) scf=(maxcycle=1)\\title\\0,1\C,0,-1.65103803,-1.30242203,0
 .05694618\C,0,-1.2094557,-0.01624816,0.72791321\N,0,0.18038634,0.27837
 615,0.41360071\C,0,0.59060337,1.64783266,0.48003717\C,0,0.40292293,0.9
 7768337,-0.84194476\C,0,1.59454031,0.58262034,-1.64608913\O,0,2.626376
 57,0.19485782,-1.17359354\H,0,-2.68001245,-1.5445784,0.32691437\H,0,-1
 .00687378,-2.12918217,0.35760545\H,0,-1.60094217,-1.21354811,-1.030767

 Normal termination of Gaussian 16 at Wed Apr  9 16:50:36 2025.
