 Gaussian 16, Revision C.01,

 ----------------------------------------------------------------------
 #t hf aug-cc-pvdz symm=none int=(grid=ultrafine) guess=(read,tcheck) s
 table=(opt,rrhf)
 ----------------------------------------------------------------------
 -----
 title
 -----
 Symbolic Z-matrix:
 Charge =  0 Multiplicity = 1

 SCF Done:  E(RHF) =  -354.620291832     A.U. after   17 cycles
 Normal termination of Gaussian 16 at Wed Apr  9 16:06:53 2025.
 Gaussian 16:  ES64L-G16RevC.01  3-Jul-2019

 ----------------------------------------------------------------------
 #t hf aug-cc-pvdz iop(5/13=1,5/36=2,99/5=2) pseudo=read geom=check gue
 ss=(read,tcheck) scf=(maxcycle=1)
 ----------------------------------------------------------------------
 -----
 title
 -----
 Structure from the checkpoint file:  "Grambow2020_wb97xd3_007775_forward_mol1.chk"
 Charge =  0 Multiplicity = 1

                         Standard orientation:
 ---------------------------------------------------------------------
 Center     Atomic      Atomic             Coordinates (Angstroms)
 Number     Number       Type             X           Y           Z
 ---------------------------------------------------------------------
      1          6           0        2.450028   -0.397005   -0.041207
      2          6           0        0.993231   -0.094560   -0.048709
      3          7           0        0.555059    1.196310   -0.063384
      4          7           0       -0.715060    1.117745    0.025159
      5          6           0       -1.214400   -0.272698    0.115680
      6          8           0       -2.349136   -0.614847   -0.195547
      7          7           0        0.039580   -0.990432    0.057488
      8          1           0        2.816890   -0.491173    0.982577
      9          1           0        2.997414    0.408101   -0.529468
     10          1           0        2.639012   -1.334966   -0.559139
     11          1           0       -1.283509    1.952154    0.086303
     12          1           0       -0.906926   -0.295119    1.294677
 ---------------------------------------------------------------------

 SCF Done:  E(RHF) =  -354.723167553     A.U. after    2 cycles

 The electronic state is 1-A.
 Alpha  occ. eigenvalues --  -20.50076 -15.78520 -15.75524 -15.70045 -11.39799
 Alpha  occ. eigenvalues --  -11.34376 -11.26700  -1.44407  -1.31315  -1.22614
 Alpha  occ. eigenvalues --   -1.10467  -1.00442  -0.89348  -0.83660  -0.77275
 Alpha  occ. eigenvalues --   -0.72009  -0.64390  -0.61126  -0.60070  -0.58328
 Alpha  occ. eigenvalues --   -0.56870  -0.55948  -0.50148  -0.45162  -0.43187
 Alpha  occ. eigenvalues --   -0.36449
 Alpha virt. eigenvalues --    0.00848   0.02751   0.02992   0.04209   0.05701
 Alpha virt. eigenvalues --    0.06744   0.08828   0.09523   0.11838   0.12670
 Alpha virt. eigenvalues --    0.13188   0.14108   0.14541   0.15053   0.15507

 Mulliken charges:
               1
     1  C    0.480231
     2  C    0.148579
     3  N   -0.345159
     4  N   -0.185423
     5  C    0.736580
     6  O   -0.563954
     7  N   -0.614261
     8  H    0.059224
     9  H   -0.036411
    10  H    0.003609
    11  H    0.019504
    12  H    0.297482
 Sum of Mulliken charges =   0.00000

 Dipole moment (field-independent basis, Debye):
    X=              4.6161    Y=              3.7295    Z=              1.2033  Tot=              6.0552

 Test job not archived.
 1\1\GINC-SE026\SP\RHF\Aug-CC-pVDZ\C3H5N3O1\OHZDE\09-Apr-2025\0\\#t hf
 aug-cc-pvdz iop(5/13=1,5/36=2,99/5=2) pseudo=read geom=check guess=(re
 ad,tcheck) scf=(maxcycle=1)\\title\\0,1\C,0,1.97886547,-0.1598871,0.12
 539102\C,0,0.49657983,-0.03173479,0.13919405\N,0,-0.29050688,-1.128041
 97,0.33196325\N,0,-1.48706658,-0.70618703,0.19968253\C,0,-1.57154085,0
 .73933955,-0.10721075\O,0,-2.556543,1.43174561,0.12060017\N,0,-0.16436
 079,1.07191779,-0.12238701\H,0,2.3399308,-0.32664822,-0.89117797\H,0,2
 .28271141,-1.00556608,0.74080162\H,0,2.4357139,0.751825,0.50461434\H,0

 Normal termination of Gaussian 16 at Wed Apr  9 16:06:58 2025.
