 Gaussian 16, Revision C.01,

 ----------------------------------------------------------------------
 #t hf aug-cc-pvdz symm=none int=(grid=ultrafine) guess=(read,tcheck) s
 table=(opt,rrhf)
 ----------------------------------------------------------------------
 -----
 title
 -----
 Symbolic Z-matrix:
 Charge =  0 Multiplicity = 1

 SCF Done:  E(RHF) =  -245.659396452     A.U. after   19 cycles
 Normal termination of Gaussian 16 at Wed Apr  9 14:20:01 2025.
 Gaussian 16:  ES64L-G16RevC.01  3-Jul-2019

 ----------------------------------------------------------------------
 #t hf aug-cc-pvdz iop(5/13=1,5/36=2,99/5=2) pseudo=read geom=check gue
 ss=(read,tcheck) scf=(maxcycle=1)
 ----------------------------------------------------------------------
 -----
 title
 -----
 Structure from the checkpoint file:  "Grambow2020_b97d3_007207_reverse_mol1.chk"
 Charge =  0 Multiplicity = 1

                         Standard orientation:
 ---------------------------------------------------------------------
 Center     Atomic      Atomic             Coordinates (Angstroms)
 Number     Number       Type             X           Y           Z
 ---------------------------------------------------------------------
      1          8           0       -1.339905   -0.800520    0.090512
      2          6           0       -1.159564    0.433822   -0.014132
      3          6           0        0.074125    1.083506   -0.151306
      4          6           0        1.279438    0.256332    0.281355
      5          7           0        1.003260   -0.968287   -0.362093
      6          1           0       -2.018589    1.116639    0.166664
      7          1           0        0.180974    2.104324   -0.514105
      8          1           0        2.125650    0.733000   -0.249801
      9          1           0        1.474620    0.271154    1.368565
     10          1           0        0.769768   -1.684910    0.343730
 ---------------------------------------------------------------------

 SCF Done:  E(RHF) =  -245.732950285     A.U. after    2 cycles

 The electronic state is 1-A.
 Alpha  occ. eigenvalues --  -20.55223 -15.72626 -11.32851 -11.31098 -11.27228
 Alpha  occ. eigenvalues --   -1.32139  -1.19420  -1.01423  -0.88982  -0.75855
 Alpha  occ. eigenvalues --   -0.70161  -0.69405  -0.62212  -0.58769  -0.56762
 Alpha  occ. eigenvalues --   -0.52107  -0.48222  -0.43108  -0.31354
 Alpha virt. eigenvalues --   -0.01143   0.02928   0.04165   0.04610   0.05961
 Alpha virt. eigenvalues --    0.06608   0.10587   0.11227   0.11447   0.12581
 Alpha virt. eigenvalues --    0.14603   0.14808   0.15308   0.15782   0.16379

 Mulliken charges:
               1
     1  O   -0.580573
     2  C    0.480664
     3  C    0.162933
     4  C    0.564631
     5  N   -0.311722
     6  H   -0.136241
     7  H   -0.350944
     8  H    0.000504
     9  H    0.007937
    10  H    0.162812
 Sum of Mulliken charges =  -0.00000

 Dipole moment (field-independent basis, Debye):
    X=              2.9674    Y=              2.3033    Z=              1.2259  Tot=              3.9514

 Test job not archived.
 1\1\GINC-SE084\SP\RHF\Aug-CC-pVDZ\C3H5N1O1\OHZDE\09-Apr-2025\0\\#t hf
 aug-cc-pvdz iop(5/13=1,5/36=2,99/5=2) pseudo=read geom=check guess=(re
 ad,tcheck) scf=(maxcycle=1)\\title\\0,1\O,0,1.27106334,0.3458046,1.369
 39658\C,0,1.38625555,-0.16782746,0.2336214\C,0,0.39378959,-0.23051255,
 -0.7532805\C,0,-1.02777616,-0.03569946,-0.2381183\N,0,-0.85788638,1.10
 025874,0.58086049\H,0,2.29296943,-0.77159753,0.0096058\H,0,0.60009174,
 -0.42449613,-1.80443146\H,0,-1.58948366,0.27882103,-1.13865994\H,0,-1.
 48876087,-0.94803421,0.18078372\H,0,-0.96938157,0.83205297,1.57176321\

 Normal termination of Gaussian 16 at Wed Apr  9 14:20:04 2025.
