 Gaussian 16, Revision C.01,

 ----------------------------------------------------------------------
 #t hf aug-cc-pvdz symm=none int=(grid=ultrafine) guess=(read,tcheck) s
 table=(opt,rrhf)
 ----------------------------------------------------------------------
 -----
 title
 -----
 Symbolic Z-matrix:
 Charge =  0 Multiplicity = 1

 SCF Done:  E(RHF) =  -302.767588379     A.U. after   16 cycles
 Normal termination of Gaussian 16 at Wed Apr  9 16:48:43 2025.
 Gaussian 16:  ES64L-G16RevC.01  3-Jul-2019

 ----------------------------------------------------------------------
 #t hf aug-cc-pvdz iop(5/13=1,5/36=2,99/5=2) pseudo=read geom=check gue
 ss=(read,tcheck) scf=(maxcycle=1)
 ----------------------------------------------------------------------
 -----
 title
 -----
 Structure from the checkpoint file:  "Grambow2020_wb97xd3_008911_forward_mol1.chk"
 Charge =  0 Multiplicity = 1

                         Standard orientation:
 ---------------------------------------------------------------------
 Center     Atomic      Atomic             Coordinates (Angstroms)
 Number     Number       Type             X           Y           Z
 ---------------------------------------------------------------------
      1          6           0        0.835463    1.588731    0.571906
      2          7           0        0.286579    0.604011   -0.383100
      3          6           0       -1.141939    0.782991   -0.553795
      4          6           0       -1.747737   -0.267833    0.029982
      5          6           0       -0.788359   -1.246799    0.499792
      6          6           0        0.430147   -0.784477    0.093941
      7          7           0        1.653672   -1.055339   -0.337081
      8          1           0        1.874966    1.331225    0.772874
      9          1           0        0.785277    2.579255    0.120641
     10          1           0        0.254056    1.576251    1.494997
     11          1           0       -1.533165    1.716668   -0.921673
     12          1           0       -2.821163   -0.380062    0.102804
     13          1           0       -1.013432   -2.241912    0.843925
     14          1           0        2.058655   -1.968940   -0.221910
     15          1           0        1.287600    0.111129   -1.001353
 ---------------------------------------------------------------------

 SCF Done:  E(RHF) =  -302.858834968     A.U. after    2 cycles

 The electronic state is 1-A.
 Alpha  occ. eigenvalues --  -15.68623 -15.58935 -11.32297 -11.28157 -11.25680
 Alpha  occ. eigenvalues --  -11.25506 -11.20762  -1.29783  -1.13490  -1.07186
 Alpha  occ. eigenvalues --   -0.94378  -0.92726  -0.80985  -0.74705  -0.71222
 Alpha  occ. eigenvalues --   -0.65747  -0.62398  -0.60785  -0.58210  -0.55949
 Alpha  occ. eigenvalues --   -0.54565  -0.50976  -0.45843  -0.42952  -0.39453
 Alpha  occ. eigenvalues --   -0.25910
 Alpha virt. eigenvalues --    0.03286   0.03921   0.04090   0.04871   0.06140
 Alpha virt. eigenvalues --    0.06542   0.07878   0.07935   0.10664   0.11771
 Alpha virt. eigenvalues --    0.12696   0.13453   0.14025   0.14537   0.14894

 Mulliken charges:
               1
     1  C    0.714821
     2  N   -0.570512
     3  C    0.534994
     4  C    0.327257
     5  C    0.637443
     6  C    0.130358
     7  N   -0.631841
     8  H   -0.196655
     9  H   -0.142899
    10  H   -0.057207
    11  H   -0.413045
    12  H   -0.342546
    13  H   -0.350011
    14  H   -0.126944
    15  H    0.486787
 Sum of Mulliken charges =  -0.00000

 Dipole moment (field-independent basis, Debye):
    X=             -0.3070    Y=              1.4481    Z=              0.2944  Tot=              1.5093

 Test job not archived.
 1\1\GINC-SE105\SP\RHF\Aug-CC-pVDZ\C5H8N2\OHZDE\09-Apr-2025\0\\#t hf au
 g-cc-pvdz iop(5/13=1,5/36=2,99/5=2) pseudo=read geom=check guess=(read
 ,tcheck) scf=(maxcycle=1)\\title\\0,1\C,0,-1.1629402,-1.10948661,0.608
 24972\N,0,-0.32734077,-0.45179136,-0.41751586\C,0,1.02117516,-0.984056
 2,-0.41177202\C,0,1.82749343,-0.02128696,0.07293711\C,0,1.11001007,1.2
 1800131,0.29403529\C,0,-0.15558608,0.99128373,-0.16431066\N,0,-1.24391
 799,1.46419093,-0.75427024\H,0,-2.11791937,-0.58748758,0.66114259\H,0,
 -1.32872509,-2.14518041,0.31303686\H,0,-0.65797509,-1.07988541,1.57490

 Normal termination of Gaussian 16 at Wed Apr  9 16:48:58 2025.
