 Gaussian 16, Revision C.01,

 ----------------------------------------------------------------------
 #t hf aug-cc-pvdz symm=none int=(grid=ultrafine) guess=(read,tcheck) s
 table=(opt,rrhf)
 ----------------------------------------------------------------------
 -----
 title
 -----
 Symbolic Z-matrix:
 Charge =  0 Multiplicity = 1

 SCF Done:  E(RHF) =  -336.226362456     A.U. after   18 cycles
 Normal termination of Gaussian 16 at Wed Apr  9 03:45:42 2025.
 Gaussian 16:  ES64L-G16RevC.01  3-Jul-2019

 ----------------------------------------------------------------------
 #t hf aug-cc-pvdz iop(5/13=1,5/36=2,99/5=2) pseudo=read geom=check gue
 ss=(read,tcheck) scf=(maxcycle=1)
 ----------------------------------------------------------------------
 -----
 title
 -----
 Structure from the checkpoint file:  "Grambow2020_wb97xd3_007924_forward_mol1.chk"
 Charge =  0 Multiplicity = 1

                         Standard orientation:
 ---------------------------------------------------------------------
 Center     Atomic      Atomic             Coordinates (Angstroms)
 Number     Number       Type             X           Y           Z
 ---------------------------------------------------------------------
      1          7           0        2.379732   -0.102911    0.482057
      2          6           0        1.297413    0.286230   -0.142505
      3          8           0        0.219269   -1.050208   -0.413289
      4          6           0        0.380123    1.221958   -0.409394
      5          6           0       -0.439197    0.076898   -0.294307
      6          6           0       -1.828635    0.025865    0.110929
      7          7           0       -2.931088   -0.011861    0.425148
      8          1           0        2.877981    0.551772    1.061025
      9          1           0        2.769139   -1.012411    0.306518
 ---------------------------------------------------------------------

 SCF Done:  E(RHF) =  -336.325989305     A.U. after    2 cycles

 The electronic state is 1-A.
 Alpha  occ. eigenvalues --  -20.63399 -15.72481 -15.67965 -11.43496 -11.42537
 Alpha  occ. eigenvalues --  -11.31445 -11.23953  -1.42890  -1.27996  -1.22552
 Alpha  occ. eigenvalues --   -1.11957  -0.96688  -0.85225  -0.79587  -0.71810
 Alpha  occ. eigenvalues --   -0.67037  -0.65944  -0.59890  -0.56064  -0.54107
 Alpha  occ. eigenvalues --   -0.50572  -0.49997  -0.40233  -0.37848
 Alpha virt. eigenvalues --    0.01357   0.02336   0.03879   0.07087   0.07701
 Alpha virt. eigenvalues --    0.09428   0.09935   0.10150   0.12039   0.12335
 Alpha virt. eigenvalues --    0.12949   0.13526   0.14346   0.15568   0.15959

 Mulliken charges:
               1
     1  N   -0.103946
     2  C    0.502933
     3  O   -0.776909
     4  C   -0.353444
     5  C    1.474522
     6  C   -0.822565
     7  N   -0.029966
     8  H    0.042820
     9  H    0.066556
 Sum of Mulliken charges =  -0.00000

 Dipole moment (field-independent basis, Debye):
    X=              6.1972    Y=             -1.4593    Z=              1.3826  Tot=              6.5151

 Test job not archived.
 1\1\GINC-SE332\SP\RHF\Aug-CC-pVDZ\C4H2N2O1\OHZDE\09-Apr-2025\0\\#t hf
 aug-cc-pvdz iop(5/13=1,5/36=2,99/5=2) pseudo=read geom=check guess=(re
 ad,tcheck) scf=(maxcycle=1)\\title\\0,1\N,0,-1.86817382,0.21705102,0.3
 3042013\C,0,-0.68746976,0.47923715,0.83053976\O,0,0.11450025,-0.978852
 57,1.3331349\C,0,0.41697304,1.23187265,0.87506336\C,0,0.97716034,-0.06
 159008,0.96906301\C,0,2.29472596,-0.48343602,0.54078193\N,0,3.34123753
 ,-0.81410024,0.20756408\H,0,-2.26390594,0.83961527,-0.35359423\H,0,-2.
 4199496,-0.53809017,0.69777305\\Version=ES64L-G16RevC.01\State=1-A\HF=

 Normal termination of Gaussian 16 at Wed Apr  9 03:45:44 2025.
