 Gaussian 16, Revision C.01,

 ----------------------------------------------------------------------
 #t hf aug-cc-pvdz symm=none int=(grid=ultrafine) guess=(read,tcheck) s
 table=(opt,rrhf)
 ----------------------------------------------------------------------
 -----
 title
 -----
 Symbolic Z-matrix:
 Charge =  0 Multiplicity = 1

 SCF Done:  E(RHF) =  -302.809949267     A.U. after   16 cycles
 Normal termination of Gaussian 16 at Wed Apr  9 15:33:07 2025.
 Gaussian 16:  ES64L-G16RevC.01  3-Jul-2019

 ----------------------------------------------------------------------
 #t hf aug-cc-pvdz iop(5/13=1,5/36=2,99/5=2) pseudo=read geom=check gue
 ss=(read,tcheck) scf=(maxcycle=1)
 ----------------------------------------------------------------------
 -----
 title
 -----
 Structure from the checkpoint file:  "Grambow2020_wb97xd3_006964_reverse_mol1.chk"
 Charge =  0 Multiplicity = 1

                         Standard orientation:
 ---------------------------------------------------------------------
 Center     Atomic      Atomic             Coordinates (Angstroms)
 Number     Number       Type             X           Y           Z
 ---------------------------------------------------------------------
      1          6           0        1.174700    1.450282    0.350199
      2          6           0        0.936068    0.001438    0.131951
      3          6           0        1.502649   -0.637205   -1.090389
      4          7           0        0.293707   -0.714144    1.068296
      5          6           0       -0.852805   -1.054829    0.322637
      6          6           0       -1.670000   -0.025479   -0.174677
      7          7           0       -2.323772    0.848143   -0.565576
      8          1           0        2.048965    1.814341   -0.188018
      9          1           0        1.260130    1.681667    1.414877
     10          1           0        0.294166    1.989161   -0.025654
     11          1           0        2.580885   -0.439540   -1.122587
     12          1           0        1.321121   -1.709130   -1.096193
     13          1           0        1.073428   -0.205490   -1.997560
     14          1           0        0.243775   -0.386892    2.025548
     15          1           0       -1.155674   -2.087349    0.232223
 ---------------------------------------------------------------------

 SCF Done:  E(RHF) =  -302.900668807     A.U. after    2 cycles

 The electronic state is 1-A.
 Alpha  occ. eigenvalues --  -15.68614 -15.58551 -11.37358 -11.27300 -11.26772
 Alpha  occ. eigenvalues --  -11.26002 -11.25201  -1.28317  -1.14691  -1.07266
 Alpha  occ. eigenvalues --   -0.99407  -0.93384  -0.82317  -0.73516  -0.69214
 Alpha  occ. eigenvalues --   -0.66546  -0.62767  -0.60954  -0.58273  -0.57753
 Alpha  occ. eigenvalues --   -0.55609  -0.50795  -0.47289  -0.43935  -0.42518
 Alpha  occ. eigenvalues --   -0.28123
 Alpha virt. eigenvalues --    0.02195   0.03422   0.03804   0.05073   0.05639
 Alpha virt. eigenvalues --    0.06418   0.06972   0.07596   0.08129   0.09901
 Alpha virt. eigenvalues --    0.10770   0.12992   0.13282   0.13926   0.14214

 Mulliken charges:
               1
     1  C    0.555588
     2  C   -0.321777
     3  C    0.334516
     4  N   -0.555789
     5  C    1.155930
     6  C   -0.600305
     7  N   -0.255835
     8  H   -0.045092
     9  H   -0.013095
    10  H    0.070041
    11  H    0.025538
    12  H   -0.070452
    13  H    0.071354
    14  H   -0.036182
    15  H   -0.314439
 Sum of Mulliken charges =  -0.00000

 Dipole moment (field-independent basis, Debye):
    X=              6.3996    Y=             -0.6697    Z=              1.6599  Tot=              6.6452

 Test job not archived.
 1\1\GINC-SE226\SP\RHF\Aug-CC-pVDZ\C5H8N2\OHZDE\09-Apr-2025\0\\#t hf au
 g-cc-pvdz iop(5/13=1,5/36=2,99/5=2) pseudo=read geom=check guess=(read
 ,tcheck) scf=(maxcycle=1)\\title\\0,1\C,0,-0.78236997,1.37649716,-0.42
 2004\C,0,-0.44311595,-0.05931102,-0.25742012\C,0,-1.11843111,-0.830874
 77,0.82499946\N,0,0.39235797,-0.64812857,-1.12730714\C,0,1.44556788,-0
 .94512166,-0.23899016\C,0,2.08194795,0.10997355,0.43664694\N,0,2.58737
 438,1.00438908,0.97330258\H,0,-1.75563041,1.62565046,-0.00100058\H,0,-
 0.73394819,1.67714593,-1.47159479\H,0,-0.02002312,1.95835793,0.1139639

 Normal termination of Gaussian 16 at Wed Apr  9 15:33:12 2025.
