 Gaussian 16, Revision C.01,

 ----------------------------------------------------------------------
 #t hf aug-cc-pvdz symm=none int=(grid=ultrafine) guess=(read,tcheck) s
 table=(opt,rrhf)
 ----------------------------------------------------------------------
 -----
 title
 -----
 Symbolic Z-matrix:
 Charge =  0 Multiplicity = 1

 SCF Done:  E(RHF) =  -357.239779459     A.U. after   17 cycles
 Normal termination of Gaussian 16 at Wed Apr  9 03:58:21 2025.
 Gaussian 16:  ES64L-G16RevC.01  3-Jul-2019

 ----------------------------------------------------------------------
 #t hf aug-cc-pvdz iop(5/13=1,5/36=2,99/5=2) pseudo=read geom=check gue
 ss=(read,tcheck) scf=(maxcycle=1)
 ----------------------------------------------------------------------
 -----
 title
 -----
 Structure from the checkpoint file:  "Grambow2020_wb97xd3_008755_forward_mol1.chk"
 Charge =  0 Multiplicity = 1

                         Standard orientation:
 ---------------------------------------------------------------------
 Center     Atomic      Atomic             Coordinates (Angstroms)
 Number     Number       Type             X           Y           Z
 ---------------------------------------------------------------------
      1          8           0       -2.586521    0.428942    0.012590
      2          6           0       -1.731586   -0.407963   -0.001097
      3          6           0       -0.275144   -0.098003   -0.014347
      4          7           0        0.545032   -1.111318    0.006255
      5          8           0        1.796545   -0.654628   -0.007393
      6          6           0        1.706666    0.748545   -0.012220
      7          6           0        0.371476    1.208755   -0.110805
      8          1           0       -1.962285   -1.490027   -0.000345
      9          1           0        2.628180    1.234162   -0.305844
     10          1           0        1.410222    1.132577    1.051647
 ---------------------------------------------------------------------

 SCF Done:  E(RHF) =  -357.345620664     A.U. after    2 cycles

 The electronic state is 1-A.
 Alpha  occ. eigenvalues --  -20.69612 -20.59426 -15.76948 -11.36725 -11.35919
 Alpha  occ. eigenvalues --  -11.31901 -11.29751  -1.50745  -1.38607  -1.19183
 Alpha  occ. eigenvalues --   -1.12747  -0.93437  -0.85976  -0.81987  -0.75401
 Alpha  occ. eigenvalues --   -0.73784  -0.69135  -0.65314  -0.61999  -0.57879
 Alpha  occ. eigenvalues --   -0.54114  -0.52469  -0.46410  -0.45048  -0.41571
 Alpha virt. eigenvalues --    0.02525   0.03292   0.04146   0.04771   0.07563
 Alpha virt. eigenvalues --    0.08090   0.08705   0.09850   0.11135   0.11832
 Alpha virt. eigenvalues --    0.12514   0.13993   0.14268   0.14700   0.16056

 Mulliken charges:
               1
     1  O   -0.440428
     2  C    0.847733
     3  C    0.152451
     4  N   -0.177602
     5  O   -0.591237
     6  C    0.852563
     7  C   -0.711948
     8  H   -0.119190
     9  H   -0.143268
    10  H    0.330927
 Sum of Mulliken charges =  -0.00000

 Dipole moment (field-independent basis, Debye):
    X=              3.4266    Y=             -1.1558    Z=              0.4516  Tot=              3.6444

 Test job not archived.
 1\1\GINC-SE402\SP\RHF\Aug-CC-pVDZ\C4H3N1O2\OHZDE\09-Apr-2025\0\\#t hf
 aug-cc-pvdz iop(5/13=1,5/36=2,99/5=2) pseudo=read geom=check guess=(re
 ad,tcheck) scf=(maxcycle=1)\\title\\0,1\O,0,-2.3741847,0.98137925,-1.0
 9380044\C,0,-1.69937258,-0.00414139,-1.0238765\C,0,-0.38670028,-0.0559
 9167,-0.32267864\N,0,0.22441531,-1.20741563,-0.2966043\O,0,1.37185969,
 -1.0727015,0.36691556\C,0,1.43104484,0.26724056,0.78887129\C,0,0.35186
 845,1.04121156,0.2983695\H,0,-2.00654487,-0.96540007,-1.47742994\H,0,2
 .42414682,0.57729199,1.08693583\H,0,0.70649531,0.43322191,1.69145163\\

 Normal termination of Gaussian 16 at Wed Apr  9 03:58:25 2025.
