 Gaussian 16, Revision C.01,

 ----------------------------------------------------------------------
 #t hf aug-cc-pvdz symm=none int=(grid=ultrafine) guess=(read,tcheck) s
 table=(opt,rrhf)
 ----------------------------------------------------------------------
 -----
 title
 -----
 Symbolic Z-matrix:
 Charge =  0 Multiplicity = 1

 SCF Done:  E(RHF) =  -318.774588376     A.U. after   15 cycles
 Normal termination of Gaussian 16 at Wed Apr  9 15:28:58 2025.
 Gaussian 16:  ES64L-G16RevC.01  3-Jul-2019

 ----------------------------------------------------------------------
 #t hf aug-cc-pvdz iop(5/13=1,5/36=2,99/5=2) pseudo=read geom=check gue
 ss=(read,tcheck) scf=(maxcycle=1)
 ----------------------------------------------------------------------
 -----
 title
 -----
 Structure from the checkpoint file:  "Grambow2020_wb97xd3_006926_reverse_mol1.chk"
 Charge =  0 Multiplicity = 1

                         Standard orientation:
 ---------------------------------------------------------------------
 Center     Atomic      Atomic             Coordinates (Angstroms)
 Number     Number       Type             X           Y           Z
 ---------------------------------------------------------------------
      1          7           0       -2.453674   -0.485434    0.014705
      2          6           0       -1.068626   -0.239978   -0.012111
      3          6           0       -0.009484   -1.096221    0.071903
      4          6           0        1.109961   -0.171504    0.099791
      5          7           0        2.470622   -0.502145   -0.059622
      6          6           0        0.636937    1.202082    0.011421
      7          7           0       -0.693646    1.110779   -0.058395
      8          1           0       -2.899911   -0.284736   -0.871187
      9          1           0       -2.596985   -1.462013    0.229158
     10          1           0        0.965024    0.386767    1.185800
     11          1           0        2.840192   -0.171288   -0.938073
     12          1           0        2.557956   -1.508270   -0.019437
     13          1           0        1.183118    2.133419    0.001505
     14          1           0       -1.325236    1.877449    0.109394
 ---------------------------------------------------------------------

 SCF Done:  E(RHF) =  -318.867175150     A.U. after    2 cycles

 The electronic state is 1-A.
 Alpha  occ. eigenvalues --  -15.69444 -15.62435 -15.61463 -11.33917 -11.30706
 Alpha  occ. eigenvalues --  -11.28477 -11.15952  -1.30450  -1.18483  -1.15061
 Alpha  occ. eigenvalues --   -1.02800  -0.96593  -0.79960  -0.77351  -0.74768
 Alpha  occ. eigenvalues --   -0.67602  -0.67374  -0.64980  -0.60089  -0.58298
 Alpha  occ. eigenvalues --   -0.56316  -0.48058  -0.44764  -0.37914  -0.30625
 Alpha  occ. eigenvalues --   -0.28949
 Alpha virt. eigenvalues --    0.02050   0.03575   0.04072   0.05061   0.06081
 Alpha virt. eigenvalues --    0.07454   0.07613   0.09142   0.11280   0.12477
 Alpha virt. eigenvalues --    0.12871   0.13453   0.13722   0.14722   0.15429

 Mulliken charges:
               1
     1  N   -0.352662
     2  C    0.744037
     3  C   -0.274644
     4  C    0.355111
     5  N   -0.418522
     6  C    0.209427
     7  N   -0.427165
     8  H   -0.009871
     9  H    0.052027
    10  H    0.413650
    11  H   -0.003212
    12  H    0.055478
    13  H   -0.249183
    14  H   -0.094472
 Sum of Mulliken charges =  -0.00000

 Dipole moment (field-independent basis, Debye):
    X=              0.2754    Y=              4.9446    Z=             -1.5136  Tot=              5.1784

 Test job not archived.
 1\1\GINC-SE113\SP\RHF\Aug-CC-pVDZ\C4H7N3\OHZDE\09-Apr-2025\0\\#t hf au
 g-cc-pvdz iop(5/13=1,5/36=2,99/5=2) pseudo=read geom=check guess=(read
 ,tcheck) scf=(maxcycle=1)\\title\\0,1\N,0,-2.52546844,-0.40756145,-0.0
 8388577\C,0,-1.12988898,-0.23419715,-0.04353153\C,0,-0.12413986,-1.137
 38607,0.14278114\C,0,1.03990366,-0.27027208,0.1891736\N,0,2.38762904,-
 0.67714738,0.12418641\C,0,0.64643014,1.11902708,0.00661979\N,0,-0.6813
 4413,1.091632,-0.13454447\H,0,-2.91139978,-0.2308737,-1.00260726\H,0,-
 2.73220242,-1.36317278,0.16969394\H,0,0.86600863,0.35031236,1.23641994

 Normal termination of Gaussian 16 at Wed Apr  9 15:29:03 2025.
