 Gaussian 16, Revision C.01,

 ----------------------------------------------------------------------
 #t hf aug-cc-pvdz symm=none int=(grid=ultrafine) guess=(read,tcheck) s
 table=(opt,rrhf)
 ----------------------------------------------------------------------
 -----
 title
 -----
 Symbolic Z-matrix:
 Charge =  0 Multiplicity = 1

 SCF Done:  E(RHF) =  -317.699792218     A.U. after   16 cycles
 Normal termination of Gaussian 16 at Wed Apr  9 03:46:46 2025.
 Gaussian 16:  ES64L-G16RevC.01  3-Jul-2019

 ----------------------------------------------------------------------
 #t hf aug-cc-pvdz iop(5/13=1,5/36=2,99/5=2) pseudo=read geom=check gue
 ss=(read,tcheck) scf=(maxcycle=1)
 ----------------------------------------------------------------------
 -----
 title
 -----
 Structure from the checkpoint file:  "Grambow2020_wb97xd3_007980_reverse_mol2.chk"
 Charge =  0 Multiplicity = 1

                         Standard orientation:
 ---------------------------------------------------------------------
 Center     Atomic      Atomic             Coordinates (Angstroms)
 Number     Number       Type             X           Y           Z
 ---------------------------------------------------------------------
      1          7           0        2.380287   -0.259061   -0.003521
      2          6           0        0.224453    0.279154   -0.002209
      3          7           0        1.460166    0.663013   -0.000407
      4          6           0       -0.919486    1.164170   -0.000013
      5          6           0       -2.001048    0.355412    0.001600
      6          6           0       -1.479662   -1.001867    0.000094
      7          7           0       -0.183843   -1.056069   -0.001730
      8          1           0        2.119964   -1.235941    0.013618
      9          1           0        3.332867    0.046367    0.021909
     10          1           0       -0.872964    2.242422    0.000630
     11          1           0       -3.043402    0.636876    0.004196
     12          1           0       -2.078274   -1.906111    0.002421
 ---------------------------------------------------------------------

 SCF Done:  E(RHF) =  -317.791598123     A.U. after    2 cycles

 The electronic state is 1-A.
 Alpha  occ. eigenvalues --  -15.70544 -15.67611 -15.61598 -11.29018 -11.28561
 Alpha  occ. eigenvalues --  -11.25654 -11.24045  -1.32519  -1.23861  -1.06506
 Alpha  occ. eigenvalues --   -1.03297  -0.90217  -0.79011  -0.77912  -0.73544
 Alpha  occ. eigenvalues --   -0.69455  -0.63158  -0.59549  -0.57315  -0.55248
 Alpha  occ. eigenvalues --   -0.50560  -0.47920  -0.42455  -0.35235  -0.31417
 Alpha virt. eigenvalues --    0.03468   0.03532   0.04057   0.04957   0.05929
 Alpha virt. eigenvalues --    0.06685   0.09750   0.11448   0.12452   0.13412
 Alpha virt. eigenvalues --    0.13942   0.14656   0.14667   0.15334   0.15534

 Mulliken charges:
               1
     1  N    0.158379
     2  C    0.421300
     3  N   -0.372704
     4  C    0.399068
     5  C    0.477520
     6  C    0.236164
     7  N   -0.473593
     8  H    0.052660
     9  H    0.000454
    10  H   -0.345514
    11  H   -0.289164
    12  H   -0.264569
 Sum of Mulliken charges =  -0.00000

 Dipole moment (field-independent basis, Debye):
    X=              0.4731    Y=             -0.0958    Z=              0.0705  Tot=              0.4879

 Test job not archived.
 1\1\GINC-SE335\SP\RHF\Aug-CC-pVDZ\C4H5N3\OHZDE\09-Apr-2025\0\\#t hf au
 g-cc-pvdz iop(5/13=1,5/36=2,99/5=2) pseudo=read geom=check guess=(read
 ,tcheck) scf=(maxcycle=1)\\title\\0,1\N,0,2.41834189,-0.6122859,-0.184
 07363\C,0,0.21831154,-0.37163203,0.01404883\N,0,1.24562458,-1.15728677
 ,-0.02735159\C,0,-1.15136798,-0.80464985,0.18235935\C,0,-1.89140612,0.
 32490301,0.16442301\C,0,-0.94540092,1.41441741,-0.01470052\N,0,0.28626
 766,1.01798754,-0.10370586\H,0,2.5023535,0.38981434,-0.28939691\H,0,3.
 20469067,-1.22872774,-0.23880946\H,0,-1.47148861,-1.82916315,0.2949985

 Normal termination of Gaussian 16 at Wed Apr  9 03:46:50 2025.
