 Gaussian 16, Revision C.01,

 ----------------------------------------------------------------------
 #t hf aug-cc-pvdz symm=none int=(grid=ultrafine) guess=(read,tcheck) s
 table=(opt,rrhf)
 ----------------------------------------------------------------------
 -----
 title
 -----
 Symbolic Z-matrix:
 Charge =  0 Multiplicity = 1

 SCF Done:  E(RHF) =  -286.706335928     A.U. after   15 cycles
 Normal termination of Gaussian 16 at Wed Apr  9 16:34:15 2025.
 Gaussian 16:  ES64L-G16RevC.01  3-Jul-2019

 ----------------------------------------------------------------------
 #t hf aug-cc-pvdz iop(5/13=1,5/36=2,99/5=2) pseudo=read geom=check gue
 ss=(read,tcheck) scf=(maxcycle=1)
 ----------------------------------------------------------------------
 -----
 title
 -----
 Structure from the checkpoint file:  "Grambow2020_wb97xd3_008596_reverse_mol1.chk"
 Charge =  0 Multiplicity = 1

                         Standard orientation:
 ---------------------------------------------------------------------
 Center     Atomic      Atomic             Coordinates (Angstroms)
 Number     Number       Type             X           Y           Z
 ---------------------------------------------------------------------
      1          6           0       -1.729145    0.271508    0.160668
      2          6           0       -0.827009    0.299682   -1.013620
      3          6           0        0.594477    0.767276   -0.683287
      4          6           0        1.349462   -0.587746   -0.554454
      5          6           0        0.522720   -0.667256    0.750686
      6          6           0        0.757207    0.849980    0.851917
      7          7           0       -0.856409   -0.911754    0.251609
      8          1           0       -2.766426    0.000097   -0.009760
      9          1           0       -1.615710    0.970492    0.976370
     10          1           0       -0.833819   -1.075512   -0.909366
     11          1           0        0.963930    1.547483   -1.345372
     12          1           0        1.158249   -1.347922   -1.313685
     13          1           0        2.419320   -0.478173   -0.379687
     14          1           0        0.765472   -1.354742    1.558841
     15          1           0        0.106557    1.476459    1.457643
     16          1           0        1.791022    1.043437    1.132294
 ---------------------------------------------------------------------

 SCF Done:  E(RHF) =  -286.786413606     A.U. after    2 cycles

 The electronic state is 1-A.
 Alpha  occ. eigenvalues --  -15.66525 -11.28636 -11.26958 -11.25014 -11.24712
 Alpha  occ. eigenvalues --  -11.24484 -11.23983  -1.28076  -1.11562  -0.97363
 Alpha  occ. eigenvalues --   -0.92279  -0.85693  -0.78002  -0.74858  -0.69294
 Alpha  occ. eigenvalues --   -0.68422  -0.63393  -0.55624  -0.53807  -0.52966
 Alpha  occ. eigenvalues --   -0.51159  -0.48831  -0.46419  -0.46044  -0.39599
 Alpha  occ. eigenvalues --   -0.32376
 Alpha virt. eigenvalues --    0.03121   0.03993   0.04163   0.04598   0.06321
 Alpha virt. eigenvalues --    0.06612   0.06749   0.09042   0.09205   0.09692
 Alpha virt. eigenvalues --    0.10970   0.12668   0.12890   0.13489   0.14490

 Mulliken charges:
               1
     1  C    1.162173
     2  C   -0.871172
     3  C    0.445497
     4  C    0.526268
     5  C    0.789445
     6  C    0.730931
     7  N   -1.034952
     8  H   -0.268354
     9  H   -0.258883
    10  H    0.464497
    11  H   -0.299736
    12  H   -0.152530
    13  H   -0.352302
    14  H   -0.332148
    15  H   -0.244686
    16  H   -0.304048
 Sum of Mulliken charges =  -0.00000

 Dipole moment (field-independent basis, Debye):
    X=              1.3952    Y=              0.5820    Z=              1.8616  Tot=              2.3981

 Test job not archived.
 1\1\GINC-SE129\SP\RHF\Aug-CC-pVDZ\C6H9N1\OHZDE\09-Apr-2025\0\\#t hf au
 g-cc-pvdz iop(5/13=1,5/36=2,99/5=2) pseudo=read geom=check guess=(read
 ,tcheck) scf=(maxcycle=1)\\title\\0,1\C,0,1.68929916,0.74714125,0.0795
 979\C,0,1.13156936,-0.44215287,0.76378638\C,0,-0.38023358,-0.36009246,
 1.00064728\C,0,-0.93107675,-1.19942843,-0.18879577\C,0,-0.4717445,0.04
 410434,-0.98619945\C,0,-0.9488423,0.85452503,0.23151653\N,0,1.01036526
 ,-0.06707014,-0.94321934\H,0,2.76359194,0.78020108,-0.0735774\H,0,1.26
 343638,1.72997645,0.21921154\H,0,1.31661789,-1.08276637,-0.44345988\H,

 Normal termination of Gaussian 16 at Wed Apr  9 16:34:21 2025.
