 Gaussian 16, Revision C.01,

 ----------------------------------------------------------------------
 #t hf aug-cc-pvdz symm=none int=(grid=ultrafine) guess=(read,tcheck) s
 table=(opt,rrhf)
 ----------------------------------------------------------------------
 -----
 title
 -----
 Symbolic Z-matrix:
 Charge =  0 Multiplicity = 1

 SCF Done:  E(RHF) =  -358.475878166     A.U. after   16 cycles
 Normal termination of Gaussian 16 at Wed Apr  9 17:07:15 2025.
 Gaussian 16:  ES64L-G16RevC.01  3-Jul-2019

 ----------------------------------------------------------------------
 #t hf aug-cc-pvdz iop(5/13=1,5/36=2,99/5=2) pseudo=read geom=check gue
 ss=(read,tcheck) scf=(maxcycle=1)
 ----------------------------------------------------------------------
 -----
 title
 -----
 Structure from the checkpoint file:  "Grambow2020_wb97xd3_009146_reverse_mol1.chk"
 Charge =  0 Multiplicity = 1

                         Standard orientation:
 ---------------------------------------------------------------------
 Center     Atomic      Atomic             Coordinates (Angstroms)
 Number     Number       Type             X           Y           Z
 ---------------------------------------------------------------------
      1          6           0        2.435566   -0.456554    0.143091
      2          6           0        1.029191   -0.034264   -0.129769
      3          6           0        0.458053    1.218080   -0.025536
      4          8           0       -0.839728    1.138351    0.032941
      5          6           0       -1.213343   -0.297173    0.022518
      6          8           0       -2.364526   -0.585308    0.091733
      7          7           0       -0.070490   -1.012281   -0.076884
      8          1           0        2.546203   -0.716883    1.196666
      9          1           0        2.697146   -1.333433   -0.447225
     10          1           0        3.132160    0.347223   -0.095858
     11          1           0        0.919678    2.195529   -0.004430
     12          1           0        0.575464   -0.411351   -1.170193
 ---------------------------------------------------------------------

 SCF Done:  E(RHF) =  -358.586390500     A.U. after    2 cycles

 The electronic state is 1-A.
 Alpha  occ. eigenvalues --  -20.67286 -20.54362 -15.65272 -11.41523 -11.38626
 Alpha  occ. eigenvalues --  -11.31955 -11.27483  -1.47285  -1.35347  -1.23390
 Alpha  occ. eigenvalues --   -1.07049  -0.98184  -0.86468  -0.83050  -0.75265
 Alpha  occ. eigenvalues --   -0.71968  -0.66071  -0.64800  -0.62340  -0.59983
 Alpha  occ. eigenvalues --   -0.57926  -0.56010  -0.53255  -0.47648  -0.47079
 Alpha  occ. eigenvalues --   -0.33382
 Alpha virt. eigenvalues --    0.01680   0.03245   0.03855   0.04201   0.05865
 Alpha virt. eigenvalues --    0.06805   0.09039   0.09799   0.10966   0.11694
 Alpha virt. eigenvalues --    0.12959   0.13289   0.13967   0.14265   0.14540

 Mulliken charges:
               1
     1  C    0.522653
     2  C   -0.056724
     3  C    0.755887
     4  O   -0.580021
     5  C    0.544306
     6  O   -0.428968
     7  N   -0.964978
     8  H    0.088998
     9  H   -0.015202
    10  H    0.010016
    11  H   -0.270549
    12  H    0.394584
 Sum of Mulliken charges =  -0.00000

 Dipole moment (field-independent basis, Debye):
    X=              6.8070    Y=              3.0730    Z=             -0.7790  Tot=              7.5090

 Test job not archived.
 1\1\GINC-SE226\SP\RHF\Aug-CC-pVDZ\C4H5N1O2\OHZDE\09-Apr-2025\0\\#t hf
 aug-cc-pvdz iop(5/13=1,5/36=2,99/5=2) pseudo=read geom=check guess=(re
 ad,tcheck) scf=(maxcycle=1)\\title\\0,1\C,0,-1.40479807,-0.48411612,-0
 .89880126\C,0,-0.26859647,-0.05689506,-0.02862865\C,0,0.19616981,1.215
 21972,0.23810456\O,0,1.40739539,1.18201744,0.71333105\C,0,1.85495821,-
 0.23208914,0.73366568\O,0,2.95334259,-0.47506662,1.11778707\N,0,0.8299
 686,-0.98774256,0.28006185\H,0,-1.05663633,-0.61594339,-1.92419736\H,0
 ,-1.81477288,-1.4344019,-0.56014058\H,0,-2.19860396,0.26300528,-0.8899

 Normal termination of Gaussian 16 at Wed Apr  9 17:07:21 2025.
