 Gaussian 16, Revision C.01,

 ----------------------------------------------------------------------
 #t hf aug-cc-pvdz symm=none int=(grid=ultrafine) guess=(read,tcheck) s
 table=(opt,rrhf)
 ----------------------------------------------------------------------
 -----
 title
 -----
 Symbolic Z-matrix:
 Charge =  0 Multiplicity = 1

 SCF Done:  E(RHF) =  -271.783375863     A.U. after   15 cycles
 Normal termination of Gaussian 16 at Wed Apr  9 15:53:29 2025.
 Gaussian 16:  ES64L-G16RevC.01  3-Jul-2019

 ----------------------------------------------------------------------
 #t hf aug-cc-pvdz iop(5/13=1,5/36=2,99/5=2) pseudo=read geom=check gue
 ss=(read,tcheck) scf=(maxcycle=1)
 ----------------------------------------------------------------------
 -----
 title
 -----
 Structure from the checkpoint file:  "Grambow2020_wb97xd3_007434_reverse_mol1.chk"
 Charge =  0 Multiplicity = 1

                         Standard orientation:
 ---------------------------------------------------------------------
 Center     Atomic      Atomic             Coordinates (Angstroms)
 Number     Number       Type             X           Y           Z
 ---------------------------------------------------------------------
      1          6           0        2.306576   -0.619505   -0.310151
      2          6           0        0.977415    1.407513    0.266870
      3          6           0       -0.381132    1.110302    0.392450
      4          6           0       -1.198308    0.745642   -0.854814
      5          6           0       -1.449821   -0.675641   -0.382546
      6          6           0       -0.222158   -1.407914    0.065884
      7          6           0       -0.810581   -0.548017    0.978743
      8          1           0        2.908717   -0.082076    0.412739
      9          1           0        2.511850   -0.270449   -1.319097
     10          1           0        2.542384   -1.683584   -0.239355
     11          1           0        1.538258    1.780478    1.115785
     12          1           0        1.424994    1.537857   -0.704521
     13          1           0       -0.913058    1.670578    1.157196
     14          1           0       -0.655114    0.853120   -1.797265
     15          1           0       -2.118228    1.329944   -0.918868
     16          1           0       -2.368941   -1.213078   -0.594245
     17          1           0       -0.091256   -2.475766    0.139451
     18          1           0        1.013605   -0.861174   -0.195578
     19          1           0       -1.125161   -0.660126    2.005137
 ---------------------------------------------------------------------

 SCF Done:  E(RHF) =  -271.868476073     A.U. after    2 cycles

 The electronic state is 1-A.
 Alpha  occ. eigenvalues --  -11.25383 -11.25049 -11.24685 -11.24338 -11.22839
 Alpha  occ. eigenvalues --  -11.22397 -11.21521  -1.17667  -1.03151  -0.95023
 Alpha  occ. eigenvalues --   -0.91034  -0.81701  -0.76995  -0.72822  -0.69118
 Alpha  occ. eigenvalues --   -0.62566  -0.60766  -0.59922  -0.55507  -0.54538
 Alpha  occ. eigenvalues --   -0.53098  -0.51971  -0.46806  -0.43364  -0.41376
 Alpha  occ. eigenvalues --   -0.37362  -0.25184
 Alpha virt. eigenvalues --    0.03133   0.04163   0.04369   0.04425   0.04941
 Alpha virt. eigenvalues --    0.06116   0.06313   0.06758   0.07197   0.08073
 Alpha virt. eigenvalues --    0.08981   0.09270   0.10820   0.11627   0.12794

 Mulliken charges:
               1
     1  C    0.414959
     2  C    0.582058
     3  C    0.227018
     4  C    0.496297
     5  C    0.347197
     6  C    0.440899
     7  C    0.372926
     8  H   -0.027785
     9  H    0.042114
    10  H   -0.187898
    11  H   -0.363628
    12  H   -0.192110
    13  H   -0.203786
    14  H   -0.183311
    15  H   -0.147177
    16  H   -0.407059
    17  H   -0.508763
    18  H   -0.253788
    19  H   -0.448163
 Sum of Mulliken charges =  -0.00000

 Dipole moment (field-independent basis, Debye):
    X=             -0.5830    Y=              0.4590    Z=              0.6465  Tot=              0.9842

 Test job not archived.
 1\1\GINC-SE041\SP\RHF\Aug-CC-pVDZ\C7H12\OHZDE\09-Apr-2025\0\\#t hf aug
 -cc-pvdz iop(5/13=1,5/36=2,99/5=2) pseudo=read geom=check guess=(read,
 tcheck) scf=(maxcycle=1)\\title\\0,1\C,0,1.02934698,0.43018377,-1.9158
 3261\C,0,1.42407258,-0.76351034,0.23537796\C,0,0.28086406,-0.76537843,
 1.03714192\C,0,-0.20034162,0.54361913,1.6785372\C,0,-1.48660841,0.5691
 3736,0.87156291\C,0,-1.30011909,0.36980047,-0.60151399\C,0,-1.31922967
 ,-0.76700971,0.18986007\H,0,1.62277301,-0.43762178,-2.17800039\H,0,1.6
 6810495,1.26501449,-1.63835355\H,0,0.42009763,0.71039063,-2.77791276\H

 Normal termination of Gaussian 16 at Wed Apr  9 15:53:37 2025.
