 Gaussian 16, Revision C.01,

 ----------------------------------------------------------------------
 #t hf aug-cc-pvdz symm=none int=(grid=ultrafine) guess=(read,tcheck) s
 table=(opt,rrhf)
 ----------------------------------------------------------------------
 -----
 title
 -----
 Symbolic Z-matrix:
 Charge =  0 Multiplicity = 1

 SCF Done:  E(RHF) =  -323.699706519     A.U. after   15 cycles
 Normal termination of Gaussian 16 at Wed Apr  9 15:58:09 2025.
 Gaussian 16:  ES64L-G16RevC.01  3-Jul-2019

 ----------------------------------------------------------------------
 #t hf aug-cc-pvdz iop(5/13=1,5/36=2,99/5=2) pseudo=read geom=check gue
 ss=(read,tcheck) scf=(maxcycle=1)
 ----------------------------------------------------------------------
 -----
 title
 -----
 Structure from the checkpoint file:  "Grambow2020_wb97xd3_007621_forward_mol1.chk"
 Charge =  0 Multiplicity = 1

                         Standard orientation:
 ---------------------------------------------------------------------
 Center     Atomic      Atomic             Coordinates (Angstroms)
 Number     Number       Type             X           Y           Z
 ---------------------------------------------------------------------
      1          6           0       -2.529655   -0.245611   -0.599413
      2          6           0       -0.944257    0.891430   -0.495953
      3          7           0       -1.460093   -0.170007    0.822152
      4          6           0       -0.107129    0.231325    0.510988
      5          6           0        0.819522   -0.883644    0.102717
      6          6           0        2.191382   -0.399235   -0.276298
      7          8           0        2.589614    0.721865   -0.115352
      8          1           0       -2.167809   -1.074187   -1.193815
      9          1           0       -3.339972   -0.591537    0.053006
     10          1           0       -2.948746    0.522721   -1.248303
     11          1           0       -1.255622    1.879945   -0.137655
     12          1           0       -1.868479    0.451877    1.511051
     13          1           0        0.300478    0.880385    1.281152
     14          1           0        0.403012   -1.434535   -0.745683
     15          1           0        0.945128   -1.613696    0.912260
     16          1           0        2.856570   -1.171429   -0.716512
 ---------------------------------------------------------------------

 SCF Done:  E(RHF) =  -323.797375652     A.U. after    2 cycles

 The electronic state is 1-A.
 Alpha  occ. eigenvalues --  -20.57218 -15.67051 -11.34420 -11.30267 -11.27325
 Alpha  occ. eigenvalues --  -11.24861 -11.23964  -1.36402  -1.23296  -1.03734
 Alpha  occ. eigenvalues --   -0.95150  -0.89952  -0.82084  -0.74455  -0.72072
 Alpha  occ. eigenvalues --   -0.67842  -0.63344  -0.61567  -0.60134  -0.57834
 Alpha  occ. eigenvalues --   -0.56156  -0.53209  -0.50343  -0.49007  -0.43778
 Alpha  occ. eigenvalues --   -0.40243  -0.31007
 Alpha virt. eigenvalues --    0.03073   0.03589   0.03975   0.04669   0.06143
 Alpha virt. eigenvalues --    0.06476   0.07180   0.08039   0.09020   0.10204
 Alpha virt. eigenvalues --    0.11362   0.12029   0.13049   0.13667   0.14217

 Mulliken charges:
               1
     1  C    0.777022
     2  C   -0.164295
     3  N   -0.634936
     4  C    0.753815
     5  C   -0.037138
     6  C    0.700644
     7  O   -0.460549
     8  H   -0.132385
     9  H   -0.197359
    10  H   -0.007686
    11  H   -0.206278
    12  H   -0.005041
    13  H   -0.312880
    14  H    0.009386
    15  H    0.057083
    16  H   -0.139404
 Sum of Mulliken charges =  -0.00000

 Dipole moment (field-independent basis, Debye):
    X=             -2.4322    Y=             -2.3032    Z=              1.3203  Tot=              3.6004

 Test job not archived.
 1\1\GINC-SE232\SP\RHF\Aug-CC-pVDZ\C5H9N1O1\OHZDE\09-Apr-2025\0\\#t hf
 aug-cc-pvdz iop(5/13=1,5/36=2,99/5=2) pseudo=read geom=check guess=(re
 ad,tcheck) scf=(maxcycle=1)\\title\\0,1\C,0,-1.76066722,0.61884611,1.1
 9118949\C,0,-0.98768049,-0.75517408,0.03723366\N,0,-0.88790705,0.97483
 913,-0.31946769\C,0,0.06623669,-0.04403418,-0.69351321\C,0,1.43623038,
 0.09927867,-0.08433304\C,0,2.36402824,-1.02509169,-0.45214794\O,0,2.12
 741389,-1.86534566,-1.27637098\H,0,-1.0216375,0.68618336,1.97864507\H,
 0,-2.27942798,1.57987132,1.09503642\H,0,-2.51327809,-0.12523958,1.4499

 Normal termination of Gaussian 16 at Wed Apr  9 15:58:15 2025.
