 Gaussian 16, Revision C.01,

 ----------------------------------------------------------------------
 #t hf aug-cc-pvdz symm=none int=(grid=ultrafine) guess=(read,tcheck) s
 table=(opt,rrhf)
 ----------------------------------------------------------------------
 -----
 title
 -----
 Symbolic Z-matrix:
 Charge =  0 Multiplicity = 1

 SCF Done:  E(RHF) =  -355.821629244     A.U. after   16 cycles
 Normal termination of Gaussian 16 at Wed Apr  9 16:51:12 2025.
 Gaussian 16:  ES64L-G16RevC.01  3-Jul-2019

 ----------------------------------------------------------------------
 #t hf aug-cc-pvdz iop(5/13=1,5/36=2,99/5=2) pseudo=read geom=check gue
 ss=(read,tcheck) scf=(maxcycle=1)
 ----------------------------------------------------------------------
 -----
 title
 -----
 Structure from the checkpoint file:  "Grambow2020_wb97xd3_008994_reverse_mol1.chk"
 Charge =  0 Multiplicity = 1

                         Standard orientation:
 ---------------------------------------------------------------------
 Center     Atomic      Atomic             Coordinates (Angstroms)
 Number     Number       Type             X           Y           Z
 ---------------------------------------------------------------------
      1          6           0        2.851508   -0.259980    0.034112
      2          7           0        1.471045   -0.681310   -0.052610
      3          6           0        0.466407    0.240646   -0.021476
      4          8           0        0.639904    1.431296   -0.018808
      5          7           0       -0.809805   -0.357484   -0.032218
      6          6           0       -1.953364    0.318676    0.189653
      7          7           0       -3.042156   -0.459620   -0.021332
      8          1           0        2.962761    0.679430   -0.502626
      9          1           0        3.488896   -1.012305   -0.429383
     10          1           0        3.172599   -0.102613    1.067496
     11          1           0        1.255777   -1.633673    0.181754
     12          1           0       -0.883798   -1.356334   -0.201525
     13          1           0       -2.774409    0.607657   -0.725258
     14          1           0       -3.861951    0.060322    0.289396
 ---------------------------------------------------------------------

 SCF Done:  E(RHF) =  -355.931166609     A.U. after    2 cycles

 The electronic state is 1-A.
 Alpha  occ. eigenvalues --  -20.53533 -15.67572 -15.66802 -15.65610 -11.39911
 Alpha  occ. eigenvalues --  -11.31365 -11.27487  -1.37303  -1.27331  -1.21542
 Alpha  occ. eigenvalues --   -1.15860  -0.96336  -0.85121  -0.79031  -0.77204
 Alpha  occ. eigenvalues --   -0.69309  -0.65500  -0.64647  -0.61827  -0.59452
 Alpha  occ. eigenvalues --   -0.57773  -0.55640  -0.54318  -0.46549  -0.43200
 Alpha  occ. eigenvalues --   -0.40330  -0.35078
 Alpha virt. eigenvalues --    0.02578   0.03532   0.04323   0.05018   0.06135
 Alpha virt. eigenvalues --    0.07151   0.08154   0.10047   0.11002   0.11237
 Alpha virt. eigenvalues --    0.12253   0.13518   0.14191   0.14708   0.15108

 Mulliken charges:
               1
     1  C    0.780896
     2  N   -0.299987
     3  C    0.759564
     4  O   -0.426072
     5  N   -0.264531
     6  C    0.206220
     7  N   -0.473273
     8  H   -0.117405
     9  H   -0.184184
    10  H   -0.076008
    11  H   -0.110785
    12  H   -0.089215
    13  H    0.213456
    14  H    0.081325
 Sum of Mulliken charges =  -0.00000

 Dipole moment (field-independent basis, Debye):
    X=              0.1972    Y=             -4.0762    Z=             -0.2664  Tot=              4.0896

 Test job not archived.
 1\1\GINC-SE113\SP\RHF\Aug-CC-pVDZ\C3H7N3O1\OHZDE\09-Apr-2025\0\\#t hf
 aug-cc-pvdz iop(5/13=1,5/36=2,99/5=2) pseudo=read geom=check guess=(re
 ad,tcheck) scf=(maxcycle=1)\\title\\0,1\C,0,2.61951765,0.17998199,0.09
 776972\N,0,1.23295711,-0.09618047,0.40091947\C,0,0.26644573,0.12207139
 ,-0.53636015\O,0,0.48693052,0.45313662,-1.67193823\N,0,-1.02871907,-0.
 12225006,-0.03691385\C,0,-2.15713602,0.20566146,-0.69516588\N,0,-3.258
 46784,-0.26857234,-0.06437384\H,0,2.80632419,-0.07856984,-0.94204294\H
 ,0,3.25762016,-0.43005784,0.73633108\H,0,2.87221346,1.2346278,0.237819

 Normal termination of Gaussian 16 at Wed Apr  9 16:51:16 2025.
