 Gaussian 16, Revision C.01,

 ----------------------------------------------------------------------
 #t hf aug-cc-pvdz symm=none int=(grid=ultrafine) guess=(read,tcheck) s
 table=(opt,rrhf)
 ----------------------------------------------------------------------
 -----
 title
 -----
 Symbolic Z-matrix:
 Charge =  0 Multiplicity = 1

 SCF Done:  E(RHF) =  -304.524598117     A.U. after   14 cycles
 Normal termination of Gaussian 16 at Wed Apr  9 14:16:04 2025.
 Gaussian 16:  ES64L-G16RevC.01  3-Jul-2019

 ----------------------------------------------------------------------
 #t hf aug-cc-pvdz iop(5/13=1,5/36=2,99/5=2) pseudo=read geom=check gue
 ss=(read,tcheck) scf=(maxcycle=1)
 ----------------------------------------------------------------------
 -----
 title
 -----
 Structure from the checkpoint file:  "Grambow2020_b97d3_006922_forward_mol1.chk"
 Charge =  0 Multiplicity = 1

                         Standard orientation:
 ---------------------------------------------------------------------
 Center     Atomic      Atomic             Coordinates (Angstroms)
 Number     Number       Type             X           Y           Z
 ---------------------------------------------------------------------
      1          8           0       -1.732015   -0.566339   -0.319197
      2          6           0       -0.538975   -0.045489    0.170177
      3          6           0       -0.416544    1.304011    0.683927
      4          6           0        0.551718    0.672996   -0.671885
      5          8           0        1.576834   -0.201739   -0.231889
      6          6           0        0.590419   -1.058743    0.446794
      7          1           0       -2.398804    0.138445   -0.191693
      8          1           0        0.492689    1.824729   -0.301339
      9          1           0        0.344566    1.385369    1.474238
     10          1           0        0.362110    0.798646   -1.740823
     11          1           0        0.843419   -1.240328    1.499507
     12          1           0        0.477759   -1.998886   -0.105282
 ---------------------------------------------------------------------

 SCF Done:  E(RHF) =  -304.616937847     A.U. after    2 cycles

 The electronic state is 1-A.
 Alpha  occ. eigenvalues --  -20.60273 -20.59937 -11.34560 -11.32872 -11.31480
 Alpha  occ. eigenvalues --  -11.26860  -1.38628  -1.34472  -1.11123  -0.97573
 Alpha  occ. eigenvalues --   -0.85447  -0.80042  -0.73144  -0.70219  -0.66205
 Alpha  occ. eigenvalues --   -0.65089  -0.59329  -0.58028  -0.57434  -0.52029
 Alpha  occ. eigenvalues --   -0.47166  -0.41993  -0.36806
 Alpha virt. eigenvalues --    0.03503   0.04409   0.04844   0.05141   0.06607
 Alpha virt. eigenvalues --    0.07734   0.09202   0.10060   0.10691   0.13001
 Alpha virt. eigenvalues --    0.13831   0.14050   0.14854   0.15455   0.15783

 Mulliken charges:
               1
     1  O   -0.665457
     2  C    0.232724
     3  C   -0.308709
     4  C    0.495690
     5  O   -0.723585
     6  C    0.930930
     7  H    0.191061
     8  H    0.282930
     9  H   -0.017733
    10  H   -0.163101
    11  H   -0.131217
    12  H   -0.123533
 Sum of Mulliken charges =  -0.00000

 Dipole moment (field-independent basis, Debye):
    X=             -0.0979    Y=             -0.0234    Z=              0.1165  Tot=              0.1540

 Test job not archived.
 1\1\GINC-SE174\SP\RHF\Aug-CC-pVDZ\C4H6O2\OHZDE\09-Apr-2025\0\\#t hf au
 g-cc-pvdz iop(5/13=1,5/36=2,99/5=2) pseudo=read geom=check guess=(read
 ,tcheck) scf=(maxcycle=1)\\title\\0,1\O,0,0.366883,-1.49191061,-1.1149
 6351\C,0,0.07788975,-0.55140804,-0.13208291\C,0,-1.14562815,-0.5687590
 9,0.6443059\C,0,-0.63392096,0.81108949,-0.35974107\O,0,0.41607524,1.54
 789464,0.24378732\C,0,1.24927675,0.33720385,0.33370141\H,0,-0.3816517,
 -2.12212399,-1.10440956\H,0,-1.70858486,0.67114517,0.18136056\H,0,-1.0
 0625861,-0.16292606,1.65740765\H,0,-0.95376585,1.04907929,-1.37730061\

 Normal termination of Gaussian 16 at Wed Apr  9 14:16:07 2025.
