 Gaussian 16, Revision C.01,

 ----------------------------------------------------------------------
 #t hf aug-cc-pvdz symm=none int=(grid=ultrafine) guess=(read,tcheck) s
 table=(opt,rrhf)
 ----------------------------------------------------------------------
 -----
 title
 -----
 Symbolic Z-matrix:
 Charge =  0 Multiplicity = 1

 SCF Done:  E(RHF) =  -322.710903440     A.U. after   14 cycles
 Normal termination of Gaussian 16 at Wed Apr  9 15:34:56 2025.
 Gaussian 16:  ES64L-G16RevC.01  3-Jul-2019

 ----------------------------------------------------------------------
 #t hf aug-cc-pvdz iop(5/13=1,5/36=2,99/5=2) pseudo=read geom=check gue
 ss=(read,tcheck) scf=(maxcycle=1)
 ----------------------------------------------------------------------
 -----
 title
 -----
 Structure from the checkpoint file:  "Grambow2020_wb97xd3_007008_reverse_mol2.chk"
 Charge =  0 Multiplicity = 1

                         Standard orientation:
 ---------------------------------------------------------------------
 Center     Atomic      Atomic             Coordinates (Angstroms)
 Number     Number       Type             X           Y           Z
 ---------------------------------------------------------------------
      1          6           0        2.626654   -0.338121    0.043295
      2          6           0        1.494463    0.639791   -0.012811
      3          6           0       -1.619503   -0.967062    0.031427
      4          6           0       -2.045690    0.288055    0.048062
      5          7           0       -0.924895    1.114427   -0.082063
      6          6           0        0.207427    0.296047   -0.042324
      7          8           0       -0.243282   -1.000812   -0.052864
      8          1           0        3.252322   -0.286029   -0.852749
      9          1           0        2.258598   -1.360651    0.127358
     10          1           0        3.278421   -0.149030    0.900950
     11          1           0        1.716858    1.699564   -0.045883
     12          1           0       -2.128142   -1.913962    0.038017
     13          1           0       -3.047691    0.678419    0.085642
     14          1           0       -0.889954    2.024934    0.338125
 ---------------------------------------------------------------------

 SCF Done:  E(RHF) =  -322.813612403     A.U. after    2 cycles

 The electronic state is 1-A.
 Alpha  occ. eigenvalues --  -20.61716 -15.65456 -11.33813 -11.29866 -11.28485
 Alpha  occ. eigenvalues --  -11.21656 -11.20451  -1.41810  -1.21193  -1.07313
 Alpha  occ. eigenvalues --   -0.98735  -0.89270  -0.84734  -0.80424  -0.71594
 Alpha  occ. eigenvalues --   -0.66832  -0.63251  -0.62758  -0.60802  -0.57900
 Alpha  occ. eigenvalues --   -0.55080  -0.52927  -0.50170  -0.49982  -0.39159
 Alpha  occ. eigenvalues --   -0.26947
 Alpha virt. eigenvalues --    0.02934   0.03849   0.04178   0.05717   0.06318
 Alpha virt. eigenvalues --    0.06952   0.08365   0.10318   0.11251   0.11420
 Alpha virt. eigenvalues --    0.11931   0.13345   0.14137   0.14431   0.14846

 Mulliken charges:
               1
     1  C    0.262706
     2  C    0.851283
     3  C    0.612460
     4  C    0.814741
     5  N   -0.391510
     6  C   -0.282918
     7  O   -0.564278
     8  H    0.033490
     9  H   -0.157562
    10  H    0.020556
    11  H   -0.513815
    12  H   -0.319077
    13  H   -0.274174
    14  H   -0.091902
 Sum of Mulliken charges =  -0.00000

 Dipole moment (field-independent basis, Debye):
    X=             -2.1701    Y=              1.3934    Z=              0.7086  Tot=              2.6745

 Test job not archived.
 1\1\GINC-SE168\SP\RHF\Aug-CC-pVDZ\C5H7N1O1\OHZDE\09-Apr-2025\0\\#t hf
 aug-cc-pvdz iop(5/13=1,5/36=2,99/5=2) pseudo=read geom=check guess=(re
 ad,tcheck) scf=(maxcycle=1)\\title\\0,1\C,0,-2.34895432,-0.18844841,-0
 .39068362\C,0,-0.96341807,-0.17549108,-0.95764001\C,0,1.45605941,0.340
 65295,1.52438351\C,0,2.26819546,0.16895411,0.49085357\N,0,1.47330197,0
 .05639836,-0.65434489\C,0,0.1389192,0.03442447,-0.2391137\O,0,0.141655
 67,0.29313397,1.10927588\H,0,-2.96109464,0.62216656,-0.79720108\H,0,-2
 .33087806,-0.07398334,0.6931379\H,0,-2.86638978,-1.12518227,-0.6163332

 Normal termination of Gaussian 16 at Wed Apr  9 15:35:00 2025.
