 Gaussian 16, Revision C.01,

 ----------------------------------------------------------------------
 #t hf aug-cc-pvdz symm=none int=(grid=ultrafine) guess=(read,tcheck) s
 table=(opt,rrhf)
 ----------------------------------------------------------------------
 -----
 title
 -----
 Symbolic Z-matrix:
 Charge =  0 Multiplicity = 1

 SCF Done:  E(RHF) =  -304.546309369     A.U. after   15 cycles
 Normal termination of Gaussian 16 at Wed Apr  9 03:20:29 2025.
 Gaussian 16:  ES64L-G16RevC.01  3-Jul-2019

 ----------------------------------------------------------------------
 #t hf aug-cc-pvdz iop(5/13=1,5/36=2,99/5=2) pseudo=read geom=check gue
 ss=(read,tcheck) scf=(maxcycle=1)
 ----------------------------------------------------------------------
 -----
 title
 -----
 Structure from the checkpoint file:  "Grambow2020_wb97xd3_006104_reverse_mol1.chk"
 Charge =  0 Multiplicity = 1

                         Standard orientation:
 ---------------------------------------------------------------------
 Center     Atomic      Atomic             Coordinates (Angstroms)
 Number     Number       Type             X           Y           Z
 ---------------------------------------------------------------------
      1          6           0       -0.482858    1.212029    0.102942
      2          8           0       -1.318843    0.198638   -0.415590
      3          6           0       -0.868375   -1.052542    0.077280
      4          6           0        0.528728   -0.918326    0.582348
      5          8           0        1.401353   -0.079900   -0.694882
      6          6           0        0.810652    0.526694    0.463352
      7          1           0       -0.367420    1.987195   -0.656323
      8          1           0       -0.910359    1.663229    1.009332
      9          1           0       -1.456849   -1.373417    0.952927
     10          1           0       -0.987972   -1.804249   -0.703443
     11          1           0        1.624146   -1.079102   -0.185019
     12          1           0        1.509484    1.049305    1.110769
 ---------------------------------------------------------------------

 SCF Done:  E(RHF) =  -304.638927323     A.U. after    2 cycles

 The electronic state is 1-A.
 Alpha  occ. eigenvalues --  -20.62822 -20.57981 -11.31462 -11.30065 -11.29998
 Alpha  occ. eigenvalues --  -11.28880  -1.39677  -1.34113  -1.02122  -1.01716
 Alpha  occ. eigenvalues --   -0.83900  -0.82506  -0.74180  -0.69156  -0.66720
 Alpha  occ. eigenvalues --   -0.62863  -0.58069  -0.57416  -0.55727  -0.50054
 Alpha  occ. eigenvalues --   -0.48352  -0.44511  -0.39513
 Alpha virt. eigenvalues --    0.03372   0.04598   0.04904   0.05214   0.06594
 Alpha virt. eigenvalues --    0.06717   0.08306   0.10563   0.11149   0.12867
 Alpha virt. eigenvalues --    0.13671   0.14208   0.14702   0.14817   0.15477

 Mulliken charges:
               1
     1  C    0.893761
     2  O   -0.675610
     3  C    1.034990
     4  C   -0.980313
     5  O   -0.774837
     6  C    0.636641
     7  H   -0.119160
     8  H   -0.094788
     9  H   -0.027866
    10  H   -0.128082
    11  H    0.427811
    12  H   -0.192547
 Sum of Mulliken charges =  -0.00000

 Dipole moment (field-independent basis, Debye):
    X=              0.0941    Y=              0.5918    Z=              1.7981  Tot=              1.8953

 Test job not archived.
 1\1\GINC-SE179\SP\RHF\Aug-CC-pVDZ\C4H6O2\OHZDE\09-Apr-2025\0\\#t hf au
 g-cc-pvdz iop(5/13=1,5/36=2,99/5=2) pseudo=read geom=check guess=(read
 ,tcheck) scf=(maxcycle=1)\\title\\0,1\C,0,-1.24936562,-0.22605669,0.03
 702056\O,0,-0.8422484,1.08093709,-0.31043957\C,0,0.52371106,1.0410654,
 -0.68972726\C,0,1.14679221,-0.21726573,-0.18636137\O,0,0.67226171,-0.3
 2139702,1.50471162\C,0,0.01485474,-0.96180269,0.40194786\H,0,-1.965467
 55,-0.158494,0.85758448\H,0,-1.72672847,-0.73852972,-0.80996049\H,0,0.
 63373247,0.9931727,-1.78591208\H,0,1.01453724,1.95002822,-0.34076979\H

 Normal termination of Gaussian 16 at Wed Apr  9 03:20:34 2025.
