 Gaussian 16, Revision C.01,

 ----------------------------------------------------------------------
 #t hf aug-cc-pvdz symm=none int=(grid=ultrafine) guess=(read,tcheck) s
 table=(opt,rrhf)
 ----------------------------------------------------------------------
 -----
 title
 -----
 Symbolic Z-matrix:
 Charge =  0 Multiplicity = 1

 SCF Done:  E(RHF) =  -263.614273517     A.U. after   20 cycles
 Normal termination of Gaussian 16 at Wed Apr  9 14:15:05 2025.
 Gaussian 16:  ES64L-G16RevC.01  3-Jul-2019

 ----------------------------------------------------------------------
 #t hf aug-cc-pvdz iop(5/13=1,5/36=2,99/5=2) pseudo=read geom=check gue
 ss=(read,tcheck) scf=(maxcycle=1)
 ----------------------------------------------------------------------
 -----
 title
 -----
 Structure from the checkpoint file:  "Grambow2020_b97d3_006867_forward_mol1.chk"
 Charge =  0 Multiplicity = 1

                         Standard orientation:
 ---------------------------------------------------------------------
 Center     Atomic      Atomic             Coordinates (Angstroms)
 Number     Number       Type             X           Y           Z
 ---------------------------------------------------------------------
      1          6           0        2.278728   -0.232312   -0.317118
      2          6           0        0.885119    0.176406    0.061347
      3          6           0       -0.208506   -0.756162    0.458074
      4          7           0       -1.490540   -0.578690   -0.079357
      5          7           0       -2.041431    0.479003   -0.408210
      6          6           0        0.176260    1.233931    0.308534
      7          1           0        2.711793   -0.874789    0.464929
      8          1           0        2.258040   -0.823125   -1.245817
      9          1           0        2.930219    0.639545   -0.454189
     10          1           0       -0.091143   -1.510274    1.240234
     11          1           0       -1.919408   -1.518186   -0.293420
     12          1           0        0.044697    2.253463    0.636210
 ---------------------------------------------------------------------

 SCF Done:  E(RHF) =  -263.690167346     A.U. after    2 cycles

 The electronic state is 1-A.
 Alpha  occ. eigenvalues --  -15.73156 -15.62562 -11.29046 -11.28850 -11.28162
 Alpha  occ. eigenvalues --  -11.25376  -1.30843  -1.11394  -0.99185  -0.95551
 Alpha  occ. eigenvalues --   -0.81675  -0.74751  -0.70210  -0.62919  -0.60903
 Alpha  occ. eigenvalues --   -0.58611  -0.56183  -0.54814  -0.50125  -0.40451
 Alpha  occ. eigenvalues --   -0.33867  -0.27727
 Alpha virt. eigenvalues --    0.02991   0.03377   0.04273   0.04922   0.06540
 Alpha virt. eigenvalues --    0.07304   0.07495   0.09744   0.11030   0.11588
 Alpha virt. eigenvalues --    0.13957   0.14414   0.14576   0.15297   0.15515

 Mulliken charges:
               1
     1  C    0.196371
     2  C   -0.143225
     3  C    0.532699
     4  N   -0.108885
     5  N   -0.388306
     6  C    0.559685
     7  H    0.035501
     8  H    0.060678
     9  H   -0.018006
    10  H   -0.313067
    11  H    0.010888
    12  H   -0.424332
 Sum of Mulliken charges =  -0.00000

 Dipole moment (field-independent basis, Debye):
    X=              2.7701    Y=             -1.6701    Z=              1.0430  Tot=              3.3987

 Test job not archived.
 1\1\GINC-SE141\SP\RHF\Aug-CC-pVDZ\C4H6N2\OHZDE\09-Apr-2025\0\\#t hf au
 g-cc-pvdz iop(5/13=1,5/36=2,99/5=2) pseudo=read geom=check guess=(read
 ,tcheck) scf=(maxcycle=1)\\title\\0,1\C,0,-1.63992894,-0.78952425,0.36
 008081\C,0,-0.45399566,0.12039961,0.22578845\C,0,0.61556147,-0.0047061
 2,-0.80546578\N,0,1.95733676,0.12286294,-0.42166264\N,0,2.4301562,0.82
 212735,0.48266547\C,0,0.02402405,1.23033358,0.69641216\H,0,-2.16926441
 ,-0.86818638,-0.6019658\H,0,-1.30697103,-1.80368606,0.62949777\H,0,-2.
 3437229,-0.42361199,1.11780571\H,0,0.40337219,-0.0791428,-1.8748905\H,

 Normal termination of Gaussian 16 at Wed Apr  9 14:15:09 2025.
