 Gaussian 16, Revision C.01,

 ----------------------------------------------------------------------
 #t hf aug-cc-pvdz symm=none int=(grid=ultrafine) guess=(read,tcheck) s
 table=(opt,rrhf)
 ----------------------------------------------------------------------
 -----
 title
 -----
 Symbolic Z-matrix:
 Charge =  0 Multiplicity = 1

 SCF Done:  E(RHF) =  -342.439921455     A.U. after   16 cycles
 Normal termination of Gaussian 16 at Wed Apr  9 03:58:38 2025.
 Gaussian 16:  ES64L-G16RevC.01  3-Jul-2019

 ----------------------------------------------------------------------
 #t hf aug-cc-pvdz iop(5/13=1,5/36=2,99/5=2) pseudo=read geom=check gue
 ss=(read,tcheck) scf=(maxcycle=1)
 ----------------------------------------------------------------------
 -----
 title
 -----
 Structure from the checkpoint file:  "Grambow2020_wb97xd3_008771_reverse_mol2.chk"
 Charge =  0 Multiplicity = 1

                         Standard orientation:
 ---------------------------------------------------------------------
 Center     Atomic      Atomic             Coordinates (Angstroms)
 Number     Number       Type             X           Y           Z
 ---------------------------------------------------------------------
      1          8           0       -2.566900    0.082193   -0.244414
      2          6           0       -1.408452   -0.188784   -0.401400
      3          6           0        0.665851   -1.117259    0.512957
      4          8           0        1.577031   -0.674594   -0.340799
      5          6           0        1.516212    0.606731   -0.572680
      6          6           0        0.544207    1.205398    0.386830
      7          6           0       -0.343032   -0.020278    0.677996
      8          1           0       -1.047804   -0.630959   -1.354923
      9          1           0        0.517003   -2.185409    0.511470
     10          1           0        2.366410    1.041794   -1.072207
     11          1           0        1.077926    1.497446    1.309425
     12          1           0       -0.006766    2.069122    0.019751
     13          1           0       -0.836529    0.032359    1.645975
 ---------------------------------------------------------------------

 SCF Done:  E(RHF) =  -342.545446157     A.U. after    2 cycles

 The electronic state is 1-A.
 Alpha  occ. eigenvalues --  -20.72175 -20.57600 -11.34460 -11.32226 -11.29260
 Alpha  occ. eigenvalues --  -11.27424 -11.27036  -1.49041  -1.36638  -1.10323
 Alpha  occ. eigenvalues --   -1.04650  -0.90977  -0.81534  -0.80227  -0.77037
 Alpha  occ. eigenvalues --   -0.70135  -0.68915  -0.65655  -0.62603  -0.59184
 Alpha  occ. eigenvalues --   -0.58112  -0.55640  -0.55156  -0.50402  -0.43965
 Alpha  occ. eigenvalues --   -0.25778
 Alpha virt. eigenvalues --    0.03039   0.03849   0.04235   0.04423   0.05706
 Alpha virt. eigenvalues --    0.06365   0.06482   0.09543   0.10659   0.11230
 Alpha virt. eigenvalues --    0.11976   0.12744   0.13487   0.13918   0.14356

 Mulliken charges:
               1
     1  O   -0.478963
     2  C    0.621015
     3  C    0.690506
     4  O   -0.327596
     5  C    0.581080
     6  C    0.205845
     7  C   -0.069423
     8  H   -0.149512
     9  H   -0.379557
    10  H   -0.325621
    11  H   -0.046805
    12  H   -0.118770
    13  H   -0.202198
 Sum of Mulliken charges =  -0.00000

 Dipole moment (field-independent basis, Debye):
    X=              3.0595    Y=              0.8613    Z=             -0.0932  Tot=              3.1798

 Test job not archived.
 1\1\GINC-SE435\SP\RHF\Aug-CC-pVDZ\C5H6O2\OHZDE\09-Apr-2025\0\\#t hf au
 g-cc-pvdz iop(5/13=1,5/36=2,99/5=2) pseudo=read geom=check guess=(read
 ,tcheck) scf=(maxcycle=1)\\title\\0,1\O,0,1.40584333,2.2649474,-0.6757
 4926\C,0,1.18495656,1.147711,-0.29750618\C,0,0.37424715,-1.10904069,-0
 .79817138\O,0,0.19373639,-1.62171208,0.41000283\C,0,-0.5080464,-0.8703
 8676,1.21142221\C,0,-1.06893438,0.2587605,0.41500082\C,0,-0.03264978,0
 .33221851,-0.72296656\H,0,1.89926334,0.616476,0.36758653\H,0,1.1615680
 1,-1.56554467,-1.37681861\H,0,-0.86905977,-1.34048178,2.11160123\H,0,-

 Normal termination of Gaussian 16 at Wed Apr  9 03:58:42 2025.
