 Gaussian 16, Revision C.01,

 ----------------------------------------------------------------------
 #t hf aug-cc-pvdz symm=none int=(grid=ultrafine) guess=(read,tcheck) s
 table=(opt,rrhf)
 ----------------------------------------------------------------------
 -----
 title
 -----
 Symbolic Z-matrix:
 Charge =  0 Multiplicity = 1

 SCF Done:  E(RHF) =  -308.831471757     A.U. after   16 cycles

 1\1\GINC-SE362\Stability\RHF\Aug-CC-pVDZ\C6H12O1\OHZDE\09-Apr-2025\0\\
 #t hf aug-cc-pvdz symm=none int=(grid=ultrafine) guess=(read,tcheck) s
 table=(opt,rrhf)\\title\\0,1\C,0,2.09041644,-0.78323827,-0.43726149\O,
 0,0.81273696,-0.85568561,0.19280805\C,0,0.24086508,0.3819159,0.9243666
 1\C,0,-0.06933431,1.55133602,-0.01933958\C,0,-1.58195477,1.29487502,0.
 22946049\C,0,-1.15965634,0.10492296,1.05916449\C,0,-0.66312654,-1.5411
 8812,-0.63975332\H,0,2.88319655,-0.89244965,0.30471064\H,0,2.20586813,
 0.16194475,-0.97403687\H,0,2.16031607,-1.61014155,-1.14447179\H,0,0.95

 Normal termination of Gaussian 16 at Wed Apr  9 03:53:31 2025.
 Gaussian 16:  ES64L-G16RevC.01  3-Jul-2019

 ----------------------------------------------------------------------
 #t hf aug-cc-pvdz iop(5/13=1,5/36=2,99/5=2) pseudo=read geom=check gue
 ss=(read,tcheck) scf=(maxcycle=1)
 ----------------------------------------------------------------------
 -----
 title
 -----
 Structure from the checkpoint file:  "Grambow2020_wb97xd3_008396_forward_mol1.chk"
 Charge =  0 Multiplicity = 1

                         Standard orientation:
 ---------------------------------------------------------------------
 Center     Atomic      Atomic             Coordinates (Angstroms)
 Number     Number       Type             X           Y           Z
 ---------------------------------------------------------------------
      1          6           0       -2.180516   -0.701073   -0.158235
      2          8           0       -1.111481    0.093171    0.352687
      3          6           0        0.247054   -0.565528    0.690873
      4          6           0        0.977497   -1.111062   -0.543304
      5          6           0        2.023594    0.025862   -0.373658
      6          6           0        1.169319    0.529981    0.765995
      7          6           0       -0.605979    1.677318   -0.406386
      8          1           0       -2.675385   -1.234817    0.654890
      9          1           0       -1.814952   -1.410217   -0.905432
     10          1           0       -2.902514   -0.028724   -0.622419
     11          1           0       -0.029708   -1.232838    1.510597
     12          1           0        1.373280   -2.119193   -0.417382
     13          1           0        0.403392   -1.079852   -1.473238
     14          1           0        2.138665    0.695171   -1.241807
     15          1           0        3.021822   -0.347373   -0.123538
     16          1           0        1.481176    1.083089    1.644464
     17          1           0        0.111617    1.571577   -1.210706
     18          1           0       -1.629083    1.753677   -0.775311
     19          1           0       -0.372270    2.471130    0.286671
 ---------------------------------------------------------------------

 SCF Done:  E(RHF) =  -308.928839293     A.U. after    2 cycles

 The electronic state is 1-A.
 Alpha  occ. eigenvalues --  -20.60817 -11.32043 -11.29608 -11.27085 -11.21900
 Alpha  occ. eigenvalues --  -11.20446 -11.15472  -1.34190  -1.09958  -0.96676
 Alpha  occ. eigenvalues --   -0.93719  -0.85456  -0.85347  -0.71872  -0.68754
 Alpha  occ. eigenvalues --   -0.65673  -0.65251  -0.62887  -0.59863  -0.57605
 Alpha  occ. eigenvalues --   -0.56827  -0.51637  -0.49665  -0.47860  -0.47305
 Alpha  occ. eigenvalues --   -0.43777  -0.41865  -0.23217
 Alpha virt. eigenvalues --    0.02991   0.04308   0.04681   0.04895   0.06063
 Alpha virt. eigenvalues --    0.06254   0.06318   0.06792   0.07821   0.08591
 Alpha virt. eigenvalues --    0.08959   0.09802   0.11451   0.12887   0.13497

 Mulliken charges:
               1
     1  C    0.776536
     2  O   -0.595601
     3  C    0.828032
     4  C    0.326214
     5  C    0.415543
     6  C    0.280432
     7  C    0.819170
     8  H   -0.184038
     9  H   -0.054462
    10  H   -0.230304
    11  H   -0.413614
    12  H   -0.171866
    13  H   -0.265068
    14  H   -0.230673
    15  H   -0.225942
    16  H   -0.540271
    17  H   -0.102081
    18  H   -0.304928
    19  H   -0.127078
 Sum of Mulliken charges =   0.00000

 Dipole moment (field-independent basis, Debye):
    X=             -2.9279    Y=             -0.2011    Z=             -1.3153  Tot=              3.2161

 Test job not archived.
 1\1\GINC-SE362\SP\RHF\Aug-CC-pVDZ\C6H12O1\OHZDE\09-Apr-2025\0\\#t hf a
 ug-cc-pvdz iop(5/13=1,5/36=2,99/5=2) pseudo=read geom=check guess=(rea
 d,tcheck) scf=(maxcycle=1)\\title\\0,1\C,0,2.09041644,-0.78323827,-0.4
 3726149\O,0,0.81273696,-0.85568561,0.19280805\C,0,0.24086508,0.3819159
 ,0.92436661\C,0,-0.06933431,1.55133602,-0.01933958\C,0,-1.58195477,1.2
 9487502,0.22946049\C,0,-1.15965634,0.10492296,1.05916449\C,0,-0.663126
 54,-1.54118812,-0.63975332\H,0,2.88319655,-0.89244965,0.30471064\H,0,2
 .20586813,0.16194475,-0.97403687\H,0,2.16031607,-1.61014155,-1.1444717

 Normal termination of Gaussian 16 at Wed Apr  9 03:53:37 2025.
