 Gaussian 16, Revision C.01,

 ----------------------------------------------------------------------
 #t hf aug-cc-pvdz symm=none int=(grid=ultrafine) guess=(read,tcheck) s
 table=(opt,rrhf)
 ----------------------------------------------------------------------
 -----
 title
 -----
 Symbolic Z-matrix:
 Charge =  0 Multiplicity = 1

 SCF Done:  E(RHF) =  -283.526814916     A.U. after   17 cycles
 Normal termination of Gaussian 16 at Wed Apr  9 03:14:51 2025.
 Gaussian 16:  ES64L-G16RevC.01  3-Jul-2019

 ----------------------------------------------------------------------
 #t hf aug-cc-pvdz iop(5/13=1,5/36=2,99/5=2) pseudo=read geom=check gue
 ss=(read,tcheck) scf=(maxcycle=1)
 ----------------------------------------------------------------------
 -----
 title
 -----
 Structure from the checkpoint file:  "Grambow2020_b97d3_006992_forward_mol1.chk"
 Charge =  0 Multiplicity = 1

                         Standard orientation:
 ---------------------------------------------------------------------
 Center     Atomic      Atomic             Coordinates (Angstroms)
 Number     Number       Type             X           Y           Z
 ---------------------------------------------------------------------
      1          6           0       -0.764183    1.845911    0.049806
      2          6           0        1.145400    0.230185    0.097743
      3          8           0        2.282712    0.354219   -0.095494
      4          6           0        0.071538   -1.742621    0.057251
      5          6           0       -1.073876   -1.002958   -0.037631
      6          7           0       -1.856983   -0.100524   -0.096094
      7          1           0        0.110548    2.284851   -0.426646
      8          1           0       -0.790368    1.919764    1.134246
      9          1           0       -1.696853    2.062401   -0.458480
     10          1           0        0.351555   -2.171005    1.019725
     11          1           0        0.489025   -2.209211   -0.835252
 ---------------------------------------------------------------------

 SCF Done:  E(RHF) =  -283.614685386     A.U. after    2 cycles

 The electronic state is 1-A.
 Alpha  occ. eigenvalues --  -20.64910 -15.64576 -11.36757 -11.33890 -11.29618
 Alpha  occ. eigenvalues --  -11.26576  -1.44191  -1.18164  -0.99714  -0.96035
 Alpha  occ. eigenvalues --   -0.79067  -0.69443  -0.64833  -0.63362  -0.62844
 Alpha  occ. eigenvalues --   -0.61844  -0.61048  -0.59271  -0.53552  -0.44702
 Alpha  occ. eigenvalues --   -0.44158  -0.30107
 Alpha virt. eigenvalues --    0.01415   0.04216   0.04544   0.05003   0.05984
 Alpha virt. eigenvalues --    0.06499   0.08609   0.09685   0.10929   0.11750
 Alpha virt. eigenvalues --    0.12939   0.13805   0.14217   0.14387   0.15183

 Mulliken charges:
               1
     1  C    0.486313
     2  C    0.240923
     3  O   -0.374741
     4  C    0.578279
     5  C   -0.192146
     6  N   -0.302806
     7  H   -0.048356
     8  H   -0.009395
     9  H   -0.050959
    10  H   -0.154380
    11  H   -0.172733
 Sum of Mulliken charges =  -0.00000

 Dipole moment (field-independent basis, Debye):
    X=              0.4749    Y=              1.3774    Z=              0.4403  Tot=              1.5221

 Test job not archived.
 1\1\GINC-SE092\SP\RHF\Aug-CC-pVDZ\C4H5N1O1\OHZDE\09-Apr-2025\0\\#t hf
 aug-cc-pvdz iop(5/13=1,5/36=2,99/5=2) pseudo=read geom=check guess=(re
 ad,tcheck) scf=(maxcycle=1)\\title\\0,1\C,0,-1.47444701,1.01591247,-0.
 27426155\C,0,-0.43839087,-1.1475934,0.43651769\O,0,-0.84374675,-2.0489
 3046,1.04436833\C,0,1.74489714,-0.73586621,0.10407846\C,0,1.34957756,0
 .52175715,-0.25673165\N,0,0.69806077,1.49073107,-0.51687873\H,0,-2.086
 40271,0.54023142,0.48998135\H,0,-1.63569959,0.6596346,-1.28876342\H,0,
 -1.38747136,2.09058804,-0.16200298\H,0,1.99472546,-1.45955899,-0.67189

 Normal termination of Gaussian 16 at Wed Apr  9 03:14:55 2025.
