 Gaussian 16, Revision C.01,

 ----------------------------------------------------------------------
 #t hf aug-cc-pvdz symm=none int=(grid=ultrafine) guess=(read,tcheck) s
 table=(opt,rrhf)
 ----------------------------------------------------------------------
 -----
 title
 -----
 Symbolic Z-matrix:
 Charge =  0 Multiplicity = 1

 SCF Done:  E(RHF) =  -264.993692680     A.U. after   13 cycles
 Normal termination of Gaussian 16 at Wed Apr  9 03:07:53 2025.
 Gaussian 16:  ES64L-G16RevC.01  3-Jul-2019

 ----------------------------------------------------------------------
 #t hf aug-cc-pvdz iop(5/13=1,5/36=2,99/5=2) pseudo=read geom=check gue
 ss=(read,tcheck) scf=(maxcycle=1)
 ----------------------------------------------------------------------
 -----
 title
 -----
 Structure from the checkpoint file:  "Grambow2020_b97d3_006631_reverse_mol2.chk"
 Charge =  0 Multiplicity = 1

                         Standard orientation:
 ---------------------------------------------------------------------
 Center     Atomic      Atomic             Coordinates (Angstroms)
 Number     Number       Type             X           Y           Z
 ---------------------------------------------------------------------
      1          6           0        1.546665    0.582890   -0.019886
      2          6           0        0.136779    1.181649   -0.024164
      3          6           0       -0.768855   -0.015234    0.401571
      4          7           0       -2.104774    0.087404   -0.204732
      5          6           0        0.004395   -1.304800    0.087409
      6          7           0        1.231209   -0.881188   -0.138510
      7          1           0        2.085149    0.766294    0.922299
      8          1           0        2.184997    0.906140   -0.853415
      9          1           0        1.991801   -1.527297   -0.352623
     10          1           0        0.036934    2.050313    0.635607
     11          1           0       -0.141031    1.496496   -1.040295
     12          1           0       -0.904014   -0.002451    1.497996
     13          1           0       -1.995200   -0.092553   -1.209134
     14          1           0       -2.657578   -0.707481    0.132678
 ---------------------------------------------------------------------

 SCF Done:  E(RHF) =  -265.071358827     A.U. after    2 cycles

 The electronic state is 1-A.
 Alpha  occ. eigenvalues --  -15.67021 -15.60760 -11.28620 -11.26564 -11.25177
 Alpha  occ. eigenvalues --  -11.24147  -1.23884  -1.14092  -1.01706  -0.94641
 Alpha  occ. eigenvalues --   -0.81562  -0.77365  -0.68092  -0.65823  -0.63253
 Alpha  occ. eigenvalues --   -0.58667  -0.55351  -0.53516  -0.51755  -0.48900
 Alpha  occ. eigenvalues --   -0.43100  -0.39769  -0.34031
 Alpha virt. eigenvalues --    0.02926   0.04007   0.04423   0.04890   0.06650
 Alpha virt. eigenvalues --    0.06721   0.07329   0.09008   0.10053   0.12019
 Alpha virt. eigenvalues --    0.12558   0.13671   0.14202   0.14418   0.15089

 Mulliken charges:
               1
     1  C    0.804509
     2  C    0.190718
     3  C    0.405379
     4  N   -0.466776
     5  C   -0.132213
     6  N   -0.300550
     7  H   -0.129267
     8  H   -0.119493
     9  H   -0.091055
    10  H   -0.012999
    11  H   -0.115194
    12  H   -0.118469
    13  H    0.045687
    14  H    0.039721
 Sum of Mulliken charges =  -0.00000

 Dipole moment (field-independent basis, Debye):
    X=              2.7738    Y=              1.2867    Z=             -0.3828  Tot=              3.0815

 Test job not archived.
 1\1\GINC-SE229\SP\RHF\Aug-CC-pVDZ\C4H8N2\OHZDE\09-Apr-2025\0\\#t hf au
 g-cc-pvdz iop(5/13=1,5/36=2,99/5=2) pseudo=read geom=check guess=(read
 ,tcheck) scf=(maxcycle=1)\\title\\0,1\C,0,-1.48989712,0.31572911,0.098
 55588\C,0,-0.46438012,-0.80249634,0.30878684\C,0,0.89919237,-0.0451641
 7,0.34149559\N,0,1.98707429,-0.88693636,-0.17883911\C,0,0.69306858,1.2
 939664,-0.38227108\N,0,-0.61699961,1.39339859,-0.47918689\H,0,-1.93382
 189,0.67016756,1.0412221\H,0,-2.30332291,0.06756672,-0.59677368\H,0,-1
 .06420237,2.20802659,-0.90131533\H,0,-0.64960162,-1.39065072,1.2141102

 Normal termination of Gaussian 16 at Wed Apr  9 03:07:58 2025.
