 Gaussian 16, Revision C.01,

 ----------------------------------------------------------------------
 #t hf aug-cc-pvdz symm=none int=(grid=ultrafine) guess=(read,tcheck) s
 table=(opt,rrhf)
 ----------------------------------------------------------------------
 -----
 title
 -----
 Symbolic Z-matrix:
 Charge =  0 Multiplicity = 1

 SCF Done:  E(RHF) =  -359.582563974     A.U. after   15 cycles
 Normal termination of Gaussian 16 at Wed Apr  9 17:14:28 2025.
 Gaussian 16:  ES64L-G16RevC.01  3-Jul-2019

 ----------------------------------------------------------------------
 #t hf aug-cc-pvdz iop(5/13=1,5/36=2,99/5=2) pseudo=read geom=check gue
 ss=(read,tcheck) scf=(maxcycle=1)
 ----------------------------------------------------------------------
 -----
 title
 -----
 Structure from the checkpoint file:  "Grambow2020_wb97xd3_009409_reverse_mol1.chk"
 Charge =  0 Multiplicity = 1

                         Standard orientation:
 ---------------------------------------------------------------------
 Center     Atomic      Atomic             Coordinates (Angstroms)
 Number     Number       Type             X           Y           Z
 ---------------------------------------------------------------------
      1          8           0       -1.600211   -0.529786   -0.921345
      2          6           0       -1.278524   -0.137724    0.362087
      3          6           0        0.549537   -1.298690    0.922729
      4          8           0        1.165317   -0.950169   -0.251807
      5          6           0        1.438485    0.385179   -0.460318
      6          7           0        0.723106    1.357570   -0.135242
      7          6           0       -0.591009    1.202179    0.471531
      8          1           0       -0.792913   -0.649974   -1.433328
      9          1           0       -2.182516   -0.172767    0.971995
     10          1           0        0.797432   -0.533465    1.678129
     11          1           0       -0.726725   -1.173881    0.833900
     12          1           0        2.376041    0.520489   -0.992005
     13          1           0       -0.526756    1.505903    1.519277
     14          1           0       -1.238096    1.934674   -0.022244
 ---------------------------------------------------------------------

 SCF Done:  E(RHF) =  -359.692783954     A.U. after    2 cycles

 The electronic state is 1-A.
 Alpha  occ. eigenvalues --  -20.64030 -20.60415 -15.64346 -11.36505 -11.34375
 Alpha  occ. eigenvalues --  -11.31791 -11.29578  -1.42173  -1.36686  -1.21805
 Alpha  occ. eigenvalues --   -1.05294  -0.94001  -0.91637  -0.79369  -0.74951
 Alpha  occ. eigenvalues --   -0.73002  -0.70634  -0.67918  -0.62892  -0.62095
 Alpha  occ. eigenvalues --   -0.59631  -0.56930  -0.53790  -0.50234  -0.44558
 Alpha  occ. eigenvalues --   -0.42859  -0.34368
 Alpha virt. eigenvalues --    0.03183   0.03746   0.04476   0.05188   0.06150
 Alpha virt. eigenvalues --    0.07150   0.08090   0.09809   0.10059   0.10721
 Alpha virt. eigenvalues --    0.12285   0.13269   0.13437   0.14286   0.14871

 Mulliken charges:
               1
     1  O   -0.568559
     2  C    0.739288
     3  C    0.070575
     4  O   -0.498034
     5  C    0.436842
     6  N   -0.290805
     7  C    0.643136
     8  H    0.170287
     9  H   -0.241912
    10  H   -0.027802
    11  H    0.096683
    12  H   -0.302018
    13  H   -0.120326
    14  H   -0.107355
 Sum of Mulliken charges =   0.00000

 Dipole moment (field-independent basis, Debye):
    X=             -0.0481    Y=              1.8526    Z=              0.8343  Tot=              2.0324

 Test job not archived.
 1\1\GINC-SE162\SP\RHF\Aug-CC-pVDZ\C4H7N1O2\OHZDE\09-Apr-2025\0\\#t hf
 aug-cc-pvdz iop(5/13=1,5/36=2,99/5=2) pseudo=read geom=check guess=(re
 ad,tcheck) scf=(maxcycle=1)\\title\\0,1\O,0,-1.11535523,-0.60136404,1.
 47101621\C,0,-1.16524685,-0.08400649,0.19264079\C,0,0.18442844,1.69990
 429,0.19509942\O,0,1.19001092,0.97336757,0.77916682\C,0,1.71835746,-0.
 08002633,0.06330279\N,0,1.09579766,-0.87173818,-0.67737154\C,0,-0.3507
 7949,-0.83188068,-0.83562158\H,0,-0.21539262,-0.53813369,1.80920464\H,
 0,-2.2109254,-0.00432923,-0.10839934\H,0,0.29234185,1.61319616,-0.8996

 Normal termination of Gaussian 16 at Wed Apr  9 17:14:32 2025.
