 Gaussian 16, Revision C.01,

 ----------------------------------------------------------------------
 #t hf aug-cc-pvdz symm=none int=(grid=ultrafine) guess=(read,tcheck) s
 table=(opt,rrhf)
 ----------------------------------------------------------------------
 -----
 title
 -----
 Symbolic Z-matrix:
 Charge =  0 Multiplicity = 1

 SCF Done:  E(RHF) =  -299.686629267     A.U. after   15 cycles
 Normal termination of Gaussian 16 at Wed Apr  9 03:06:39 2025.
 Gaussian 16:  ES64L-G16RevC.01  3-Jul-2019

 ----------------------------------------------------------------------
 #t hf aug-cc-pvdz iop(5/13=1,5/36=2,99/5=2) pseudo=read geom=check gue
 ss=(read,tcheck) scf=(maxcycle=1)
 ----------------------------------------------------------------------
 -----
 title
 -----
 Structure from the checkpoint file:  "Grambow2020_b97d3_006598_forward_mol2.chk"
 Charge =  0 Multiplicity = 1

                         Standard orientation:
 ---------------------------------------------------------------------
 Center     Atomic      Atomic             Coordinates (Angstroms)
 Number     Number       Type             X           Y           Z
 ---------------------------------------------------------------------
      1          6           0        2.075551    0.037232   -0.000115
      2          6           0        0.583843    0.110191   -0.000042
      3          7           0       -0.193475    1.161118   -0.000018
      4          6           0       -1.442993    0.579031    0.000266
      5          7           0       -1.464949   -0.736925   -0.000020
      6          8           0       -0.088553   -1.065581   -0.000029
      7          1           0        2.497216    1.046612   -0.022865
      8          1           0        2.439669   -0.523605   -0.872787
      9          1           0        2.442078   -0.483601    0.896158
     10          1           0       -2.359974    1.157171   -0.000659
 ---------------------------------------------------------------------

 SCF Done:  E(RHF) =  -299.775068645     A.U. after    2 cycles

 The electronic state is 1-A.
 Alpha  occ. eigenvalues --  -20.67470 -15.70109 -15.64748 -11.38507 -11.33287
 Alpha  occ. eigenvalues --  -11.27622  -1.47051  -1.22516  -1.14768  -1.00958
 Alpha  occ. eigenvalues --   -0.86085  -0.82677  -0.72524  -0.69535  -0.61628
 Alpha  occ. eigenvalues --   -0.59977  -0.59407  -0.58320  -0.51870  -0.47906
 Alpha  occ. eigenvalues --   -0.47025  -0.39781
 Alpha virt. eigenvalues --    0.03074   0.03902   0.05419   0.05695   0.08546
 Alpha virt. eigenvalues --    0.09622   0.09875   0.10559   0.12956   0.13439
 Alpha virt. eigenvalues --    0.14547   0.14760   0.15331   0.16251   0.16893

 Mulliken charges:
               1
     1  C    0.458954
     2  C    0.128128
     3  N   -0.570136
     4  C    0.861121
     5  N   -0.193827
     6  O   -0.638485
     7  H   -0.003837
     8  H    0.043842
     9  H    0.047763
    10  H   -0.133523
 Sum of Mulliken charges =  -0.00000

 Dipole moment (field-independent basis, Debye):
    X=              1.9310    Y=              1.1019    Z=              0.0008  Tot=              2.2233

 Test job not archived.
 1\1\GINC-SE284\SP\RHF\Aug-CC-pVDZ\C3H4N2O1\OHZDE\09-Apr-2025\0\\#t hf
 aug-cc-pvdz iop(5/13=1,5/36=2,99/5=2) pseudo=read geom=check guess=(re
 ad,tcheck) scf=(maxcycle=1)\\title\\0,1\C,0,-1.62839588,0.04637659,0.0
 25088\C,0,-0.13604164,-0.0031969,-0.00555074\N,0,0.72906989,0.6538535,
 0.72145454\C,0,1.92359526,0.17885218,0.22385607\N,0,1.83184107,-0.7100
 1801,-0.7424322\O,0,0.43228515,-0.84042419,-0.90589041\H,0,-1.9615502,
 0.73808968,0.80464453\H,0,-2.04878898,-0.94953413,0.22535526\H,0,-2.02
 902358,0.37879769,-0.94336893\H,0,2.88700891,0.50720358,0.59684388\\Ve

 Normal termination of Gaussian 16 at Wed Apr  9 03:06:42 2025.
