 Gaussian 16, Revision C.01,

 ----------------------------------------------------------------------
 #t hf aug-cc-pvdz symm=none int=(grid=ultrafine) guess=(read,tcheck) s
 table=(opt,rrhf)
 ----------------------------------------------------------------------
 -----
 title
 -----
 Symbolic Z-matrix:
 Charge =  0 Multiplicity = 1

 SCF Done:  E(RHF) =  -338.607240547     A.U. after   15 cycles
 Normal termination of Gaussian 16 at Wed Apr  9 16:26:58 2025.
 Gaussian 16:  ES64L-G16RevC.01  3-Jul-2019

 ----------------------------------------------------------------------
 #t hf aug-cc-pvdz iop(5/13=1,5/36=2,99/5=2) pseudo=read geom=check gue
 ss=(read,tcheck) scf=(maxcycle=1)
 ----------------------------------------------------------------------
 -----
 title
 -----
 Structure from the checkpoint file:  "Grambow2020_wb97xd3_008307_reverse_mol2.chk"
 Charge =  0 Multiplicity = 1

                         Standard orientation:
 ---------------------------------------------------------------------
 Center     Atomic      Atomic             Coordinates (Angstroms)
 Number     Number       Type             X           Y           Z
 ---------------------------------------------------------------------
      1          6           0       -2.385782    0.259733    0.489109
      2          8           0       -1.497909   -0.294767   -0.528745
      3          6           0       -0.073269   -0.132578   -0.228020
      4          6           0        0.665013   -1.232048    0.061289
      5          7           0        1.868166   -0.549923    0.228197
      6          6           0        1.721495    0.792967    0.047371
      7          7           0        0.476614    1.094912   -0.250161
      8          1           0       -2.156631   -0.213938    1.442155
      9          1           0       -3.405290    0.074355    0.160555
     10          1           0       -2.159647    1.320642    0.514205
     11          1           0       -1.540585   -1.272956   -0.548316
     12          1           0        2.737668   -0.996816    0.457741
     13          1           0        2.529548    1.503487    0.138872
 ---------------------------------------------------------------------

 SCF Done:  E(RHF) =  -338.710675709     A.U. after    2 cycles

 The electronic state is 1-A.
 Alpha  occ. eigenvalues --  -20.72784 -15.64705 -15.60412 -11.34965 -11.28581
 Alpha  occ. eigenvalues --  -11.27813 -11.19133  -1.48062  -1.28737  -1.11407
 Alpha  occ. eigenvalues --   -1.03432  -0.96115  -0.86413  -0.80282  -0.77496
 Alpha  occ. eigenvalues --   -0.73175  -0.70124  -0.64332  -0.61091  -0.59154
 Alpha  occ. eigenvalues --   -0.56879  -0.55611  -0.44895  -0.37797  -0.33050
 Alpha  occ. eigenvalues --   -0.28608
 Alpha virt. eigenvalues --    0.02216   0.03941   0.04506   0.05189   0.05981
 Alpha virt. eigenvalues --    0.06964   0.09361   0.10350   0.11567   0.11737
 Alpha virt. eigenvalues --    0.12552   0.13817   0.14346   0.15332   0.15604

 Mulliken charges:
               1
     1  C    0.718192
     2  O   -0.560529
     3  C    0.570226
     4  C   -0.141552
     5  N   -0.314218
     6  C    0.674976
     7  N   -0.696116
     8  H   -0.005864
     9  H   -0.152942
    10  H   -0.042425
    11  H    0.310226
    12  H   -0.105939
    13  H   -0.254034
 Sum of Mulliken charges =  -0.00000

 Dipole moment (field-independent basis, Debye):
    X=             -3.6842    Y=              0.6904    Z=              1.1669  Tot=              3.9258

 Test job not archived.
 1\1\GINC-SE105\SP\RHF\Aug-CC-pVDZ\C4H6N2O1\OHZDE\09-Apr-2025\0\\#t hf
 aug-cc-pvdz iop(5/13=1,5/36=2,99/5=2) pseudo=read geom=check guess=(re
 ad,tcheck) scf=(maxcycle=1)\\title\\0,1\C,0,2.13518787,0.08427969,-0.5
 9549868\O,0,1.26357529,-0.70268982,0.27213396\C,0,-0.13803508,-0.27676
 002,0.2518539\C,0,-1.06429495,-1.09625103,-0.30318747\N,0,-2.15366284,
 -0.26692122,-0.04585326\C,0,-1.78001409,0.88548268,0.57858025\N,0,-0.4
 8166075,0.90893326,0.78631321\H,0,1.75062449,0.02935104,-1.61248639\H,
 0,3.13717771,-0.32655287,-0.50092797\H,0,2.07927597,1.09674354,-0.2093

 Normal termination of Gaussian 16 at Wed Apr  9 16:27:02 2025.
