 Gaussian 16, Revision C.01,

 ----------------------------------------------------------------------
 #t hf aug-cc-pvdz symm=none int=(grid=ultrafine) guess=(read,tcheck) s
 table=(opt,rrhf)
 ----------------------------------------------------------------------
 -----
 title
 -----
 Symbolic Z-matrix:
 Charge =  0 Multiplicity = 1

 SCF Done:  E(RHF) =  -279.682902321     A.U. after   16 cycles
 Normal termination of Gaussian 16 at Wed Apr  9 03:15:25 2025.
 Gaussian 16:  ES64L-G16RevC.01  3-Jul-2019

 ----------------------------------------------------------------------
 #t hf aug-cc-pvdz iop(5/13=1,5/36=2,99/5=2) pseudo=read geom=check gue
 ss=(read,tcheck) scf=(maxcycle=1)
 ----------------------------------------------------------------------
 -----
 title
 -----
 Structure from the checkpoint file:  "Grambow2020_b97d3_007046_reverse_mol2.chk"
 Charge =  0 Multiplicity = 1

                         Standard orientation:
 ---------------------------------------------------------------------
 Center     Atomic      Atomic             Coordinates (Angstroms)
 Number     Number       Type             X           Y           Z
 ---------------------------------------------------------------------
      1          7           0       -1.782005   -0.587241   -0.087675
      2          6           0       -0.711717    0.263832   -0.003847
      3          6           0       -0.253073    1.530185    0.024994
      4          6           0        1.183309    0.979977   -0.035505
      5          7           0        0.715633   -0.279069   -0.042371
      6          7           0        0.965741   -1.549749    0.028721
      7          1           0       -2.594097   -0.351126    0.479218
      8          1           0       -1.482878   -1.557752    0.035180
      9          1           0       -0.713715    2.509210    0.034475
     10          1           0        2.194650    1.324784    0.133762
     11          1           0        1.989331   -1.656663    0.112795
 ---------------------------------------------------------------------

 SCF Done:  E(RHF) =  -279.764404504     A.U. after    2 cycles

 The electronic state is 1-A.
 Alpha  occ. eigenvalues --  -15.76579 -15.65835 -15.62776 -11.34394 -11.28533
 Alpha  occ. eigenvalues --  -11.25345  -1.33818  -1.19718  -1.13644  -0.93294
 Alpha  occ. eigenvalues --   -0.86474  -0.73975  -0.72285  -0.70804  -0.65370
 Alpha  occ. eigenvalues --   -0.61244  -0.58453  -0.52560  -0.49409  -0.44011
 Alpha  occ. eigenvalues --   -0.37509  -0.24301
 Alpha virt. eigenvalues --    0.03015   0.03523   0.04321   0.05583   0.06590
 Alpha virt. eigenvalues --    0.07389   0.10606   0.11113   0.12450   0.12876
 Alpha virt. eigenvalues --    0.13429   0.14101   0.15242   0.15665   0.16487

 Mulliken charges:
               1
     1  N   -0.271814
     2  C    0.003261
     3  C    0.841845
     4  C    0.219662
     5  N   -0.226109
     6  N   -0.184048
     7  H    0.014137
     8  H    0.097355
     9  H   -0.239188
    10  H   -0.262693
    11  H    0.007592
 Sum of Mulliken charges =  -0.00000

 Dipole moment (field-independent basis, Debye):
    X=             -0.6725    Y=              1.4028    Z=              1.2617  Tot=              2.0029

 Test job not archived.
 1\1\GINC-SE108\SP\RHF\Aug-CC-pVDZ\C3H5N3\OHZDE\09-Apr-2025\0\\#t hf au
 g-cc-pvdz iop(5/13=1,5/36=2,99/5=2) pseudo=read geom=check guess=(read
 ,tcheck) scf=(maxcycle=1)\\title\\0,1\N,0,-1.82143271,-0.33409832,0.14
 591988\C,0,-0.46510057,-0.51640462,0.0826991\C,0,0.57971622,-1.3666466
 4,0.09954299\C,0,1.5280262,-0.15423741,0.1183535\N,0,0.47943241,0.6841
 8025,0.07997469\N,0,0.04117097,1.89835014,-0.04632983\H,0,-2.39101285,
 -0.97767355,-0.39997525\H,0,-2.06279963,0.64595999,-0.0204825\H,0,0.68
 821761,-2.44258896,0.1362313\H,0,2.57428284,0.06327083,-0.05013753\H,0

 Normal termination of Gaussian 16 at Wed Apr  9 03:15:29 2025.
