 Gaussian 16, Revision C.01,

 ----------------------------------------------------------------------
 #t hf aug-cc-pvdz symm=none int=(grid=ultrafine) guess=(read,tcheck) s
 table=(opt,rrhf)
 ----------------------------------------------------------------------
 -----
 title
 -----
 Symbolic Z-matrix:
 Charge =  0 Multiplicity = 1

 SCF Done:  E(RHF) =  -268.756824299     A.U. after   16 cycles
 Normal termination of Gaussian 16 at Wed Apr  9 14:18:19 2025.
 Gaussian 16:  ES64L-G16RevC.01  3-Jul-2019

 ----------------------------------------------------------------------
 #t hf aug-cc-pvdz iop(5/13=1,5/36=2,99/5=2) pseudo=read geom=check gue
 ss=(read,tcheck) scf=(maxcycle=1)
 ----------------------------------------------------------------------
 -----
 title
 -----
 Structure from the checkpoint file:  "Grambow2020_b97d3_007085_reverse_mol2.chk"
 Charge =  0 Multiplicity = 1

                         Standard orientation:
 ---------------------------------------------------------------------
 Center     Atomic      Atomic             Coordinates (Angstroms)
 Number     Number       Type             X           Y           Z
 ---------------------------------------------------------------------
      1          6           0       -1.843658   -0.629715    0.125290
      2          6           0       -0.436149   -1.081054   -0.245766
      3          6           0        0.648507   -0.182833    0.349820
      4          8           0        1.892022   -0.604822   -0.194193
      5          6           0       -0.781941    1.917871   -0.221506
      6          6           0        0.349088    1.298296    0.043905
      7          1           0       -2.020321   -0.667485    1.208837
      8          1           0       -2.609001   -1.231696   -0.381996
      9          1           0       -2.012061    0.427382   -0.200123
     10          1           0       -0.307384   -1.074326   -1.337111
     11          1           0       -0.251458   -2.107586    0.103073
     12          1           0        0.650561   -0.281533    1.451998
     13          1           0        2.603372   -0.160666    0.303147
     14          1           0        1.195043    1.999089    0.095267
 ---------------------------------------------------------------------

 SCF Done:  E(RHF) =  -268.836953922     A.U. after    2 cycles

 The electronic state is 1-A.
 Alpha  occ. eigenvalues --  -20.59481 -11.32848 -11.29970 -11.25088 -11.24443
 Alpha  occ. eigenvalues --  -11.24121  -1.34292  -1.09211  -1.02078  -0.92880
 Alpha  occ. eigenvalues --   -0.82217  -0.73258  -0.71051  -0.66927  -0.61724
 Alpha  occ. eigenvalues --   -0.57890  -0.56126  -0.52491  -0.51892  -0.49579
 Alpha  occ. eigenvalues --   -0.48413  -0.43811  -0.39461
 Alpha virt. eigenvalues --    0.02890   0.04022   0.04827   0.05089   0.06147
 Alpha virt. eigenvalues --    0.06942   0.07069   0.07423   0.08385   0.12144
 Alpha virt. eigenvalues --    0.12256   0.12567   0.13016   0.14645   0.14916

 Mulliken charges:
               1
     1  C    0.440103
     2  C    0.263952
     3  C    0.352284
     4  O   -0.619964
     5  C   -0.412124
     6  C    0.486780
     7  H   -0.057334
     8  H   -0.001324
     9  H   -0.152607
    10  H   -0.054103
    11  H   -0.014656
    12  H   -0.068923
    13  H    0.166746
    14  H   -0.328830
 Sum of Mulliken charges =  -0.00000

 Dipole moment (field-independent basis, Debye):
    X=              1.4891    Y=             -0.8590    Z=              1.8689  Tot=              2.5394

 Test job not archived.
 1\1\GINC-SE018\SP\RHF\Aug-CC-pVDZ\C5H8O1\OHZDE\09-Apr-2025\0\\#t hf au
 g-cc-pvdz iop(5/13=1,5/36=2,99/5=2) pseudo=read geom=check guess=(read
 ,tcheck) scf=(maxcycle=1)\\title\\0,1\C,0,-1.34965545,1.00391467,-0.28
 468886\C,0,-0.88725369,-0.38349216,0.14397996\C,0,0.62033788,-0.454119
 96,0.38930008\O,0,0.94702793,-1.81787258,0.62126563\C,0,1.0298156,1.01
 071452,-1.72544393\C,0,1.3892793,0.13539434,-0.80994259\H,0,-1.1613594
 8,1.76202957,0.48765539\H,0,-2.41713889,1.01377941,-0.54130859\H,0,-0.
 80441103,1.32865052,-1.20608024\H,0,-1.13040914,-1.12416615,-0.6305754

 Normal termination of Gaussian 16 at Wed Apr  9 14:18:24 2025.
