 Gaussian 16, Revision C.01,

 ----------------------------------------------------------------------
 #t hf aug-cc-pvdz symm=none int=(grid=ultrafine) guess=(read,tcheck) s
 table=(opt,rrhf)
 ----------------------------------------------------------------------
 -----
 title
 -----
 Symbolic Z-matrix:
 Charge =  0 Multiplicity = 1

 SCF Done:  E(RHF) =  -306.500228016     A.U. after   14 cycles
 Normal termination of Gaussian 16 at Wed Apr  9 16:23:06 2025.
 Gaussian 16:  ES64L-G16RevC.01  3-Jul-2019

 ----------------------------------------------------------------------
 #t hf aug-cc-pvdz iop(5/13=1,5/36=2,99/5=2) pseudo=read geom=check gue
 ss=(read,tcheck) scf=(maxcycle=1)
 ----------------------------------------------------------------------
 -----
 title
 -----
 Structure from the checkpoint file:  "Grambow2020_wb97xd3_008167_reverse_mol1.chk"
 Charge =  0 Multiplicity = 1

                         Standard orientation:
 ---------------------------------------------------------------------
 Center     Atomic      Atomic             Coordinates (Angstroms)
 Number     Number       Type             X           Y           Z
 ---------------------------------------------------------------------
      1          8           0        2.135039   -0.213164   -0.212184
      2          6           0        0.844215   -0.198843   -0.004432
      3          6           0        0.068031    1.440637   -0.234061
      4          6           0       -1.063113    0.646400    0.435044
      5          6           0       -1.555076   -0.384711   -0.600104
      6          6           0       -0.286756   -1.149817   -0.296823
      7          6           0       -0.142292   -0.439809    1.069039
      8          1           0        1.381629    0.888996   -0.428898
      9          1           0       -0.144823    1.866062   -1.215719
     10          1           0        0.492939    2.179200    0.450408
     11          1           0       -1.778567    1.222826    1.014371
     12          1           0       -2.436296   -0.916894   -0.238889
     13          1           0       -1.723804   -0.037277   -1.622661
     14          1           0       -0.025500   -2.168742   -0.549202
     15          1           0       -0.035942   -0.811996    2.076081
 ---------------------------------------------------------------------

 SCF Done:  E(RHF) =  -306.590889113     A.U. after    2 cycles

 The electronic state is 1-A.
 Alpha  occ. eigenvalues --  -20.51755 -11.36261 -11.27517 -11.26904 -11.25877
 Alpha  occ. eigenvalues --  -11.25541 -11.25362  -1.32172  -1.22127  -1.00900
 Alpha  occ. eigenvalues --   -0.97362  -0.87728  -0.76496  -0.75359  -0.69247
 Alpha  occ. eigenvalues --   -0.68551  -0.63458  -0.61891  -0.56925  -0.55924
 Alpha  occ. eigenvalues --   -0.53561  -0.49572  -0.47917  -0.44080  -0.36652
 Alpha  occ. eigenvalues --   -0.36146
 Alpha virt. eigenvalues --    0.02741   0.04019   0.04036   0.04566   0.06061
 Alpha virt. eigenvalues --    0.06554   0.06780   0.07640   0.10255   0.11525
 Alpha virt. eigenvalues --    0.11897   0.12414   0.13377   0.13657   0.14303

 Mulliken charges:
               1
     1  O   -0.869990
     2  C    0.402529
     3  C    0.337984
     4  C    0.344345
     5  C    0.572553
     6  C    0.449679
     7  C    0.260335
     8  H    0.201972
     9  H   -0.253372
    10  H   -0.119463
    11  H   -0.354876
    12  H   -0.109274
    13  H   -0.165534
    14  H   -0.327263
    15  H   -0.369626
 Sum of Mulliken charges =  -0.00000

 Dipole moment (field-independent basis, Debye):
    X=             -4.3487    Y=              1.4481    Z=              0.4507  Tot=              4.6056

 Test job not archived.
 1\1\GINC-SE105\SP\RHF\Aug-CC-pVDZ\C6H8O1\OHZDE\09-Apr-2025\0\\#t hf au
 g-cc-pvdz iop(5/13=1,5/36=2,99/5=2) pseudo=read geom=check guess=(read
 ,tcheck) scf=(maxcycle=1)\\title\\0,1\O,0,2.15987953,1.10719776,-0.329
 67734\C,0,0.93756499,0.64483934,-0.28769189\C,0,0.80332558,-1.05489388
 ,0.37258789\C,0,-0.60105079,-0.82873979,-0.20584237\C,0,-1.29365711,0.
 20817923,0.70071274\C,0,-0.40914076,1.23768833,0.03457156\C,0,-0.18892
 369,0.31241962,-1.18442033\H,0,1.86096736,-0.0930448,0.21751317\H,0,0.
 86456342,-1.28648636,1.43680692\H,0,1.37362224,-1.761914,-0.23519909\H

 Normal termination of Gaussian 16 at Wed Apr  9 16:23:11 2025.
