 Gaussian 16, Revision C.01,

 ----------------------------------------------------------------------
 #t hf aug-cc-pvdz symm=none int=(grid=ultrafine) guess=(read,tcheck) s
 table=(opt,rrhf)
 ----------------------------------------------------------------------
 -----
 title
 -----
 Symbolic Z-matrix:
 Charge =  0 Multiplicity = 1

 SCF Done:  E(RHF) =  -344.781320770     A.U. after   14 cycles

 1\1\GINC-SE340\Stability\RHF\Aug-CC-pVDZ\C5H10O2\OHZDE\09-Apr-2025\0\\
 #t hf aug-cc-pvdz symm=none int=(grid=ultrafine) guess=(read,tcheck) s
 table=(opt,rrhf)\\title\\0,1\C,0,-2.40064906,0.46034835,-0.33077082\C,
 0,-0.56490761,-1.24298282,-0.38265707\O,0,-1.11196941,0.16542825,-0.86
 939323\C,0,0.40272596,-0.96163509,0.74657505\C,0,1.77345677,-0.2966105
 8,0.48806203\C,0,1.78149735,1.14159082,0.10096118\O,0,0.82471707,1.786
 26907,-0.27675501\H,0,-2.36577122,0.46807831,0.75960851\H,0,-2.7158514
 4,1.43187018,-0.71466669\H,0,-3.06452049,-0.3305847,-0.66403555\H,0,-0

 Normal termination of Gaussian 16 at Wed Apr  9 03:33:32 2025.
 Gaussian 16:  ES64L-G16RevC.01  3-Jul-2019

 ----------------------------------------------------------------------
 #t hf aug-cc-pvdz iop(5/13=1,5/36=2,99/5=2) pseudo=read geom=check gue
 ss=(read,tcheck) scf=(maxcycle=1)
 ----------------------------------------------------------------------
 -----
 title
 -----
 Structure from the checkpoint file:  "Grambow2020_wb97xd3_007093_reverse_mol2.chk"
 Charge =  0 Multiplicity = 1

                         Standard orientation:
 ---------------------------------------------------------------------
 Center     Atomic      Atomic             Coordinates (Angstroms)
 Number     Number       Type             X           Y           Z
 ---------------------------------------------------------------------
      1          6           0        2.409827   -0.475861    0.385885
      2          6           0        0.815002    1.256171   -0.468851
      3          8           0        1.301658   -0.254680   -0.486370
      4          6           0       -0.392796    1.308462    0.441714
      5          6           0       -1.740290    0.672279    0.032422
      6          6           0       -1.817264   -0.814492   -0.011435
      7          8           0       -0.875327   -1.580264   -0.004022
      8          1           0        2.145461   -0.216214    1.411993
      9          1           0        2.695247   -1.526549    0.313951
     10          1           0        3.208132    0.174801    0.044253
     11          1           0        0.490840    1.340252   -1.515271
     12          1           0        0.550553   -0.871320   -0.269302
     13          1           0       -0.133198    0.957821    1.448780
     14          1           0       -0.591275    2.377296    0.568058
     15          1           0       -2.025186    1.007544   -0.975247
     16          1           0       -2.564503    1.002409    0.678780
     17          1           0       -2.833587   -1.245846   -0.061276
 ---------------------------------------------------------------------

 SCF Done:  E(RHF) =  -344.890551520     A.U. after    2 cycles

 The electronic state is 1-A.
 Alpha  occ. eigenvalues --  -20.63227 -20.60652 -11.37494 -11.29567 -11.25514
 Alpha  occ. eigenvalues --  -11.22626 -11.20242  -1.40165  -1.37956  -1.06622
 Alpha  occ. eigenvalues --   -0.97286  -0.93314  -0.85291  -0.77360  -0.74575
 Alpha  occ. eigenvalues --   -0.71635  -0.67928  -0.65407  -0.64033  -0.60947
 Alpha  occ. eigenvalues --   -0.56268  -0.55680  -0.53631  -0.52682  -0.50198
 Alpha  occ. eigenvalues --   -0.46770  -0.44639  -0.27527
 Alpha virt. eigenvalues --    0.02846   0.04232   0.04529   0.04981   0.06238
 Alpha virt. eigenvalues --    0.06545   0.06852   0.07420   0.08463   0.09228
 Alpha virt. eigenvalues --    0.09848   0.11558   0.11969   0.13864   0.14483

 Mulliken charges:
               1
     1  C    0.856365
     2  C    0.156752
     3  O   -0.538802
     4  C    0.176374
     5  C    0.014058
     6  C    0.539178
     7  O   -0.505800
     8  H   -0.060211
     9  H   -0.170084
    10  H   -0.132424
    11  H   -0.350367
    12  H    0.371639
    13  H   -0.133702
    14  H   -0.005851
    15  H    0.031097
    16  H   -0.040197
    17  H   -0.208025
 Sum of Mulliken charges =  -0.00000

 Dipole moment (field-independent basis, Debye):
    X=             -3.0802    Y=             -1.8781    Z=              1.1956  Tot=              3.8006

 Test job not archived.
 1\1\GINC-SE340\SP\RHF\Aug-CC-pVDZ\C5H10O2\OHZDE\09-Apr-2025\0\\#t hf a
 ug-cc-pvdz iop(5/13=1,5/36=2,99/5=2) pseudo=read geom=check guess=(rea
 d,tcheck) scf=(maxcycle=1)\\title\\0,1\C,0,-2.40064906,0.46034835,-0.3
 3077082\C,0,-0.56490761,-1.24298282,-0.38265707\O,0,-1.11196941,0.1654
 2825,-0.86939323\C,0,0.40272596,-0.96163509,0.74657505\C,0,1.77345677,
 -0.29661058,0.48806203\C,0,1.78149735,1.14159082,0.10096118\O,0,0.8247
 1707,1.78626907,-0.27675501\H,0,-2.36577122,0.46807831,0.75960851\H,0,
 -2.71585144,1.43187018,-0.71466669\H,0,-3.06452049,-0.3305847,-0.66403

 Normal termination of Gaussian 16 at Wed Apr  9 03:33:37 2025.
