 Gaussian 16, Revision C.01,

 ----------------------------------------------------------------------
 #t hf aug-cc-pvdz symm=none int=(grid=ultrafine) guess=(read,tcheck) s
 table=(opt,rrhf)
 ----------------------------------------------------------------------
 -----
 title
 -----
 Symbolic Z-matrix:
 Charge =  0 Multiplicity = 1

 SCF Done:  E(RHF) =  -305.362549490     A.U. after   18 cycles
 Normal termination of Gaussian 16 at Wed Apr  9 03:52:38 2025.
 Gaussian 16:  ES64L-G16RevC.01  3-Jul-2019

 ----------------------------------------------------------------------
 #t hf aug-cc-pvdz iop(5/13=1,5/36=2,99/5=2) pseudo=read geom=check gue
 ss=(read,tcheck) scf=(maxcycle=1)
 ----------------------------------------------------------------------
 -----
 title
 -----
 Structure from the checkpoint file:  "Grambow2020_wb97xd3_008351_forward_mol1.chk"
 Charge =  0 Multiplicity = 1

                         Standard orientation:
 ---------------------------------------------------------------------
 Center     Atomic      Atomic             Coordinates (Angstroms)
 Number     Number       Type             X           Y           Z
 ---------------------------------------------------------------------
      1          8           0        2.041707   -0.165745   -0.592772
      2          6           0        1.085810   -0.164605    0.418183
      3          6           0        0.196202    1.385845    0.320535
      4          6           0       -1.102670    1.167044   -0.140347
      5          6           0       -1.912108    0.247535   -0.367083
      6          6           0        0.141344   -1.214585    0.392645
      7          6           0       -1.066294   -1.374253    0.111754
      8          1           0        1.652021   -0.566556   -1.374401
      9          1           0        1.601430   -0.021400    1.365727
     10          1           0        0.860685    1.916840   -0.358838
     11          1           0        0.237455    1.818070    1.320089
     12          1           0       -2.904048    0.021257   -0.706461
     13          1           0       -1.834907   -2.124136    0.081942
 ---------------------------------------------------------------------

 SCF Done:  E(RHF) =  -305.457333917     A.U. after    2 cycles

 The electronic state is 1-A.
 Alpha  occ. eigenvalues --  -20.59576 -11.33881 -11.27222 -11.26942 -11.26096
 Alpha  occ. eigenvalues --  -11.25529 -11.23913  -1.35745  -1.11006  -1.02934
 Alpha  occ. eigenvalues --   -0.98602  -0.89904  -0.79296  -0.73004  -0.68059
 Alpha  occ. eigenvalues --   -0.66988  -0.64195  -0.60864  -0.59440  -0.55545
 Alpha  occ. eigenvalues --   -0.53141  -0.43353  -0.41752  -0.36509  -0.31387
 Alpha virt. eigenvalues --    0.03287   0.04041   0.04599   0.05046   0.05319
 Alpha virt. eigenvalues --    0.06128   0.07042   0.09834   0.10125   0.11437
 Alpha virt. eigenvalues --    0.12325   0.13566   0.14080   0.14534   0.14908

 Mulliken charges:
               1
     1  O   -0.523716
     2  C    0.466522
     3  C    0.105773
     4  C   -0.580378
     5  C    0.846802
     6  C   -0.711668
     7  C    0.948509
     8  H    0.167259
     9  H   -0.079875
    10  H    0.074319
    11  H    0.064630
    12  H   -0.396960
    13  H   -0.381218
 Sum of Mulliken charges =  -0.00000

 Dipole moment (field-independent basis, Debye):
    X=             -1.2767    Y=              0.0190    Z=             -0.1777  Tot=              1.2892

 Test job not archived.
 1\1\GINC-SE173\SP\RHF\Aug-CC-pVDZ\C6H6O1\OHZDE\09-Apr-2025\0\\#t hf au
 g-cc-pvdz iop(5/13=1,5/36=2,99/5=2) pseudo=read geom=check guess=(read
 ,tcheck) scf=(maxcycle=1)\\title\\0,1\O,0,-0.23290753,-1.22323483,1.84
 205715\C,0,0.39448126,-1.00842188,0.61894185\C,0,-0.88362202,-0.843408
 11,-0.62365855\C,0,-0.95872,0.47865767,-1.0639505\C,0,-0.34373837,1.56
 039761,-1.00285113\C,0,1.23752936,0.12168801,0.53381792\C,0,1.22155457
 ,1.25838605,0.01377514\H,0,-0.37478756,-0.37011227,2.26098469\H,0,0.83
 92227,-1.94949162,0.30144536\H,0,-1.73034713,-1.20115339,-0.04046468\H

 Normal termination of Gaussian 16 at Wed Apr  9 03:52:42 2025.
