 Gaussian 16, Revision C.01,

 ----------------------------------------------------------------------
 #t hf aug-cc-pvdz symm=none int=(grid=ultrafine) guess=(read,tcheck) s
 table=(opt,rrhf)
 ----------------------------------------------------------------------
 -----
 title
 -----
 Symbolic Z-matrix:
 Charge =  0 Multiplicity = 1

 SCF Done:  E(RHF) =  -342.430231524     A.U. after   15 cycles
 Normal termination of Gaussian 16 at Wed Apr  9 16:32:00 2025.
 Gaussian 16:  ES64L-G16RevC.01  3-Jul-2019

 ----------------------------------------------------------------------
 #t hf aug-cc-pvdz iop(5/13=1,5/36=2,99/5=2) pseudo=read geom=check gue
 ss=(read,tcheck) scf=(maxcycle=1)
 ----------------------------------------------------------------------
 -----
 title
 -----
 Structure from the checkpoint file:  "Grambow2020_wb97xd3_008520_forward_mol1.chk"
 Charge =  0 Multiplicity = 1

                         Standard orientation:
 ---------------------------------------------------------------------
 Center     Atomic      Atomic             Coordinates (Angstroms)
 Number     Number       Type             X           Y           Z
 ---------------------------------------------------------------------
      1          8           0       -2.173266   -0.549691   -0.238590
      2          6           0       -1.026884   -0.252220    0.245289
      3          6           0       -0.555020    1.159178    0.255249
      4          8           0        0.636754    1.371922   -0.141416
      5          6           0        1.249368    0.113785   -0.548241
      6          6           0        1.504120   -0.843721    0.558741
      7          6           0        0.265624   -0.967301   -0.276104
      8          1           0       -0.924397   -0.307966    1.413989
      9          1           0       -1.120412    2.026660    0.584158
     10          1           0        1.892051    0.264014   -1.402273
     11          1           0        1.398904   -0.474306    1.574059
     12          1           0        2.310340   -1.551700    0.415942
     13          1           0        0.112358   -1.792876   -0.955433
 ---------------------------------------------------------------------

 SCF Done:  E(RHF) =  -342.535632850     A.U. after    2 cycles

 The electronic state is 1-A.
 Alpha  occ. eigenvalues --  -20.71400 -20.44224 -11.41822 -11.34340 -11.30971
 Alpha  occ. eigenvalues --  -11.27456 -11.26486  -1.50108  -1.23919  -1.18081
 Alpha  occ. eigenvalues --   -1.03287  -0.92165  -0.84858  -0.82169  -0.77955
 Alpha  occ. eigenvalues --   -0.72370  -0.67838  -0.64962  -0.62780  -0.58831
 Alpha  occ. eigenvalues --   -0.56120  -0.53830  -0.46813  -0.46306  -0.36284
 Alpha  occ. eigenvalues --   -0.34657
 Alpha virt. eigenvalues --    0.02426   0.03340   0.03853   0.04085   0.05249
 Alpha virt. eigenvalues --    0.05976   0.07131   0.09520   0.10028   0.10448
 Alpha virt. eigenvalues --    0.11132   0.13404   0.13717   0.14448   0.14823

 Mulliken charges:
               1
     1  O   -0.812127
     2  C    0.330199
     3  C    0.362471
     4  O   -0.466993
     5  C    0.844072
     6  C    0.752917
     7  C    0.368726
     8  H    0.257155
     9  H   -0.259463
    10  H   -0.386692
    11  H   -0.333544
    12  H   -0.322090
    13  H   -0.334630
 Sum of Mulliken charges =  -0.00000

 Dipole moment (field-independent basis, Debye):
    X=              6.3010    Y=              2.6966    Z=              1.1627  Tot=              6.9517

 Test job not archived.
 1\1\GINC-SE097\SP\RHF\Aug-CC-pVDZ\C5H6O2\OHZDE\09-Apr-2025\0\\#t hf au
 g-cc-pvdz iop(5/13=1,5/36=2,99/5=2) pseudo=read geom=check guess=(read
 ,tcheck) scf=(maxcycle=1)\\title\\0,1\O,0,1.37013374,2.07704882,0.3106
 5352\C,0,0.87889769,0.89790848,0.38231651\C,0,1.45955925,-0.21176177,-
 0.42158854\O,0,0.64095413,-0.95849198,-1.05024417\C,0,-0.7205204,-0.48
 899818,-0.82736266\C,0,-1.21972042,-0.65698793,0.56177511\C,0,-0.64609
 889,0.65500765,0.11935251\H,0,1.08869783,0.30564254,1.3746254\H,0,2.51
 326047,-0.46039934,-0.51252203\H,0,-1.31360877,-0.60850021,-1.7212002\

 Normal termination of Gaussian 16 at Wed Apr  9 16:32:04 2025.
