 Gaussian 16, Revision C.01,

 ----------------------------------------------------------------------
 #t hf aug-cc-pvdz symm=none int=(grid=ultrafine) guess=(read,tcheck) s
 table=(opt,rrhf)
 ----------------------------------------------------------------------
 -----
 title
 -----
 Symbolic Z-matrix:
 Charge =  0 Multiplicity = 1

 SCF Done:  E(RHF) =  -286.621710919     A.U. after   15 cycles
 Normal termination of Gaussian 16 at Wed Apr  9 04:05:51 2025.
 Gaussian 16:  ES64L-G16RevC.01  3-Jul-2019

 ----------------------------------------------------------------------
 #t hf aug-cc-pvdz iop(5/13=1,5/36=2,99/5=2) pseudo=read geom=check gue
 ss=(read,tcheck) scf=(maxcycle=1)
 ----------------------------------------------------------------------
 -----
 title
 -----
 Structure from the checkpoint file:  "Grambow2020_wb97xd3_009356_reverse_mol1.chk"
 Charge =  0 Multiplicity = 1

                         Standard orientation:
 ---------------------------------------------------------------------
 Center     Atomic      Atomic             Coordinates (Angstroms)
 Number     Number       Type             X           Y           Z
 ---------------------------------------------------------------------
      1          6           0       -2.124596    0.209389   -0.329670
      2          7           0       -0.900155   -0.254154    0.310142
      3          6           0        0.141783   -1.055554   -0.376259
      4          6           0        1.357934   -0.288765   -0.628103
      5          6           0        0.995382    1.156693   -0.391825
      6          6           0        0.173233    0.642065    0.790037
      7          6           0        1.062074   -0.675967    0.877231
      8          1           0       -1.892099    0.848693   -1.186214
      9          1           0       -2.715768    0.771131    0.393535
     10          1           0       -2.701575   -0.649738   -0.670681
     11          1           0       -0.069252   -2.070466   -0.679315
     12          1           0        2.146972   -0.677391   -1.260736
     13          1           0        0.506295    1.722310   -1.192727
     14          1           0        1.848954    1.718577   -0.014461
     15          1           0       -0.101833    1.276433    1.628640
     16          1           0       -0.355470   -1.087634    1.162495
 ---------------------------------------------------------------------

 SCF Done:  E(RHF) =  -286.704803097     A.U. after    2 cycles

 The electronic state is 1-A.
 Alpha  occ. eigenvalues --  -15.68681 -11.28255 -11.28198 -11.26882 -11.25799
 Alpha  occ. eigenvalues --  -11.23924 -11.19860  -1.30954  -1.11657  -0.99158
 Alpha  occ. eigenvalues --   -0.96122  -0.84453  -0.77014  -0.73318  -0.71707
 Alpha  occ. eigenvalues --   -0.65748  -0.63136  -0.60406  -0.58426  -0.53455
 Alpha  occ. eigenvalues --   -0.51362  -0.49818  -0.45602  -0.41708  -0.34583
 Alpha  occ. eigenvalues --   -0.29800
 Alpha virt. eigenvalues --    0.02747   0.03730   0.03988   0.04811   0.06155
 Alpha virt. eigenvalues --    0.06502   0.07176   0.07745   0.08310   0.10388
 Alpha virt. eigenvalues --    0.11709   0.12456   0.13246   0.13725   0.13873

 Mulliken charges:
               1
     1  C    0.725843
     2  N   -0.979863
     3  C    0.493251
     4  C    0.395282
     5  C    0.545624
     6  C    0.744742
     7  C   -0.755737
     8  H   -0.084998
     9  H   -0.177686
    10  H   -0.184525
    11  H   -0.426677
    12  H   -0.401058
    13  H   -0.162248
    14  H   -0.084975
    15  H   -0.423687
    16  H    0.776712
 Sum of Mulliken charges =   0.00000

 Dipole moment (field-independent basis, Debye):
    X=             -3.5396    Y=              1.3441    Z=             -2.4296  Tot=              4.4987

 Test job not archived.
 1\1\GINC-SE419\SP\RHF\Aug-CC-pVDZ\C6H9N1\OHZDE\09-Apr-2025\0\\#t hf au
 g-cc-pvdz iop(5/13=1,5/36=2,99/5=2) pseudo=read geom=check guess=(read
 ,tcheck) scf=(maxcycle=1)\\title\\0,1\C,0,1.97220625,0.20985995,-0.139
 84858\N,0,0.70910268,-0.48952828,-0.33711416\C,0,-0.17020886,-0.940690
 6,0.7684571\C,0,-1.39316618,-0.1498492,0.8651963\C,0,-1.17076046,1.068
 26882,0.0030213\C,0,-0.4809224,0.11478576,-0.97297215\C,0,-1.27627615,
 -1.12734114,-0.37348674\H,0,1.81216609,1.14619599,0.40245499\H,0,2.418
 32555,0.42379659,-1.11107125\H,0,2.65024132,-0.42322725,0.43178049\H,0

 Normal termination of Gaussian 16 at Wed Apr  9 04:05:56 2025.
