 Gaussian 16, Revision C.01,

 ----------------------------------------------------------------------
 #t hf aug-cc-pvdz symm=none int=(grid=ultrafine) guess=(read,tcheck) s
 table=(opt,rrhf)
 ----------------------------------------------------------------------
 -----
 title
 -----
 Symbolic Z-matrix:
 Charge =  0 Multiplicity = 1

 SCF Done:  E(RHF) =  -339.293092005     A.U. after   17 cycles
 Normal termination of Gaussian 16 at Wed Apr  9 14:12:55 2025.
 Gaussian 16:  ES64L-G16RevC.01  3-Jul-2019

 ----------------------------------------------------------------------
 #t hf aug-cc-pvdz iop(5/13=1,5/36=2,99/5=2) pseudo=read geom=check gue
 ss=(read,tcheck) scf=(maxcycle=1)
 ----------------------------------------------------------------------
 -----
 title
 -----
 Structure from the checkpoint file:  "Grambow2020_b97d3_006818_reverse_mol2.chk"
 Charge =  0 Multiplicity = 1

                         Standard orientation:
 ---------------------------------------------------------------------
 Center     Atomic      Atomic             Coordinates (Angstroms)
 Number     Number       Type             X           Y           Z
 ---------------------------------------------------------------------
      1          8           0       -2.486738   -0.703604   -0.515402
      2          6           0       -1.855359   -0.275055    0.452143
      3          6           0       -0.456487    0.129000    0.283434
      4          8           0       -0.232423    1.340347   -0.123075
      5          6           0        2.200630    0.100793   -0.105065
      6          8           0        2.983771   -0.729732    0.010862
      7          1           0       -2.214844   -0.368115    1.507293
      8          1           0        0.765255    1.383596   -0.269439
 ---------------------------------------------------------------------

 SCF Done:  E(RHF) =  -339.398653948     A.U. after    2 cycles

 The electronic state is 1-A.
 Alpha  occ. eigenvalues --  -20.69834 -20.67847 -20.58611 -11.40304 -11.36402
 Alpha  occ. eigenvalues --  -11.34749  -1.49077  -1.44025  -1.35549  -0.98766
 Alpha  occ. eigenvalues --   -0.83498  -0.82545  -0.74865  -0.71522  -0.66930
 Alpha  occ. eigenvalues --   -0.66470  -0.66233  -0.62402  -0.58277  -0.55422
 Alpha  occ. eigenvalues --   -0.47940  -0.38631
 Alpha virt. eigenvalues --    0.03302   0.04405   0.05330   0.06593   0.07781
 Alpha virt. eigenvalues --    0.08415   0.09047   0.10843   0.12366   0.12865
 Alpha virt. eigenvalues --    0.13915   0.14346   0.15008   0.16155   0.16767

 Mulliken charges:
               1
     1  O   -0.503348
     2  C    0.734530
     3  C   -0.100028
     4  O   -0.425930
     5  C    0.227328
     6  O   -0.269294
     7  H   -0.017653
     8  H    0.354395
 Sum of Mulliken charges =   0.00000

 Dipole moment (field-independent basis, Debye):
    X=              2.2430    Y=              2.2032    Z=              2.0839  Tot=              3.7720

 Test job not archived.
 1\1\GINC-SE043\SP\RHF\Aug-CC-pVDZ\C3H2O3\OHZDE\09-Apr-2025\0\\#t hf au
 g-cc-pvdz iop(5/13=1,5/36=2,99/5=2) pseudo=read geom=check guess=(read
 ,tcheck) scf=(maxcycle=1)\\title\\0,1\O,0,-2.36973873,0.32737844,0.898
 53591\C,0,-1.28743501,0.90817925,0.79991777\C,0,-0.17827149,0.25932358
 ,0.09471652\O,0,-0.1265872,0.40448909,-1.19333355\C,0,1.83669032,-1.38
 757635,-0.56834413\O,0,2.49834636,-2.08197922,0.06136744\H,0,-1.024328
 29,1.8174027,1.39600395\H,0,0.63343704,-0.18955349,-1.49020391\\Versio
 n=ES64L-G16RevC.01\State=1-A\HF=-339.3986539\RMSD=3.208e-03\Dipole=1.2

 Normal termination of Gaussian 16 at Wed Apr  9 14:12:58 2025.
