 Gaussian 16, Revision C.01,

 ----------------------------------------------------------------------
 #t hf aug-cc-pvdz symm=none int=(grid=ultrafine) guess=(read,tcheck) s
 table=(opt,rrhf)
 ----------------------------------------------------------------------
 -----
 title
 -----
 Symbolic Z-matrix:
 Charge =  0 Multiplicity = 1

 SCF Done:  E(RHF) =  -269.857123187     A.U. after   17 cycles

 1\1\GINC-SE074\Stability\RHF\Aug-CC-pVDZ\C5H10O1\OHZDE\09-Apr-2025\0\\
 #t hf aug-cc-pvdz symm=none int=(grid=ultrafine) guess=(read,tcheck) s
 table=(opt,rrhf)\\title\\0,1\C,0,-2.1486475,0.33692932,-0.29632382\C,0
 ,-0.85835561,-0.32262619,0.0927096\C,0,0.17336359,0.43310807,0.8725556
 4\C,0,1.48397448,-0.32523226,0.70022331\C,0,1.84187136,-0.45070634,-0.
 74459333\O,0,1.38104166,0.27737121,-1.7843667\H,0,-2.69748989,-0.25114
 733,-1.04835899\H,0,-2.84582818,0.46845948,0.56154982\H,0,-1.98843633,
 1.34835317,-0.70873796\H,0,-0.91846709,-1.38989969,0.32990772\H,0,0.43

 Normal termination of Gaussian 16 at Wed Apr  9 03:08:05 2025.
 Gaussian 16:  ES64L-G16RevC.01  3-Jul-2019

 ----------------------------------------------------------------------
 #t hf aug-cc-pvdz iop(5/13=1,5/36=2,99/5=2) pseudo=read geom=check gue
 ss=(read,tcheck) scf=(maxcycle=1)
 ----------------------------------------------------------------------
 -----
 title
 -----
 Structure from the checkpoint file:  "Grambow2020_b97d3_006648_forward_mol1.chk"
 Charge =  0 Multiplicity = 1

                         Standard orientation:
 ---------------------------------------------------------------------
 Center     Atomic      Atomic             Coordinates (Angstroms)
 Number     Number       Type             X           Y           Z
 ---------------------------------------------------------------------
      1          6           0       -2.385613   -0.498717    0.020228
      2          6           0       -1.106425    0.152328    0.457301
      3          6           0       -0.309842    0.978537   -0.505286
      4          6           0        1.091302    1.093335    0.083012
      5          6           0        1.689525   -0.257433    0.304113
      6          8           0        1.319934   -1.433709   -0.246676
      7          1           0       -2.733191   -1.246854    0.749680
      8          1           0       -3.222456    0.225211   -0.101960
      9          1           0       -2.280992   -1.001932   -0.956788
     10          1           0       -1.078166    0.504961    1.493545
     11          1           0        0.335771   -1.373005   -0.308972
     12          1           0       -0.278442    0.507466   -1.503789
     13          1           0       -0.703922    2.004407   -0.680925
     14          1           0        0.990456    1.601720    1.059376
     15          1           0        1.786983    1.736819   -0.502964
     16          1           0        2.750798   -0.297421    0.569992
 ---------------------------------------------------------------------

 SCF Done:  E(RHF) =  -269.940917974     A.U. after    2 cycles

 The electronic state is 1-A.
 Alpha  occ. eigenvalues --  -20.65521 -11.41755 -11.27568 -11.23131 -11.20234
 Alpha  occ. eigenvalues --  -11.17850  -1.41107  -1.08830  -0.98946  -0.92384
 Alpha  occ. eigenvalues --   -0.84955  -0.75781  -0.72964  -0.70041  -0.64650
 Alpha  occ. eigenvalues --   -0.60855  -0.57914  -0.56553  -0.53691  -0.51981
 Alpha  occ. eigenvalues --   -0.50014  -0.46430  -0.45481  -0.20852
 Alpha virt. eigenvalues --    0.01902   0.02646   0.04291   0.04815   0.04853
 Alpha virt. eigenvalues --    0.06381   0.06750   0.07015   0.07461   0.09048
 Alpha virt. eigenvalues --    0.09799   0.11519   0.12072   0.13470   0.14103

 Mulliken charges:
               1
     1  C    0.311723
     2  C   -0.213959
     3  C    0.418689
     4  C    0.329241
     5  C    0.511249
     6  O   -0.362363
     7  H   -0.035643
     8  H   -0.018335
     9  H   -0.169205
    10  H   -0.558790
    11  H    0.293883
    12  H   -0.179743
    13  H   -0.088864
    14  H    0.052288
    15  H   -0.048468
    16  H   -0.241703
 Sum of Mulliken charges =   0.00000

 Dipole moment (field-independent basis, Debye):
    X=              3.5668    Y=              1.2328    Z=             -0.3073  Tot=              3.7863

 Test job not archived.
 1\1\GINC-SE074\SP\RHF\Aug-CC-pVDZ\C5H10O1\OHZDE\09-Apr-2025\0\\#t hf a
 ug-cc-pvdz iop(5/13=1,5/36=2,99/5=2) pseudo=read geom=check guess=(rea
 d,tcheck) scf=(maxcycle=1)\\title\\0,1\C,0,-2.1486475,0.33692932,-0.29
 632382\C,0,-0.85835561,-0.32262619,0.0927096\C,0,0.17336359,0.43310807
 ,0.87255564\C,0,1.48397448,-0.32523226,0.70022331\C,0,1.84187136,-0.45
 070634,-0.74459333\O,0,1.38104166,0.27737121,-1.7843667\H,0,-2.6974898
 9,-0.25114733,-1.04835899\H,0,-2.84582818,0.46845948,0.56154982\H,0,-1
 .98843633,1.34835317,-0.70873796\H,0,-0.91846709,-1.38989969,0.3299077

 Normal termination of Gaussian 16 at Wed Apr  9 03:08:10 2025.
