 Gaussian 16, Revision C.01,

 ----------------------------------------------------------------------
 #t hf aug-cc-pvdz symm=none int=(grid=ultrafine) guess=(read,tcheck) s
 table=(opt,rrhf)
 ----------------------------------------------------------------------
 -----
 title
 -----
 Symbolic Z-matrix:
 Charge =  0 Multiplicity = 1

 SCF Done:  E(RHF) =  -308.848527496     A.U. after   14 cycles

 1\1\GINC-SE041\Stability\RHF\Aug-CC-pVDZ\C6H12O1\OHZDE\09-Apr-2025\0\\
 #t hf aug-cc-pvdz symm=none int=(grid=ultrafine) guess=(read,tcheck) s
 table=(opt,rrhf)\\title\\0,1\C,0,1.93016828,1.09019766,-0.11596027\C,0
 ,1.1128829,-0.04140643,0.42503246\C,0,1.43804363,-1.38607249,0.1060313
 5\C,0,-0.71477523,0.40008549,-0.5835707\C,0,-1.72686186,-0.71956778,-0
 .7301334\C,0,-1.95739092,0.37681324,0.23430905\O,0,-1.89641659,0.02597
 406,1.59497872\H,0,1.42225178,2.04858522,-0.02243567\H,0,2.8658252,1.1
 202923,0.448564\H,0,2.18012533,0.92079992,-1.16374694\H,0,0.6297712,0.

 Normal termination of Gaussian 16 at Wed Apr  9 16:26:26 2025.
 Gaussian 16:  ES64L-G16RevC.01  3-Jul-2019

 ----------------------------------------------------------------------
 #t hf aug-cc-pvdz iop(5/13=1,5/36=2,99/5=2) pseudo=read geom=check gue
 ss=(read,tcheck) scf=(maxcycle=1)
 ----------------------------------------------------------------------
 -----
 title
 -----
 Structure from the checkpoint file:  "Grambow2020_wb97xd3_008297_forward_mol1.chk"
 Charge =  0 Multiplicity = 1

                         Standard orientation:
 ---------------------------------------------------------------------
 Center     Atomic      Atomic             Coordinates (Angstroms)
 Number     Number       Type             X           Y           Z
 ---------------------------------------------------------------------
      1          6           0       -2.195893   -0.993965   -0.396495
      2          6           0       -1.303651   -0.108972    0.417045
      3          6           0       -1.636176    1.254763    0.629818
      4          6           0        0.395233   -0.128510   -0.873668
      5          6           0        1.406305    0.991713   -0.724485
      6          6           0        1.719432   -0.369215   -0.239539
      7          8           0        1.812977   -0.521877    1.155513
      8          1           0       -1.698920   -1.913027   -0.702396
      9          1           0       -3.065211   -1.240560    0.218750
     10          1           0       -2.554779   -0.471331   -1.283673
     11          1           0       -0.722896   -0.585129    1.196275
     12          1           0       -2.400411    1.719078    0.022493
     13          1           0       -0.578889    0.810051   -0.220755
     14          1           0       -1.254215    1.775460    1.494158
     15          1           0        0.201074   -0.522751   -1.865634
     16          1           0        1.918883    1.385345   -1.593314
     17          1           0        1.183751    1.738842    0.040439
     18          1           0        2.462800   -0.944759   -0.787757
     19          1           0        1.693500   -1.451083    1.361250
 ---------------------------------------------------------------------

 SCF Done:  E(RHF) =  -308.946703211     A.U. after    2 cycles

 The electronic state is 1-A.
 Alpha  occ. eigenvalues --  -20.57373 -11.31858 -11.28703 -11.24651 -11.22840
 Alpha  occ. eigenvalues --  -11.20823 -11.20449  -1.32843  -1.12585  -1.08745
 Alpha  occ. eigenvalues --   -0.95116  -0.81306  -0.80975  -0.77251  -0.71432
 Alpha  occ. eigenvalues --   -0.67173  -0.64340  -0.62965  -0.59921  -0.58435
 Alpha  occ. eigenvalues --   -0.56218  -0.54190  -0.51761  -0.50850  -0.49148
 Alpha  occ. eigenvalues --   -0.41366  -0.39896  -0.26429
 Alpha virt. eigenvalues --    0.02985   0.04225   0.04346   0.04773   0.06098
 Alpha virt. eigenvalues --    0.06139   0.06555   0.06819   0.07389   0.08970
 Alpha virt. eigenvalues --    0.09368   0.10496   0.12110   0.12585   0.13647

 Mulliken charges:
               1
     1  C    0.846948
     2  C   -0.314057
     3  C    0.558308
     4  C   -0.077642
     5  C    0.304021
     6  C    1.243383
     7  O   -0.647540
     8  H   -0.062725
     9  H   -0.000530
    10  H    0.004668
    11  H   -0.332019
    12  H   -0.271355
    13  H    0.358722
    14  H   -0.296501
    15  H   -0.537586
    16  H   -0.350393
    17  H   -0.180695
    18  H   -0.404835
    19  H    0.159827
 Sum of Mulliken charges =   0.00000

 Dipole moment (field-independent basis, Debye):
    X=             -0.9890    Y=             -2.3248    Z=             -1.0169  Tot=              2.7234

 Test job not archived.
 1\1\GINC-SE041\SP\RHF\Aug-CC-pVDZ\C6H12O1\OHZDE\09-Apr-2025\0\\#t hf a
 ug-cc-pvdz iop(5/13=1,5/36=2,99/5=2) pseudo=read geom=check guess=(rea
 d,tcheck) scf=(maxcycle=1)\\title\\0,1\C,0,1.93016828,1.09019766,-0.11
 596027\C,0,1.1128829,-0.04140643,0.42503246\C,0,1.43804363,-1.38607249
 ,0.10603135\C,0,-0.71477523,0.40008549,-0.5835707\C,0,-1.72686186,-0.7
 1956778,-0.7301334\C,0,-1.95739092,0.37681324,0.23430905\O,0,-1.896416
 59,0.02597406,1.59497872\H,0,1.42225178,2.04858522,-0.02243567\H,0,2.8
 658252,1.1202923,0.448564\H,0,2.18012533,0.92079992,-1.16374694\H,0,0.

 Normal termination of Gaussian 16 at Wed Apr  9 16:26:34 2025.
