 Gaussian 16, Revision C.01,

 ----------------------------------------------------------------------
 #t hf aug-cc-pvdz symm=none int=(grid=ultrafine) guess=(read,tcheck) s
 table=(opt,rrhf)
 ----------------------------------------------------------------------
 -----
 title
 -----
 Symbolic Z-matrix:
 Charge =  0 Multiplicity = 1

 SCF Done:  E(RHF) =  -306.879430005     A.U. after   14 cycles

 1\1\GINC-SE162\Stability\RHF\Aug-CC-pVDZ\C4H10O2\OHZDE\09-Apr-2025\0\\
 #t hf aug-cc-pvdz symm=none int=(grid=ultrafine) guess=(read,tcheck) s
 table=(opt,rrhf)\\title\\0,1\O,0,-1.1400212,0.47942194,-1.4167339\C,0,
 -1.59441071,-0.21946271,-0.27639982\C,0,-0.51778737,-1.11258523,0.3842
 7152\C,0,0.55824841,-0.34569633,1.14463966\C,0,1.55218565,0.80271979,-
 0.04705012\O,0,0.84391381,1.94827284,-0.22416546\H,0,-0.52419716,1.200
 50825,-1.11410296\H,0,-2.02201881,0.45644244,0.49269973\H,0,-2.4106097
 5,-0.87138495,-0.61778372\H,0,-0.05198477,-1.72412653,-0.40205562\H,0,

 Normal termination of Gaussian 16 at Wed Apr  9 14:19:25 2025.
 Gaussian 16:  ES64L-G16RevC.01  3-Jul-2019

 ----------------------------------------------------------------------
 #t hf aug-cc-pvdz iop(5/13=1,5/36=2,99/5=2) pseudo=read geom=check gue
 ss=(read,tcheck) scf=(maxcycle=1)
 ----------------------------------------------------------------------
 -----
 title
 -----
 Structure from the checkpoint file:  "Grambow2020_b97d3_007164_forward_mol1.chk"
 Charge =  0 Multiplicity = 1

                         Standard orientation:
 ---------------------------------------------------------------------
 Center     Atomic      Atomic             Coordinates (Angstroms)
 Number     Number       Type             X           Y           Z
 ---------------------------------------------------------------------
      1          8           0       -1.027258   -1.398208    0.327423
      2          6           0       -1.588105   -0.260962   -0.294985
      3          6           0       -1.025464    1.082711    0.225834
      4          6           0        0.394628    1.392604   -0.233988
      5          6           0        1.632690    0.065935    0.424836
      6          8           0        1.586063   -1.009290   -0.404035
      7          1           0       -0.092120   -1.500778    0.002176
      8          1           0       -1.486873   -0.288921   -1.399603
      9          1           0       -2.664005   -0.285262   -0.072333
     10          1           0       -1.064375    1.066160    1.324686
     11          1           0       -1.686530    1.900449   -0.108217
     12          1           0        0.874752    2.239264    0.268645
     13          1           0        0.454100    1.597726   -1.321916
     14          1           0        1.162098   -0.008089    1.422366
     15          1           0        2.565599    0.658071    0.432654
     16          1           0        0.984419    0.199634   -0.665741
 ---------------------------------------------------------------------

 SCF Done:  E(RHF) =  -306.974827066     A.U. after    2 cycles

 The electronic state is 1-A.
 Alpha  occ. eigenvalues --  -20.54771 -20.53069 -11.36696 -11.29292 -11.28984
 Alpha  occ. eigenvalues --  -11.25810  -1.31346  -1.29121  -1.07460  -0.95729
 Alpha  occ. eigenvalues --   -0.87938  -0.82164  -0.71618  -0.69412  -0.67166
 Alpha  occ. eigenvalues --   -0.62620  -0.61990  -0.60077  -0.57267  -0.55039
 Alpha  occ. eigenvalues --   -0.52715  -0.48610  -0.44451  -0.43610  -0.39196
 Alpha virt. eigenvalues --    0.02501   0.03817   0.04257   0.04957   0.06154
 Alpha virt. eigenvalues --    0.06783   0.06875   0.07735   0.08514   0.10275
 Alpha virt. eigenvalues --    0.12238   0.12908   0.13770   0.13853   0.14489

 Mulliken charges:
               1
     1  O   -0.590878
     2  C    0.782934
     3  C    0.069412
     4  C   -0.170194
     5  C    0.565190
     6  O   -0.913722
     7  H    0.257730
     8  H   -0.070176
     9  H   -0.184439
    10  H   -0.095498
    11  H   -0.045888
    12  H   -0.074362
    13  H   -0.068975
    14  H   -0.011744
    15  H   -0.227406
    16  H    0.778016
 Sum of Mulliken charges =   0.00000

 Dipole moment (field-independent basis, Debye):
    X=              0.0430    Y=              5.5961    Z=              0.2563  Tot=              5.6022

 Test job not archived.
 1\1\GINC-SE162\SP\RHF\Aug-CC-pVDZ\C4H10O2\OHZDE\09-Apr-2025\0\\#t hf a
 ug-cc-pvdz iop(5/13=1,5/36=2,99/5=2) pseudo=read geom=check guess=(rea
 d,tcheck) scf=(maxcycle=1)\\title\\0,1\O,0,-1.1400212,0.47942194,-1.41
 67339\C,0,-1.59441071,-0.21946271,-0.27639982\C,0,-0.51778737,-1.11258
 523,0.38427152\C,0,0.55824841,-0.34569633,1.14463966\C,0,1.55218565,0.
 80271979,-0.04705012\O,0,0.84391381,1.94827284,-0.22416546\H,0,-0.5241
 9716,1.20050825,-1.11410296\H,0,-2.02201881,0.45644244,0.49269973\H,0,
 -2.41060975,-0.87138495,-0.61778372\H,0,-0.05198477,-1.72412653,-0.402

 Normal termination of Gaussian 16 at Wed Apr  9 14:19:30 2025.
