 Gaussian 16, Revision C.01,

 ----------------------------------------------------------------------
 #t hf aug-cc-pvdz symm=none int=(grid=ultrafine) guess=(read,tcheck) s
 table=(opt,rrhf)
 ----------------------------------------------------------------------
 -----
 title
 -----
 Symbolic Z-matrix:
 Charge =  0 Multiplicity = 1

 SCF Done:  E(RHF) =  -262.587123884     A.U. after   17 cycles
 Normal termination of Gaussian 16 at Wed Apr  9 14:16:01 2025.
 Gaussian 16:  ES64L-G16RevC.01  3-Jul-2019

 ----------------------------------------------------------------------
 #t hf aug-cc-pvdz iop(5/13=1,5/36=2,99/5=2) pseudo=read geom=check gue
 ss=(read,tcheck) scf=(maxcycle=1)
 ----------------------------------------------------------------------
 -----
 title
 -----
 Structure from the checkpoint file:  "Grambow2020_b97d3_006906_reverse_mol2.chk"
 Charge =  0 Multiplicity = 1

                         Standard orientation:
 ---------------------------------------------------------------------
 Center     Atomic      Atomic             Coordinates (Angstroms)
 Number     Number       Type             X           Y           Z
 ---------------------------------------------------------------------
      1          6           0        0.072772    1.483726    0.008931
      2          6           0       -1.116644    0.778522   -0.117181
      3          7           0       -1.112581   -0.576401    0.113983
      4          7           0       -0.024597   -1.347382    0.007407
      5          6           0        1.126068   -0.698415   -0.141058
      6          6           0        1.221754    0.703646    0.096043
      7          1           0       -1.945766   -1.100359    0.387709
      8          1           0       -2.084292    1.196147   -0.405549
      9          1           0        1.982717   -1.348568   -0.330910
     10          1           0        2.183885    1.114391    0.418610
 ---------------------------------------------------------------------

 SCF Done:  E(RHF) =  -262.660759085     A.U. after    2 cycles

 The electronic state is 1-A.
 Alpha  occ. eigenvalues --  -15.75554 -15.70647 -11.32293 -11.30648 -11.27002
 Alpha  occ. eigenvalues --  -11.20796  -1.35134  -1.13173  -1.07792  -0.91085
 Alpha  occ. eigenvalues --   -0.87756  -0.76339  -0.70092  -0.68354  -0.64039
 Alpha  occ. eigenvalues --   -0.62042  -0.53602  -0.48663  -0.40607  -0.37088
 Alpha  occ. eigenvalues --   -0.31394
 Alpha virt. eigenvalues --    0.02547   0.03587   0.04567   0.05073   0.05780
 Alpha virt. eigenvalues --    0.09048   0.09807   0.10981   0.12089   0.12852
 Alpha virt. eigenvalues --    0.13438   0.13715   0.15290   0.15765   0.16332

 Mulliken charges:
               1
     1  C   -0.691758
     2  C    0.877554
     3  N   -0.224721
     4  N   -0.372998
     5  C    0.602472
     6  C    0.548464
     7  H    0.041366
     8  H   -0.247183
     9  H   -0.275291
    10  H   -0.257905
 Sum of Mulliken charges =  -0.00000

 Dipole moment (field-independent basis, Debye):
    X=             -1.5864    Y=             -2.9300    Z=              0.0896  Tot=              3.3331

 Test job not archived.
 1\1\GINC-SE212\SP\RHF\Aug-CC-pVDZ\C4H4N2\OHZDE\09-Apr-2025\0\\#t hf au
 g-cc-pvdz iop(5/13=1,5/36=2,99/5=2) pseudo=read geom=check guess=(read
 ,tcheck) scf=(maxcycle=1)\\title\\0,1\C,0,0.54140826,1.21340757,0.5952
 7558\C,0,1.35895402,0.18342018,0.14954888\N,0,0.80427318,-0.82822616,-
 0.59755906\N,0,-0.49177701,-1.15743253,-0.56070877\C,0,-1.27977493,-0.
 31257433,0.09694142\C,0,-0.82565813,0.98554134,0.47086557\H,0,1.343531
 79,-1.40834814,-1.24278277\H,0,2.42817217,0.07899736,0.34899142\H,0,-2
 .31103301,-0.65599077,0.20259377\H,0,-1.56342634,1.78800847,0.57187696

 Normal termination of Gaussian 16 at Wed Apr  9 14:16:04 2025.
