 Gaussian 16, Revision C.01,

 ----------------------------------------------------------------------
 #t hf aug-cc-pvdz symm=none int=(grid=ultrafine) guess=(read,tcheck) s
 table=(opt,rrhf)
 ----------------------------------------------------------------------
 -----
 title
 -----
 Symbolic Z-matrix:
 Charge =  0 Multiplicity = 1

 SCF Done:  E(RHF) =  -343.541676706     A.U. after   16 cycles
 Normal termination of Gaussian 16 at Wed Apr  9 16:36:10 2025.
 Gaussian 16:  ES64L-G16RevC.01  3-Jul-2019

 ----------------------------------------------------------------------
 #t hf aug-cc-pvdz iop(5/13=1,5/36=2,99/5=2) pseudo=read geom=check gue
 ss=(read,tcheck) scf=(maxcycle=1)
 ----------------------------------------------------------------------
 -----
 title
 -----
 Structure from the checkpoint file:  "Grambow2020_wb97xd3_008653_forward_mol1.chk"
 Charge =  0 Multiplicity = 1

                         Standard orientation:
 ---------------------------------------------------------------------
 Center     Atomic      Atomic             Coordinates (Angstroms)
 Number     Number       Type             X           Y           Z
 ---------------------------------------------------------------------
      1          6           0       -2.850024    0.295769   -0.263404
      2          6           0       -1.655402   -0.175287    0.467140
      3          8           0       -0.675568   -0.726540   -0.239272
      4          6           0        0.445448   -0.285215    0.350190
      5          6           0        1.777515   -0.854106   -0.038425
      6          8           0        2.280132    0.482898   -0.242437
      7          6           0        1.017757    1.082140    0.106384
      8          1           0       -3.736817    0.258384    0.369505
      9          1           0       -2.744196    1.320837   -0.634773
     10          1           0       -3.000000   -0.342714   -1.139723
     11          1           0       -1.562830   -0.217858    1.539719
     12          1           0        2.364044   -1.380482    0.720559
     13          1           0        1.755095   -1.453014   -0.959669
     14          1           0        0.536804    1.620176   -0.725589
     15          1           0        1.139618    1.763999    0.952330
 ---------------------------------------------------------------------

 SCF Done:  E(RHF) =  -343.650628190     A.U. after    2 cycles

 The electronic state is 1-A.
 Alpha  occ. eigenvalues --  -20.67241 -20.55477 -11.34986 -11.28201 -11.27969
 Alpha  occ. eigenvalues --  -11.27061 -11.26516  -1.44991  -1.33410  -1.05939
 Alpha  occ. eigenvalues --   -0.97360  -0.93524  -0.86484  -0.79912  -0.71390
 Alpha  occ. eigenvalues --   -0.69837  -0.68764  -0.64564  -0.60236  -0.59326
 Alpha  occ. eigenvalues --   -0.57701  -0.55369  -0.54622  -0.51335  -0.45818
 Alpha  occ. eigenvalues --   -0.43249  -0.25473
 Alpha virt. eigenvalues --    0.02826   0.03670   0.04378   0.04854   0.04923
 Alpha virt. eigenvalues --    0.06429   0.06745   0.07225   0.07641   0.10325
 Alpha virt. eigenvalues --    0.11278   0.12637   0.13229   0.13962   0.14027

 Mulliken charges:
               1
     1  C    0.293050
     2  C    0.774165
     3  O   -0.524160
     4  C   -0.608605
     5  C    0.943339
     6  O   -0.769428
     7  C    0.853750
     8  H   -0.000133
     9  H    0.062674
    10  H    0.001280
    11  H   -0.341510
    12  H   -0.165093
    13  H   -0.157702
    14  H   -0.165411
    15  H   -0.196215
 Sum of Mulliken charges =   0.00000

 Dipole moment (field-independent basis, Debye):
    X=             -4.3169    Y=              0.0193    Z=              0.4236  Tot=              4.3377

 Test job not archived.
 1\1\GINC-SE131\SP\RHF\Aug-CC-pVDZ\C5H8O2\OHZDE\09-Apr-2025\0\\#t hf au
 g-cc-pvdz iop(5/13=1,5/36=2,99/5=2) pseudo=read geom=check guess=(read
 ,tcheck) scf=(maxcycle=1)\\title\\0,1\C,0,2.53703596,-0.22974368,0.089
 80361\C,0,1.25655644,0.27895363,0.62300897\O,0,0.39335973,0.80531926,-
 0.23768982\C,0,-0.80504283,0.39604188,0.20416317\C,0,-2.06173844,0.955
 61771,-0.39304028\O,0,-2.54611815,-0.38591145,-0.61099041\C,0,-1.35312
 171,-0.97709868,-0.06179524\H,0,3.32551584,-0.17060377,0.84025321\H,0,
 2.47282377,-1.2690652,-0.25014838\H,0,2.81727737,0.36995074,-0.7819307

 Normal termination of Gaussian 16 at Wed Apr  9 16:36:15 2025.
