 Gaussian 16, Revision C.01,

 ----------------------------------------------------------------------
 #t hf aug-cc-pvdz symm=none int=(grid=ultrafine) guess=(read,tcheck) s
 table=(opt,rrhf)
 ----------------------------------------------------------------------
 -----
 title
 -----
 Symbolic Z-matrix:
 Charge =  0 Multiplicity = 1

 SCF Done:  E(RHF) =  -307.915842587     A.U. after   14 cycles

 1\1\GINC-SE087\Stability\RHF\Aug-CC-pVDZ\C6H10O1\OHZDE\09-Apr-2025\0\\
 #t hf aug-cc-pvdz symm=none int=(grid=ultrafine) guess=(read,tcheck) s
 table=(opt,rrhf)\\title\\0,1\O,0,0.89058662,-1.07805711,0.97704501\C,0
 ,1.24504442,-0.74370086,-0.13218648\C,0,2.51192553,-1.28909086,-0.7472
 4289\C,0,-2.28868954,0.1984056,0.9959089\C,0,-1.07655841,1.11738136,0.
 81999022\C,0,-0.50573972,1.00239134,-0.55823543\C,0,0.47807021,0.20495
 3,-0.97830055\H,0,-1.98528097,-0.84396717,0.89486613\H,0,3.17932755,-0
 .47039348,-1.02662197\H,0,3.01167361,-1.95120595,-0.0441945\H,0,2.2740

 Normal termination of Gaussian 16 at Wed Apr  9 16:27:20 2025.
 Gaussian 16:  ES64L-G16RevC.01  3-Jul-2019

 ----------------------------------------------------------------------
 #t hf aug-cc-pvdz iop(5/13=1,5/36=2,99/5=2) pseudo=read geom=check gue
 ss=(read,tcheck) scf=(maxcycle=1)
 ----------------------------------------------------------------------
 -----
 title
 -----
 Structure from the checkpoint file:  "Grambow2020_wb97xd3_008420_reverse_mol2.chk"
 Charge =  0 Multiplicity = 1

                         Standard orientation:
 ---------------------------------------------------------------------
 Center     Atomic      Atomic             Coordinates (Angstroms)
 Number     Number       Type             X           Y           Z
 ---------------------------------------------------------------------
      1          8           0        0.786653   -1.298055    0.178588
      2          6           0        1.272520   -0.203871   -0.007215
      3          6           0        2.768967   -0.013082   -0.077766
      4          6           0       -2.497589   -0.617293   -0.519856
      5          6           0       -1.772562    0.105903    0.618586
      6          6           0       -0.838788    1.148390    0.089578
      7          6           0        0.459907    1.025026   -0.190451
      8          1           0       -1.779326   -1.158687   -1.136133
      9          1           0        3.092116    0.719295    0.665835
     10          1           0        3.273315   -0.961295    0.092370
     11          1           0        3.047016    0.380630   -1.058795
     12          1           0       -3.216189   -1.335350   -0.121957
     13          1           0       -3.039521    0.084106   -1.158331
     14          1           0       -2.506410    0.594491    1.265363
     15          1           0       -1.226828   -0.624826    1.212950
     16          1           0       -1.286060    2.121111   -0.105855
     17          1           0        0.993936    1.894526   -0.561410
 ---------------------------------------------------------------------

 SCF Done:  E(RHF) =  -308.013480040     A.U. after    2 cycles

 The electronic state is 1-A.
 Alpha  occ. eigenvalues --  -20.55310 -11.33974 -11.26805 -11.24062 -11.24041
 Alpha  occ. eigenvalues --  -11.23355 -11.22361  -1.34856  -1.09002  -1.02462
 Alpha  occ. eigenvalues --   -0.98317  -0.87527  -0.80971  -0.71778  -0.68014
 Alpha  occ. eigenvalues --   -0.64644  -0.61682  -0.60716  -0.57989  -0.57459
 Alpha  occ. eigenvalues --   -0.54998  -0.52776  -0.51171  -0.49550  -0.48674
 Alpha  occ. eigenvalues --   -0.41994  -0.37656
 Alpha virt. eigenvalues --    0.03158   0.03888   0.04610   0.04952   0.05891
 Alpha virt. eigenvalues --    0.06127   0.06785   0.07669   0.08165   0.08603
 Alpha virt. eigenvalues --    0.08690   0.11075   0.12349   0.13204   0.13922

 Mulliken charges:
               1
     1  O   -0.556365
     2  C   -0.305566
     3  C    0.433154
     4  C    0.264146
     5  C    0.257618
     6  C    0.543060
     7  C    0.567059
     8  H   -0.042344
     9  H    0.075160
    10  H   -0.096054
    11  H    0.062757
    12  H   -0.087881
    13  H   -0.078221
    14  H   -0.084225
    15  H    0.011611
    16  H   -0.395217
    17  H   -0.568693
 Sum of Mulliken charges =  -0.00000

 Dipole moment (field-independent basis, Debye):
    X=              0.3539    Y=              2.8683    Z=             -0.3077  Tot=              2.9064

 Test job not archived.
 1\1\GINC-SE087\SP\RHF\Aug-CC-pVDZ\C6H10O1\OHZDE\09-Apr-2025\0\\#t hf a
 ug-cc-pvdz iop(5/13=1,5/36=2,99/5=2) pseudo=read geom=check guess=(rea
 d,tcheck) scf=(maxcycle=1)\\title\\0,1\O,0,0.89058662,-1.07805711,0.97
 704501\C,0,1.24504442,-0.74370086,-0.13218648\C,0,2.51192553,-1.289090
 86,-0.74724289\C,0,-2.28868954,0.1984056,0.9959089\C,0,-1.07655841,1.1
 1738136,0.81999022\C,0,-0.50573972,1.00239134,-0.55823543\C,0,0.478070
 21,0.204953,-0.97830055\H,0,-1.98528097,-0.84396717,0.89486613\H,0,3.1
 7932755,-0.47039348,-1.02662197\H,0,3.01167361,-1.95120595,-0.0441945\

 Normal termination of Gaussian 16 at Wed Apr  9 16:27:26 2025.
