 Gaussian 16, Revision C.01,

 ----------------------------------------------------------------------
 #t hf aug-cc-pvdz symm=none int=(grid=ultrafine) guess=(read,tcheck) s
 table=(opt,rrhf)
 ----------------------------------------------------------------------
 -----
 title
 -----
 Symbolic Z-matrix:
 Charge =  0 Multiplicity = 1

 SCF Done:  E(RHF) =  -360.904543538     A.U. after   13 cycles
 Normal termination of Gaussian 16 at Wed Apr  9 14:48:54 2025.
 Gaussian 16:  ES64L-G16RevC.01  3-Jul-2019

 ----------------------------------------------------------------------
 #t hf aug-cc-pvdz iop(5/13=1,5/36=2,99/5=2) pseudo=read geom=check gue
 ss=(read,tcheck) scf=(maxcycle=1)
 ----------------------------------------------------------------------
 -----
 title
 -----
 Structure from the checkpoint file:  "Grambow2020_wb97xd3_006618_reverse_mol2.chk"
 Charge =  0 Multiplicity = 1

                         Standard orientation:
 ---------------------------------------------------------------------
 Center     Atomic      Atomic             Coordinates (Angstroms)
 Number     Number       Type             X           Y           Z
 ---------------------------------------------------------------------
      1          6           0       -1.288592    1.517464    0.364581
      2          6           0       -1.886639    0.258331   -0.196282
      3          8           0        2.264714    0.544180   -0.809417
      4          6           0       -1.625041   -1.065251    0.402023
      5          7           0       -0.971151   -0.675633   -0.848982
      6          6           0        1.865772   -0.461185   -0.026814
      7          8           0        1.654757   -0.361958    1.148300
      8          1           0       -1.972454    1.984390    1.076632
      9          1           0       -1.082411    2.236712   -0.431298
     10          1           0       -0.355259    1.294546    0.883229
     11          1           0       -2.859125    0.380624   -0.666453
     12          1           0        2.310222    1.337026   -0.258546
     13          1           0       -0.953389   -1.136688    1.250316
     14          1           0       -2.407939   -1.814389    0.364314
     15          1           0       -1.415430   -1.121325   -1.641141
     16          1           0        1.785073   -1.385396   -0.606295
 ---------------------------------------------------------------------

 SCF Done:  E(RHF) =  -361.020055750     A.U. after    2 cycles

 The electronic state is 1-A.
 Alpha  occ. eigenvalues --  -20.62474 -20.56238 -15.62022 -11.39424 -11.26852
 Alpha  occ. eigenvalues --  -11.25835 -11.22318  -1.42684  -1.32863  -1.23839
 Alpha  occ. eigenvalues --   -0.98236  -0.89072  -0.87157  -0.79256  -0.72581
 Alpha  occ. eigenvalues --   -0.71340  -0.71017  -0.64225  -0.61273  -0.60343
 Alpha  occ. eigenvalues --   -0.57509  -0.55595  -0.51382  -0.49915  -0.47770
 Alpha  occ. eigenvalues --   -0.46559  -0.45684  -0.38790
 Alpha virt. eigenvalues --    0.03218   0.04058   0.04390   0.04721   0.06093
 Alpha virt. eigenvalues --    0.06866   0.07267   0.08159   0.09294   0.11114
 Alpha virt. eigenvalues --    0.11217   0.13605   0.13778   0.14225   0.14909

 Mulliken charges:
               1
     1  C    0.378886
     2  C    0.083419
     3  O   -0.381159
     4  C    1.050273
     5  N   -0.467775
     6  C    0.926128
     7  O   -0.450557
     8  H    0.010706
     9  H    0.024013
    10  H   -0.105443
    11  H   -0.329934
    12  H    0.125315
    13  H   -0.348218
    14  H   -0.265449
    15  H   -0.052032
    16  H   -0.198174
 Sum of Mulliken charges =  -0.00000

 Dipole moment (field-independent basis, Debye):
    X=             -1.5671    Y=              0.1266    Z=             -1.5247  Tot=              2.1901

 Test job not archived.
 1\1\GINC-SE113\SP\RHF\Aug-CC-pVDZ\C4H9N1O2\OHZDE\09-Apr-2025\0\\#t hf
 aug-cc-pvdz iop(5/13=1,5/36=2,99/5=2) pseudo=read geom=check guess=(re
 ad,tcheck) scf=(maxcycle=1)\\title\\0,1\C,0,-1.54309119,-0.60693003,-0
 .37753345\C,0,-0.45088682,-1.3672054,0.32011569\O,0,0.95918592,1.93496
 566,-1.8704868\C,0,0.27574479,-0.80728714,1.47630358\N,0,0.91229144,-0
 .86506865,0.15878497\C,0,1.13716136,2.00172671,-0.54902917\O,0,0.31226
 777,2.39350717,0.22642249\H,0,-2.51876742,-0.86495309,0.03982041\H,0,-
 1.55687197,-0.83975013,-1.44470553\H,0,-1.39311286,0.46674257,-0.25699

 Normal termination of Gaussian 16 at Wed Apr  9 14:49:00 2025.
