 Gaussian 16, Revision C.01,

 ----------------------------------------------------------------------
 #t hf aug-cc-pvdz symm=none int=(grid=ultrafine) guess=(read,tcheck) s
 table=(opt,rrhf)
 ----------------------------------------------------------------------
 -----
 title
 -----
 Symbolic Z-matrix:
 Charge =  0 Multiplicity = 1

 SCF Done:  E(RHF) =  -394.258322979     A.U. after   16 cycles
 Normal termination of Gaussian 16 at Wed Apr  9 15:36:45 2025.
 Gaussian 16:  ES64L-G16RevC.01  3-Jul-2019

 ----------------------------------------------------------------------
 #t hf aug-cc-pvdz iop(5/13=1,5/36=2,99/5=2) pseudo=read geom=check gue
 ss=(read,tcheck) scf=(maxcycle=1)
 ----------------------------------------------------------------------
 -----
 title
 -----
 Structure from the checkpoint file:  "Grambow2020_wb97xd3_007194_forward_mol1.chk"
 Charge =  0 Multiplicity = 1

                         Standard orientation:
 ---------------------------------------------------------------------
 Center     Atomic      Atomic             Coordinates (Angstroms)
 Number     Number       Type             X           Y           Z
 ---------------------------------------------------------------------
      1          7           0       -2.324471   -0.321228    0.037933
      2          6           0       -1.098393   -0.131950    0.046406
      3          8           0       -0.083838   -1.021556   -0.265024
      4          6           0        1.028564   -0.349323    0.128228
      5          8           0        2.161347   -0.621269    0.155199
      6          6           0       -0.314493    1.125300    0.338549
      7          8           0        0.610210    1.314045   -0.538578
      8          1           0       -2.584008   -1.261891   -0.248618
      9          1           0        0.470233    0.320159    1.242380
     10          1           0       -0.810753    1.956414    0.848841
 ---------------------------------------------------------------------

 SCF Done:  E(RHF) =  -394.380917065     A.U. after    2 cycles

 The electronic state is 1-A.
 Alpha  occ. eigenvalues --  -20.69902 -20.62613 -20.59063 -15.67395 -11.51489
 Alpha  occ. eigenvalues --  -11.42123 -11.41064  -1.51915  -1.43127  -1.37177
 Alpha  occ. eigenvalues --   -1.24305  -1.00472  -0.92486  -0.84989  -0.79795
 Alpha  occ. eigenvalues --   -0.75971  -0.74036  -0.69246  -0.67662  -0.64279
 Alpha  occ. eigenvalues --   -0.61281  -0.56092  -0.52552  -0.48504  -0.47303
 Alpha  occ. eigenvalues --   -0.43546
 Alpha virt. eigenvalues --    0.02015   0.03186   0.03755   0.05157   0.08150
 Alpha virt. eigenvalues --    0.08915   0.10099   0.10899   0.11020   0.12137
 Alpha virt. eigenvalues --    0.13422   0.13701   0.14193   0.15239   0.16604

 Mulliken charges:
               1
     1  N   -0.277382
     2  C    0.613126
     3  O   -0.557075
     4  C    0.492493
     5  O   -0.266682
     6  C    0.457839
     7  O   -0.703210
     8  H    0.035547
     9  H    0.333614
    10  H   -0.128269
 Sum of Mulliken charges =  -0.00000

 Dipole moment (field-independent basis, Debye):
    X=             -3.2673    Y=             -0.4000    Z=              1.9340  Tot=              3.8178

 Test job not archived.
 1\1\GINC-SE026\SP\RHF\Aug-CC-pVDZ\C3H3N1O3\OHZDE\09-Apr-2025\0\\#t hf
 aug-cc-pvdz iop(5/13=1,5/36=2,99/5=2) pseudo=read geom=check guess=(re
 ad,tcheck) scf=(maxcycle=1)\\title\\0,1\N,0,-1.12381466,1.28312924,-1.
 19379214\C,0,-0.40703207,0.58807436,-0.45739045\O,0,0.94097717,0.73330
 804,-0.17545406\C,0,1.22775126,-0.41401932,0.49191667\O,0,2.21077532,-
 0.86300527,0.9277531\C,0,-0.76796621,-0.59504499,0.40891124\O,0,-0.251
 23523,-0.48865365,1.58437799\H,0,-0.6256247,2.05821407,-1.62433707\H,0
 ,0.34687736,-1.27307238,-0.2061987\H,0,-1.71550423,-1.11393211,0.23469

 Normal termination of Gaussian 16 at Wed Apr  9 15:36:49 2025.
