 Gaussian 16, Revision C.01,

 ----------------------------------------------------------------------
 #t hf aug-cc-pvdz symm=none int=(grid=ultrafine) guess=(read,tcheck) s
 table=(opt,rrhf)
 ----------------------------------------------------------------------
 -----
 title
 -----
 Symbolic Z-matrix:
 Charge =  0 Multiplicity = 1

 SCF Done:  E(RHF) =  -184.604805539     A.U. after   11 cycles
 Normal termination of Gaussian 16 at Wed Apr  9 14:12:50 2025.
 Gaussian 16:  ES64L-G16RevC.01  3-Jul-2019

 ----------------------------------------------------------------------
 #t hf aug-cc-pvdz iop(5/13=1,5/36=2,99/5=2) pseudo=read geom=check gue
 ss=(read,tcheck) scf=(maxcycle=1)
 ----------------------------------------------------------------------
 -----
 title
 -----
 Structure from the checkpoint file:  "Grambow2020_b97d3_006823_forward_mol2.chk"
 Charge =  0 Multiplicity = 1

                         Standard orientation:
 ---------------------------------------------------------------------
 Center     Atomic      Atomic             Coordinates (Angstroms)
 Number     Number       Type             X           Y           Z
 ---------------------------------------------------------------------
      1          7           0       -0.009090   -0.061450    1.862814
      2          6           0       -0.003361   -0.022674    0.688643
      3          6           0        0.003360    0.022658   -0.688647
      4          7           0        0.009091    0.061464   -1.862810
 ---------------------------------------------------------------------

 SCF Done:  E(RHF) =  -184.657818218     A.U. after    2 cycles

 The electronic state is 1-A.
 Alpha  occ. eigenvalues --  -15.73205 -15.73204 -11.37559 -11.37457  -1.26787
 Alpha  occ. eigenvalues --   -1.23958  -0.98222  -0.63065  -0.61477  -0.59694
 Alpha  occ. eigenvalues --   -0.59694  -0.48885  -0.48885
 Alpha virt. eigenvalues --    0.04632   0.04632   0.05811   0.07244   0.09419
 Alpha virt. eigenvalues --    0.09419   0.12271   0.12487   0.12487   0.19751
 Alpha virt. eigenvalues --    0.21239   0.23355   0.23355   0.24943   0.24943

 Mulliken charges:
               1
     1  N   -0.107801
     2  C    0.107802
     3  C    0.107787
     4  N   -0.107788
 Sum of Mulliken charges =  -0.00000

 Dipole moment (field-independent basis, Debye):
    X=             -0.0000    Y=             -0.0000    Z=             -0.0000  Tot=              0.0000

 Test job not archived.
 1\1\GINC-SE112\SP\RHF\Aug-CC-pVDZ\C2N2\OHZDE\09-Apr-2025\0\\#t hf aug-
 cc-pvdz iop(5/13=1,5/36=2,99/5=2) pseudo=read geom=check guess=(read,t
 check) scf=(maxcycle=1)\\title\\0,1\N,0,-1.8247136,-0.22906728,0.00705
 072\C,0,-0.6745655,0.0104186,0.00260448\C,0,0.6745719,0.29118373,-0.00
 260469\N,0,1.82470719,0.53069761,-0.00705051\\Version=ES64L-G16RevC.01
 \State=1-A\HF=-184.6578182\RMSD=1.023e-02\Dipole=0.000004,-0.000014,-0
 .0000002\Quadrupole=-4.1237164,1.9248957,2.1988207,-1.3162538,0.024429
 ,0.0050857\PG=C01 [X(C2N2)]\\@

 Normal termination of Gaussian 16 at Wed Apr  9 14:12:52 2025.
