 Gaussian 16, Revision C.01,

 ----------------------------------------------------------------------
 #t hf aug-cc-pvdz symm=none int=(grid=ultrafine) guess=(read,tcheck) s
 table=(opt,rrhf)
 ----------------------------------------------------------------------
 -----
 title
 -----
 Symbolic Z-matrix:
 Charge =  0 Multiplicity = 1

 SCF Done:  E(RHF) =  -338.624977892     A.U. after   15 cycles
 Normal termination of Gaussian 16 at Wed Apr  9 03:39:21 2025.
 Gaussian 16:  ES64L-G16RevC.01  3-Jul-2019

 ----------------------------------------------------------------------
 #t hf aug-cc-pvdz iop(5/13=1,5/36=2,99/5=2) pseudo=read geom=check gue
 ss=(read,tcheck) scf=(maxcycle=1)
 ----------------------------------------------------------------------
 -----
 title
 -----
 Structure from the checkpoint file:  "Grambow2020_wb97xd3_007486_forward_mol1.chk"
 Charge =  0 Multiplicity = 1

                         Standard orientation:
 ---------------------------------------------------------------------
 Center     Atomic      Atomic             Coordinates (Angstroms)
 Number     Number       Type             X           Y           Z
 ---------------------------------------------------------------------
      1          6           0        2.451903    0.322611   -0.012791
      2          8           0        1.432837   -0.664996    0.010206
      3          6           0        0.188582   -0.194849    0.024759
      4          6           0       -0.351741    1.054231    0.023695
      5          7           0       -1.726384    0.912956   -0.087258
      6          6           0       -2.049014   -0.434436   -0.098846
      7          7           0       -0.846169   -1.082164    0.012098
      8          1           0        2.363426    0.943598   -0.907827
      9          1           0        3.398020   -0.212203   -0.027230
     10          1           0        2.397632    0.952073    0.879270
     11          1           0        0.130278    2.016414    0.050339
     12          1           0       -2.448074    0.399810    0.800999
     13          1           0       -0.734486   -2.080616    0.028014
 ---------------------------------------------------------------------

 SCF Done:  E(RHF) =  -338.728487278     A.U. after    2 cycles

 The electronic state is 1-A.
 Alpha  occ. eigenvalues --  -20.63589 -15.67837 -15.66026 -11.36317 -11.31818
 Alpha  occ. eigenvalues --  -11.28009 -11.25609  -1.42114  -1.31753  -1.15548
 Alpha  occ. eigenvalues --   -1.02672  -0.97537  -0.82993  -0.80494  -0.77298
 Alpha  occ. eigenvalues --   -0.70717  -0.68322  -0.66112  -0.61538  -0.60453
 Alpha  occ. eigenvalues --   -0.55704  -0.53404  -0.47321  -0.43582  -0.37759
 Alpha  occ. eigenvalues --   -0.33585
 Alpha virt. eigenvalues --    0.02704   0.04056   0.04542   0.05192   0.06399
 Alpha virt. eigenvalues --    0.07145   0.08652   0.09781   0.11749   0.12410
 Alpha virt. eigenvalues --    0.12948   0.13901   0.14677   0.15367   0.15664

 Mulliken charges:
               1
     1  C    0.729477
     2  O   -0.589700
     3  C    0.559277
     4  C    0.839979
     5  N   -0.731304
     6  C    0.053344
     7  N   -0.350945
     8  H   -0.049213
     9  H   -0.286481
    10  H   -0.053642
    11  H   -0.285845
    12  H    0.278914
    13  H   -0.113861
 Sum of Mulliken charges =  -0.00000

 Dipole moment (field-independent basis, Debye):
    X=              4.5103    Y=             -0.0398    Z=              1.0701  Tot=              4.6357

 Test job not archived.
 1\1\GINC-SE368\SP\RHF\Aug-CC-pVDZ\C4H6N2O1\OHZDE\09-Apr-2025\0\\#t hf
 aug-cc-pvdz iop(5/13=1,5/36=2,99/5=2) pseudo=read geom=check guess=(re
 ad,tcheck) scf=(maxcycle=1)\\title\\0,1\C,0,-2.12937854,0.03502399,-0.
 18472473\O,0,-1.08675806,-0.74700498,0.37720635\C,0,0.14000336,-0.2615
 8751,0.2073556\C,0,0.64399313,0.84661192,-0.40095247\N,0,2.00472595,0.
 88305517,-0.13829366\C,0,2.36073473,-0.23974638,0.59127145\N,0,1.19208
 751,-0.93840446,0.748868\H,0,-2.14466185,1.0318194,0.26328029\H,0,-3.0
 5776414,-0.48399482,0.03908468\H,0,-2.00588907,0.11956212,-1.26756489\

 Normal termination of Gaussian 16 at Wed Apr  9 03:39:25 2025.
