 Gaussian 16, Revision C.01,

 ----------------------------------------------------------------------
 #t hf aug-cc-pvdz symm=none int=(grid=ultrafine) guess=(read,tcheck) s
 table=(opt,rrhf)
 ----------------------------------------------------------------------
 -----
 title
 -----
 Symbolic Z-matrix:
 Charge =  0 Multiplicity = 1

 SCF Done:  E(RHF) =  -343.526607541     A.U. after   17 cycles
 Normal termination of Gaussian 16 at Wed Apr  9 15:37:10 2025.
 Gaussian 16:  ES64L-G16RevC.01  3-Jul-2019

 ----------------------------------------------------------------------
 #t hf aug-cc-pvdz iop(5/13=1,5/36=2,99/5=2) pseudo=read geom=check gue
 ss=(read,tcheck) scf=(maxcycle=1)
 ----------------------------------------------------------------------
 -----
 title
 -----
 Structure from the checkpoint file:  "Grambow2020_wb97xd3_007209_reverse_mol1.chk"
 Charge =  0 Multiplicity = 1

                         Standard orientation:
 ---------------------------------------------------------------------
 Center     Atomic      Atomic             Coordinates (Angstroms)
 Number     Number       Type             X           Y           Z
 ---------------------------------------------------------------------
      1          8           0        2.581318    0.023102    0.059107
      2          6           0        1.509265   -0.646111   -0.248677
      3          6           0        0.248070    0.007483    0.010366
      4          6           0       -0.250168    1.419580   -0.230180
      5          6           0       -1.702113    0.955492    0.073417
      6          6           0       -1.189883   -0.484211    0.061924
      7          8           0       -1.689372   -1.565332    0.041393
      8          1           0        1.867863    0.399371    1.402125
      9          1           0        1.472559   -1.731537   -0.059273
     10          1           0        1.219340   -0.544611   -1.362886
     11          1           0        1.089023    0.370795    1.707019
     12          1           0        0.175726    2.192169    0.402922
     13          1           0       -0.114851    1.713569   -1.273479
     14          1           0       -2.461075    1.174938   -0.676732
     15          1           0       -2.075176    1.249744    1.055196
 ---------------------------------------------------------------------

 SCF Done:  E(RHF) =  -343.632937771     A.U. after    2 cycles

 The electronic state is 1-A.
 Alpha  occ. eigenvalues --  -20.62689 -20.51177 -11.39444 -11.36832 -11.31395
 Alpha  occ. eigenvalues --  -11.29500 -11.29032  -1.41649  -1.28604  -1.18903
 Alpha  occ. eigenvalues --   -1.01710  -0.92350  -0.87622  -0.74888  -0.72895
 Alpha  occ. eigenvalues --   -0.70444  -0.68863  -0.66018  -0.60194  -0.59533
 Alpha  occ. eigenvalues --   -0.56786  -0.55710  -0.55199  -0.51157  -0.46510
 Alpha  occ. eigenvalues --   -0.41633  -0.38537
 Alpha virt. eigenvalues --   -0.02050   0.02445   0.03995   0.04543   0.04796
 Alpha virt. eigenvalues --    0.06218   0.06889   0.07488   0.08634   0.09383
 Alpha virt. eigenvalues --    0.11483   0.11874   0.12731   0.13505   0.13821

 Mulliken charges:
               1
     1  O   -0.760924
     2  C    0.783214
     3  C   -0.899993
     4  C    0.479574
     5  C    0.455345
     6  C    0.096189
     7  O   -0.414714
     8  H    0.197375
     9  H   -0.029915
    10  H    0.272578
    11  H    0.047595
    12  H   -0.132680
    13  H   -0.000440
    14  H   -0.079389
    15  H   -0.013813
 Sum of Mulliken charges =  -0.00000

 Dipole moment (field-independent basis, Debye):
    X=             -4.5522    Y=              2.7286    Z=             -1.2395  Tot=              5.4502

 Test job not archived.
 1\1\GINC-SE173\SP\RHF\Aug-CC-pVDZ\C5H8O2\OHZDE\09-Apr-2025\0\\#t hf au
 g-cc-pvdz iop(5/13=1,5/36=2,99/5=2) pseudo=read geom=check guess=(read
 ,tcheck) scf=(maxcycle=1)\\title\\0,1\O,0,2.50915472,0.30753254,0.1226
 1059\C,0,1.64939533,-0.56908154,-0.30661735\C,0,0.2546105,-0.22741993,
 -0.15581521\C,0,-0.5278628,1.04723739,-0.40702117\C,0,-1.85756846,0.25
 605695,-0.26002716\C,0,-1.03259938,-1.03028742,-0.25889833\O,0,-1.2693
 5418,-2.19350797,-0.35686451\H,0,1.61110003,0.44993237,1.39835061\H,0,
 1.84349568,-1.64298576,-0.15032799\H,0,1.4453427,-0.4818469,-1.4408900

 Normal termination of Gaussian 16 at Wed Apr  9 15:37:15 2025.
