 Gaussian 16, Revision C.01,

 ----------------------------------------------------------------------
 #t hf aug-cc-pvdz symm=none int=(grid=ultrafine) guess=(read,tcheck) s
 table=(opt,rrhf)
 ----------------------------------------------------------------------
 -----
 title
 -----
 Symbolic Z-matrix:
 Charge =  0 Multiplicity = 1

 SCF Done:  E(RHF) =  -344.803886178     A.U. after   15 cycles

 1\1\GINC-SE043\Stability\RHF\Aug-CC-pVDZ\C5H10O2\OHZDE\09-Apr-2025\0\\
 #t hf aug-cc-pvdz symm=none int=(grid=ultrafine) guess=(read,tcheck) s
 table=(opt,rrhf)\\title\\0,1\C,0,-2.10028243,-0.71843132,-0.55599046\C
 ,0,-1.09612811,0.41098611,-0.71851705\C,0,-0.07771922,0.5195568,0.3590
 2308\O,0,0.82690717,-1.24056803,0.12498466\C,0,1.13685296,1.2122953,0.
 19462714\C,0,2.02785952,-0.29164662,-0.16045957\O,0,2.9989694,-0.49949
 702,0.54900334\H,0,-2.85393346,-0.67946839,-1.34309576\H,0,-1.59659347
 ,-1.68329069,-0.60618674\H,0,-2.61795253,-0.65254567,0.40362341\H,0,-0

 Normal termination of Gaussian 16 at Wed Apr  9 16:10:16 2025.
 Gaussian 16:  ES64L-G16RevC.01  3-Jul-2019

 ----------------------------------------------------------------------
 #t hf aug-cc-pvdz iop(5/13=1,5/36=2,99/5=2) pseudo=read geom=check gue
 ss=(read,tcheck) scf=(maxcycle=1)
 ----------------------------------------------------------------------
 -----
 title
 -----
 Structure from the checkpoint file:  "Grambow2020_wb97xd3_007838_reverse_mol1.chk"
 Charge =  0 Multiplicity = 1

                         Standard orientation:
 ---------------------------------------------------------------------
 Center     Atomic      Atomic             Coordinates (Angstroms)
 Number     Number       Type             X           Y           Z
 ---------------------------------------------------------------------
      1          6           0        2.619423   -0.603233   -0.009014
      2          6           0        1.670289    0.533425    0.333736
      3          6           0        0.454010    0.627498   -0.515885
      4          8           0       -0.385525   -1.124086   -0.070583
      5          6           0       -0.701121    1.328537   -0.120519
      6          6           0       -1.502477   -0.164824    0.435827
      7          8           0       -2.597809   -0.380812   -0.057317
      8          1           0        3.517505   -0.553744    0.607461
      9          1           0        2.135686   -1.564759    0.160224
     10          1           0        2.931045   -0.556708   -1.054915
     11          1           0        1.365718    0.496032    1.383445
     12          1           0        2.175584    1.500935    0.207343
     13          1           0        0.583871    0.371083   -1.562783
     14          1           0       -0.806149   -1.538512   -0.834100
     15          1           0       -1.339095    1.718533   -0.903132
     16          1           0       -0.612024    1.970980    0.749828
     17          1           0       -1.326204   -0.133079    1.524960
 ---------------------------------------------------------------------

 SCF Done:  E(RHF) =  -344.911819234     A.U. after    2 cycles

 The electronic state is 1-A.
 Alpha  occ. eigenvalues --  -20.58009 -20.48847 -11.36510 -11.36198 -11.27622
 Alpha  occ. eigenvalues --  -11.24833 -11.23382  -1.34431  -1.26297  -1.12325
 Alpha  occ. eigenvalues --   -1.02853  -0.90276  -0.84202  -0.79857  -0.69062
 Alpha  occ. eigenvalues --   -0.67071  -0.65026  -0.63642  -0.62586  -0.59821
 Alpha  occ. eigenvalues --   -0.57597  -0.56014  -0.53877  -0.52646  -0.52037
 Alpha  occ. eigenvalues --   -0.49018  -0.40900  -0.34149
 Alpha virt. eigenvalues --    0.02493   0.03486   0.03916   0.04732   0.05984
 Alpha virt. eigenvalues --    0.06152   0.06609   0.07097   0.07309   0.08564
 Alpha virt. eigenvalues --    0.08895   0.11768   0.12631   0.13557   0.14120

 Mulliken charges:
               1
     1  C    0.482728
     2  C    0.057933
     3  C    0.338400
     4  O   -0.764651
     5  C    0.467158
     6  C    0.978030
     7  O   -0.651707
     8  H   -0.042549
     9  H   -0.034989
    10  H   -0.062955
    11  H   -0.068234
    12  H    0.086498
    13  H   -0.374259
    14  H    0.188853
    15  H   -0.208695
    16  H   -0.197105
    17  H   -0.194454
 Sum of Mulliken charges =   0.00000

 Dipole moment (field-independent basis, Debye):
    X=              6.1970    Y=              2.2093    Z=             -0.6827  Tot=              6.6143

 Test job not archived.
 1\1\GINC-SE043\SP\RHF\Aug-CC-pVDZ\C5H10O2\OHZDE\09-Apr-2025\0\\#t hf a
 ug-cc-pvdz iop(5/13=1,5/36=2,99/5=2) pseudo=read geom=check guess=(rea
 d,tcheck) scf=(maxcycle=1)\\title\\0,1\C,0,-2.10028243,-0.71843132,-0.
 55599046\C,0,-1.09612811,0.41098611,-0.71851705\C,0,-0.07771922,0.5195
 568,0.35902308\O,0,0.82690717,-1.24056803,0.12498466\C,0,1.13685296,1.
 2122953,0.19462714\C,0,2.02785952,-0.29164662,-0.16045957\O,0,2.998969
 4,-0.49949702,0.54900334\H,0,-2.85393346,-0.67946839,-1.34309576\H,0,-
 1.59659347,-1.68329069,-0.60618674\H,0,-2.61795253,-0.65254567,0.40362

 Normal termination of Gaussian 16 at Wed Apr  9 16:10:24 2025.
