 Gaussian 16, Revision C.01,

 ----------------------------------------------------------------------
 #t hf aug-cc-pvdz symm=none int=(grid=ultrafine) guess=(read,tcheck) s
 table=(opt,rrhf)
 ----------------------------------------------------------------------
 -----
 title
 -----
 Symbolic Z-matrix:
 Charge =  0 Multiplicity = 1

 SCF Done:  E(RHF) =  -338.527284909     A.U. after   17 cycles
 Normal termination of Gaussian 16 at Wed Apr  9 16:30:03 2025.
 Gaussian 16:  ES64L-G16RevC.01  3-Jul-2019

 ----------------------------------------------------------------------
 #t hf aug-cc-pvdz iop(5/13=1,5/36=2,99/5=2) pseudo=read geom=check gue
 ss=(read,tcheck) scf=(maxcycle=1)
 ----------------------------------------------------------------------
 -----
 title
 -----
 Structure from the checkpoint file:  "Grambow2020_wb97xd3_008481_reverse_mol1.chk"
 Charge =  0 Multiplicity = 1

                         Standard orientation:
 ---------------------------------------------------------------------
 Center     Atomic      Atomic             Coordinates (Angstroms)
 Number     Number       Type             X           Y           Z
 ---------------------------------------------------------------------
      1          7           0        1.918825   -0.773599    0.393328
      2          6           0        0.840517   -0.340810   -0.327837
      3          6           0       -0.819001   -0.303857    0.117846
      4          8           0       -1.558226   -1.290949   -0.389716
      5          6           0       -0.996402    0.632691    1.046546
      6          6           0       -0.472370    1.320795   -0.192859
      7          7           0        0.799837    0.999953   -0.628156
      8          1           0        2.017128   -1.763367    0.522870
      9          1           0        2.322833   -0.211389    1.127429
     10          1           0       -0.997537   -1.703835   -1.064930
     11          1           0       -1.749322    0.912011    1.765476
     12          1           0       -1.068001    2.041154   -0.745378
     13          1           0        1.593604    1.615625   -0.706124
 ---------------------------------------------------------------------

 SCF Done:  E(RHF) =  -338.629206923     A.U. after    2 cycles

 The electronic state is 1-A.
 Alpha  occ. eigenvalues --  -20.60131 -15.65281 -15.63298 -11.33057 -11.30037
 Alpha  occ. eigenvalues --  -11.29432 -11.22821  -1.37257  -1.27323  -1.15881
 Alpha  occ. eigenvalues --   -1.07452  -0.88112  -0.82442  -0.78610  -0.72631
 Alpha  occ. eigenvalues --   -0.69995  -0.67038  -0.66215  -0.63835  -0.58854
 Alpha  occ. eigenvalues --   -0.54940  -0.50919  -0.45817  -0.40568  -0.35069
 Alpha  occ. eigenvalues --   -0.24285
 Alpha virt. eigenvalues --    0.03084   0.03731   0.04296   0.04761   0.06343
 Alpha virt. eigenvalues --    0.06854   0.08229   0.09838   0.09984   0.12104
 Alpha virt. eigenvalues --    0.13422   0.14275   0.14743   0.15446   0.15467

 Mulliken charges:
               1
     1  N   -0.142746
     2  C    0.162326
     3  C    0.283921
     4  O   -0.581688
     5  C    0.711179
     6  C    0.494775
     7  N   -0.266847
     8  H   -0.005237
     9  H   -0.032786
    10  H    0.187221
    11  H   -0.389915
    12  H   -0.284712
    13  H   -0.135491
 Sum of Mulliken charges =  -0.00000

 Dipole moment (field-independent basis, Debye):
    X=              2.1046    Y=              0.9758    Z=              0.4831  Tot=              2.3696

 Test job not archived.
 1\1\GINC-SE041\SP\RHF\Aug-CC-pVDZ\C4H6N2O1\OHZDE\09-Apr-2025\0\\#t hf
 aug-cc-pvdz iop(5/13=1,5/36=2,99/5=2) pseudo=read geom=check guess=(re
 ad,tcheck) scf=(maxcycle=1)\\title\\0,1\N,0,1.84967352,0.74755462,0.15
 726371\C,0,0.76718782,0.18170152,-0.45769122\C,0,-0.35739305,-0.961563
 33,0.16058086\O,0,-0.15484302,-2.21856958,-0.23606961\C,0,-1.12006492,
 -0.36680544,1.07473115\C,0,-1.33540257,0.35928088,-0.23318752\N,0,-0.2
 6259772,1.0287931,-0.79155837\H,0,2.65131258,0.16302897,0.30487671\H,0
 ,1.74517058,1.49478683,0.82728574\H,0,0.49359157,-2.15450915,-0.954532

 Normal termination of Gaussian 16 at Wed Apr  9 16:30:08 2025.
