 Gaussian 16, Revision C.01,

 ----------------------------------------------------------------------
 #t hf aug-cc-pvdz symm=none int=(grid=ultrafine) guess=(read,tcheck) s
 table=(opt,rrhf)
 ----------------------------------------------------------------------
 -----
 title
 -----
 Symbolic Z-matrix:
 Charge =  0 Multiplicity = 1

 SCF Done:  E(RHF) =  -309.003462241     A.U. after   13 cycles

 1\1\GINC-SE029\Stability\RHF\Aug-CC-pVDZ\C6H12O1\OHZDE\09-Apr-2025\0\\
 #t hf aug-cc-pvdz symm=none int=(grid=ultrafine) guess=(read,tcheck) s
 table=(opt,rrhf)\\title\\0,1\C,0,0.19318822,-2.0567142,-0.17814047\O,0
 ,-0.03057074,-1.62983361,-1.49660953\C,0,0.42014392,1.76512181,0.70469
 377\C,0,-0.92329095,1.48945911,0.06717247\C,0,-1.37573054,1.05083847,1
 .49455761\C,0,0.03388216,1.38926673,1.9227348\C,0,1.11051087,-1.047497
 4,-2.06698288\H,0,-0.73781319,-2.48554075,0.19099599\H,0,0.48480076,-1
 .21943992,0.46992141\H,0,0.97972755,-2.82199616,-0.13238079\H,0,1.3536

 Normal termination of Gaussian 16 at Wed Apr  9 03:53:59 2025.
 Gaussian 16:  ES64L-G16RevC.01  3-Jul-2019

 ----------------------------------------------------------------------
 #t hf aug-cc-pvdz iop(5/13=1,5/36=2,99/5=2) pseudo=read geom=check gue
 ss=(read,tcheck) scf=(maxcycle=1)
 ----------------------------------------------------------------------
 -----
 title
 -----
 Structure from the checkpoint file:  "Grambow2020_wb97xd3_008396_reverse_mol2.chk"
 Charge =  0 Multiplicity = 1

                         Standard orientation:
 ---------------------------------------------------------------------
 Center     Atomic      Atomic             Coordinates (Angstroms)
 Number     Number       Type             X           Y           Z
 ---------------------------------------------------------------------
      1          6           0       -1.675702    1.221690    0.357784
      2          8           0       -2.150123    0.231528   -0.516950
      3          6           0        1.591420   -0.950610    0.568410
      4          6           0        1.339008   -0.585991   -0.877474
      5          6           0        2.052693    0.759213   -0.537476
      6          6           0        2.199351    0.198444    0.858556
      7          6           0       -2.394065   -0.983710    0.138944
      8          1           0       -1.504653    2.123794   -0.228618
      9          1           0       -0.733341    0.918175    0.833057
     10          1           0       -2.407038    1.443874    1.146566
     11          1           0        1.361977   -1.837540    1.147246
     12          1           0        1.853930   -1.203910   -1.616021
     13          1           0        0.291349   -0.483970   -1.169451
     14          1           0        1.421669    1.646234   -0.629525
     15          1           0        2.984701    0.935170   -1.078535
     16          1           0        2.645822    0.597632    1.761241
     17          1           0       -2.758297   -1.692062   -0.604294
     18          1           0       -1.478587   -1.382800    0.596335
     19          1           0       -3.152768   -0.871034    0.925132
 ---------------------------------------------------------------------

 SCF Done:  E(RHF) =  -309.105207561     A.U. after    2 cycles

 The electronic state is 1-A.
 Alpha  occ. eigenvalues --  -20.56907 -11.27962 -11.27705 -11.23675 -11.23512
 Alpha  occ. eigenvalues --  -11.23291 -11.22986  -1.33690  -1.13978  -0.97047
 Alpha  occ. eigenvalues --   -0.89640  -0.87409  -0.87019  -0.70767  -0.68156
 Alpha  occ. eigenvalues --   -0.67092  -0.65998  -0.65222  -0.62299  -0.55021
 Alpha  occ. eigenvalues --   -0.53792  -0.52957  -0.50583  -0.49077  -0.46662
 Alpha  occ. eigenvalues --   -0.45803  -0.43671  -0.35447
 Alpha virt. eigenvalues --    0.03318   0.04173   0.04408   0.04789   0.05961
 Alpha virt. eigenvalues --    0.06080   0.06240   0.07721   0.08097   0.08979
 Alpha virt. eigenvalues --    0.09312   0.10028   0.12748   0.12966   0.13110

 Mulliken charges:
               1
     1  C    0.867955
     2  O   -0.741350
     3  C    0.172902
     4  C    0.651515
     5  C    0.395702
     6  C    0.135145
     7  C    0.817248
     8  H   -0.237655
     9  H   -0.171373
    10  H   -0.100922
    11  H   -0.330893
    12  H   -0.140377
    13  H   -0.268799
    14  H   -0.172481
    15  H   -0.151026
    16  H   -0.274697
    17  H   -0.217425
    18  H   -0.140585
    19  H   -0.092883
 Sum of Mulliken charges =  -0.00000

 Dipole moment (field-independent basis, Debye):
    X=              0.2096    Y=             -0.1972    Z=              1.3164  Tot=              1.3475

 Test job not archived.
 1\1\GINC-SE029\SP\RHF\Aug-CC-pVDZ\C6H12O1\OHZDE\09-Apr-2025\0\\#t hf a
 ug-cc-pvdz iop(5/13=1,5/36=2,99/5=2) pseudo=read geom=check guess=(rea
 d,tcheck) scf=(maxcycle=1)\\title\\0,1\C,0,0.19318822,-2.0567142,-0.17
 814047\O,0,-0.03057074,-1.62983361,-1.49660953\C,0,0.42014392,1.765121
 81,0.70469377\C,0,-0.92329095,1.48945911,0.06717247\C,0,-1.37573054,1.
 05083847,1.49455761\C,0,0.03388216,1.38926673,1.9227348\C,0,1.11051087
 ,-1.0474974,-2.06698288\H,0,-0.73781319,-2.48554075,0.19099599\H,0,0.4
 8480076,-1.21943992,0.46992141\H,0,0.97972755,-2.82199616,-0.13238079\

 Normal termination of Gaussian 16 at Wed Apr  9 03:54:07 2025.
