 Gaussian 16, Revision C.01,

 ----------------------------------------------------------------------
 #t hf aug-cc-pvdz symm=none int=(grid=ultrafine) guess=(read,tcheck) s
 table=(opt,rrhf)
 ----------------------------------------------------------------------
 -----
 title
 -----
 Symbolic Z-matrix:
 Charge =  0 Multiplicity = 1

 SCF Done:  E(RHF) =  -305.667817145     A.U. after   15 cycles
 Normal termination of Gaussian 16 at Wed Apr  9 03:03:53 2025.
 Gaussian 16:  ES64L-G16RevC.01  3-Jul-2019

 ----------------------------------------------------------------------
 #t hf aug-cc-pvdz iop(5/13=1,5/36=2,99/5=2) pseudo=read geom=check gue
 ss=(read,tcheck) scf=(maxcycle=1)
 ----------------------------------------------------------------------
 -----
 title
 -----
 Structure from the checkpoint file:  "Grambow2020_b97d3_006510_reverse_mol1.chk"
 Charge =  0 Multiplicity = 1

                         Standard orientation:
 ---------------------------------------------------------------------
 Center     Atomic      Atomic             Coordinates (Angstroms)
 Number     Number       Type             X           Y           Z
 ---------------------------------------------------------------------
      1          8           0       -1.807466   -1.021481    0.084034
      2          6           0       -1.349052    0.874800    0.010455
      3          6           0       -0.038578    0.404990    0.014449
      4          6           0        0.924155   -0.025913    1.074119
      5          6           0        1.808585   -0.365061   -0.151369
      6          8           0        0.741828    0.135792   -1.051694
      7          1           0       -1.949282   -1.248400   -0.857914
      8          1           0       -1.861732    1.156528   -0.903907
      9          1           0       -1.836466    1.059021    0.963119
     10          1           0       -0.445007    2.092228    0.104147
     11          1           0        1.292394    0.772879    1.726691
     12          1           0        0.557957   -0.876102    1.655692
     13          1           0        1.976308   -1.428939   -0.344410
     14          1           0        2.720274    0.225399   -0.288065
 ---------------------------------------------------------------------

 SCF Done:  E(RHF) =  -305.762712098     A.U. after    2 cycles

 The electronic state is 1-A.
 Alpha  occ. eigenvalues --  -20.65186 -20.44985 -11.41130 -11.34558 -11.32312
 Alpha  occ. eigenvalues --  -11.29093  -1.44095  -1.15277  -1.07653  -1.05238
 Alpha  occ. eigenvalues --   -0.91828  -0.78346  -0.73259  -0.72876  -0.70761
 Alpha  occ. eigenvalues --   -0.61581  -0.59330  -0.58308  -0.54928  -0.54505
 Alpha  occ. eigenvalues --   -0.52351  -0.47568  -0.38674  -0.32318
 Alpha virt. eigenvalues --    0.02528   0.03792   0.04471   0.04780   0.06282
 Alpha virt. eigenvalues --    0.06726   0.07352   0.07615   0.09276   0.11393
 Alpha virt. eigenvalues --    0.11952   0.12298   0.13096   0.13773   0.14445

 Mulliken charges:
               1
     1  O   -0.834828
     2  C    1.011107
     3  C   -0.094096
     4  C    0.224552
     5  C    0.955434
     6  O   -0.685140
     7  H    0.064701
     8  H   -0.265567
     9  H   -0.223887
    10  H    0.214160
    11  H   -0.007937
    12  H    0.023931
    13  H   -0.175283
    14  H   -0.207147
 Sum of Mulliken charges =  -0.00000

 Dipole moment (field-independent basis, Debye):
    X=              4.7861    Y=              2.3970    Z=              0.7462  Tot=              5.4045

 Test job not archived.
 1\1\GINC-SE080\SP\RHF\Aug-CC-pVDZ\C4H8O2\OHZDE\09-Apr-2025\0\\#t hf au
 g-cc-pvdz iop(5/13=1,5/36=2,99/5=2) pseudo=read geom=check guess=(read
 ,tcheck) scf=(maxcycle=1)\\title\\0,1\O,0,-1.92790156,0.64541658,-0.80
 237911\C,0,-1.3153093,-0.8584696,0.28136199\C,0,-0.09106871,-0.1969998
 7,0.23925826\C,0,1.04168442,-0.13570798,-0.73467559\C,0,1.58477666,0.9
 0888091,0.27177622\O,0,0.39456458,0.69172571,1.12947665\H,0,-2.3029429
 7,1.25651336,-0.13546457\H,0,-1.99350495,-0.77093059,1.12436694\H,0,-1
 .55143445,-1.56260809,-0.51079467\H,0,-0.29921174,-1.76962234,0.948859

 Normal termination of Gaussian 16 at Wed Apr  9 03:03:57 2025.
