 Gaussian 16, Revision C.01,

 ----------------------------------------------------------------------
 #t hf aug-cc-pvdz symm=none int=(grid=ultrafine) guess=(read,tcheck) s
 table=(opt,rrhf)
 ----------------------------------------------------------------------
 -----
 title
 -----
 Symbolic Z-matrix:
 Charge =  0 Multiplicity = 1

 SCF Done:  E(RHF) =  -307.808816288     A.U. after   15 cycles

 1\1\GINC-SE273\Stability\RHF\Aug-CC-pVDZ\C6H10O1\OHZDE\09-Apr-2025\0\\
 #t hf aug-cc-pvdz symm=none int=(grid=ultrafine) guess=(read,tcheck) s
 table=(opt,rrhf)\\title\\0,1\C,0,-2.18395993,0.14487437,0.24209502\C,0
 ,-0.68075385,0.16007593,0.40445433\C,0,-0.0128723,-1.13531444,-0.03348
 137\C,0,1.50510711,-1.00451979,0.09356839\C,0,2.14042493,0.28220845,-0
 .23467378\C,0,1.21689586,1.40645432,-0.28666739\O,0,-0.18462988,1.2352
 6929,-0.37373611\H,0,-2.62574221,-0.65758307,0.83565617\H,0,-2.4456831
 ,-0.01256696,-0.80592982\H,0,-2.61214418,1.09424992,0.56450573\H,0,-0.

 Normal termination of Gaussian 16 at Wed Apr  9 16:52:27 2025.
 Gaussian 16:  ES64L-G16RevC.01  3-Jul-2019

 ----------------------------------------------------------------------
 #t hf aug-cc-pvdz iop(5/13=1,5/36=2,99/5=2) pseudo=read geom=check gue
 ss=(read,tcheck) scf=(maxcycle=1)
 ----------------------------------------------------------------------
 -----
 title
 -----
 Structure from the checkpoint file:  "Grambow2020_wb97xd3_009032_reverse_mol2.chk"
 Charge =  0 Multiplicity = 1

                         Standard orientation:
 ---------------------------------------------------------------------
 Center     Atomic      Atomic             Coordinates (Angstroms)
 Number     Number       Type             X           Y           Z
 ---------------------------------------------------------------------
      1          6           0        2.354118   -0.013487    0.011602
      2          6           0        0.874105    0.022488    0.318992
      3          6           0        0.172421    1.254908   -0.232976
      4          6           0       -1.326302    1.171747    0.057584
      5          6           0       -1.996781   -0.136463   -0.020411
      6          6           0       -1.088069   -1.273728   -0.000196
      7          8           0        0.298885   -1.142753   -0.245892
      8          1           0        2.855841    0.856655    0.438862
      9          1           0        2.512255   -0.011140   -1.068504
     10          1           0        2.807516   -0.915365    0.423489
     11          1           0        0.730209   -0.007611    1.413157
     12          1           0        0.344205    1.296069   -1.312512
     13          1           0        0.601387    2.163466    0.197877
     14          1           0       -1.526982    1.386861    1.125903
     15          1           0       -1.916410    1.937953   -0.452240
     16          1           0       -1.285544   -1.637641    1.035576
     17          1           0       -1.450512   -2.080010   -0.642054
 ---------------------------------------------------------------------

 SCF Done:  E(RHF) =  -307.902299058     A.U. after    2 cycles

 The electronic state is 1-A.
 Alpha  occ. eigenvalues --  -20.57160 -11.29333 -11.29153 -11.26577 -11.24737
 Alpha  occ. eigenvalues --  -11.23725 -11.22685  -1.34478  -1.08404  -1.05878
 Alpha  occ. eigenvalues --   -0.95353  -0.89271  -0.82901  -0.73982  -0.67906
 Alpha  occ. eigenvalues --   -0.64973  -0.62085  -0.60856  -0.59979  -0.56237
 Alpha  occ. eigenvalues --   -0.54040  -0.52841  -0.51333  -0.49090  -0.47339
 Alpha  occ. eigenvalues --   -0.42918  -0.34754
 Alpha virt. eigenvalues --    0.03276   0.04282   0.04503   0.04701   0.06251
 Alpha virt. eigenvalues --    0.06536   0.06617   0.07039   0.07430   0.08627
 Alpha virt. eigenvalues --    0.09438   0.10746   0.12029   0.13481   0.14324

 Mulliken charges:
               1
     1  C    0.493724
     2  C    0.157401
     3  C    0.319243
     4  C    0.276455
     5  C   -0.853369
     6  C    0.795793
     7  O   -0.702102
     8  H   -0.005881
     9  H    0.009854
    10  H   -0.026587
    11  H   -0.263469
    12  H   -0.108703
    13  H   -0.066217
    14  H    0.104240
    15  H   -0.052617
    16  H    0.089610
    17  H   -0.167374
 Sum of Mulliken charges =  -0.00000

 Dipole moment (field-independent basis, Debye):
    X=              1.3920    Y=              1.5548    Z=              0.8636  Tot=              2.2585

 Test job not archived.
 1\1\GINC-SE273\SP\RHF\Aug-CC-pVDZ\C6H10O1\OHZDE\09-Apr-2025\0\\#t hf a
 ug-cc-pvdz iop(5/13=1,5/36=2,99/5=2) pseudo=read geom=check guess=(rea
 d,tcheck) scf=(maxcycle=1)\\title\\0,1\C,0,-2.18395993,0.14487437,0.24
 209502\C,0,-0.68075385,0.16007593,0.40445433\C,0,-0.0128723,-1.1353144
 4,-0.03348137\C,0,1.50510711,-1.00451979,0.09356839\C,0,2.14042493,0.2
 8220845,-0.23467378\C,0,1.21689586,1.40645432,-0.28666739\O,0,-0.18462
 988,1.23526929,-0.37373611\H,0,-2.62574221,-0.65758307,0.83565617\H,0,
 -2.4456831,-0.01256696,-0.80592982\H,0,-2.61214418,1.09424992,0.564505

 Normal termination of Gaussian 16 at Wed Apr  9 16:52:33 2025.
