 Gaussian 16, Revision C.01,

 ----------------------------------------------------------------------
 #t hf aug-cc-pvdz symm=none int=(grid=ultrafine) guess=(read,tcheck) s
 table=(opt,rrhf)
 ----------------------------------------------------------------------
 -----
 title
 -----
 Symbolic Z-matrix:
 Charge =  0 Multiplicity = 1

 SCF Done:  E(RHF) =  -360.852574333     A.U. after   14 cycles
 Normal termination of Gaussian 16 at Wed Apr  9 14:45:08 2025.
 Gaussian 16:  ES64L-G16RevC.01  3-Jul-2019

 ----------------------------------------------------------------------
 #t hf aug-cc-pvdz iop(5/13=1,5/36=2,99/5=2) pseudo=read geom=check gue
 ss=(read,tcheck) scf=(maxcycle=1)
 ----------------------------------------------------------------------
 -----
 title
 -----
 Structure from the checkpoint file:  "Grambow2020_wb97xd3_006602_forward_mol1.chk"
 Charge =  0 Multiplicity = 1

                         Standard orientation:
 ---------------------------------------------------------------------
 Center     Atomic      Atomic             Coordinates (Angstroms)
 Number     Number       Type             X           Y           Z
 ---------------------------------------------------------------------
      1          6           0       -2.748389   -0.347272    0.071338
      2          6           0       -1.364485    0.083007   -0.364657
      3          8           0       -1.139856    1.379302    0.156002
      4          6           0       -0.293948   -0.887332    0.131438
      5          7           0        1.029344   -0.459393   -0.251685
      6          6           0        2.000004   -0.046361    0.499611
      7          8           0        3.004312    0.236039   -0.237879
      8          1           0       -2.986911   -1.340587   -0.312948
      9          1           0       -3.494227    0.355848   -0.298473
     10          1           0       -2.812802   -0.368132    1.161232
     11          1           0       -1.316991    0.111271   -1.462382
     12          1           0       -0.288840    1.686187   -0.166112
     13          1           0       -0.362412   -0.957702    1.222341
     14          1           0       -0.484221   -1.880915   -0.283794
     15          1           0        2.062570   -0.181871   -1.053138
     16          1           0        2.003689    0.056667    1.583704
 ---------------------------------------------------------------------

 SCF Done:  E(RHF) =  -360.966235262     A.U. after    2 cycles

 The electronic state is 1-A.
 Alpha  occ. eigenvalues --  -20.57554 -20.56974 -15.63804 -11.37623 -11.29786
 Alpha  occ. eigenvalues --  -11.28369 -11.23191  -1.38803  -1.33389  -1.18583
 Alpha  occ. eigenvalues --   -1.04536  -0.95342  -0.83845  -0.82420  -0.72735
 Alpha  occ. eigenvalues --   -0.72561  -0.66931  -0.64715  -0.60318  -0.59699
 Alpha  occ. eigenvalues --   -0.57169  -0.54899  -0.54508  -0.52535  -0.50683
 Alpha  occ. eigenvalues --   -0.46815  -0.44918  -0.39157
 Alpha virt. eigenvalues --    0.03310   0.03682   0.04514   0.04731   0.06371
 Alpha virt. eigenvalues --    0.06898   0.07021   0.07359   0.08669   0.10542
 Alpha virt. eigenvalues --    0.12195   0.12777   0.13452   0.14130   0.14435

 Mulliken charges:
               1
     1  C    0.476014
     2  C    0.156408
     3  O   -0.599602
     4  C    0.663278
     5  N   -0.575208
     6  C    0.555893
     7  O   -0.608191
     8  H    0.006218
     9  H   -0.042392
    10  H    0.017145
    11  H   -0.156345
    12  H    0.150133
    13  H   -0.152134
    14  H   -0.151305
    15  H    0.445000
    16  H   -0.184912
 Sum of Mulliken charges =  -0.00000

 Dipole moment (field-independent basis, Debye):
    X=             -1.8618    Y=             -1.8413    Z=              0.5857  Tot=              2.6832

 Test job not archived.
 1\1\GINC-SE114\SP\RHF\Aug-CC-pVDZ\C4H9N1O2\OHZDE\09-Apr-2025\0\\#t hf
 aug-cc-pvdz iop(5/13=1,5/36=2,99/5=2) pseudo=read geom=check guess=(re
 ad,tcheck) scf=(maxcycle=1)\\title\\0,1\C,0,-2.20433646,-0.74578832,-0
 .10888769\C,0,-0.85576865,-0.22836151,-0.56061322\O,0,-0.9917945,1.160
 03874,-0.79675871\C,0,0.22455626,-0.4910538,0.4870556\N,0,1.50327851,0
 .03403596,0.07454227\C,0,2.18356633,1.01161975,0.58322608\O,0,3.265463
 69,1.15419849,-0.08118826\H,0,-2.16701177,-1.82055945,0.07743717\H,0,-
 2.9561693,-0.55238504,-0.87358031\H,0,-2.515738,-0.24148504,0.80826038

 Normal termination of Gaussian 16 at Wed Apr  9 14:45:13 2025.
