 Gaussian 16, Revision C.01,

 ----------------------------------------------------------------------
 #t hf aug-cc-pvdz symm=none int=(grid=ultrafine) guess=(read,tcheck) s
 table=(opt,rrhf)
 ----------------------------------------------------------------------
 -----
 title
 -----
 Symbolic Z-matrix:
 Charge =  0 Multiplicity = 1

 SCF Done:  E(RHF) =  -286.805755917     A.U. after   15 cycles
 Normal termination of Gaussian 16 at Wed Apr  9 16:33:14 2025.
 Gaussian 16:  ES64L-G16RevC.01  3-Jul-2019

 ----------------------------------------------------------------------
 #t hf aug-cc-pvdz iop(5/13=1,5/36=2,99/5=2) pseudo=read geom=check gue
 ss=(read,tcheck) scf=(maxcycle=1)
 ----------------------------------------------------------------------
 -----
 title
 -----
 Structure from the checkpoint file:  "Grambow2020_wb97xd3_008575_reverse_mol2.chk"
 Charge =  0 Multiplicity = 1

                         Standard orientation:
 ---------------------------------------------------------------------
 Center     Atomic      Atomic             Coordinates (Angstroms)
 Number     Number       Type             X           Y           Z
 ---------------------------------------------------------------------
      1          6           0       -1.910012   -0.978733    0.059293
      2          6           0       -0.491073   -0.546721    0.082870
      3          6           0        0.080118    0.803445    0.397429
      4          6           0        1.584890    0.708079    0.211621
      5          6           0       -0.608529    1.957770   -0.327683
      6          6           0        1.770298   -0.586440   -0.107983
      7          7           0        0.514674   -1.309491   -0.180638
      8          1           0       -2.399449   -0.714499    0.998248
      9          1           0       -2.440545   -0.449841   -0.736467
     10          1           0       -2.019283   -2.051175   -0.103187
     11          1           0       -0.076221    0.930853    1.481679
     12          1           0       -0.470982    1.865742   -1.406555
     13          1           0       -0.146936    2.893211   -0.016813
     14          1           0       -1.679763    2.005804   -0.114147
     15          1           0        2.656683   -1.167109   -0.324383
     16          1           0        0.419626   -2.290941   -0.407190
 ---------------------------------------------------------------------

 SCF Done:  E(RHF) =  -286.891324587     A.U. after    2 cycles

 The electronic state is 1-A.
 Alpha  occ. eigenvalues --  -15.71761 -11.33946 -11.28349 -11.24076 -11.23046
 Alpha  occ. eigenvalues --  -11.22213 -11.16040  -1.29826  -1.06693  -1.04855
 Alpha  occ. eigenvalues --   -0.95054  -0.90874  -0.79056  -0.74627  -0.70363
 Alpha  occ. eigenvalues --   -0.65308  -0.62516  -0.59763  -0.57832  -0.57473
 Alpha  occ. eigenvalues --   -0.55114  -0.50826  -0.49347  -0.46040  -0.30112
 Alpha  occ. eigenvalues --   -0.29079
 Alpha virt. eigenvalues --    0.01684   0.03222   0.04179   0.04502   0.06136
 Alpha virt. eigenvalues --    0.06686   0.07068   0.07398   0.09128   0.09661
 Alpha virt. eigenvalues --    0.10363   0.11493   0.12043   0.12833   0.13719

 Mulliken charges:
               1
     1  C    0.730212
     2  C   -0.304897
     3  C   -0.806061
     4  C   -0.520785
     5  C    0.714204
     6  C    1.045188
     7  N   -0.348673
     8  H    0.064693
     9  H    0.105645
    10  H   -0.165200
    11  H    0.065567
    12  H    0.004412
    13  H   -0.045105
    14  H   -0.066465
    15  H   -0.399776
    16  H   -0.072961
 Sum of Mulliken charges =  -0.00000

 Dipole moment (field-independent basis, Debye):
    X=             -6.1638    Y=             -4.7805    Z=             -0.6119  Tot=              7.8244

 Test job not archived.
 1\1\GINC-SE042\SP\RHF\Aug-CC-pVDZ\C6H9N1\OHZDE\09-Apr-2025\0\\#t hf au
 g-cc-pvdz iop(5/13=1,5/36=2,99/5=2) pseudo=read geom=check guess=(read
 ,tcheck) scf=(maxcycle=1)\\title\\0,1\C,0,1.74460071,-0.48769929,-0.54
 909585\C,0,0.5938662,0.2158999,0.06842854\C,0,-0.72497505,-0.34090708,
 0.51427557\C,0,-1.55789303,0.82630758,1.01609024\C,0,-1.39988581,-1.24
 766086,-0.51274997\C,0,-0.71929779,1.87244605,0.89502313\N,0,0.5551303
 2,1.47917557,0.32419564\H,0,2.03073192,-1.34720713,0.05949249\H,0,1.45
 43398,-0.87385504,-1.52943178\H,0,2.61371244,0.15856449,-0.67342989\H,

 Normal termination of Gaussian 16 at Wed Apr  9 16:33:21 2025.
