 Gaussian 16, Revision C.01,

 ----------------------------------------------------------------------
 #t hf aug-cc-pvdz symm=none int=(grid=ultrafine) guess=(read,tcheck) s
 table=(opt,rrhf)
 ----------------------------------------------------------------------
 -----
 title
 -----
 Symbolic Z-matrix:
 Charge =  0 Multiplicity = 1

 SCF Done:  E(RHF) =  -305.697922709     A.U. after   16 cycles
 Normal termination of Gaussian 16 at Wed Apr  9 14:24:22 2025.
 Gaussian 16:  ES64L-G16RevC.01  3-Jul-2019

 ----------------------------------------------------------------------
 #t hf aug-cc-pvdz iop(5/13=1,5/36=2,99/5=2) pseudo=read geom=check gue
 ss=(read,tcheck) scf=(maxcycle=1)
 ----------------------------------------------------------------------
 -----
 title
 -----
 Structure from the checkpoint file:  "Grambow2020_wb97xd3_006220_forward_mol1.chk"
 Charge =  0 Multiplicity = 1

                         Standard orientation:
 ---------------------------------------------------------------------
 Center     Atomic      Atomic             Coordinates (Angstroms)
 Number     Number       Type             X           Y           Z
 ---------------------------------------------------------------------
      1          6           0        1.885869   -1.013149   -0.055197
      2          8           0        0.621153   -0.456206   -0.363540
      3          6           0       -0.167174   -0.190139    0.731567
      4          6           0        1.011758    2.138901   -0.051153
      5          6           0       -1.480923   -0.084917    0.563828
      6          8           0       -2.112936   -0.262854   -0.620310
      7          1           0        1.772977   -1.995755    0.412701
      8          1           0        2.443145   -0.343635    0.606083
      9          1           0        2.423044   -1.118723   -0.995420
     10          1           0        0.322101   -0.046944    1.686166
     11          1           0        1.085416    1.962194   -1.141285
     12          1           0       -0.016967    2.531038    0.063993
     13          1           0       -2.141596    0.170729    1.379347
     14          1           0       -1.451028   -0.510593   -1.275056
 ---------------------------------------------------------------------

 SCF Done:  E(RHF) =  -305.797598833     A.U. after    2 cycles

 The electronic state is 1-A.
 Alpha  occ. eigenvalues --  -20.60426 -20.60024 -11.30060 -11.29651 -11.29020
 Alpha  occ. eigenvalues --  -11.28648  -1.38222  -1.35422  -1.03445  -0.93524
 Alpha  occ. eigenvalues --   -0.87662  -0.82658  -0.74717  -0.70853  -0.66984
 Alpha  occ. eigenvalues --   -0.62885  -0.60646  -0.59475  -0.55604  -0.55286
 Alpha  occ. eigenvalues --   -0.52540  -0.50568  -0.38382  -0.33572
 Alpha virt. eigenvalues --    0.03375   0.04101   0.04461   0.04980   0.06152
 Alpha virt. eigenvalues --    0.06586   0.07538   0.07738   0.08231   0.11365
 Alpha virt. eigenvalues --    0.12363   0.12791   0.13764   0.14969   0.15620

 Mulliken charges:
               1
     1  C    0.710053
     2  O   -0.830100
     3  C    0.827178
     4  C    0.115498
     5  C    0.613980
     6  O   -0.533054
     7  H   -0.058548
     8  H   -0.038763
     9  H   -0.222283
    10  H   -0.399960
    11  H   -0.042838
    12  H   -0.061773
    13  H   -0.260562
    14  H    0.181171
 Sum of Mulliken charges =  -0.00000

 Dipole moment (field-independent basis, Debye):
    X=              1.0740    Y=             -0.7446    Z=             -0.0709  Tot=              1.3088

 Test job not archived.
 1\1\GINC-SE141\SP\RHF\Aug-CC-pVDZ\C4H8O2\OHZDE\09-Apr-2025\0\\#t hf au
 g-cc-pvdz iop(5/13=1,5/36=2,99/5=2) pseudo=read geom=check guess=(read
 ,tcheck) scf=(maxcycle=1)\\title\\0,1\C,0,1.48048115,-0.60605148,-1.06
 317631\O,0,0.53000629,0.25295194,-0.46028389\C,0,-0.72590433,-0.291157
 06,-0.32558883\C,0,0.55249942,-0.50395085,2.07177688\C,0,-1.76531771,0
 .5248203,-0.18795286\O,0,-1.67959792,1.8759002,-0.21079404\H,0,1.19759
 792,-0.83341952,-2.09539141\H,0,1.57424755,-1.53068506,-0.48667178\H,0
 ,2.43262545,-0.07966295,-1.05561625\H,0,-0.81224273,-1.36975018,-0.307

 Normal termination of Gaussian 16 at Wed Apr  9 14:24:26 2025.
