 Gaussian 16, Revision C.01,

 ----------------------------------------------------------------------
 #t hf aug-cc-pvdz symm=none int=(grid=ultrafine) guess=(read,tcheck) s
 table=(opt,rrhf)
 ----------------------------------------------------------------------
 -----
 title
 -----
 Symbolic Z-matrix:
 Charge =  0 Multiplicity = 1

 SCF Done:  E(RHF) =  -302.876983025     A.U. after   15 cycles
 Normal termination of Gaussian 16 at Wed Apr  9 16:48:44 2025.
 Gaussian 16:  ES64L-G16RevC.01  3-Jul-2019

 ----------------------------------------------------------------------
 #t hf aug-cc-pvdz iop(5/13=1,5/36=2,99/5=2) pseudo=read geom=check gue
 ss=(read,tcheck) scf=(maxcycle=1)
 ----------------------------------------------------------------------
 -----
 title
 -----
 Structure from the checkpoint file:  "Grambow2020_wb97xd3_008916_reverse_mol2.chk"
 Charge =  0 Multiplicity = 1

                         Standard orientation:
 ---------------------------------------------------------------------
 Center     Atomic      Atomic             Coordinates (Angstroms)
 Number     Number       Type             X           Y           Z
 ---------------------------------------------------------------------
      1          6           0        2.768193   -0.879319   -0.002699
      2          7           0        1.405248   -0.419450    0.096969
      3          6           0        1.183226    0.815213   -0.054728
      4          6           0       -0.142408    1.448398    0.015006
      5          6           0       -1.348286    0.872383    0.026617
      6          6           0       -1.647581   -0.560864   -0.043107
      7          7           0       -2.861562   -0.931665    0.007957
      8          1           0        3.045846   -1.378436    0.928140
      9          1           0        2.835932   -1.626388   -0.796472
     10          1           0        3.487088   -0.074538   -0.206451
     11          1           0        2.013761    1.511239   -0.243970
     12          1           0       -0.109380    2.533092    0.045904
     13          1           0       -2.229591    1.503883    0.081217
     14          1           0       -0.800364   -1.240346   -0.133750
     15          1           0       -2.927956   -1.945561   -0.055647
 ---------------------------------------------------------------------

 SCF Done:  E(RHF) =  -302.968046482     A.U. after    2 cycles

 The electronic state is 1-A.
 Alpha  occ. eigenvalues --  -15.63368 -15.61941 -11.30002 -11.28742 -11.26626
 Alpha  occ. eigenvalues --  -11.26033 -11.25821  -1.21661  -1.18342  -1.06764
 Alpha  occ. eigenvalues --   -0.96329  -0.88582  -0.79843  -0.74140  -0.68559
 Alpha  occ. eigenvalues --   -0.66595  -0.63102  -0.60237  -0.59538  -0.56159
 Alpha  occ. eigenvalues --   -0.52048  -0.49339  -0.44405  -0.43151  -0.40170
 Alpha  occ. eigenvalues --   -0.34660
 Alpha virt. eigenvalues --    0.03079   0.03675   0.04341   0.05154   0.05728
 Alpha virt. eigenvalues --    0.06113   0.06288   0.07951   0.09102   0.11493
 Alpha virt. eigenvalues --    0.11805   0.12923   0.13058   0.14040   0.14734

 Mulliken charges:
               1
     1  C    0.767964
     2  N   -0.444843
     3  C    0.418741
     4  C    0.441385
     5  C    0.323836
     6  C    1.046181
     7  N   -0.475488
     8  H   -0.141806
     9  H   -0.144800
    10  H   -0.102019
    11  H   -0.452418
    12  H   -0.416014
    13  H   -0.469688
    14  H   -0.397567
    15  H    0.046536
 Sum of Mulliken charges =  -0.00000

 Dipole moment (field-independent basis, Debye):
    X=              3.0723    Y=              0.4272    Z=             -0.4476  Tot=              3.1340

 Test job not archived.
 1\1\GINC-SE125\SP\RHF\Aug-CC-pVDZ\C5H8N2\OHZDE\09-Apr-2025\0\\#t hf au
 g-cc-pvdz iop(5/13=1,5/36=2,99/5=2) pseudo=read geom=check guess=(read
 ,tcheck) scf=(maxcycle=1)\\title\\0,1\C,0,-1.30426083,-2.02377307,0.97
 809341\N,0,-0.59891706,-0.84846361,0.53068907\C,0,0.66213886,-0.900736
 77,0.46983063\C,0,1.53191622,0.20319778,0.03634753\C,0,1.19741395,1.34
 944948,-0.56389148\C,0,-0.14558675,1.78637594,-0.95642224\N,0,-0.27977
 706,2.92826408,-1.49673175\H,0,-1.90084475,-1.76957715,1.85680924\H,0,
 -2.00275379,-2.33897944,0.19993658\H,0,-0.64126069,-2.86358847,1.22535

 Normal termination of Gaussian 16 at Wed Apr  9 16:48:58 2025.
