 Gaussian 16, Revision C.01,

 ----------------------------------------------------------------------
 #t hf aug-cc-pvdz symm=none int=(grid=ultrafine) guess=(read,tcheck) s
 table=(opt,rrhf)
 ----------------------------------------------------------------------
 -----
 title
 -----
 Symbolic Z-matrix:
 Charge =  0 Multiplicity = 1

 SCF Done:  E(RHF) =  -374.471347453     A.U. after   17 cycles
 Normal termination of Gaussian 16 at Wed Apr  9 17:17:17 2025.
 Gaussian 16:  ES64L-G16RevC.01  3-Jul-2019

 ----------------------------------------------------------------------
 #t hf aug-cc-pvdz iop(5/13=1,5/36=2,99/5=2) pseudo=read geom=check gue
 ss=(read,tcheck) scf=(maxcycle=1)
 ----------------------------------------------------------------------
 -----
 title
 -----
 Structure from the checkpoint file:  "Grambow2020_wb97xd3_009448_forward_mol1.chk"
 Charge =  0 Multiplicity = 1

                         Standard orientation:
 ---------------------------------------------------------------------
 Center     Atomic      Atomic             Coordinates (Angstroms)
 Number     Number       Type             X           Y           Z
 ---------------------------------------------------------------------
      1          8           0       -2.357876   -0.529872    0.084925
      2          6           0       -1.183905   -0.203350   -0.414508
      3          7           0       -0.125003   -0.893760   -0.078517
      4          6           0        0.987832   -0.208533    0.065630
      5          8           0        2.182050   -0.810905    0.087894
      6          6           0        0.866704    1.193302    0.004911
      7          7           0       -0.327002    1.730819    0.028876
      8          1           0       -2.269981   -1.216972    0.763366
      9          1           0        2.054021   -1.743752   -0.112903
     10          1           0        1.703018    1.776952   -0.368316
     11          1           0       -0.940205    1.362058    0.746600
 ---------------------------------------------------------------------

 SCF Done:  E(RHF) =  -374.585526260     A.U. after    2 cycles

 The electronic state is 1-A.
 Alpha  occ. eigenvalues --  -20.64196 -20.64029 -15.67591 -15.65673 -11.38292
 Alpha  occ. eigenvalues --  -11.35190 -11.29975  -1.42384  -1.41502  -1.26404
 Alpha  occ. eigenvalues --   -1.17515  -0.98516  -0.88490  -0.83457  -0.79613
 Alpha  occ. eigenvalues --   -0.74387  -0.67346  -0.66113  -0.64145  -0.62225
 Alpha  occ. eigenvalues --   -0.61312  -0.54973  -0.48104  -0.46581  -0.41289
 Alpha  occ. eigenvalues --   -0.32877
 Alpha virt. eigenvalues --    0.02636   0.03363   0.04750   0.06111   0.06555
 Alpha virt. eigenvalues --    0.08131   0.10515   0.10917   0.11672   0.12206
 Alpha virt. eigenvalues --    0.13230   0.13784   0.14926   0.15104   0.15864

 Mulliken charges:
               1
     1  O   -0.363115
     2  C    0.198932
     3  N   -0.491810
     4  C    0.586130
     5  O   -0.478567
     6  C    0.726617
     7  N   -0.417318
     8  H    0.151950
     9  H    0.134551
    10  H   -0.209888
    11  H    0.162518
 Sum of Mulliken charges =  -0.00000

 Dipole moment (field-independent basis, Debye):
    X=              1.2003    Y=             -2.3995    Z=              2.0305  Tot=              3.3647

 Test job not archived.
 1\1\GINC-SE045\SP\RHF\Aug-CC-pVDZ\C3H4N2O2\OHZDE\09-Apr-2025\0\\#t hf
 aug-cc-pvdz iop(5/13=1,5/36=2,99/5=2) pseudo=read geom=check guess=(re
 ad,tcheck) scf=(maxcycle=1)\\title\\0,1\O,0,-2.33520818,0.78537933,-0.
 14003546\C,0,-1.16138995,0.30512223,0.21459525\N,0,-0.0714706,0.927338
 3,-0.15385044\C,0,0.95171082,0.16235631,-0.46468443\O,0,2.19360044,0.6
 5335672,-0.54300255\C,0,0.69771517,-1.22168932,-0.52304917\N,0,-0.5411
 4403,-1.64380392,-0.48459334\H,0,-2.2373073,1.52682368,-0.75711803\H,0
 ,2.17617265,1.5688333,-0.24548905\H,0,1.50057748,-1.91337283,-0.285662

 Normal termination of Gaussian 16 at Wed Apr  9 17:17:24 2025.
