 Gaussian 16, Revision C.01,

 ----------------------------------------------------------------------
 #t hf aug-cc-pvdz symm=none int=(grid=ultrafine) guess=(read,tcheck) s
 table=(opt,rrhf)
 ----------------------------------------------------------------------
 -----
 title
 -----
 Symbolic Z-matrix:
 Charge =  0 Multiplicity = 1

 SCF Done:  E(RHF) =  -321.815149346     A.U. after   14 cycles
 Normal termination of Gaussian 16 at Wed Apr  9 13:47:50 2025.
 Gaussian 16:  ES64L-G16RevC.01  3-Jul-2019

 ----------------------------------------------------------------------
 #t hf aug-cc-pvdz iop(5/13=1,5/36=2,99/5=2) pseudo=read geom=check gue
 ss=(read,tcheck) scf=(maxcycle=1)
 ----------------------------------------------------------------------
 -----
 title
 -----
 Structure from the checkpoint file:  "Grambow2020_b97d3_006703_forward_mol1.chk"
 Charge =  0 Multiplicity = 1

                         Standard orientation:
 ---------------------------------------------------------------------
 Center     Atomic      Atomic             Coordinates (Angstroms)
 Number     Number       Type             X           Y           Z
 ---------------------------------------------------------------------
      1          6           0        2.218634   -0.690833   -0.001055
      2          7           0        1.290970    0.429182   -0.002269
      3          6           0       -0.017440    0.338096    0.002480
      4          8           0       -0.531480    1.536113    0.001150
      5          8           0       -0.717945   -0.795889    0.006665
      6          6           0       -2.152494   -0.623224   -0.004145
      7          1           0        2.771619   -0.755957    0.949927
      8          1           0        2.955244   -0.588016   -0.811786
      9          1           0        1.684071   -1.642371   -0.146954
     10          1           0        0.760707    1.701094   -0.001706
     11          1           0       -2.473606   -0.065540    0.883236
     12          1           0       -2.568120   -1.634374    0.004170
     13          1           0       -2.463509   -0.085136   -0.907204
 ---------------------------------------------------------------------

 SCF Done:  E(RHF) =  -321.919259507     A.U. after    2 cycles

 The electronic state is 1-A.
 Alpha  occ. eigenvalues --  -20.63822 -20.57115 -15.61675 -11.41977 -11.31323
 Alpha  occ. eigenvalues --  -11.26883  -1.43411  -1.34205  -1.16670  -0.98565
 Alpha  occ. eigenvalues --   -0.93697  -0.80418  -0.71035  -0.70159  -0.69403
 Alpha  occ. eigenvalues --   -0.62057  -0.60547  -0.60177  -0.56342  -0.54997
 Alpha  occ. eigenvalues --   -0.53173  -0.50957  -0.43625  -0.37518
 Alpha virt. eigenvalues --    0.03299   0.04230   0.05028   0.05392   0.06664
 Alpha virt. eigenvalues --    0.06813   0.07340   0.10089   0.12621   0.13089
 Alpha virt. eigenvalues --    0.13763   0.14559   0.15257   0.15643   0.16378

 Mulliken charges:
               1
     1  C    0.726844
     2  N   -0.741750
     3  C    0.661612
     4  O   -0.640364
     5  O   -0.536877
     6  C    0.690805
     7  H   -0.117575
     8  H   -0.146842
     9  H   -0.142199
    10  H    0.524350
    11  H   -0.033093
    12  H   -0.214222
    13  H   -0.030689
 Sum of Mulliken charges =  -0.00000

 Dipole moment (field-independent basis, Debye):
    X=             -0.5449    Y=             -2.0064    Z=             -0.0201  Tot=              2.0792

 Test job not archived.
 1\1\GINC-SE054\SP\RHF\Aug-CC-pVDZ\C3H7N1O2\OHZDE\09-Apr-2025\0\\#t hf
 aug-cc-pvdz iop(5/13=1,5/36=2,99/5=2) pseudo=read geom=check guess=(re
 ad,tcheck) scf=(maxcycle=1)\\title\\0,1\C,0,-2.14271154,-0.05032112,-0
 .6959606\N,0,-1.24646244,-0.06445705,0.44926094\C,0,0.06343637,-0.0254
 8232,0.39538219\O,0,0.54420288,-0.05210051,1.60684394\O,0,0.79454797,0
 .03109571,-0.71768637\C,0,2.22363096,0.04926694,-0.5049562\H,0,-2.7171
 4825,0.88870586,-0.74744945\H,0,-2.86150355,-0.88130775,-0.63895545\H,
 0,-1.57871725,-0.15341616,-1.63604146\H,0,-0.75156282,-0.09111327,1.73

 Normal termination of Gaussian 16 at Wed Apr  9 13:47:54 2025.
