 Gaussian 16, Revision C.01,

 ----------------------------------------------------------------------
 #t hf aug-cc-pvdz symm=none int=(grid=ultrafine) guess=(read,tcheck) s
 table=(opt,rrhf)
 ----------------------------------------------------------------------
 -----
 title
 -----
 Symbolic Z-matrix:
 Charge =  0 Multiplicity = 1

 SCF Done:  E(RHF) =  -354.667557803     A.U. after   16 cycles
 Normal termination of Gaussian 16 at Wed Apr  9 03:39:13 2025.
 Gaussian 16:  ES64L-G16RevC.01  3-Jul-2019

 ----------------------------------------------------------------------
 #t hf aug-cc-pvdz iop(5/13=1,5/36=2,99/5=2) pseudo=read geom=check gue
 ss=(read,tcheck) scf=(maxcycle=1)
 ----------------------------------------------------------------------
 -----
 title
 -----
 Structure from the checkpoint file:  "Grambow2020_wb97xd3_007472_forward_mol1.chk"
 Charge =  0 Multiplicity = 1

                         Standard orientation:
 ---------------------------------------------------------------------
 Center     Atomic      Atomic             Coordinates (Angstroms)
 Number     Number       Type             X           Y           Z
 ---------------------------------------------------------------------
      1          7           0        2.395325   -0.638640    0.314885
      2          6           0        1.660989    0.019636   -0.521221
      3          6           0        0.895502    1.151815   -0.131904
      4          7           0       -0.356327    1.210082    0.117817
      5          6           0       -1.537857   -0.407858    0.003052
      6          8           0       -2.628945    0.011371    0.124753
      7          7           0       -0.630630   -1.252330   -0.157730
      8          1           0        2.989222   -1.381386   -0.018746
      9          1           0        2.319684   -0.557980    1.323016
     10          1           0        1.497935    2.066004   -0.209684
     11          1           0       -0.736383    2.144567    0.205205
     12          1           0       -1.009282   -2.177522   -0.322175
 ---------------------------------------------------------------------

 SCF Done:  E(RHF) =  -354.776544496     A.U. after    2 cycles

 The electronic state is 1-A.
 Alpha  occ. eigenvalues --  -20.57187 -15.69381 -15.63771 -15.59658 -11.40132
 Alpha  occ. eigenvalues --  -11.32693 -11.29322  -1.38505  -1.24829  -1.19988
 Alpha  occ. eigenvalues --   -1.16639  -0.95633  -0.80367  -0.75840  -0.73765
 Alpha  occ. eigenvalues --   -0.71591  -0.68558  -0.66484  -0.61310  -0.60029
 Alpha  occ. eigenvalues --   -0.51731  -0.49541  -0.44284  -0.42732  -0.39146
 Alpha  occ. eigenvalues --   -0.34765
 Alpha virt. eigenvalues --    0.02278   0.03179   0.04627   0.04964   0.06475
 Alpha virt. eigenvalues --    0.09663   0.09949   0.10808   0.11039   0.11993
 Alpha virt. eigenvalues --    0.13404   0.13786   0.14155   0.15303   0.15627

 Mulliken charges:
               1
     1  N    0.048622
     2  C   -0.149907
     3  C    0.632924
     4  N   -0.280142
     5  C    0.239906
     6  O   -0.279268
     7  N   -0.023195
     8  H    0.045595
     9  H   -0.010968
    10  H   -0.156193
    11  H   -0.082728
    12  H    0.015354
 Sum of Mulliken charges =  -0.00000

 Dipole moment (field-independent basis, Debye):
    X=              5.0036    Y=              0.2722    Z=              1.8957  Tot=              5.3576

 Test job not archived.
 1\1\GINC-SE284\SP\RHF\Aug-CC-pVDZ\C3H5N3O1\OHZDE\09-Apr-2025\0\\#t hf
 aug-cc-pvdz iop(5/13=1,5/36=2,99/5=2) pseudo=read geom=check guess=(re
 ad,tcheck) scf=(maxcycle=1)\\title\\0,1\N,0,2.09090399,0.28192035,-0.0
 7228145\C,0,1.03308235,0.47557298,-0.79002963\C,0,-0.08524217,1.210317
 ,-0.31162707\N,0,-1.1882104,0.75815806,0.14863961\C,0,-1.55057132,-1.2
 1028982,0.29294286\O,0,-2.68589507,-1.28292917,0.58756358\N,0,-0.39912
 212,-1.60224785,0.00557691\H,0,2.89502481,-0.16938495,-0.47898572\H,0,
 2.13127305,0.42767696,0.93055512\H,0,0.04136908,2.28003705,-0.52230219

 Normal termination of Gaussian 16 at Wed Apr  9 03:39:17 2025.
