 Gaussian 16, Revision C.01,

 ----------------------------------------------------------------------
 #t hf aug-cc-pvdz symm=none int=(grid=ultrafine) guess=(read,tcheck) s
 table=(opt,rrhf)
 ----------------------------------------------------------------------
 -----
 title
 -----
 Symbolic Z-matrix:
 Charge =  0 Multiplicity = 1

 SCF Done:  E(RHF) =  -315.538650743     A.U. after   16 cycles
 Normal termination of Gaussian 16 at Wed Apr  9 03:08:40 2025.
 Gaussian 16:  ES64L-G16RevC.01  3-Jul-2019

 ----------------------------------------------------------------------
 #t hf aug-cc-pvdz iop(5/13=1,5/36=2,99/5=2) pseudo=read geom=check gue
 ss=(read,tcheck) scf=(maxcycle=1)
 ----------------------------------------------------------------------
 -----
 title
 -----
 Structure from the checkpoint file:  "Grambow2020_b97d3_006684_forward_mol1.chk"
 Charge =  0 Multiplicity = 1

                         Standard orientation:
 ---------------------------------------------------------------------
 Center     Atomic      Atomic             Coordinates (Angstroms)
 Number     Number       Type             X           Y           Z
 ---------------------------------------------------------------------
      1          8           0        2.040194    0.134199    0.016257
      2          6           0        0.692184    0.067390   -0.009680
      3          7           0        0.029053   -1.085104   -0.016606
      4          7           0       -1.260281   -0.725215    0.091863
      5          7           0       -1.432769    0.645251   -0.087510
      6          6           0       -0.164636    1.229876   -0.091791
      7          1           0        2.386608   -0.780260    0.041111
      8          1           0       -1.978050   -1.367534   -0.239697
      9          1           0       -1.247416    1.446090    0.763134
 ---------------------------------------------------------------------

 SCF Done:  E(RHF) =  -315.629064589     A.U. after    2 cycles

 The electronic state is 1-A.
 Alpha  occ. eigenvalues --  -20.62714 -15.74054 -15.73314 -15.70772 -11.35771
 Alpha  occ. eigenvalues --  -11.29033  -1.41682  -1.37553  -1.19125  -1.08905
 Alpha  occ. eigenvalues --   -0.88289  -0.82742  -0.77900  -0.73195  -0.67820
 Alpha  occ. eigenvalues --   -0.61978  -0.60667  -0.53571  -0.50812  -0.47576
 Alpha  occ. eigenvalues --   -0.39859  -0.36485
 Alpha virt. eigenvalues --    0.03208   0.03664   0.04479   0.07302   0.08630
 Alpha virt. eigenvalues --    0.10820   0.10946   0.12960   0.13034   0.14794
 Alpha virt. eigenvalues --    0.15104   0.16412   0.16799   0.17926   0.19919

 Mulliken charges:
               1
     1  O   -0.484882
     2  C    0.870835
     3  N   -0.382705
     4  N    0.045762
     5  N   -0.387108
     6  C   -0.273688
     7  H    0.139923
     8  H    0.083800
     9  H    0.388062
 Sum of Mulliken charges =  -0.00000

 Dipole moment (field-independent basis, Debye):
    X=             -1.4171    Y=             -2.9882    Z=              0.6579  Tot=              3.3720

 Test job not archived.
 1\1\GINC-SE024\SP\RHF\Aug-CC-pVDZ\C2H3N3O1\OHZDE\09-Apr-2025\0\\#t hf
 aug-cc-pvdz iop(5/13=1,5/36=2,99/5=2) pseudo=read geom=check guess=(re
 ad,tcheck) scf=(maxcycle=1)\\title\\0,1\O,0,-2.10822326,-0.43259684,-0
 .0014821\C,0,-0.7977257,-0.11210107,0.04484431\N,0,0.16395405,-1.02653
 821,0.1285719\N,0,1.30129859,-0.32146998,0.01458284\N,0,1.07370992,1.0
 4908487,0.11401156\C,0,-0.30760787,1.24860015,0.06794522\H,0,-2.180842
 46,-1.40775447,0.02400763\H,0,2.16169517,-0.71456957,0.3925889\H,0,0.6
 9374156,1.71734513,-0.78507026\\Version=ES64L-G16RevC.01\State=1-A\HF=

 Normal termination of Gaussian 16 at Wed Apr  9 03:08:43 2025.
