 Gaussian 16, Revision C.01,

 ----------------------------------------------------------------------
 #t hf aug-cc-pvdz symm=none int=(grid=ultrafine) guess=(read,tcheck) s
 table=(opt,rrhf)
 ----------------------------------------------------------------------
 -----
 title
 -----
 Symbolic Z-matrix:
 Charge =  0 Multiplicity = 1

 SCF Done:  E(RHF) =  -310.003164036     A.U. after   16 cycles

 1\1\GINC-SE042\Stability\RHF\Aug-CC-pVDZ\C6H14O1\OHZDE\09-Apr-2025\0\\
 #t hf aug-cc-pvdz symm=none int=(grid=ultrafine) guess=(read,tcheck) s
 table=(opt,rrhf)\\title\\0,1\C,0,-2.24414601,0.86157877,-1.19563661\C,
 0,-1.65314698,0.64335015,0.18345703\C,0,-0.86246577,-1.85203269,-0.119
 58245\C,0,0.46711191,-1.49416628,0.31407782\C,0,0.93443679,-0.1084617,
 -0.07888989\O,0,2.01943697,0.35793754,0.58687063\C,0,2.91151773,1.1553
 4368,-0.16330644\H,0,-3.05754991,1.59307418,-1.16543224\H,0,-2.6418163
 ,-0.06361023,-1.61279042\H,0,-1.49946799,1.24277032,-1.8995902\H,0,-1.

 Normal termination of Gaussian 16 at Wed Apr  9 16:03:40 2025.
 Gaussian 16:  ES64L-G16RevC.01  3-Jul-2019

 ----------------------------------------------------------------------
 #t hf aug-cc-pvdz iop(5/13=1,5/36=2,99/5=2) pseudo=read geom=check gue
 ss=(read,tcheck) scf=(maxcycle=1)
 ----------------------------------------------------------------------
 -----
 title
 -----
 Structure from the checkpoint file:  "Grambow2020_wb97xd3_007723_forward_mol1.chk"
 Charge =  0 Multiplicity = 1

                         Standard orientation:
 ---------------------------------------------------------------------
 Center     Atomic      Atomic             Coordinates (Angstroms)
 Number     Number       Type             X           Y           Z
 ---------------------------------------------------------------------
      1          6           0        2.446261   -1.333137   -0.422670
      2          6           0        1.695033   -0.731500    0.748864
      3          6           0        1.280419    1.673507   -0.245111
      4          6           0       -0.132443    1.552899    0.025405
      5          6           0       -0.710658    0.160463   -0.115249
      6          8           0       -1.930825   -0.029771    0.444211
      7          6           0       -2.799437   -0.904080   -0.245374
      8          1           0        3.147018   -2.104347   -0.088306
      9          1           0        3.014445   -0.577783   -0.965571
     10          1           0        1.768592   -1.807452   -1.137647
     11          1           0        1.322443   -1.521961    1.410879
     12          1           0        2.312792   -0.074762    1.348898
     13          1           0        1.886020    2.349003    0.344343
     14          1           0        1.651915    1.449241   -1.238442
     15          1           0       -0.695916    2.069989   -0.773592
     16          1           0       -0.434513    1.974372    0.984900
     17          1           0       -0.618840   -0.276581   -1.119174
     18          1           0        0.523974   -0.361129    0.449371
     19          1           0       -3.027007   -0.519202   -1.245223
     20          1           0       -3.717202   -0.966804    0.335841
     21          1           0       -2.362173   -1.903326   -0.335148
 ---------------------------------------------------------------------

 SCF Done:  E(RHF) =  -310.105679186     A.U. after    2 cycles

 The electronic state is 1-A.
 Alpha  occ. eigenvalues --  -20.60171 -11.30866 -11.29885 -11.23645 -11.23156
 Alpha  occ. eigenvalues --  -11.21932 -11.21767  -1.37422  -1.06258  -1.00073
 Alpha  occ. eigenvalues --   -0.96514  -0.86750  -0.82945  -0.78614  -0.69612
 Alpha  occ. eigenvalues --   -0.67919  -0.66129  -0.61579  -0.59849  -0.57846
 Alpha  occ. eigenvalues --   -0.55746  -0.54069  -0.51934  -0.51156  -0.50723
 Alpha  occ. eigenvalues --   -0.48498  -0.48284  -0.42096  -0.22216
 Alpha virt. eigenvalues --    0.03010   0.04107   0.04353   0.04734   0.05163
 Alpha virt. eigenvalues --    0.06096   0.06290   0.06446   0.06818   0.07176
 Alpha virt. eigenvalues --    0.08464   0.08822   0.09599   0.10135   0.11268

 Mulliken charges:
               1
     1  C    0.400749
     2  C    0.718887
     3  C    0.817533
     4  C   -0.080459
     5  C    0.147764
     6  O   -0.658754
     7  C    0.687764
     8  H   -0.072011
     9  H   -0.114264
    10  H   -0.088232
    11  H   -0.024635
    12  H   -0.068171
    13  H   -0.288712
    14  H   -0.344070
    15  H    0.120480
    16  H   -0.111031
    17  H   -0.190728
    18  H   -0.510462
    19  H   -0.051163
    20  H   -0.244936
    21  H   -0.045549
 Sum of Mulliken charges =  -0.00000

 Dipole moment (field-independent basis, Debye):
    X=             -1.5001    Y=             -1.1776    Z=             -1.1618  Tot=              2.2331

 Test job not archived.
 1\1\GINC-SE042\SP\RHF\Aug-CC-pVDZ\C6H14O1\OHZDE\09-Apr-2025\0\\#t hf a
 ug-cc-pvdz iop(5/13=1,5/36=2,99/5=2) pseudo=read geom=check guess=(rea
 d,tcheck) scf=(maxcycle=1)\\title\\0,1\C,0,-2.24414601,0.86157877,-1.1
 9563661\C,0,-1.65314698,0.64335015,0.18345703\C,0,-0.86246577,-1.85203
 269,-0.11958245\C,0,0.46711191,-1.49416628,0.31407782\C,0,0.93443679,-
 0.1084617,-0.07888989\O,0,2.01943697,0.35793754,0.58687063\C,0,2.91151
 773,1.15534368,-0.16330644\H,0,-3.05754991,1.59307418,-1.16543224\H,0,
 -2.6418163,-0.06361023,-1.61279042\H,0,-1.49946799,1.24277032,-1.89959

 Normal termination of Gaussian 16 at Wed Apr  9 16:03:53 2025.
