 Gaussian 16, Revision C.01,

 ----------------------------------------------------------------------
 #t hf aug-cc-pvdz symm=none int=(grid=ultrafine) guess=(read,tcheck) s
 table=(opt,rrhf)
 ----------------------------------------------------------------------
 -----
 title
 -----
 Symbolic Z-matrix:
 Charge =  0 Multiplicity = 1

 SCF Done:  E(RHF) =  -333.550917288     A.U. after   17 cycles
 Normal termination of Gaussian 16 at Wed Apr  9 15:33:43 2025.
 Gaussian 16:  ES64L-G16RevC.01  3-Jul-2019

 ----------------------------------------------------------------------
 #t hf aug-cc-pvdz iop(5/13=1,5/36=2,99/5=2) pseudo=read geom=check gue
 ss=(read,tcheck) scf=(maxcycle=1)
 ----------------------------------------------------------------------
 -----
 title
 -----
 Structure from the checkpoint file:  "Grambow2020_wb97xd3_006992_forward_mol1.chk"
 Charge =  0 Multiplicity = 1

                         Standard orientation:
 ---------------------------------------------------------------------
 Center     Atomic      Atomic             Coordinates (Angstroms)
 Number     Number       Type             X           Y           Z
 ---------------------------------------------------------------------
      1          7           0        2.223125   -0.001719   -0.106690
      2          6           0        0.857496    0.032604   -0.000110
      3          6           0        0.120537    1.206630    0.074738
      4          7           0       -1.187000    1.056091   -0.079581
      5          6           0       -1.820328   -0.163798   -0.081725
      6          7           0       -1.063344   -1.267497    0.068356
      7          7           0        0.238655   -1.159187    0.023038
      8          1           0        2.743759    0.789264    0.227832
      9          1           0        2.630445   -0.902412    0.084697
     10          1           0        0.540151    2.196905    0.207594
     11          1           0       -2.340640    1.069810    0.186598
 ---------------------------------------------------------------------

 SCF Done:  E(RHF) =  -333.646931490     A.U. after    2 cycles

 The electronic state is 1-A.
 Alpha  occ. eigenvalues --  -15.69856 -15.69854 -15.68036 -15.65666 -11.34994
 Alpha  occ. eigenvalues --  -11.33474 -11.28759  -1.35343  -1.24543  -1.21983
 Alpha  occ. eigenvalues --   -1.07701  -0.97223  -0.89486  -0.79569  -0.74720
 Alpha  occ. eigenvalues --   -0.70151  -0.67158  -0.62575  -0.57982  -0.54063
 Alpha  occ. eigenvalues --   -0.51159  -0.46943  -0.39360  -0.36820  -0.33708
 Alpha virt. eigenvalues --    0.01858   0.03313   0.04245   0.05221   0.06586
 Alpha virt. eigenvalues --    0.08331   0.09679   0.10639   0.10947   0.11957
 Alpha virt. eigenvalues --    0.12223   0.13418   0.14076   0.15117   0.15610

 Mulliken charges:
               1
     1  N   -0.294928
     2  C    0.856397
     3  C    0.758737
     4  N   -0.533643
     5  C   -0.092834
     6  N   -0.233145
     7  N   -0.591428
     8  H   -0.012943
     9  H   -0.012080
    10  H   -0.251463
    11  H    0.407329
 Sum of Mulliken charges =  -0.00000

 Dipole moment (field-independent basis, Debye):
    X=              3.9326    Y=              4.3131    Z=              1.2981  Tot=              5.9794

 Test job not archived.
 1\1\GINC-SE174\SP\RHF\Aug-CC-pVDZ\C3H4N4\OHZDE\09-Apr-2025\0\\#t hf au
 g-cc-pvdz iop(5/13=1,5/36=2,99/5=2) pseudo=read geom=check guess=(read
 ,tcheck) scf=(maxcycle=1)\\title\\0,1\N,0,1.85249518,-0.08959122,-0.69
 252837\C,0,0.54041617,-0.14033093,-0.30092572\C,0,-0.02587147,0.741686
 4,0.60924561\N,0,-1.34877892,0.70222496,0.67623625\C,0,-2.11464902,-0.
 27391547,0.08477133\N,0,-1.48119679,-1.23585024,-0.61316879\N,0,-0.203
 51824,-1.1092635,-0.85913573\H,0,2.51456276,0.34286034,-0.07343936\H,0
 ,2.17575627,-0.91838428,-1.16411192\H,0,0.52629378,1.45381488,1.211206

 Normal termination of Gaussian 16 at Wed Apr  9 15:33:47 2025.
