 Gaussian 16, Revision C.01,

 ----------------------------------------------------------------------
 #t hf aug-cc-pvdz symm=none int=(grid=ultrafine) guess=(read,tcheck) s
 table=(opt,rrhf)
 ----------------------------------------------------------------------
 -----
 title
 -----
 Symbolic Z-matrix:
 Charge =  0 Multiplicity = 1

 SCF Done:  E(RHF) =  -339.903614247     A.U. after   15 cycles
 Normal termination of Gaussian 16 at Wed Apr  9 14:27:37 2025.
 Gaussian 16:  ES64L-G16RevC.01  3-Jul-2019

 ----------------------------------------------------------------------
 #t hf aug-cc-pvdz iop(5/13=1,5/36=2,99/5=2) pseudo=read geom=check gue
 ss=(read,tcheck) scf=(maxcycle=1)
 ----------------------------------------------------------------------
 -----
 title
 -----
 Structure from the checkpoint file:  "Grambow2020_wb97xd3_006542_reverse_mol2.chk"
 Charge =  0 Multiplicity = 1

                         Standard orientation:
 ---------------------------------------------------------------------
 Center     Atomic      Atomic             Coordinates (Angstroms)
 Number     Number       Type             X           Y           Z
 ---------------------------------------------------------------------
      1          6           0       -0.092225    1.900293    0.187812
      2          7           0        0.314891    0.577680   -0.239800
      3          6           0       -0.488159   -0.519894   -0.014091
      4          6           0       -0.069396   -1.776160    0.181110
      5          8           0        3.255393   -0.149042   -0.054087
      6          6           0       -1.913418   -0.274423   -0.065955
      7          7           0       -3.045001   -0.082558   -0.096682
      8          1           0       -0.131293    2.012316    1.278330
      9          1           0        0.616188    2.626027   -0.209536
     10          1           0       -1.076969    2.139729   -0.215013
     11          1           0        1.299000    0.375713   -0.120169
     12          1           0        3.824206   -0.388716    0.678631
     13          1           0       -0.779433   -2.585279    0.255168
     14          1           0        0.988138   -1.999836    0.237874
     15          1           0        3.706970   -0.432371   -0.850462
 ---------------------------------------------------------------------

 SCF Done:  E(RHF) =  -340.010458753     A.U. after    2 cycles

 The electronic state is 1-A.
 Alpha  occ. eigenvalues --  -20.61375 -15.63662 -15.63088 -11.32200 -11.28370
 Alpha  occ. eigenvalues --  -11.26694 -11.23953  -1.34991  -1.22724  -1.18394
 Alpha  occ. eigenvalues --   -1.04596  -0.91339  -0.86569  -0.77210  -0.70571
 Alpha  occ. eigenvalues --   -0.68118  -0.64113  -0.61288  -0.59421  -0.57297
 Alpha  occ. eigenvalues --   -0.56413  -0.54994  -0.53211  -0.51616  -0.46786
 Alpha  occ. eigenvalues --   -0.43905  -0.32004
 Alpha virt. eigenvalues --    0.01775   0.04167   0.04329   0.04875   0.06625
 Alpha virt. eigenvalues --    0.06873   0.07391   0.08493   0.09430   0.11277
 Alpha virt. eigenvalues --    0.12660   0.13010   0.13335   0.14711   0.15679

 Mulliken charges:
               1
     1  C    0.749531
     2  N   -0.369588
     3  C    1.128497
     4  C    0.768073
     5  O   -0.403454
     6  C   -0.792044
     7  N   -0.166522
     8  H   -0.081570
     9  H   -0.192124
    10  H   -0.193143
    11  H   -0.109834
    12  H    0.182491
    13  H   -0.373288
    14  H   -0.331125
    15  H    0.184101
 Sum of Mulliken charges =   0.00000

 Dipole moment (field-independent basis, Debye):
    X=              6.8412    Y=             -0.4411    Z=              0.5304  Tot=              6.8759

 Test job not archived.
 1\1\GINC-SE120\SP\RHF\Aug-CC-pVDZ\C4H8N2O1\OHZDE\09-Apr-2025\0\\#t hf
 aug-cc-pvdz iop(5/13=1,5/36=2,99/5=2) pseudo=read geom=check guess=(re
 ad,tcheck) scf=(maxcycle=1)\\title\\0,1\C,0,-1.70889778,0.37598344,0.7
 1908846\N,0,-0.44459447,0.34103107,0.01324251\C,0,-0.06834492,-0.76763
 001,-0.71463742\C,0,1.18626773,-1.18449885,-0.92401482\O,0,1.95417945,
 1.68418666,1.29814831\C,0,-1.14519731,-1.49007902,-1.35710665\N,0,-1.9
 9720088,-2.07197081,-1.86081916\H,0,-1.75939179,-0.33050347,1.55672238
 \H,0,-1.86192645,1.38273132,1.10569408\H,0,-2.52833749,0.15280163,0.03

 Normal termination of Gaussian 16 at Wed Apr  9 14:27:42 2025.
