 Gaussian 16, Revision C.01,

 ----------------------------------------------------------------------
 #t hf aug-cc-pvdz symm=none int=(grid=ultrafine) guess=(read,tcheck) s
 table=(opt,rrhf)
 ----------------------------------------------------------------------
 -----
 title
 -----
 Symbolic Z-matrix:
 Charge =  0 Multiplicity = 1

 SCF Done:  E(RHF) =  -357.174593655     A.U. after   18 cycles
 Normal termination of Gaussian 16 at Wed Apr  9 03:58:22 2025.
 Gaussian 16:  ES64L-G16RevC.01  3-Jul-2019

 ----------------------------------------------------------------------
 #t hf aug-cc-pvdz iop(5/13=1,5/36=2,99/5=2) pseudo=read geom=check gue
 ss=(read,tcheck) scf=(maxcycle=1)
 ----------------------------------------------------------------------
 -----
 title
 -----
 Structure from the checkpoint file:  "Grambow2020_wb97xd3_008757_reverse_mol1.chk"
 Charge =  0 Multiplicity = 1

                         Standard orientation:
 ---------------------------------------------------------------------
 Center     Atomic      Atomic             Coordinates (Angstroms)
 Number     Number       Type             X           Y           Z
 ---------------------------------------------------------------------
      1          8           0        2.490763    0.488724   -0.002075
      2          6           0        1.799281   -0.492762    0.000373
      3          6           0        0.347208   -0.446561    0.001937
      4          7           0       -0.626228   -1.149974    0.000413
      5          8           0       -1.822757   -1.122195   -0.001041
      6          6           0       -1.741011    1.337193   -0.000827
      7          6           0       -0.536506    1.496491    0.001493
      8          1           0        2.215076   -1.514478    0.002535
      9          1           0       -2.803724    1.275983   -0.003038
     10          1           0        0.414370    1.989918    0.004687
 ---------------------------------------------------------------------

 SCF Done:  E(RHF) =  -357.286953358     A.U. after    2 cycles

 The electronic state is 1-A.
 Alpha  occ. eigenvalues --  -20.62663 -20.61594 -15.80602 -11.40864 -11.34668
 Alpha  occ. eigenvalues --  -11.28671 -11.26737  -1.48038  -1.40956  -1.19806
 Alpha  occ. eigenvalues --   -1.05053  -0.95787  -0.79929  -0.78209  -0.74778
 Alpha  occ. eigenvalues --   -0.71888  -0.69305  -0.68592  -0.68489  -0.59766
 Alpha  occ. eigenvalues --   -0.51516  -0.45576  -0.43677  -0.40944  -0.38518
 Alpha virt. eigenvalues --    0.02616   0.03866   0.04567   0.04813   0.06032
 Alpha virt. eigenvalues --    0.08695   0.09957   0.10175   0.10683   0.12511
 Alpha virt. eigenvalues --    0.12569   0.12897   0.13855   0.14144   0.14254

 Mulliken charges:
               1
     1  O   -0.421752
     2  C    0.899457
     3  C   -0.252177
     4  N    0.261060
     5  O   -0.613510
     6  C    0.256189
     7  C    0.532480
     8  H   -0.100564
     9  H   -0.277959
    10  H   -0.283223
 Sum of Mulliken charges =   0.00000

 Dipole moment (field-independent basis, Debye):
    X=              0.6748    Y=             -0.5262    Z=              0.0075  Tot=              0.8558

 Test job not archived.
 1\1\GINC-SE424\SP\RHF\Aug-CC-pVDZ\C4H3N1O2\OHZDE\09-Apr-2025\0\\#t hf
 aug-cc-pvdz iop(5/13=1,5/36=2,99/5=2) pseudo=read geom=check guess=(re
 ad,tcheck) scf=(maxcycle=1)\\title\\0,1\O,0,-2.46052088,0.48105354,-0.
 39968344\C,0,-1.73594707,-0.38803491,-0.8011154\C,0,-0.33048314,-0.483
 52318,-0.44586274\N,0,0.65125409,-1.15243373,-0.622274\O,0,1.80928341,
 -1.24111607,-0.33320762\C,0,1.5955919,0.78746727,1.04318608\C,0,0.4198
 0728,1.0310965,0.85774523\H,0,-2.08261971,-1.18790674,-1.47699835\H,0,
 2.62858733,0.63761512,1.25193267\H,0,-0.5281772,1.5263122,0.91884558\\

 Normal termination of Gaussian 16 at Wed Apr  9 03:58:25 2025.
