 Gaussian 16, Revision C.01,

 ----------------------------------------------------------------------
 #t hf aug-cc-pvdz symm=none int=(grid=ultrafine) guess=(read,tcheck) s
 table=(opt,rrhf)
 ----------------------------------------------------------------------
 -----
 title
 -----
 Symbolic Z-matrix:
 Charge =  0 Multiplicity = 1

 SCF Done:  E(RHF) =  -344.786100917     A.U. after   15 cycles

 1\1\GINC-SE452\Stability\RHF\Aug-CC-pVDZ\C5H10O2\OHZDE\09-Apr-2025\0\\
 #t hf aug-cc-pvdz symm=none int=(grid=ultrafine) guess=(read,tcheck) s
 table=(opt,rrhf)\\title\\0,1\C,0,-2.2279104,-0.3834598,-0.20602743\C,0
 ,-0.7436857,-0.32113091,-0.52709227\O,0,-0.42228775,0.8753693,-1.22645
 551\C,0,0.12418341,-0.45790075,0.72557959\C,0,1.62311943,-0.46814671,0
 .41725969\C,0,2.15659342,0.75700979,-0.04361358\O,0,2.25999294,1.58861
 859,0.92048651\H,0,-2.49103592,-1.33992464,0.24951304\H,0,-2.50350729,
 0.4073994,0.49890687\H,0,-2.82123158,-0.25819844,-1.11226311\H,0,-0.48

 Normal termination of Gaussian 16 at Wed Apr  9 03:33:35 2025.
 Gaussian 16:  ES64L-G16RevC.01  3-Jul-2019

 ----------------------------------------------------------------------
 #t hf aug-cc-pvdz iop(5/13=1,5/36=2,99/5=2) pseudo=read geom=check gue
 ss=(read,tcheck) scf=(maxcycle=1)
 ----------------------------------------------------------------------
 -----
 title
 -----
 Structure from the checkpoint file:  "Grambow2020_wb97xd3_007086_forward_mol1.chk"
 Charge =  0 Multiplicity = 1

                         Standard orientation:
 ---------------------------------------------------------------------
 Center     Atomic      Atomic             Coordinates (Angstroms)
 Number     Number       Type             X           Y           Z
 ---------------------------------------------------------------------
      1          6           0        2.590732   -0.159093   -0.369447
      2          6           0        1.259043   -0.006818    0.347009
      3          8           0        0.789764    1.334198    0.273043
      4          6           0        0.201308   -0.973843   -0.188853
      5          6           0       -1.127165   -0.886212    0.565770
      6          6           0       -1.856577    0.309304    0.374177
      7          8           0       -2.399250    0.319595   -0.782176
      8          1           0        2.995128   -1.164275   -0.236593
      9          1           0        2.472216    0.012100   -1.444152
     10          1           0        3.316463    0.558251    0.014890
     11          1           0        1.397495   -0.186995    1.417173
     12          1           0        0.762983    1.593669   -0.651828
     13          1           0        0.067661   -0.769589   -1.257326
     14          1           0        0.575564   -1.998512   -0.123320
     15          1           0       -1.045956   -1.253733    1.588102
     16          1           0       -2.018226   -0.857747   -0.663919
     17          1           0       -2.051484    1.136460    1.058109
 ---------------------------------------------------------------------

 SCF Done:  E(RHF) =  -344.894319839     A.U. after    2 cycles

 The electronic state is 1-A.
 Alpha  occ. eigenvalues --  -20.59973 -20.57650 -11.36557 -11.29025 -11.24467
 Alpha  occ. eigenvalues --  -11.23188 -11.20916  -1.38908  -1.33114  -1.06528
 Alpha  occ. eigenvalues --   -1.00463  -0.91603  -0.83877  -0.80516  -0.72303
 Alpha  occ. eigenvalues --   -0.67305  -0.66195  -0.63325  -0.62888  -0.60372
 Alpha  occ. eigenvalues --   -0.56376  -0.54136  -0.52740  -0.51148  -0.49314
 Alpha  occ. eigenvalues --   -0.47926  -0.46259  -0.33047
 Alpha virt. eigenvalues --    0.03445   0.04181   0.04517   0.04833   0.06080
 Alpha virt. eigenvalues --    0.06451   0.06964   0.07022   0.08403   0.09083
 Alpha virt. eigenvalues --    0.09830   0.11317   0.12771   0.13381   0.14306

 Mulliken charges:
               1
     1  C    0.628550
     2  C   -0.083553
     3  O   -0.598391
     4  C    0.366265
     5  C   -0.012437
     6  C    0.814629
     7  O   -0.660924
     8  H   -0.037759
     9  H   -0.078577
    10  H   -0.014401
    11  H   -0.274233
    12  H    0.175807
    13  H   -0.253835
    14  H   -0.076972
    15  H   -0.346093
    16  H    0.630579
    17  H   -0.178654
 Sum of Mulliken charges =   0.00000

 Dipole moment (field-independent basis, Debye):
    X=              1.6722    Y=             -0.5355    Z=              0.4538  Tot=              1.8135

 Test job not archived.
 1\1\GINC-SE452\SP\RHF\Aug-CC-pVDZ\C5H10O2\OHZDE\09-Apr-2025\0\\#t hf a
 ug-cc-pvdz iop(5/13=1,5/36=2,99/5=2) pseudo=read geom=check guess=(rea
 d,tcheck) scf=(maxcycle=1)\\title\\0,1\C,0,-2.2279104,-0.3834598,-0.20
 602743\C,0,-0.7436857,-0.32113091,-0.52709227\O,0,-0.42228775,0.875369
 3,-1.22645551\C,0,0.12418341,-0.45790075,0.72557959\C,0,1.62311943,-0.
 46814671,0.41725969\C,0,2.15659342,0.75700979,-0.04361358\O,0,2.259992
 94,1.58861859,0.92048651\H,0,-2.49103592,-1.33992464,0.24951304\H,0,-2
 .50350729,0.4073994,0.49890687\H,0,-2.82123158,-0.25819844,-1.11226311

 Normal termination of Gaussian 16 at Wed Apr  9 03:33:41 2025.
