 Gaussian 16, Revision C.01,

 ----------------------------------------------------------------------
 #t hf aug-cc-pvdz symm=none int=(grid=ultrafine) guess=(read,tcheck) s
 table=(opt,rrhf)
 ----------------------------------------------------------------------
 -----
 title
 -----
 Symbolic Z-matrix:
 Charge =  0 Multiplicity = 1

 SCF Done:  E(RHF) =  -305.690380762     A.U. after   15 cycles
 Normal termination of Gaussian 16 at Wed Apr  9 03:03:51 2025.
 Gaussian 16:  ES64L-G16RevC.01  3-Jul-2019

 ----------------------------------------------------------------------
 #t hf aug-cc-pvdz iop(5/13=1,5/36=2,99/5=2) pseudo=read geom=check gue
 ss=(read,tcheck) scf=(maxcycle=1)
 ----------------------------------------------------------------------
 -----
 title
 -----
 Structure from the checkpoint file:  "Grambow2020_b97d3_006511_reverse_mol1.chk"
 Charge =  0 Multiplicity = 1

                         Standard orientation:
 ---------------------------------------------------------------------
 Center     Atomic      Atomic             Coordinates (Angstroms)
 Number     Number       Type             X           Y           Z
 ---------------------------------------------------------------------
      1          8           0       -2.438229   -0.026509   -0.488080
      2          6           0       -1.129098    0.225192    0.815067
      3          6           0       -0.026322    0.083776   -0.072815
      4          6           0        1.154442    1.045574   -0.208340
      5          6           0        2.000599   -0.238004   -0.042626
      6          8           0        0.823752   -1.086593    0.030878
      7          1           0       -2.706178   -0.970366   -0.408583
      8          1           0       -1.461510    1.224395    1.102264
      9          1           0       -1.389034   -0.568809    1.520888
     10          1           0       -1.269839   -0.027756   -0.910925
     11          1           0        1.253677    1.547891   -1.178934
     12          1           0        1.262910    1.787087    0.595637
     13          1           0        2.589022   -0.283484    0.887923
     14          1           0        2.639048   -0.503373   -0.898376
 ---------------------------------------------------------------------

 SCF Done:  E(RHF) =  -305.784689723     A.U. after    2 cycles

 The electronic state is 1-A.
 Alpha  occ. eigenvalues --  -20.57229 -20.55956 -11.33399 -11.28994 -11.26598
 Alpha  occ. eigenvalues --  -11.24389  -1.33032  -1.28127  -1.03406  -0.99079
 Alpha  occ. eigenvalues --   -0.86291  -0.75510  -0.70803  -0.67726  -0.66573
 Alpha  occ. eigenvalues --   -0.63349  -0.59189  -0.55978  -0.53997  -0.51397
 Alpha  occ. eigenvalues --   -0.50000  -0.47414  -0.46108  -0.31478
 Alpha virt. eigenvalues --    0.03292   0.04314   0.04751   0.05018   0.06429
 Alpha virt. eigenvalues --    0.06531   0.07375   0.08077   0.10213   0.10910
 Alpha virt. eigenvalues --    0.13131   0.13443   0.13949   0.14851   0.14902

 Mulliken charges:
               1
     1  O   -0.624984
     2  C    0.509116
     3  C   -0.005962
     4  C    0.275276
     5  C    0.840234
     6  O   -0.816855
     7  H    0.191476
     8  H   -0.169784
     9  H   -0.116377
    10  H    0.599257
    11  H   -0.094322
    12  H   -0.150858
    13  H   -0.210710
    14  H   -0.225506
 Sum of Mulliken charges =  -0.00000

 Dipole moment (field-independent basis, Debye):
    X=              0.7862    Y=              1.0714    Z=              1.8499  Tot=              2.2778

 Test job not archived.
 1\1\GINC-SE069\SP\RHF\Aug-CC-pVDZ\C4H8O2\OHZDE\09-Apr-2025\0\\#t hf au
 g-cc-pvdz iop(5/13=1,5/36=2,99/5=2) pseudo=read geom=check guess=(read
 ,tcheck) scf=(maxcycle=1)\\title\\0,1\O,0,-2.05122517,-0.7406346,1.387
 08478\C,0,-1.37676583,-0.30786689,-0.29612214\C,0,-0.06651948,0.006855
 75,0.16066523\C,0,1.24441335,-0.53435883,-0.41044732\C,0,1.64194938,0.
 9590799,-0.46164029\O,0,0.38495382,1.38465641,0.12939433\H,0,-2.528236
 59,0.06499169,1.69107424\H,0,-1.56964847,-1.28694822,-0.73836976\H,0,-
 2.07234503,0.4804202,-0.59771557\H,0,-0.84417641,-0.44654527,1.3651897

 Normal termination of Gaussian 16 at Wed Apr  9 03:03:55 2025.
