 Gaussian 16, Revision C.01,

 ----------------------------------------------------------------------
 #t hf aug-cc-pvdz symm=none int=(grid=ultrafine) guess=(read,tcheck) s
 table=(opt,rrhf)
 ----------------------------------------------------------------------
 -----
 title
 -----
 Symbolic Z-matrix:
 Charge =  0 Multiplicity = 1

 SCF Done:  E(RHF) =  -284.738483863     A.U. after   16 cycles
 Normal termination of Gaussian 16 at Wed Apr  9 03:05:28 2025.
 Gaussian 16:  ES64L-G16RevC.01  3-Jul-2019

 ----------------------------------------------------------------------
 #t hf aug-cc-pvdz iop(5/13=1,5/36=2,99/5=2) pseudo=read geom=check gue
 ss=(read,tcheck) scf=(maxcycle=1)
 ----------------------------------------------------------------------
 -----
 title
 -----
 Structure from the checkpoint file:  "Grambow2020_b97d3_006534_reverse_mol2.chk"
 Charge =  0 Multiplicity = 1

                         Standard orientation:
 ---------------------------------------------------------------------
 Center     Atomic      Atomic             Coordinates (Angstroms)
 Number     Number       Type             X           Y           Z
 ---------------------------------------------------------------------
      1          6           0       -1.394333    0.161097   -0.283624
      2          6           0       -0.824212   -1.189251   -0.037070
      3          8           0        0.530087   -1.270771    0.097758
      4          6           0        1.369189   -0.265928   -0.069938
      5          7           0        0.919929    1.044217   -0.082852
      6          6           0       -0.457370    1.243018    0.360172
      7          1           0       -1.455527    0.407270   -1.359423
      8          1           0       -2.418656    0.229080    0.115008
      9          1           0       -1.309808   -1.950518    0.566182
     10          1           0        1.187556    1.595341   -0.897713
     11          1           0        2.417680   -0.528235    0.010814
     12          1           0       -0.764002    2.260089    0.092906
     13          1           0       -0.497087    1.150001    1.452891
 ---------------------------------------------------------------------

 SCF Done:  E(RHF) =  -284.825241109     A.U. after    2 cycles

 The electronic state is 1-A.
 Alpha  occ. eigenvalues --  -20.67754 -15.65895 -11.35247 -11.27886 -11.23748
 Alpha  occ. eigenvalues --  -11.23615  -1.42958  -1.20933  -1.04703  -0.93336
 Alpha  occ. eigenvalues --   -0.89512  -0.77095  -0.74402  -0.67439  -0.66238
 Alpha  occ. eigenvalues --   -0.62122  -0.60293  -0.58207  -0.56249  -0.51645
 Alpha  occ. eigenvalues --   -0.48317  -0.41238  -0.21684
 Alpha virt. eigenvalues --    0.03035   0.03940   0.04333   0.05305   0.06445
 Alpha virt. eigenvalues --    0.06996   0.07386   0.07768   0.10796   0.11941
 Alpha virt. eigenvalues --    0.13222   0.13940   0.14525   0.15257   0.15268

 Mulliken charges:
               1
     1  C    0.015713
     2  C    0.540772
     3  O   -0.365598
     4  C    0.693423
     5  N   -0.333134
     6  C    0.571569
     7  H   -0.035041
     8  H   -0.045372
     9  H   -0.411006
    10  H    0.020956
    11  H   -0.314689
    12  H   -0.160757
    13  H   -0.176834
 Sum of Mulliken charges =  -0.00000

 Dipole moment (field-independent basis, Debye):
    X=              1.1329    Y=              2.9280    Z=             -0.1375  Tot=              3.1425

 Test job not archived.
 1\1\GINC-SE058\SP\RHF\Aug-CC-pVDZ\C4H7N1O1\OHZDE\09-Apr-2025\0\\#t hf
 aug-cc-pvdz iop(5/13=1,5/36=2,99/5=2) pseudo=read geom=check guess=(re
 ad,tcheck) scf=(maxcycle=1)\\title\\0,1\C,0,0.53610387,-1.02476017,0.2
 9805937\C,0,-0.70936521,-1.22533156,-0.48797126\O,0,-1.49245806,-0.127
 98396,-0.69180005\C,0,-1.2776758,1.06331192,-0.16586529\N,0,-0.0496066
 1,1.38879594,0.38584728\C,0,1.03495642,0.45105023,0.10817813\H,0,0.380
 46749,-1.16011856,1.38394393\H,0,1.30717017,-1.75081157,-0.0037228\H,0
 ,-0.7917627,-1.90876302,-1.32783765\H,0,-0.07376358,1.73860293,1.34314

 Normal termination of Gaussian 16 at Wed Apr  9 03:05:33 2025.
