 Gaussian 16, Revision C.01,

 ----------------------------------------------------------------------
 #t hf aug-cc-pvdz symm=none int=(grid=ultrafine) guess=(read,tcheck) s
 table=(opt,rrhf)
 ----------------------------------------------------------------------
 -----
 title
 -----
 Symbolic Z-matrix:
 Charge =  0 Multiplicity = 1

 SCF Done:  E(RHF) =  -359.585048417     A.U. after   16 cycles
 Normal termination of Gaussian 16 at Wed Apr  9 14:45:01 2025.
 Gaussian 16:  ES64L-G16RevC.01  3-Jul-2019

 ----------------------------------------------------------------------
 #t hf aug-cc-pvdz iop(5/13=1,5/36=2,99/5=2) pseudo=read geom=check gue
 ss=(read,tcheck) scf=(maxcycle=1)
 ----------------------------------------------------------------------
 -----
 title
 -----
 Structure from the checkpoint file:  "Grambow2020_wb97xd3_006601_forward_mol1.chk"
 Charge =  0 Multiplicity = 1

                         Standard orientation:
 ---------------------------------------------------------------------
 Center     Atomic      Atomic             Coordinates (Angstroms)
 Number     Number       Type             X           Y           Z
 ---------------------------------------------------------------------
      1          6           0        2.628434   -0.199746   -0.075082
      2          7           0        1.493598    0.698062    0.008951
      3          6           0        0.341827    0.196207    0.055641
      4          6           0       -0.879740    1.096746    0.202482
      5          8           0       -1.917848    0.357419   -0.448120
      6          6           0       -2.009339   -0.840790    0.077844
      7          8           0        0.058122   -1.120026    0.056523
      8          1           0        3.487544    0.350072   -0.457237
      9          1           0        2.886311   -0.577485    0.918374
     10          1           0        2.436117   -1.063238   -0.718522
     11          1           0       -0.752868    2.049278   -0.301571
     12          1           0       -1.120718    1.239866    1.262503
     13          1           0       -0.967530   -1.500149   -0.381497
     14          1           0       -2.033327   -0.798423    1.182756
 ---------------------------------------------------------------------

 SCF Done:  E(RHF) =  -359.697229272     A.U. after    2 cycles

 The electronic state is 1-A.
 Alpha  occ. eigenvalues --  -20.64984 -20.60670 -15.60802 -11.36452 -11.35082
 Alpha  occ. eigenvalues --  -11.33487 -11.24759  -1.44885  -1.35481  -1.18525
 Alpha  occ. eigenvalues --   -1.03546  -0.93253  -0.89626  -0.80307  -0.76861
 Alpha  occ. eigenvalues --   -0.71308  -0.67306  -0.64397  -0.63168  -0.59767
 Alpha  occ. eigenvalues --   -0.59099  -0.56308  -0.52741  -0.52428  -0.42222
 Alpha  occ. eigenvalues --   -0.40101  -0.38374
 Alpha virt. eigenvalues --    0.03120   0.04169   0.04541   0.04925   0.05779
 Alpha virt. eigenvalues --    0.06999   0.07163   0.08335   0.09569   0.10387
 Alpha virt. eigenvalues --    0.12291   0.12665   0.14261   0.14325   0.15633

 Mulliken charges:
               1
     1  C    0.731750
     2  N   -0.535251
     3  C    0.305315
     4  C    0.763106
     5  O   -0.591738
     6  C    0.105027
     7  O   -0.831256
     8  H   -0.205751
     9  H   -0.083777
    10  H   -0.100236
    11  H   -0.160175
    12  H    0.016940
    13  H    0.549909
    14  H    0.036137
 Sum of Mulliken charges =  -0.00000

 Dipole moment (field-independent basis, Debye):
    X=             -1.6753    Y=              0.4244    Z=              1.3805  Tot=              2.2119

 Test job not archived.
 1\1\GINC-SE113\SP\RHF\Aug-CC-pVDZ\C4H7N1O2\OHZDE\09-Apr-2025\0\\#t hf
 aug-cc-pvdz iop(5/13=1,5/36=2,99/5=2) pseudo=read geom=check guess=(re
 ad,tcheck) scf=(maxcycle=1)\\title\\0,1\C,0,2.29038213,-0.31122597,-0.
 87482013\N,0,1.24665231,0.64173091,-0.5531494\C,0,0.09167313,0.2018328
 4,-0.32265333\C,0,-1.0260797,1.15901577,0.07633128\O,0,-2.20664167,0.5
 1205398,-0.40871427\C,0,-2.27965407,-0.70488537,0.07547771\O,0,-0.2697
 1772,-1.09522137,-0.32529374\H,0,3.1019995,0.20978918,-1.38101475\H,0,
 2.69424324,-0.75320909,0.04043412\H,0,1.93423884,-1.12859444,-1.508611

 Normal termination of Gaussian 16 at Wed Apr  9 14:45:06 2025.
