 Gaussian 16, Revision C.01,

 ----------------------------------------------------------------------
 #t hf aug-cc-pvdz symm=none int=(grid=ultrafine) guess=(read,tcheck) s
 table=(opt,rrhf)
 ----------------------------------------------------------------------
 -----
 title
 -----
 Symbolic Z-matrix:
 Charge =  0 Multiplicity = 1

 SCF Done:  E(RHF) =  -288.062230010     A.U. after   13 cycles

 1\1\GINC-SE129\Stability\RHF\Aug-CC-pVDZ\C6H11N1\OHZDE\09-Apr-2025\0\\
 #t hf aug-cc-pvdz symm=none int=(grid=ultrafine) guess=(read,tcheck) s
 table=(opt,rrhf)\\title\\0,1\C,0,-2.02863568,0.45044113,-0.88603436\C,
 0,-1.06404837,-0.31533612,-0.00508395\C,0,0.18652585,-0.98776551,-0.63
 025608\C,0,1.05090459,-0.47702055,0.55452362\C,0,2.41803155,0.11789489
 ,0.29760394\C,0,-0.0913698,0.4680395,0.86889159\N,0,-0.09042119,1.5746
 0165,1.46501789\H,0,-2.765377,0.99426861,-0.29027002\H,0,-1.49583607,1
 .17532841,-1.50556691\H,0,-2.57551051,-0.22391378,-1.54794016\H,0,-1.0

 Normal termination of Gaussian 16 at Wed Apr  9 15:12:14 2025.
 Gaussian 16:  ES64L-G16RevC.01  3-Jul-2019

 ----------------------------------------------------------------------
 #t hf aug-cc-pvdz iop(5/13=1,5/36=2,99/5=2) pseudo=read geom=check gue
 ss=(read,tcheck) scf=(maxcycle=1)
 ----------------------------------------------------------------------
 -----
 title
 -----
 Structure from the checkpoint file:  "Grambow2020_wb97xd3_006811_reverse_mol2.chk"
 Charge =  0 Multiplicity = 1

                         Standard orientation:
 ---------------------------------------------------------------------
 Center     Atomic      Atomic             Coordinates (Angstroms)
 Number     Number       Type             X           Y           Z
 ---------------------------------------------------------------------
      1          6           0        2.300364   -0.222676    0.483563
      2          6           0        1.087062   -0.338618   -0.414977
      3          6           0       -0.018641   -1.377415   -0.090543
      4          6           0       -1.106532   -0.317001   -0.412610
      5          6           0       -2.312805   -0.167070    0.488165
      6          6           0       -0.005426    0.719210   -0.309695
      7          7           0       -0.064493    1.943257   -0.030292
      8          1           0        2.907084    0.647441    0.222301
      9          1           0        2.000266   -0.121783    1.528991
     10          1           0        2.938002   -1.104711    0.397675
     11          1           0        0.869159    2.342942    0.063255
     12          1           0        1.391688   -0.435268   -1.462121
     13          1           0       -0.025165   -2.295748   -0.676377
     14          1           0       -0.019787   -1.631964    0.971900
     15          1           0       -1.415690   -0.409617   -1.458928
     16          1           0       -2.973622   -1.032810    0.408588
     17          1           0       -2.003180   -0.064833    1.530434
     18          1           0       -2.881439    0.724969    0.222914
 ---------------------------------------------------------------------

 SCF Done:  E(RHF) =  -288.149850866     A.U. after    2 cycles

 The electronic state is 1-A.
 Alpha  occ. eigenvalues --  -15.60468 -11.28490 -11.24759 -11.24023 -11.23716
 Alpha  occ. eigenvalues --  -11.23518 -11.22285  -1.19482  -1.10299  -1.01595
 Alpha  occ. eigenvalues --   -0.94503  -0.84802  -0.81879  -0.72173  -0.67873
 Alpha  occ. eigenvalues --   -0.61429  -0.60833  -0.59822  -0.56761  -0.54315
 Alpha  occ. eigenvalues --   -0.51891  -0.50954  -0.50368  -0.47214  -0.44890
 Alpha  occ. eigenvalues --   -0.41207  -0.38604
 Alpha virt. eigenvalues --    0.03097   0.04016   0.04350   0.04738   0.06412
 Alpha virt. eigenvalues --    0.06533   0.06609   0.06934   0.07749   0.08738
 Alpha virt. eigenvalues --    0.09144   0.11627   0.12412   0.13770   0.14234

 Mulliken charges:
               1
     1  C    0.685316
     2  C   -0.502639
     3  C    0.790838
     4  C   -0.640407
     5  C    0.677877
     6  C    0.086269
     7  N   -0.413918
     8  H   -0.046665
     9  H   -0.012530
    10  H   -0.017638
    11  H   -0.009934
    12  H   -0.142824
    13  H   -0.141452
    14  H   -0.166243
    15  H   -0.123622
    16  H   -0.006980
    17  H   -0.013054
    18  H   -0.002392
 Sum of Mulliken charges =  -0.00000

 Dipole moment (field-independent basis, Debye):
    X=              1.4196    Y=             -2.1306    Z=             -0.3991  Tot=              2.5911

 Test job not archived.
 1\1\GINC-SE129\SP\RHF\Aug-CC-pVDZ\C6H11N1\OHZDE\09-Apr-2025\0\\#t hf a
 ug-cc-pvdz iop(5/13=1,5/36=2,99/5=2) pseudo=read geom=check guess=(rea
 d,tcheck) scf=(maxcycle=1)\\title\\0,1\C,0,-2.02863568,0.45044113,-0.8
 8603436\C,0,-1.06404837,-0.31533612,-0.00508395\C,0,0.18652585,-0.9877
 6551,-0.63025608\C,0,1.05090459,-0.47702055,0.55452362\C,0,2.41803155,
 0.11789489,0.29760394\C,0,-0.0913698,0.4680395,0.86889159\N,0,-0.09042
 119,1.57460165,1.46501789\H,0,-2.765377,0.99426861,-0.29027002\H,0,-1.
 49583607,1.17532841,-1.50556691\H,0,-2.57551051,-0.22391378,-1.5479401

 Normal termination of Gaussian 16 at Wed Apr  9 15:12:21 2025.
