 Gaussian 16, Revision C.01,

 ----------------------------------------------------------------------
 #t hf aug-cc-pvdz symm=none int=(grid=ultrafine) guess=(read,tcheck) s
 table=(opt,rrhf)
 ----------------------------------------------------------------------
 -----
 title
 -----
 Symbolic Z-matrix:
 Charge =  0 Multiplicity = 1

 SCF Done:  E(RHF) =  -284.868005061     A.U. after   14 cycles
 Normal termination of Gaussian 16 at Wed Apr  9 14:25:18 2025.
 Gaussian 16:  ES64L-G16RevC.01  3-Jul-2019

 ----------------------------------------------------------------------
 #t hf aug-cc-pvdz iop(5/13=1,5/36=2,99/5=2) pseudo=read geom=check gue
 ss=(read,tcheck) scf=(maxcycle=1)
 ----------------------------------------------------------------------
 -----
 title
 -----
 Structure from the checkpoint file:  "Grambow2020_wb97xd3_006240_forward_mol2.chk"
 Charge =  0 Multiplicity = 1

                         Standard orientation:
 ---------------------------------------------------------------------
 Center     Atomic      Atomic             Coordinates (Angstroms)
 Number     Number       Type             X           Y           Z
 ---------------------------------------------------------------------
      1          8           0        2.310246   -0.361696    0.022041
      2          6           0        1.434507    0.475496    0.000631
      3          7           0        0.122929    0.201538   -0.049450
      4          6           0       -0.577363   -1.073775   -0.019070
      5          6           0       -1.908257   -0.284937    0.033315
      6          6           0       -1.080884    1.023508   -0.001785
      7          1           0        1.638846    1.563269    0.018323
      8          1           0       -0.415895   -1.678766   -0.912990
      9          1           0       -0.344305   -1.674804    0.861856
     10          1           0       -2.558918   -0.431478   -0.825636
     11          1           0       -2.481990   -0.428605    0.945807
     12          1           0       -1.160412    1.646599    0.891928
     13          1           0       -1.227814    1.644825   -0.888011
 ---------------------------------------------------------------------

 SCF Done:  E(RHF) =  -284.957554413     A.U. after    2 cycles

 The electronic state is 1-A.
 Alpha  occ. eigenvalues --  -20.53229 -15.64746 -11.35463 -11.29204 -11.28188
 Alpha  occ. eigenvalues --  -11.25574  -1.34364  -1.24762  -1.03800  -0.95017
 Alpha  occ. eigenvalues --   -0.85493  -0.75770  -0.72061  -0.69669  -0.65323
 Alpha  occ. eigenvalues --   -0.57957  -0.57112  -0.56129  -0.53794  -0.51571
 Alpha  occ. eigenvalues --   -0.49337  -0.43515  -0.37592
 Alpha virt. eigenvalues --    0.02880   0.03849   0.04023   0.05042   0.06661
 Alpha virt. eigenvalues --    0.06726   0.07492   0.09705   0.10403   0.11739
 Alpha virt. eigenvalues --    0.12802   0.13822   0.13983   0.15085   0.15928

 Mulliken charges:
               1
     1  O   -0.489631
     2  C    0.523455
     3  N   -0.554917
     4  C    0.793675
     5  C    0.401057
     6  C    0.809257
     7  H   -0.227971
     8  H   -0.237160
     9  H   -0.238170
    10  H   -0.154428
    11  H   -0.154940
    12  H   -0.235185
    13  H   -0.235042
 Sum of Mulliken charges =  -0.00000

 Dipole moment (field-independent basis, Debye):
    X=             -4.6581    Y=              1.8734    Z=              0.0249  Tot=              5.0208

 Test job not archived.
 1\1\GINC-SE131\SP\RHF\Aug-CC-pVDZ\C4H7N1O1\OHZDE\09-Apr-2025\0\\#t hf
 aug-cc-pvdz iop(5/13=1,5/36=2,99/5=2) pseudo=read geom=check guess=(re
 ad,tcheck) scf=(maxcycle=1)\\title\\0,1\O,0,2.3198625,1.33902263,-1.02
 39513\C,0,1.87005609,0.27145133,-0.66865858\N,0,0.60982875,0.07855556,
 -0.25342803\C,0,-0.51367876,1.00094776,-0.18503622\C,0,-1.40497469,-0.
 19409346,0.23180451\C,0,-0.15447945,-1.10199046,0.13285516\H,0,2.46822
 341,-0.65978636,-0.65108202\H,0,-0.38617949,1.78520711,0.56320173\H,0,
 -0.75362093,1.46289677,-1.144522\H,0,-1.83094973,-0.11861489,1.2295421

 Normal termination of Gaussian 16 at Wed Apr  9 14:25:22 2025.
