 Gaussian 16, Revision C.01,

 ----------------------------------------------------------------------
 #t hf aug-cc-pvdz symm=none int=(grid=ultrafine) guess=(read,tcheck) s
 table=(opt,rrhf)
 ----------------------------------------------------------------------
 -----
 title
 -----
 Symbolic Z-matrix:
 Charge =  0 Multiplicity = 1

 SCF Done:  E(RHF) =  -344.936888235     A.U. after   13 cycles

 1\1\GINC-SE458\Stability\RHF\Aug-CC-pVDZ\C5H10O2\OHZDE\09-Apr-2025\0\\
 #t hf aug-cc-pvdz symm=none int=(grid=ultrafine) guess=(read,tcheck) s
 table=(opt,rrhf)\\title\\0,1\C,0,1.90179999,0.62400831,-0.72053618\C,0
 ,1.57187824,-0.21690696,0.46997336\C,0,1.22651232,0.24465418,1.6628744
 3\O,0,-2.06128955,-1.58875457,0.3519613\C,0,-1.59593214,-0.77045398,-0
 .60891908\C,0,-1.94454314,0.66068085,-0.34217966\O,0,-0.96966159,-1.18
 030144,-1.54915153\H,0,1.23826539,0.37733253,-1.55295087\H,0,2.9237954
 3,0.43343274,-1.05805211\H,0,1.80702814,1.68801524,-0.4970915\H,0,1.61

 Normal termination of Gaussian 16 at Wed Apr  9 03:33:29 2025.
 Gaussian 16:  ES64L-G16RevC.01  3-Jul-2019

 ----------------------------------------------------------------------
 #t hf aug-cc-pvdz iop(5/13=1,5/36=2,99/5=2) pseudo=read geom=check gue
 ss=(read,tcheck) scf=(maxcycle=1)
 ----------------------------------------------------------------------
 -----
 title
 -----
 Structure from the checkpoint file:  "Grambow2020_wb97xd3_007103_reverse_mol2.chk"
 Charge =  0 Multiplicity = 1

                         Standard orientation:
 ---------------------------------------------------------------------
 Center     Atomic      Atomic             Coordinates (Angstroms)
 Number     Number       Type             X           Y           Z
 ---------------------------------------------------------------------
      1          6           0       -2.176927   -1.097283    0.091007
      2          6           0       -1.854194    0.235371   -0.503278
      3          6           0       -1.924223    1.395707    0.132370
      4          8           0        1.967574    0.929523   -0.592964
      5          6           0        1.478911   -0.199198   -0.048298
      6          6           0        1.300382   -0.074002    1.432675
      7          8           0        1.220153   -1.168163   -0.710399
      8          1           0       -1.312794   -1.762242    0.019281
      9          1           0       -2.995505   -1.575800   -0.452742
     10          1           0       -2.467309   -1.007853    1.139196
     11          1           0       -1.530367    0.225713   -1.541467
     12          1           0       -2.244007    1.455130    1.168473
     13          1           0       -1.670459    2.327461   -0.358282
     14          1           0        2.030330    0.774894   -1.543894
     15          1           0        0.495385    0.637672    1.622843
     16          1           0        1.040571   -1.041625    1.852281
     17          1           0        2.208651    0.312205    1.894357
 ---------------------------------------------------------------------

 SCF Done:  E(RHF) =  -345.050972595     A.U. after    2 cycles

 The electronic state is 1-A.
 Alpha  occ. eigenvalues --  -20.62480 -20.56296 -11.39986 -11.25103 -11.24320
 Alpha  occ. eigenvalues --  -11.22717 -11.22612  -1.43024  -1.32866  -1.05892
 Alpha  occ. eigenvalues --   -1.02274  -0.92932  -0.83620  -0.75735  -0.72040
 Alpha  occ. eigenvalues --   -0.69343  -0.66484  -0.64257  -0.59699  -0.58739
 Alpha  occ. eigenvalues --   -0.57571  -0.56884  -0.56279  -0.52379  -0.50124
 Alpha  occ. eigenvalues --   -0.49129  -0.47146  -0.36430
 Alpha virt. eigenvalues --    0.03313   0.04350   0.04584   0.05021   0.06073
 Alpha virt. eigenvalues --    0.06591   0.06906   0.07663   0.07755   0.09131
 Alpha virt. eigenvalues --    0.10938   0.12378   0.13177   0.13879   0.14321

 Mulliken charges:
               1
     1  C    0.203824
     2  C    0.580705
     3  C    0.543300
     4  O   -0.485715
     5  C    0.444260
     6  C    0.400756
     7  O   -0.505034
     8  H   -0.001525
     9  H   -0.009245
    10  H   -0.151792
    11  H   -0.454323
    12  H   -0.367215
    13  H   -0.341100
    14  H    0.160558
    15  H    0.042092
    16  H   -0.052775
    17  H   -0.006770
 Sum of Mulliken charges =  -0.00000

 Dipole moment (field-independent basis, Debye):
    X=              0.3397    Y=              1.1200    Z=              0.9890  Tot=              1.5323

 Test job not archived.
 1\1\GINC-SE458\SP\RHF\Aug-CC-pVDZ\C5H10O2\OHZDE\09-Apr-2025\0\\#t hf a
 ug-cc-pvdz iop(5/13=1,5/36=2,99/5=2) pseudo=read geom=check guess=(rea
 d,tcheck) scf=(maxcycle=1)\\title\\0,1\C,0,1.90179999,0.62400831,-0.72
 053618\C,0,1.57187824,-0.21690696,0.46997336\C,0,1.22651232,0.24465418
 ,1.66287443\O,0,-2.06128955,-1.58875457,0.3519613\C,0,-1.59593214,-0.7
 7045398,-0.60891908\C,0,-1.94454314,0.66068085,-0.34217966\O,0,-0.9696
 6159,-1.18030144,-1.54915153\H,0,1.23826539,0.37733253,-1.55295087\H,0
 ,2.92379543,0.43343274,-1.05805211\H,0,1.80702814,1.68801524,-0.497091

 Normal termination of Gaussian 16 at Wed Apr  9 03:33:35 2025.
