 Gaussian 16, Revision C.01,

 ----------------------------------------------------------------------
 #t hf aug-cc-pvdz symm=none int=(grid=ultrafine) guess=(read,tcheck) s
 table=(opt,rrhf)
 ----------------------------------------------------------------------
 -----
 title
 -----
 Symbolic Z-matrix:
 Charge =  0 Multiplicity = 1

 SCF Done:  E(RHF) =  -309.045931723     A.U. after   12 cycles

 1\1\GINC-SE087\Stability\RHF\Aug-CC-pVDZ\C6H12O1\OHZDE\09-Apr-2025\0\\
 #t hf aug-cc-pvdz symm=none int=(grid=ultrafine) guess=(read,tcheck) s
 table=(opt,rrhf)\\title\\0,1\C,0,2.84722682,0.23589072,0.05783076\O,0,
 1.51641515,0.44946613,-0.3236718\C,0,0.60872116,-0.3301251,0.41705698\
 C,0,-0.79826652,-0.00101056,0.00282704\C,0,-1.21441268,1.42873298,0.24
 900166\C,0,-1.34328026,-0.70817369,-1.20077591\C,0,-1.8153885,-1.09081
 339,0.17342189\H,0,3.14618983,-0.81037761,-0.09396496\H,0,3.01028236,0
 .49121335,1.11380292\H,0,3.47513994,0.87523127,-0.56145533\H,0,0.81096

 Normal termination of Gaussian 16 at Wed Apr  9 16:11:22 2025.
 Gaussian 16:  ES64L-G16RevC.01  3-Jul-2019

 ----------------------------------------------------------------------
 #t hf aug-cc-pvdz iop(5/13=1,5/36=2,99/5=2) pseudo=read geom=check gue
 ss=(read,tcheck) scf=(maxcycle=1)
 ----------------------------------------------------------------------
 -----
 title
 -----
 Structure from the checkpoint file:  "Grambow2020_wb97xd3_007846_forward_mol2.chk"
 Charge =  0 Multiplicity = 1

                         Standard orientation:
 ---------------------------------------------------------------------
 Center     Atomic      Atomic             Coordinates (Angstroms)
 Number     Number       Type             X           Y           Z
 ---------------------------------------------------------------------
      1          6           0       -2.817626   -0.161226    0.020093
      2          8           0       -1.504681    0.145299    0.400139
      3          6           0       -0.552064   -0.299572   -0.535254
      4          6           0        0.823123    0.121251   -0.097890
      5          6           0        1.030353    1.613267   -0.003609
      6          6           0        1.533417   -0.763493    0.881135
      7          6           0        1.961809   -0.740253   -0.558885
      8          1           0       -2.965604   -1.245596   -0.076569
      9          1           0       -3.080983    0.309252   -0.937062
     10          1           0       -3.482878    0.217546    0.795024
     11          1           0       -0.600590   -1.395210   -0.630585
     12          1           0       -0.777638    0.126559   -1.526354
     13          1           0        0.349173    2.048887    0.728834
     14          1           0        0.846744    2.095091   -0.967908
     15          1           0        2.052755    1.847321    0.299037
     16          1           0        1.013754   -1.640522    1.245604
     17          1           0        2.176043   -0.289759    1.612080
     18          1           0        1.738478   -1.606727   -1.169441
     19          1           0        2.894118   -0.249080   -0.807312
 ---------------------------------------------------------------------

 SCF Done:  E(RHF) =  -309.146326158     A.U. after    2 cycles

 The electronic state is 1-A.
 Alpha  occ. eigenvalues --  -20.56677 -11.28220 -11.27973 -11.23836 -11.22917
 Alpha  occ. eigenvalues --  -11.22636 -11.21858  -1.33801  -1.14665  -0.98318
 Alpha  occ. eigenvalues --   -0.94584  -0.88019  -0.82059  -0.74857  -0.68042
 Alpha  occ. eigenvalues --   -0.67028  -0.66091  -0.62651  -0.58963  -0.56428
 Alpha  occ. eigenvalues --   -0.54930  -0.53293  -0.51146  -0.50227  -0.47483
 Alpha  occ. eigenvalues --   -0.43551  -0.41411  -0.39969
 Alpha virt. eigenvalues --    0.03489   0.04311   0.04625   0.04723   0.06084
 Alpha virt. eigenvalues --    0.06316   0.06498   0.06948   0.07896   0.08854
 Alpha virt. eigenvalues --    0.08923   0.09939   0.11795   0.12750   0.13737

 Mulliken charges:
               1
     1  C    0.725519
     2  O   -0.582520
     3  C    0.646822
     4  C   -0.627095
     5  C    0.576362
     6  C    0.707266
     7  C    0.847067
     8  H   -0.073351
     9  H   -0.074553
    10  H   -0.282416
    11  H   -0.287383
    12  H   -0.101721
    13  H    0.047108
    14  H    0.020564
    15  H   -0.154387
    16  H   -0.337509
    17  H   -0.352599
    18  H   -0.355231
    19  H   -0.341942
 Sum of Mulliken charges =   0.00000

 Dipole moment (field-independent basis, Debye):
    X=             -0.3867    Y=             -0.5631    Z=             -1.0937  Tot=              1.2895

 Test job not archived.
 1\1\GINC-SE087\SP\RHF\Aug-CC-pVDZ\C6H12O1\OHZDE\09-Apr-2025\0\\#t hf a
 ug-cc-pvdz iop(5/13=1,5/36=2,99/5=2) pseudo=read geom=check guess=(rea
 d,tcheck) scf=(maxcycle=1)\\title\\0,1\C,0,2.84722682,0.23589072,0.057
 83076\O,0,1.51641515,0.44946613,-0.3236718\C,0,0.60872116,-0.3301251,0
 .41705698\C,0,-0.79826652,-0.00101056,0.00282704\C,0,-1.21441268,1.428
 73298,0.24900166\C,0,-1.34328026,-0.70817369,-1.20077591\C,0,-1.815388
 5,-1.09081339,0.17342189\H,0,3.14618983,-0.81037761,-0.09396496\H,0,3.
 01028236,0.49121335,1.11380292\H,0,3.47513994,0.87523127,-0.56145533\H

 Normal termination of Gaussian 16 at Wed Apr  9 16:11:29 2025.
