 Gaussian 16, Revision C.01,

 ----------------------------------------------------------------------
 #t hf aug-cc-pvdz symm=none int=(grid=ultrafine) guess=(read,tcheck) s
 table=(opt,rrhf)
 ----------------------------------------------------------------------
 -----
 title
 -----
 Symbolic Z-matrix:
 Charge =  0 Multiplicity = 1

 SCF Done:  E(RHF) =  -324.962177371     A.U. after   16 cycles
 Normal termination of Gaussian 16 at Wed Apr  9 16:21:20 2025.
 Gaussian 16:  ES64L-G16RevC.01  3-Jul-2019

 ----------------------------------------------------------------------
 #t hf aug-cc-pvdz iop(5/13=1,5/36=2,99/5=2) pseudo=read geom=check gue
 ss=(read,tcheck) scf=(maxcycle=1)
 ----------------------------------------------------------------------
 -----
 title
 -----
 Structure from the checkpoint file:  "Grambow2020_wb97xd3_008113_reverse_mol1.chk"
 Charge =  0 Multiplicity = 1

                         Standard orientation:
 ---------------------------------------------------------------------
 Center     Atomic      Atomic             Coordinates (Angstroms)
 Number     Number       Type             X           Y           Z
 ---------------------------------------------------------------------
      1          6           0       -2.606811    0.414901    0.113338
      2          7           0       -1.183082    0.616393   -0.046845
      3          6           0       -0.345893   -0.456944   -0.125737
      4          8           0       -0.731185   -1.602553    0.078518
      5          6           0        1.033979   -0.315627   -0.596406
      6          6           0        1.604161    1.814599    0.135659
      7          6           0        2.072282   -1.029674    0.188658
      8          1           0       -3.093880    0.123829   -0.822006
      9          1           0       -3.060247    1.333403    0.484726
     10          1           0       -2.770781   -0.379341    0.838618
     11          1           0       -0.880162    1.473793   -0.471240
     12          1           0        1.393723    1.040160   -0.736252
     13          1           0        1.137583    1.583537    1.085879
     14          1           0        1.211921    2.743660   -0.278486
     15          1           0        2.687619    1.845468    0.218056
     16          1           0        3.078632   -0.839066   -0.182792
     17          1           0        2.034816   -0.900452    1.276442
     18          1           0        1.845518   -2.082849   -0.006243
 ---------------------------------------------------------------------

 SCF Done:  E(RHF) =  -325.065452006     A.U. after    2 cycles

 The electronic state is 1-A.
 Alpha  occ. eigenvalues --  -20.52661 -15.64493 -11.35655 -11.28049 -11.26998
 Alpha  occ. eigenvalues --  -11.26705 -11.24085  -1.34182  -1.19428  -1.05659
 Alpha  occ. eigenvalues --   -0.97148  -0.95304  -0.85420  -0.77511  -0.67751
 Alpha  occ. eigenvalues --   -0.64969  -0.63484  -0.60716  -0.60381  -0.59148
 Alpha  occ. eigenvalues --   -0.58105  -0.56528  -0.54668  -0.53370  -0.52635
 Alpha  occ. eigenvalues --   -0.44123  -0.39677  -0.33636
 Alpha virt. eigenvalues --    0.02605   0.03758   0.04397   0.04693   0.06103
 Alpha virt. eigenvalues --    0.06358   0.07021   0.07212   0.07775   0.08665
 Alpha virt. eigenvalues --    0.09283   0.09456   0.12646   0.13024   0.14131

 Mulliken charges:
               1
     1  C    0.762277
     2  N   -0.375570
     3  C    0.525664
     4  O   -0.564025
     5  C   -0.549184
     6  C    0.597223
     7  C    0.558824
     8  H   -0.065846
     9  H   -0.204868
    10  H   -0.136397
    11  H   -0.060335
    12  H   -0.077201
    13  H   -0.012272
    14  H   -0.180203
    15  H   -0.128352
    16  H   -0.056403
    17  H   -0.051115
    18  H    0.017784
 Sum of Mulliken charges =  -0.00000

 Dipole moment (field-independent basis, Debye):
    X=              1.0817    Y=              4.5902    Z=              0.6302  Tot=              4.7579

 Test job not archived.
 1\1\GINC-SE043\SP\RHF\Aug-CC-pVDZ\C5H11N1O1\OHZDE\09-Apr-2025\0\\#t hf
  aug-cc-pvdz iop(5/13=1,5/36=2,99/5=2) pseudo=read geom=check guess=(r
 ead,tcheck) scf=(maxcycle=1)\\title\\0,1\C,0,2.79163942,0.03876137,-0.
 01225491\N,0,1.38091982,-0.17893832,-0.24834119\C,0,0.46849232,0.74645
 414,0.16431635\O,0,0.77932568,1.70362948,0.86416474\C,0,-0.91316208,0.
 72541524,-0.32162031\C,0,-1.30791766,-1.543425,-0.63052075\C,0,-1.9718
 8127,0.92676498,0.6995724\H,0,3.22539461,0.75644122,-0.71483681\H,0,3.
 32048009,-0.91030364,-0.09461751\H,0,2.92394065,0.43169552,0.99364576\

 Normal termination of Gaussian 16 at Wed Apr  9 16:21:27 2025.
