 Gaussian 16, Revision C.01,

 ----------------------------------------------------------------------
 #t hf aug-cc-pvdz symm=none int=(grid=ultrafine) guess=(read,tcheck) s
 table=(opt,rrhf)
 ----------------------------------------------------------------------
 -----
 title
 -----
 Symbolic Z-matrix:
 Charge =  0 Multiplicity = 1

 SCF Done:  E(RHF) =  -305.614235722     A.U. after   16 cycles
 Normal termination of Gaussian 16 at Wed Apr  9 14:24:23 2025.
 Gaussian 16:  ES64L-G16RevC.01  3-Jul-2019

 ----------------------------------------------------------------------
 #t hf aug-cc-pvdz iop(5/13=1,5/36=2,99/5=2) pseudo=read geom=check gue
 ss=(read,tcheck) scf=(maxcycle=1)
 ----------------------------------------------------------------------
 -----
 title
 -----
 Structure from the checkpoint file:  "Grambow2020_wb97xd3_006218_reverse_mol1.chk"
 Charge =  0 Multiplicity = 1

                         Standard orientation:
 ---------------------------------------------------------------------
 Center     Atomic      Atomic             Coordinates (Angstroms)
 Number     Number       Type             X           Y           Z
 ---------------------------------------------------------------------
      1          6           0        0.323282    1.417612    0.337884
      2          8           0        1.379795    0.733751   -0.307452
      3          6           0        1.006075   -0.549868   -0.468142
      4          6           0        0.366122   -1.295128    0.729673
      5          6           0       -0.462090   -0.806962   -0.363742
      6          8           0       -2.115021    0.266742   -0.008106
      7          1           0        0.317374    1.243065    1.422349
      8          1           0       -1.278904    0.890213    0.069460
      9          1           0        0.454545    2.482890    0.143337
     10          1           0        1.616967   -1.089933   -1.185500
     11          1           0        0.451089   -0.720808    1.644524
     12          1           0        0.444977   -2.367895    0.872809
     13          1           0       -1.006996   -1.495436   -0.992515
     14          1           0       -2.517571    0.460031   -0.864037
 ---------------------------------------------------------------------

 SCF Done:  E(RHF) =  -305.711876549     A.U. after    2 cycles

 The electronic state is 1-A.
 Alpha  occ. eigenvalues --  -20.58973 -20.57547 -11.35459 -11.33062 -11.26957
 Alpha  occ. eigenvalues --  -11.22651  -1.36337  -1.31519  -1.15378  -0.91721
 Alpha  occ. eigenvalues --   -0.84621  -0.79091  -0.74343  -0.72221  -0.66800
 Alpha  occ. eigenvalues --   -0.63360  -0.60641  -0.58880  -0.57662  -0.52296
 Alpha  occ. eigenvalues --   -0.50238  -0.47385  -0.40000  -0.29265
 Alpha virt. eigenvalues --    0.02657   0.03996   0.04284   0.04615   0.05631
 Alpha virt. eigenvalues --    0.06701   0.07105   0.08607   0.09487   0.10689
 Alpha virt. eigenvalues --    0.11296   0.12492   0.13664   0.14238   0.15052

 Mulliken charges:
               1
     1  C    0.353207
     2  O   -0.648443
     3  C    0.958332
     4  C    0.652312
     5  C    0.463951
     6  O   -0.541313
     7  H   -0.227797
     8  H    0.456436
     9  H   -0.405652
    10  H   -0.367262
    11  H   -0.201736
    12  H   -0.301677
    13  H   -0.373951
    14  H    0.183594
 Sum of Mulliken charges =   0.00000

 Dipole moment (field-independent basis, Debye):
    X=             -0.8371    Y=             -3.3596    Z=             -1.3539  Tot=              3.7176

 Test job not archived.
 1\1\GINC-SE120\SP\RHF\Aug-CC-pVDZ\C4H8O2\OHZDE\09-Apr-2025\0\\#t hf au
 g-cc-pvdz iop(5/13=1,5/36=2,99/5=2) pseudo=read geom=check guess=(read
 ,tcheck) scf=(maxcycle=1)\\title\\0,1\C,0,1.21411812,-0.12110228,-0.90
 909501\O,0,0.29023225,-1.16533228,-1.14650381\C,0,-0.74062813,-1.00881
 928,-0.29445073\C,0,-0.43736545,-0.71638402,1.19626295\C,0,-0.87214622
 ,0.35215374,0.30801266\O,0,0.11594911,2.09231053,0.22420188\H,0,1.8528
 2073,-0.32228783,-0.03837728\H,0,0.62623564,1.38131642,-0.34844047\H,0
 ,1.83626622,-0.02442225,-1.79986977\H,0,-1.61974725,-1.58309365,-0.571

 Normal termination of Gaussian 16 at Wed Apr  9 14:24:28 2025.
