 Gaussian 16, Revision C.01,

 ----------------------------------------------------------------------
 #t hf aug-cc-pvdz symm=none int=(grid=ultrafine) guess=(read,tcheck) s
 table=(opt,rrhf)
 ----------------------------------------------------------------------
 -----
 title
 -----
 Symbolic Z-matrix:
 Charge =  0 Multiplicity = 1

 SCF Done:  E(RHF) =  -289.059405985     A.U. after   16 cycles

 1\1\GINC-SE112\Stability\RHF\Aug-CC-pVDZ\C6H13N1\OHZDE\09-Apr-2025\0\\
 #t hf aug-cc-pvdz symm=none int=(grid=ultrafine) guess=(read,tcheck) s
 table=(opt,rrhf)\\title\\0,1\C,0,-1.37879356,1.28936927,0.32660708\C,0
 ,-0.54795566,0.04136273,0.43146216\N,0,-0.21169855,-0.8714665,-0.96833
 084\C,0,-1.59224239,-1.42846683,0.17519036\C,0,0.75086884,-0.09822697,
 -0.31075617\C,0,1.88012864,-0.81861822,0.42000146\C,0,1.22997059,1.130
 48599,-1.06998074\H,0,-2.28978215,1.19458573,0.92199018\H,0,-0.8263334
 4,2.15443837,0.69915208\H,0,-1.66782897,1.47826807,-0.70590711\H,0,-0.

 Normal termination of Gaussian 16 at Wed Apr  9 17:06:00 2025.
 Gaussian 16:  ES64L-G16RevC.01  3-Jul-2019

 ----------------------------------------------------------------------
 #t hf aug-cc-pvdz iop(5/13=1,5/36=2,99/5=2) pseudo=read geom=check gue
 ss=(read,tcheck) scf=(maxcycle=1)
 ----------------------------------------------------------------------
 -----
 title
 -----
 Structure from the checkpoint file:  "Grambow2020_wb97xd3_009138_forward_mol1.chk"
 Charge =  0 Multiplicity = 1

                         Standard orientation:
 ---------------------------------------------------------------------
 Center     Atomic      Atomic             Coordinates (Angstroms)
 Number     Number       Type             X           Y           Z
 ---------------------------------------------------------------------
      1          6           0        1.240343    1.496528   -0.458980
      2          6           0        0.623784    0.125894   -0.453948
      3          7           0        0.158816   -0.587430    1.022778
      4          6           0        1.793198   -1.083294    0.243865
      5          6           0       -0.759778   -0.107389    0.083317
      6          6           0       -1.621269   -1.118981   -0.666824
      7          6           0       -1.537596    1.130499    0.505609
      8          1           0        2.251348    1.460592   -0.871220
      9          1           0        0.654266    2.182195   -1.074383
     10          1           0        1.301054    1.899116    0.550746
     11          1           0        0.704522   -0.408864   -1.400512
     12          1           0        2.149199   -1.097315    1.265454
     13          1           0        1.568588   -2.083090   -0.112618
     14          1           0        2.594961   -0.651790   -0.368929
     15          1           0       -2.110952   -0.678562   -1.539742
     16          1           0       -1.018224   -1.968393   -0.992705
     17          1           0       -2.398028   -1.501446   -0.000937
     18          1           0       -0.912050    1.818872    1.069876
     19          1           0       -2.364268    0.828513    1.152496
     20          1           0       -1.964207    1.652647   -0.355201
 ---------------------------------------------------------------------

 SCF Done:  E(RHF) =  -289.146779150     A.U. after    2 cycles

 The electronic state is 1-A.
 Alpha  occ. eigenvalues --  -15.60414 -11.28596 -11.27949 -11.26077 -11.23614
 Alpha  occ. eigenvalues --  -11.21917 -11.21762  -1.20831  -1.01727  -0.98269
 Alpha  occ. eigenvalues --   -0.93464  -0.91804  -0.82274  -0.70137  -0.64974
 Alpha  occ. eigenvalues --   -0.63306  -0.60364  -0.58180  -0.56647  -0.55955
 Alpha  occ. eigenvalues --   -0.54293  -0.53165  -0.52098  -0.51256  -0.48167
 Alpha  occ. eigenvalues --   -0.45756  -0.37547  -0.32288
 Alpha virt. eigenvalues --    0.03212   0.04014   0.04237   0.04722   0.06326
 Alpha virt. eigenvalues --    0.06553   0.06824   0.07054   0.07582   0.08738
 Alpha virt. eigenvalues --    0.09002   0.09359   0.10101   0.11896   0.13024

 Mulliken charges:
               1
     1  C    0.332264
     2  C   -0.362595
     3  N   -1.046832
     4  C    0.777542
     5  C   -0.887856
     6  C    0.656788
     7  C    0.926664
     8  H   -0.130066
     9  H    0.029318
    10  H    0.119692
    11  H   -0.202604
    12  H   -0.094222
    13  H   -0.112594
    14  H   -0.097087
    15  H    0.033924
    16  H   -0.038465
    17  H   -0.023038
    18  H    0.014455
    19  H    0.031936
    20  H    0.072780
 Sum of Mulliken charges =  -0.00000

 Dipole moment (field-independent basis, Debye):
    X=              0.7526    Y=              0.5773    Z=             -2.0649  Tot=              2.2723

 Test job not archived.
 1\1\GINC-SE112\SP\RHF\Aug-CC-pVDZ\C6H13N1\OHZDE\09-Apr-2025\0\\#t hf a
 ug-cc-pvdz iop(5/13=1,5/36=2,99/5=2) pseudo=read geom=check guess=(rea
 d,tcheck) scf=(maxcycle=1)\\title\\0,1\C,0,-1.37879356,1.28936927,0.32
 660708\C,0,-0.54795566,0.04136273,0.43146216\N,0,-0.21169855,-0.871466
 5,-0.96833084\C,0,-1.59224239,-1.42846683,0.17519036\C,0,0.75086884,-0
 .09822697,-0.31075617\C,0,1.88012864,-0.81861822,0.42000146\C,0,1.2299
 7059,1.13048599,-1.06998074\H,0,-2.28978215,1.19458573,0.92199018\H,0,
 -0.82633344,2.15443837,0.69915208\H,0,-1.66782897,1.47826807,-0.705907

 Normal termination of Gaussian 16 at Wed Apr  9 17:06:08 2025.
