 Gaussian 16, Revision C.01,

 ----------------------------------------------------------------------
 #t hf aug-cc-pvdz symm=none int=(grid=ultrafine) guess=(read,tcheck) s
 table=(opt,rrhf)
 ----------------------------------------------------------------------
 -----
 title
 -----
 Symbolic Z-matrix:
 Charge =  0 Multiplicity = 1

 SCF Done:  E(RHF) =  -310.200479989     A.U. after   12 cycles

 1\1\GINC-SE043\Stability\RHF\Aug-CC-pVDZ\C6H14O1\OHZDE\09-Apr-2025\0\\
 #t hf aug-cc-pvdz symm=none int=(grid=ultrafine) guess=(read,tcheck) s
 table=(opt,rrhf)\\title\\0,1\C,0,-2.06493536,1.08697731,-0.52309407\C,
 0,-1.74292815,1.71795083,0.82420697\C,0,0.59106915,-1.8948269,-1.11272
 63\C,0,0.41006582,-2.14554671,0.36369451\C,0,1.45580271,-1.20265586,-0
 .10369413\O,0,1.23895317,0.14322557,0.15765764\C,0,1.82408446,0.988481
 36,-0.80260604\H,0,-2.98516986,1.49282493,-0.94862376\H,0,-2.19321526,
 0.00592442,-0.43310712\H,0,-1.26197033,1.26217327,-1.24216605\H,0,-1.6

 Normal termination of Gaussian 16 at Wed Apr  9 16:03:30 2025.
 Gaussian 16:  ES64L-G16RevC.01  3-Jul-2019

 ----------------------------------------------------------------------
 #t hf aug-cc-pvdz iop(5/13=1,5/36=2,99/5=2) pseudo=read geom=check gue
 ss=(read,tcheck) scf=(maxcycle=1)
 ----------------------------------------------------------------------
 -----
 title
 -----
 Structure from the checkpoint file:  "Grambow2020_wb97xd3_007723_reverse_mol2.chk"
 Charge =  0 Multiplicity = 1

                         Standard orientation:
 ---------------------------------------------------------------------
 Center     Atomic      Atomic             Coordinates (Angstroms)
 Number     Number       Type             X           Y           Z
 ---------------------------------------------------------------------
      1          6           0        2.379956   -0.622708    0.735841
      2          6           0        2.761946   -0.103021   -0.642944
      3          6           0       -1.644156   -0.924869    0.827515
      4          6           0       -1.490755   -1.401614   -0.595377
      5          6           0       -1.653058    0.045935   -0.313743
      6          8           0       -0.539319    0.847303   -0.523791
      7          6           0       -0.504867    1.969626    0.323645
      8          1           0        3.259886   -0.900711    1.319840
      9          1           0        1.741423   -1.505978    0.662767
     10          1           0        1.830707    0.131736    1.302984
     11          1           0        3.408072    0.774613   -0.570137
     12          1           0        3.300088   -0.859446   -1.217949
     13          1           0       -2.570577   -1.124593    1.349445
     14          1           0       -0.754988   -0.941520    1.444699
     15          1           0       -2.311220   -1.931246   -1.060427
     16          1           0       -0.503326   -1.720437   -0.902044
     17          1           0       -2.598941    0.520152   -0.570869
     18          1           0        1.872953    0.182139   -1.207319
     19          1           0       -1.364537    2.628779    0.150000
     20          1           0        0.411190    2.515363    0.100582
     21          1           0       -0.500567    1.672629    1.379127
 ---------------------------------------------------------------------

 SCF Done:  E(RHF) =  -310.305339302     A.U. after    2 cycles

 The electronic state is 1-A.
 Alpha  occ. eigenvalues --  -20.57453 -11.28929 -11.28149 -11.23304 -11.23255
 Alpha  occ. eigenvalues --  -11.21544 -11.21038  -1.34751  -1.12610  -1.00415
 Alpha  occ. eigenvalues --   -0.93636  -0.83224  -0.82715  -0.80559  -0.70565
 Alpha  occ. eigenvalues --   -0.67301  -0.63804  -0.61302  -0.59266  -0.59019
 Alpha  occ. eigenvalues --   -0.57387  -0.51959  -0.51111  -0.50464  -0.48173
 Alpha  occ. eigenvalues --   -0.47980  -0.47357  -0.42447  -0.40329
 Alpha virt. eigenvalues --    0.03431   0.04245   0.04481   0.04703   0.05856
 Alpha virt. eigenvalues --    0.06013   0.06075   0.07026   0.07867   0.08684
 Alpha virt. eigenvalues --    0.08770   0.09257   0.10068   0.11504   0.12778

 Mulliken charges:
               1
     1  C    0.397690
     2  C    0.322208
     3  C    0.518012
     4  C    0.718925
     5  C    0.918979
     6  O   -0.633593
     7  C    0.727170
     8  H   -0.134848
     9  H   -0.111425
    10  H   -0.157262
    11  H   -0.102731
    12  H   -0.090927
    13  H   -0.285696
    14  H   -0.425988
    15  H   -0.334197
    16  H   -0.348411
    17  H   -0.439435
    18  H   -0.127235
    19  H   -0.123192
    20  H   -0.248824
    21  H   -0.039218
 Sum of Mulliken charges =  -0.00000

 Dipole moment (field-independent basis, Debye):
    X=             -1.1448    Y=              0.3900    Z=              0.9535  Tot=              1.5400

 Test job not archived.
 1\1\GINC-SE043\SP\RHF\Aug-CC-pVDZ\C6H14O1\OHZDE\09-Apr-2025\0\\#t hf a
 ug-cc-pvdz iop(5/13=1,5/36=2,99/5=2) pseudo=read geom=check guess=(rea
 d,tcheck) scf=(maxcycle=1)\\title\\0,1\C,0,-2.06493536,1.08697731,-0.5
 2309407\C,0,-1.74292815,1.71795083,0.82420697\C,0,0.59106915,-1.894826
 9,-1.1127263\C,0,0.41006582,-2.14554671,0.36369451\C,0,1.45580271,-1.2
 0265586,-0.10369413\O,0,1.23895317,0.14322557,0.15765764\C,0,1.8240844
 6,0.98848136,-0.80260604\H,0,-2.98516986,1.49282493,-0.94862376\H,0,-2
 .19321526,0.00592442,-0.43310712\H,0,-1.26197033,1.26217327,-1.2421660

 Normal termination of Gaussian 16 at Wed Apr  9 16:03:54 2025.
