 Gaussian 16, Revision C.01,

 ----------------------------------------------------------------------
 #t hf aug-cc-pvdz symm=none int=(grid=ultrafine) guess=(read,tcheck) s
 table=(opt,rrhf)
 ----------------------------------------------------------------------
 -----
 title
 -----
 Symbolic Z-matrix:
 Charge =  0 Multiplicity = 1

 SCF Done:  E(RHF) =  -343.611546365     A.U. after   16 cycles
 Normal termination of Gaussian 16 at Wed Apr  9 16:22:08 2025.
 Gaussian 16:  ES64L-G16RevC.01  3-Jul-2019

 ----------------------------------------------------------------------
 #t hf aug-cc-pvdz iop(5/13=1,5/36=2,99/5=2) pseudo=read geom=check gue
 ss=(read,tcheck) scf=(maxcycle=1)
 ----------------------------------------------------------------------
 -----
 title
 -----
 Structure from the checkpoint file:  "Grambow2020_wb97xd3_008127_reverse_mol2.chk"
 Charge =  0 Multiplicity = 1

                         Standard orientation:
 ---------------------------------------------------------------------
 Center     Atomic      Atomic             Coordinates (Angstroms)
 Number     Number       Type             X           Y           Z
 ---------------------------------------------------------------------
      1          6           0        0.209998   -1.050811    0.709271
      2          8           0       -0.804002   -1.192825   -0.311568
      3          6           0       -1.640645   -0.162158   -0.342520
      4          6           0        2.026014    0.007600   -0.669977
      5          6           0        1.012962    0.222861    0.459225
      6          6           0        0.044976    1.338060    0.212766
      7          8           0       -1.232829    1.011049   -0.071747
      8          1           0        0.813664   -1.952184    0.631619
      9          1           0       -0.281504   -1.027947    1.685022
     10          1           0       -2.650832   -0.298443   -0.689126
     11          1           0        2.550321    0.936509   -0.895649
     12          1           0        2.766149   -0.750936   -0.395990
     13          1           0        1.570825    0.441175    1.379067
     14          1           0        0.088702    2.289176    0.719252
     15          1           0        1.517495   -0.316452   -1.580271
 ---------------------------------------------------------------------

 SCF Done:  E(RHF) =  -343.720738066     A.U. after    2 cycles

 The electronic state is 1-A.
 Alpha  occ. eigenvalues --  -20.69552 -20.63118 -11.38537 -11.30640 -11.24365
 Alpha  occ. eigenvalues --  -11.23594 -11.21549  -1.48572  -1.38224  -1.09031
 Alpha  occ. eigenvalues --   -0.98968  -0.94998  -0.87782  -0.78775  -0.75309
 Alpha  occ. eigenvalues --   -0.71485  -0.68939  -0.64245  -0.62855  -0.61667
 Alpha  occ. eigenvalues --   -0.57925  -0.56736  -0.54435  -0.49128  -0.47941
 Alpha  occ. eigenvalues --   -0.46370  -0.22909
 Alpha virt. eigenvalues --    0.03262   0.04136   0.04632   0.04969   0.06189
 Alpha virt. eigenvalues --    0.06646   0.07183   0.07711   0.08570   0.10106
 Alpha virt. eigenvalues --    0.12695   0.13034   0.13326   0.14487   0.14729

 Mulliken charges:
               1
     1  C    0.921157
     2  O   -0.500709
     3  C    0.730150
     4  C    0.569398
     5  C   -0.768263
     6  C    0.637398
     7  O   -0.215502
     8  H   -0.202110
     9  H   -0.105806
    10  H   -0.384081
    11  H   -0.064935
    12  H   -0.047060
    13  H   -0.082175
    14  H   -0.464934
    15  H   -0.022527
 Sum of Mulliken charges =  -0.00000

 Dipole moment (field-independent basis, Debye):
    X=             -0.7042    Y=             -1.6162    Z=              1.2369  Tot=              2.1536

 Test job not archived.
 1\1\GINC-SE100\SP\RHF\Aug-CC-pVDZ\C5H8O2\OHZDE\09-Apr-2025\0\\#t hf au
 g-cc-pvdz iop(5/13=1,5/36=2,99/5=2) pseudo=read geom=check guess=(read
 ,tcheck) scf=(maxcycle=1)\\title\\0,1\C,0,-1.12610485,0.44884391,-0.08
 878443\O,0,-0.500899,1.06802877,-1.23604391\C,0,0.56829588,1.78329327,
 -0.90676869\C,0,0.02750443,-1.78388921,-0.15631367\C,0,-0.12290709,-0.
 46527742,0.60942074\C,0,1.15481191,0.29616091,0.77987066\O,0,1.3186776
 8,1.42137557,0.05343476\H,0,-1.97933313,-0.09146924,-0.49249207\H,0,-1
 .48089556,1.23699676,0.57989033\H,0,0.86068872,2.62479234,-1.51139592\

 Normal termination of Gaussian 16 at Wed Apr  9 16:22:14 2025.
