 Gaussian 16, Revision C.01,

 ----------------------------------------------------------------------
 #t hf aug-cc-pvdz symm=none int=(grid=ultrafine) guess=(read,tcheck) s
 table=(opt,rrhf)
 ----------------------------------------------------------------------
 -----
 title
 -----
 Symbolic Z-matrix:
 Charge =  0 Multiplicity = 1

 SCF Done:  E(RHF) =  -286.765730830     A.U. after   16 cycles
 Normal termination of Gaussian 16 at Wed Apr  9 16:12:10 2025.
 Gaussian 16:  ES64L-G16RevC.01  3-Jul-2019

 ----------------------------------------------------------------------
 #t hf aug-cc-pvdz iop(5/13=1,5/36=2,99/5=2) pseudo=read geom=check gue
 ss=(read,tcheck) scf=(maxcycle=1)
 ----------------------------------------------------------------------
 -----
 title
 -----
 Structure from the checkpoint file:  "Grambow2020_wb97xd3_007991_reverse_mol2.chk"
 Charge =  0 Multiplicity = 1

                         Standard orientation:
 ---------------------------------------------------------------------
 Center     Atomic      Atomic             Coordinates (Angstroms)
 Number     Number       Type             X           Y           Z
 ---------------------------------------------------------------------
      1          6           0        2.174734   -0.988583    0.252161
      2          6           0        1.431316    0.274893   -0.070125
      3          6           0        1.789505    1.476003    0.253891
      4          6           0        0.124074    0.256822   -0.851843
      5          6           0       -0.973038   -0.471318   -0.117260
      6          6           0       -1.773717    0.213356    0.913803
      7          7           0       -2.330728   -0.032007   -0.415169
      8          1           0        1.575061   -1.628374    0.902137
      9          1           0        3.116483   -0.776836    0.756117
     10          1           0        2.388222   -1.538357   -0.667010
     11          1           0        0.313329   -0.210757   -1.823008
     12          1           0       -0.216947    1.275273   -1.054406
     13          1           0       -0.816565   -1.537839    0.019603
     14          1           0       -1.563722    1.253498    1.136836
     15          1           0       -2.140912   -0.369098    1.751020
     16          1           0       -2.977104   -0.810497   -0.398866
 ---------------------------------------------------------------------

 SCF Done:  E(RHF) =  -286.849205526     A.U. after    2 cycles

 The electronic state is 1-A.
 Alpha  occ. eigenvalues --  -15.62934 -11.27978 -11.27866 -11.26934 -11.26203
 Alpha  occ. eigenvalues --  -11.26044 -11.24426  -1.25057  -1.11011  -0.98271
 Alpha  occ. eigenvalues --   -0.93436  -0.88141  -0.80295  -0.72820  -0.66960
 Alpha  occ. eigenvalues --   -0.63524  -0.61313  -0.58953  -0.57280  -0.54123
 Alpha  occ. eigenvalues --   -0.52293  -0.48221  -0.47476  -0.43377  -0.39820
 Alpha  occ. eigenvalues --   -0.37579
 Alpha virt. eigenvalues --    0.02721   0.03837   0.04027   0.04989   0.05830
 Alpha virt. eigenvalues --    0.06495   0.07092   0.07683   0.08197   0.08651
 Alpha virt. eigenvalues --    0.10201   0.11915   0.11970   0.13143   0.13558

 Mulliken charges:
               1
     1  C    0.441635
     2  C    0.189777
     3  C   -0.466711
     4  C    0.101936
     5  C    0.571925
     6  C    0.863194
     7  N   -0.587011
     8  H    0.016957
     9  H   -0.094606
    10  H    0.049515
    11  H    0.000380
    12  H   -0.083830
    13  H   -0.421751
    14  H   -0.302153
    15  H   -0.284768
    16  H    0.005512
 Sum of Mulliken charges =  -0.00000

 Dipole moment (field-independent basis, Debye):
    X=             -0.5886    Y=             -3.9825    Z=              0.4270  Tot=              4.0483

 Test job not archived.
 1\1\GINC-SE229\SP\RHF\Aug-CC-pVDZ\C6H9N1\OHZDE\09-Apr-2025\0\\#t hf au
 g-cc-pvdz iop(5/13=1,5/36=2,99/5=2) pseudo=read geom=check guess=(read
 ,tcheck) scf=(maxcycle=1)\\title\\0,1\C,0,1.71384131,0.27852756,1.6483
 8743\C,0,1.45525591,-0.09489777,0.21779444\C,0,2.19046025,0.22211955,-
 0.7995176\C,0,0.24508483,-0.92738311,-0.18562435\C,0,-1.05679833,-0.22
 430837,0.10462086\C,0,-1.60860657,0.76214441,-0.8416219\N,0,-2.1739035
 4,-0.58339227,-0.76036602\H,0,0.91216607,0.91525419,2.02694494\H,0,2.6
 5514409,0.81565595,1.75394487\H,0,1.75621034,-0.62175688,2.26514902\H,

 Normal termination of Gaussian 16 at Wed Apr  9 16:12:16 2025.
