 Gaussian 16, Revision C.01,

 ----------------------------------------------------------------------
 #t hf aug-cc-pvdz symm=none int=(grid=ultrafine) guess=(read,tcheck) s
 table=(opt,rrhf)
 ----------------------------------------------------------------------
 -----
 title
 -----
 Symbolic Z-matrix:
 Charge =  0 Multiplicity = 1

 SCF Done:  E(RHF) =  -358.464227339     A.U. after   15 cycles
 Normal termination of Gaussian 16 at Wed Apr  9 15:10:43 2025.
 Gaussian 16:  ES64L-G16RevC.01  3-Jul-2019

 ----------------------------------------------------------------------
 #t hf aug-cc-pvdz iop(5/13=1,5/36=2,99/5=2) pseudo=read geom=check gue
 ss=(read,tcheck) scf=(maxcycle=1)
 ----------------------------------------------------------------------
 -----
 title
 -----
 Structure from the checkpoint file:  "Grambow2020_wb97xd3_006804_reverse_mol2.chk"
 Charge =  0 Multiplicity = 1

                         Standard orientation:
 ---------------------------------------------------------------------
 Center     Atomic      Atomic             Coordinates (Angstroms)
 Number     Number       Type             X           Y           Z
 ---------------------------------------------------------------------
      1          8           0        2.791945   -0.680222    0.238421
      2          6           0        1.842808   -0.234566   -0.337329
      3          6           0        0.639816    0.308821    0.374078
      4          6           0        0.053413    1.540436   -0.195230
      5          7           0       -0.631196    0.140880   -0.377258
      6          6           0       -1.799418   -0.189235    0.359829
      7          8           0       -2.726615   -0.742419   -0.137471
      8          1           0        1.812740   -0.129377   -1.441793
      9          1           0        0.570344   -0.007728    1.415128
     10          1           0       -0.615448   -0.242058   -1.315465
     11          1           0       -0.545803    2.050523    0.568143
     12          1           0       -1.745813    0.170872    1.399108
 ---------------------------------------------------------------------

 SCF Done:  E(RHF) =  -358.573905614     A.U. after    2 cycles

 The electronic state is 1-A.
 Alpha  occ. eigenvalues --  -20.62215 -20.59975 -15.75540 -11.42743 -11.36983
 Alpha  occ. eigenvalues --  -11.32846 -11.26158  -1.43404  -1.39291  -1.32022
 Alpha  occ. eigenvalues --   -1.04834  -0.91967  -0.90916  -0.81275  -0.75781
 Alpha  occ. eigenvalues --   -0.73957  -0.70356  -0.67617  -0.65779  -0.62354
 Alpha  occ. eigenvalues --   -0.59095  -0.53435  -0.52616  -0.49464  -0.46090
 Alpha  occ. eigenvalues --   -0.35380
 Alpha virt. eigenvalues --    0.02676   0.03299   0.04419   0.05155   0.06696
 Alpha virt. eigenvalues --    0.08466   0.08904   0.09675   0.10667   0.11089
 Alpha virt. eigenvalues --    0.11986   0.12322   0.13333   0.13642   0.14569

 Mulliken charges:
               1
     1  O   -0.407886
     2  C    0.548027
     3  C    0.722526
     4  C    0.082747
     5  N   -0.425988
     6  C    0.774407
     7  O   -0.367647
     8  H   -0.117327
     9  H   -0.398254
    10  H   -0.042149
    11  H   -0.195709
    12  H   -0.172745
 Sum of Mulliken charges =  -0.00000

 Dipole moment (field-independent basis, Debye):
    X=             -1.5282    Y=             -0.5136    Z=              0.9144  Tot=              1.8534

 Test job not archived.
 1\1\GINC-SE113\SP\RHF\Aug-CC-pVDZ\C4H5N1O2\OHZDE\09-Apr-2025\0\\#t hf
 aug-cc-pvdz iop(5/13=1,5/36=2,99/5=2) pseudo=read geom=check guess=(re
 ad,tcheck) scf=(maxcycle=1)\\title\\0,1\O,0,2.90120105,-0.32427235,-0.
 4346765\C,0,1.80788289,0.06203475,-0.72858112\C,0,0.68934235,0.1737089
 ,0.26386833\C,0,-0.16501179,1.37384131,0.14297333\N,0,-0.65939722,-0.0
 4035432,-0.32201563\C,0,-1.61178989,-0.75829105,0.44904086\O,0,-2.5234
 5006,-1.33619221,-0.0488756\H,0,1.56091254,0.43029451,-1.74602945\H,0,
 0.85881161,-0.39847866,1.17639046\H,0,-0.76003698,-0.16838181,-1.32231

 Normal termination of Gaussian 16 at Wed Apr  9 15:10:47 2025.
