 Gaussian 16, Revision C.01,

 ----------------------------------------------------------------------
 #t hf aug-cc-pvdz symm=none int=(grid=ultrafine) guess=(read,tcheck) s
 table=(opt,rrhf)
 ----------------------------------------------------------------------
 -----
 title
 -----
 Symbolic Z-matrix:
 Charge =  0 Multiplicity = 1

 SCF Done:  E(RHF) =  -273.001781304     A.U. after   15 cycles
 Normal termination of Gaussian 16 at Wed Apr  9 16:08:43 2025.
 Gaussian 16:  ES64L-G16RevC.01  3-Jul-2019

 ----------------------------------------------------------------------
 #t hf aug-cc-pvdz iop(5/13=1,5/36=2,99/5=2) pseudo=read geom=check gue
 ss=(read,tcheck) scf=(maxcycle=1)
 ----------------------------------------------------------------------
 -----
 title
 -----
 Structure from the checkpoint file:  "Grambow2020_wb97xd3_007785_forward_mol1.chk"
 Charge =  0 Multiplicity = 1

                         Standard orientation:
 ---------------------------------------------------------------------
 Center     Atomic      Atomic             Coordinates (Angstroms)
 Number     Number       Type             X           Y           Z
 ---------------------------------------------------------------------
      1          6           0       -0.944673    1.291327   -0.896002
      2          6           0       -0.474742    0.006247   -0.282542
      3          6           0       -0.940070   -1.266249   -0.926648
      4          6           0       -1.882152   -0.020446    1.375229
      5          6           0        0.789673   -0.000021    0.382137
      6          6           0        2.034859    0.759972    0.195616
      7          6           0        2.027885   -0.767265    0.176515
      8          1           0       -0.705221    2.139947   -0.257971
      9          1           0       -0.389744    1.413896   -1.831622
     10          1           0       -2.010381    1.284609   -1.120241
     11          1           0       -2.008105   -1.266405   -1.140177
     12          1           0       -0.394096   -1.358698   -1.871219
     13          1           0       -0.685360   -2.130911   -0.316206
     14          1           0       -1.814579    0.845694    2.039535
     15          1           0       -2.797715    0.032940    0.790262
     16          1           0       -1.854794   -0.955313    1.941627
     17          1           0       -0.439788   -0.007995    1.104301
     18          1           0        2.236282    1.249702   -0.754782
     19          1           0        2.492330    1.256497    1.045762
     20          1           0        2.482873   -1.291197    1.011615
     21          1           0        2.223614   -1.234157   -0.786719
 ---------------------------------------------------------------------

 SCF Done:  E(RHF) =  -273.089340974     A.U. after    2 cycles

 The electronic state is 1-A.
 Alpha  occ. eigenvalues --  -11.33406 -11.24728 -11.24720 -11.22196 -11.22147
 Alpha  occ. eigenvalues --  -11.20580 -11.19177  -1.14537  -1.07150  -0.96399
 Alpha  occ. eigenvalues --   -0.92466  -0.87733  -0.80430  -0.70288  -0.66305
 Alpha  occ. eigenvalues --   -0.65038  -0.60887  -0.60626  -0.57189  -0.56589
 Alpha  occ. eigenvalues --   -0.54631  -0.53310  -0.52718  -0.49748  -0.47065
 Alpha  occ. eigenvalues --   -0.41650  -0.40680  -0.25239
 Alpha virt. eigenvalues --    0.03114   0.04388   0.04405   0.04504   0.06080
 Alpha virt. eigenvalues --    0.06377   0.06630   0.06647   0.06913   0.08679
 Alpha virt. eigenvalues --    0.08750   0.09144   0.09309   0.09833   0.11949

 Mulliken charges:
               1
     1  C    0.988096
     2  C   -1.829778
     3  C    0.984398
     4  C    0.512471
     5  C   -0.616540
     6  C    0.527481
     7  C    0.517176
     8  H    0.044485
     9  H    0.068382
    10  H   -0.050956
    11  H   -0.041862
    12  H    0.070559
    13  H    0.037005
    14  H   -0.012633
    15  H   -0.290808
    16  H   -0.021578
    17  H    0.260945
    18  H   -0.301622
    19  H   -0.272020
    20  H   -0.271288
    21  H   -0.301912
 Sum of Mulliken charges =  -0.00000

 Dipole moment (field-independent basis, Debye):
    X=             -1.2027    Y=              0.0333    Z=             -2.0960  Tot=              2.4168

 Test job not archived.
 1\1\GINC-SE125\SP\RHF\Aug-CC-pVDZ\C7H14\OHZDE\09-Apr-2025\0\\#t hf aug
 -cc-pvdz iop(5/13=1,5/36=2,99/5=2) pseudo=read geom=check guess=(read,
 tcheck) scf=(maxcycle=1)\\title\\0,1\C,0,-0.50621958,1.65871377,0.3054
 3964\C,0,-0.36139804,0.21803658,-0.08452821\C,0,-1.34084622,-0.3182422
 6,-1.08639466\C,0,-1.31567224,-0.62566765,1.67820976\C,0,0.94259005,-0
 .36362726,-0.04134932\C,0,2.29784179,0.17509372,-0.23092926\C,0,1.7903
 2177,-1.00362765,-1.05912289\H,0,0.12584444,1.89854431,1.15840701\H,0,
 -0.15325435,2.25105881,-0.5447938\H,0,-1.53798072,1.9343279,0.51890558

 Normal termination of Gaussian 16 at Wed Apr  9 16:08:53 2025.
