 Gaussian 16, Revision C.01,

 ----------------------------------------------------------------------
 #t hf aug-cc-pvdz symm=none int=(grid=ultrafine) guess=(read,tcheck) s
 table=(opt,rrhf)
 ----------------------------------------------------------------------
 -----
 title
 -----
 Symbolic Z-matrix:
 Charge =  0 Multiplicity = 1

 SCF Done:  E(RHF) =  -307.763747527     A.U. after   15 cycles

 1\1\GINC-SE163\Stability\RHF\Aug-CC-pVDZ\C6H10O1\OHZDE\09-Apr-2025\0\\
 #t hf aug-cc-pvdz symm=none int=(grid=ultrafine) guess=(read,tcheck) s
 table=(opt,rrhf)\\title\\0,1\C,0,-1.21380266,-0.29466961,-1.08481374\C
 ,0,-1.15518194,0.1640824,0.35981219\C,0,-0.40861679,-0.82067018,1.2925
 1324\C,0,1.0538011,-0.67879896,0.93234283\C,0,1.43919584,0.58505511,0.
 95615106\C,0,0.60097401,1.62555417,0.99012244\O,0,-0.60189793,1.507992
 57,0.38727691\H,0,-1.74507228,-1.24562772,-1.15739921\H,0,-0.21162016,
 -0.41955323,-1.49707133\H,0,-1.74210704,0.442374,-1.68937123\H,0,-2.16

 Normal termination of Gaussian 16 at Wed Apr  9 16:52:27 2025.
 Gaussian 16:  ES64L-G16RevC.01  3-Jul-2019

 ----------------------------------------------------------------------
 #t hf aug-cc-pvdz iop(5/13=1,5/36=2,99/5=2) pseudo=read geom=check gue
 ss=(read,tcheck) scf=(maxcycle=1)
 ----------------------------------------------------------------------
 -----
 title
 -----
 Structure from the checkpoint file:  "Grambow2020_wb97xd3_009029_reverse_mol2.chk"
 Charge =  0 Multiplicity = 1

                         Standard orientation:
 ---------------------------------------------------------------------
 Center     Atomic      Atomic             Coordinates (Angstroms)
 Number     Number       Type             X           Y           Z
 ---------------------------------------------------------------------
      1          6           0        1.791848   -0.227024    0.780345
      2          6           0        0.990879    0.331269   -0.380513
      3          6           0        0.249105   -0.753197   -1.199496
      4          6           0       -0.889947   -1.210176   -0.315049
      5          6           0       -1.605547   -0.188527    0.121500
      6          6           0       -1.213117    1.087302    0.053181
      7          8           0        0.106400    1.364082    0.133263
      8          1           0        2.559778   -0.911266    0.414375
      9          1           0        1.147708   -0.762748    1.478919
     10          1           0        2.281217    0.583455    1.320225
     11          1           0        1.650212    0.878907   -1.057509
     12          1           0        0.956422   -1.548833   -1.440852
     13          1           0       -0.112721   -0.329655   -2.137340
     14          1           0       -0.917143   -2.212671    0.098798
     15          1           0       -1.349654   -1.189505    2.684184
     16          1           0       -1.176013   -1.629725    3.262160
     17          1           0       -1.830337    1.971498   -0.048878
 ---------------------------------------------------------------------

 SCF Done:  E(RHF) =  -307.863006895     A.U. after    2 cycles

 The electronic state is 1-A.
 Alpha  occ. eigenvalues --  -20.60882 -11.32719 -11.31108 -11.26191 -11.25429
 Alpha  occ. eigenvalues --  -11.23310 -11.21496  -1.38049  -1.10016  -1.06175
 Alpha  occ. eigenvalues --   -0.95001  -0.88385  -0.84524  -0.72976  -0.68879
 Alpha  occ. eigenvalues --   -0.67407  -0.64039  -0.61242  -0.58884  -0.58388
 Alpha  occ. eigenvalues --   -0.56619  -0.53960  -0.52885  -0.50359  -0.47119
 Alpha  occ. eigenvalues --   -0.37143  -0.32712
 Alpha virt. eigenvalues --    0.03154   0.04103   0.04689   0.04809   0.05862
 Alpha virt. eigenvalues --    0.06189   0.06569   0.07170   0.07819   0.08527
 Alpha virt. eigenvalues --    0.10363   0.10683   0.12609   0.13432   0.13683

 Mulliken charges:
               1
     1  C    0.440461
     2  C   -0.039736
     3  C    0.372498
     4  C    0.827925
     5  C   -0.658815
     6  C    0.862748
     7  O   -0.682288
     8  H    0.010455
     9  H   -0.086749
    10  H   -0.058975
    11  H   -0.232801
    12  H   -0.099091
    13  H   -0.019771
    14  H   -0.355019
    15  H    0.058582
    16  H   -0.039251
    17  H   -0.300173
 Sum of Mulliken charges =  -0.00000

 Dipole moment (field-independent basis, Debye):
    X=              2.0913    Y=             -0.5188    Z=             -1.4262  Tot=              2.5839

 Test job not archived.
 1\1\GINC-SE163\SP\RHF\Aug-CC-pVDZ\C6H10O1\OHZDE\09-Apr-2025\0\\#t hf a
 ug-cc-pvdz iop(5/13=1,5/36=2,99/5=2) pseudo=read geom=check guess=(rea
 d,tcheck) scf=(maxcycle=1)\\title\\0,1\C,0,-1.21380266,-0.29466961,-1.
 08481374\C,0,-1.15518194,0.1640824,0.35981219\C,0,-0.40861679,-0.82067
 018,1.29251324\C,0,1.0538011,-0.67879896,0.93234283\C,0,1.43919584,0.5
 8505511,0.95615106\C,0,0.60097401,1.62555417,0.99012244\O,0,-0.6018979
 3,1.50799257,0.38727691\H,0,-1.74507228,-1.24562772,-1.15739921\H,0,-0
 .21162016,-0.41955323,-1.49707133\H,0,-1.74210704,0.442374,-1.68937123

 Normal termination of Gaussian 16 at Wed Apr  9 16:52:33 2025.
