 Gaussian 16, Revision C.01,

 ----------------------------------------------------------------------
 #t hf aug-cc-pvdz symm=none int=(grid=ultrafine) guess=(read,tcheck) s
 table=(opt,rrhf)
 ----------------------------------------------------------------------
 -----
 title
 -----
 Symbolic Z-matrix:
 Charge =  0 Multiplicity = 1

 SCF Done:  E(RHF) =  -305.637150041     A.U. after   15 cycles
 Normal termination of Gaussian 16 at Wed Apr  9 14:17:17 2025.
 Gaussian 16:  ES64L-G16RevC.01  3-Jul-2019

 ----------------------------------------------------------------------
 #t hf aug-cc-pvdz iop(5/13=1,5/36=2,99/5=2) pseudo=read geom=check gue
 ss=(read,tcheck) scf=(maxcycle=1)
 ----------------------------------------------------------------------
 -----
 title
 -----
 Structure from the checkpoint file:  "Grambow2020_b97d3_006971_reverse_mol1.chk"
 Charge =  0 Multiplicity = 1

                         Standard orientation:
 ---------------------------------------------------------------------
 Center     Atomic      Atomic             Coordinates (Angstroms)
 Number     Number       Type             X           Y           Z
 ---------------------------------------------------------------------
      1          8           0        1.755590   -1.054651   -0.286326
      2          6           0        1.880875    0.149900    0.232785
      3          6           0        0.839804    1.124131   -0.175342
      4          6           0       -0.753516   -0.255555    0.424387
      5          6           0       -1.883128    0.590566   -0.094063
      6          8           0       -1.973480   -0.813682   -0.152253
      7          1           0        0.141903   -0.805906   -0.087319
      8          1           0        2.125331    0.243719    1.320219
      9          1           0        2.687977    0.783335   -0.288389
     10          1           0        0.692747    2.069625    0.360631
     11          1           0        0.596127    1.135676   -1.238073
     12          1           0       -0.695298   -0.328299    1.516168
     13          1           0       -1.797536    1.107770   -1.054722
     14          1           0       -2.512339    1.086489    0.653505
 ---------------------------------------------------------------------

 SCF Done:  E(RHF) =  -305.732096276     A.U. after    2 cycles

 The electronic state is 1-A.
 Alpha  occ. eigenvalues --  -20.61084 -20.47776 -11.37965 -11.33352 -11.30746
 Alpha  occ. eigenvalues --  -11.30653  -1.39028  -1.25149  -1.04685  -0.94093
 Alpha  occ. eigenvalues --   -0.88359  -0.83290  -0.72761  -0.69469  -0.69300
 Alpha  occ. eigenvalues --   -0.63430  -0.60614  -0.57946  -0.55426  -0.52206
 Alpha  occ. eigenvalues --   -0.49525  -0.45828  -0.39312  -0.37219
 Alpha virt. eigenvalues --    0.01676   0.02167   0.03737   0.04028   0.05060
 Alpha virt. eigenvalues --    0.05904   0.06360   0.08397   0.08901   0.09922
 Alpha virt. eigenvalues --    0.11480   0.12610   0.13526   0.13739   0.14226

 Mulliken charges:
               1
     1  O   -0.828622
     2  C    0.727457
     3  C    0.298898
     4  C    0.574109
     5  C    0.842161
     6  O   -0.685364
     7  H    0.081354
     8  H   -0.131267
     9  H    0.110010
    10  H   -0.217374
    11  H   -0.154222
    12  H   -0.226105
    13  H   -0.211710
    14  H   -0.179324
 Sum of Mulliken charges =   0.00000

 Dipole moment (field-independent basis, Debye):
    X=             -1.3168    Y=              7.5587    Z=              1.2195  Tot=              7.7688

 Test job not archived.
 1\1\GINC-SE112\SP\RHF\Aug-CC-pVDZ\C4H8O2\OHZDE\09-Apr-2025\0\\#t hf au
 g-cc-pvdz iop(5/13=1,5/36=2,99/5=2) pseudo=read geom=check guess=(read
 ,tcheck) scf=(maxcycle=1)\\title\\0,1\O,0,2.0348548,0.87071226,0.11639
 41\C,0,1.77817563,-0.39090517,-0.16388121\C,0,0.49485186,-0.90742624,0
 .37072784\C,0,-0.60824846,0.74936065,-0.54584219\C,0,-1.93509175,0.400
 30751,0.06928689\O,0,-1.59060479,1.74999885,-0.13837183\H,0,0.41979512
 ,1.08944731,-0.10542145\H,0,1.96672435,-0.7597411,-1.20286298\H,0,2.36
 006962,-1.12762859,0.50163575\H,0,0.05794709,-1.84784385,0.01354285\H,

 Normal termination of Gaussian 16 at Wed Apr  9 14:17:21 2025.
