 Gaussian 16, Revision C.01,

 ----------------------------------------------------------------------
 #t hf aug-cc-pvdz symm=none int=(grid=ultrafine) guess=(read,tcheck) s
 table=(opt,rrhf)
 ----------------------------------------------------------------------
 -----
 title
 -----
 Symbolic Z-matrix:
 Charge =  0 Multiplicity = 1

 SCF Done:  E(RHF) =  -321.305620191     A.U. after   19 cycles
 Normal termination of Gaussian 16 at Wed Apr  9 03:39:16 2025.
 Gaussian 16:  ES64L-G16RevC.01  3-Jul-2019

 ----------------------------------------------------------------------
 #t hf aug-cc-pvdz iop(5/13=1,5/36=2,99/5=2) pseudo=read geom=check gue
 ss=(read,tcheck) scf=(maxcycle=1)
 ----------------------------------------------------------------------
 -----
 title
 -----
 Structure from the checkpoint file:  "Grambow2020_wb97xd3_007498_reverse_mol1.chk"
 Charge =  0 Multiplicity = 1

                         Standard orientation:
 ---------------------------------------------------------------------
 Center     Atomic      Atomic             Coordinates (Angstroms)
 Number     Number       Type             X           Y           Z
 ---------------------------------------------------------------------
      1          8           0        0.328463    1.996604   -0.123285
      2          6           0        0.186842    0.851562    0.092983
      3          6           0        1.173596   -0.348485   -0.001300
      4          6           0        2.350654   -0.687569   -0.074835
      5          6           0       -1.026852   -0.107729    0.451068
      6          6           0       -2.209822   -0.282729   -0.282240
      7          7           0       -0.274087   -1.324278    0.080937
      8          1           0        3.356860   -1.034265   -0.127721
      9          1           0       -1.181711   -0.063276    1.530826
     10          1           0       -2.176222   -0.304419   -1.365158
     11          1           0       -3.179940   -0.370065    0.189265
     12          1           0       -0.374590   -1.481158   -0.921549
 ---------------------------------------------------------------------

 SCF Done:  E(RHF) =  -321.401807453     A.U. after    2 cycles

 The electronic state is 1-A.
 Alpha  occ. eigenvalues --  -20.60476 -15.66451 -11.37933 -11.32049 -11.30655
 Alpha  occ. eigenvalues --  -11.27536 -11.25650  -1.40727  -1.21919  -1.04771
 Alpha  occ. eigenvalues --   -0.98469  -0.91676  -0.81328  -0.73543  -0.70574
 Alpha  occ. eigenvalues --   -0.69215  -0.67056  -0.62505  -0.59782  -0.56460
 Alpha  occ. eigenvalues --   -0.50398  -0.46693  -0.43887  -0.39523  -0.27702
 Alpha virt. eigenvalues --   -0.01309   0.02972   0.03719   0.04062   0.05767
 Alpha virt. eigenvalues --    0.06493   0.07748   0.09703   0.10657   0.10842
 Alpha virt. eigenvalues --    0.12109   0.12265   0.13136   0.13406   0.14077

 Mulliken charges:
               1
     1  O   -0.349001
     2  C   -0.146399
     3  C    0.128979
     4  C    0.727265
     5  C    0.737886
     6  C    0.585026
     7  N   -0.771511
     8  H   -0.420970
     9  H   -0.185464
    10  H   -0.242773
    11  H   -0.238311
    12  H    0.175273
 Sum of Mulliken charges =  -0.00000

 Dipole moment (field-independent basis, Debye):
    X=             -2.1265    Y=             -1.4349    Z=             -0.6231  Tot=              2.6399

 Test job not archived.
 1\1\GINC-SE458\SP\RHF\Aug-CC-pVDZ\C5H5N1O1\OHZDE\09-Apr-2025\0\\#t hf
 aug-cc-pvdz iop(5/13=1,5/36=2,99/5=2) pseudo=read geom=check guess=(re
 ad,tcheck) scf=(maxcycle=1)\\title\\0,1\O,0,0.54693643,-1.6699865,1.46
 683762\C,0,0.4577416,-0.86789307,0.6144053\C,0,1.38220768,0.31655982,0
 .208056\C,0,2.50098103,0.80956643,0.31361593\C,0,-0.63231619,-0.454705
 01,-0.46381781\C,0,-1.96267303,-0.08256023,-0.22001047\N,0,-0.00378788
 ,0.86030854,-0.70740845\H,0,3.45954678,1.27227604,0.36358263\H,0,-0.51
 036493,-1.10722681,-1.3305235\H,0,-2.20264848,0.53507854,0.63745434\H,

 Normal termination of Gaussian 16 at Wed Apr  9 03:39:20 2025.
