 Gaussian 16, Revision C.01,

 ----------------------------------------------------------------------
 #t hf aug-cc-pvdz symm=none int=(grid=ultrafine) guess=(read,tcheck) s
 table=(opt,rrhf)
 ----------------------------------------------------------------------
 -----
 title
 -----
 Symbolic Z-matrix:
 Charge =  0 Multiplicity = 1

 SCF Done:  E(RHF) =  -320.303772010     A.U. after   16 cycles
 Normal termination of Gaussian 16 at Wed Apr  9 04:05:28 2025.
 Gaussian 16:  ES64L-G16RevC.01  3-Jul-2019

 ----------------------------------------------------------------------
 #t hf aug-cc-pvdz iop(5/13=1,5/36=2,99/5=2) pseudo=read geom=check gue
 ss=(read,tcheck) scf=(maxcycle=1)
 ----------------------------------------------------------------------
 -----
 title
 -----
 Structure from the checkpoint file:  "Grambow2020_wb97xd3_009364_forward_mol2.chk"
 Charge =  0 Multiplicity = 1

                         Standard orientation:
 ---------------------------------------------------------------------
 Center     Atomic      Atomic             Coordinates (Angstroms)
 Number     Number       Type             X           Y           Z
 ---------------------------------------------------------------------
      1          6           0       -2.943838    0.009918    0.000592
      2          6           0       -1.746300   -0.010140   -0.000838
      3          6           0       -0.326993   -0.012944   -0.000601
      4          6           0        0.523143   -1.070197   -0.000270
      5          8           0        1.782920   -0.650645    0.000491
      6          7           0        1.805291    0.723782    0.000456
      7          6           0        0.564102    1.099765   -0.000373
      8          1           0       -4.008212    0.024876    0.002476
      9          1           0        0.364832   -2.136384   -0.000513
     10          1           0        0.322304    2.151782   -0.000147
 ---------------------------------------------------------------------

 SCF Done:  E(RHF) =  -320.401692409     A.U. after    2 cycles

 The electronic state is 1-A.
 Alpha  occ. eigenvalues --  -20.68032 -15.70303 -11.34609 -11.30574 -11.28462
 Alpha  occ. eigenvalues --  -11.26998 -11.25827  -1.48229  -1.17022  -1.11191
 Alpha  occ. eigenvalues --   -1.03100  -0.88157  -0.83954  -0.79009  -0.73108
 Alpha  occ. eigenvalues --   -0.69336  -0.67656  -0.61461  -0.60372  -0.49771
 Alpha  occ. eigenvalues --   -0.49288  -0.42889  -0.41828  -0.35537
 Alpha virt. eigenvalues --    0.03057   0.03890   0.04344   0.07403   0.08738
 Alpha virt. eigenvalues --    0.09373   0.09399   0.10074   0.10628   0.11602
 Alpha virt. eigenvalues --    0.12522   0.14159   0.14439   0.14752   0.15931

 Mulliken charges:
               1
     1  C    0.506746
     2  C    0.500383
     3  C    0.035095
     4  C    0.566604
     5  O   -0.636510
     6  N   -0.300055
     7  C    0.623656
     8  H   -0.523382
     9  H   -0.391737
    10  H   -0.380799
 Sum of Mulliken charges =  -0.00000

 Dipole moment (field-independent basis, Debye):
    X=             -2.7319    Y=             -0.5568    Z=              0.0010  Tot=              2.7880

 Test job not archived.
 1\1\GINC-SE402\SP\RHF\Aug-CC-pVDZ\C5H3N1O1\OHZDE\09-Apr-2025\0\\#t hf
 aug-cc-pvdz iop(5/13=1,5/36=2,99/5=2) pseudo=read geom=check guess=(re
 ad,tcheck) scf=(maxcycle=1)\\title\\0,1\C,0,2.55442143,0.18441826,0.29
 114117\C,0,1.36586461,0.12006153,0.15812714\C,0,-0.0411441,0.02284533,
 -0.00098463\C,0,-0.97686096,1.00237667,0.07296594\O,0,-2.18862158,0.50
 106313,-0.1353183\N,0,-2.08979257,-0.85178208,-0.35801156\C,0,-0.82641
 203,-1.13390072,-0.27930555\H,0,3.61049823,0.24433708,0.41042574\H,0,-
 0.91379035,2.06179205,0.26132118\H,0,-0.49416269,-2.15121125,-0.420361

 Normal termination of Gaussian 16 at Wed Apr  9 04:05:31 2025.
