 Gaussian 16, Revision C.01,

 ----------------------------------------------------------------------
 #t hf aug-cc-pvdz symm=none int=(grid=ultrafine) guess=(read,tcheck) s
 table=(opt,rrhf)
 ----------------------------------------------------------------------
 -----
 title
 -----
 Symbolic Z-matrix:
 Charge =  0 Multiplicity = 1

 SCF Done:  E(RHF) =  -357.396265309     A.U. after   15 cycles
 Normal termination of Gaussian 16 at Wed Apr  9 16:34:47 2025.
 Gaussian 16:  ES64L-G16RevC.01  3-Jul-2019

 ----------------------------------------------------------------------
 #t hf aug-cc-pvdz iop(5/13=1,5/36=2,99/5=2) pseudo=read geom=check gue
 ss=(read,tcheck) scf=(maxcycle=1)
 ----------------------------------------------------------------------
 -----
 title
 -----
 Structure from the checkpoint file:  "Grambow2020_wb97xd3_008634_reverse_mol2.chk"
 Charge =  0 Multiplicity = 1

                         Standard orientation:
 ---------------------------------------------------------------------
 Center     Atomic      Atomic             Coordinates (Angstroms)
 Number     Number       Type             X           Y           Z
 ---------------------------------------------------------------------
      1          7           0       -0.978409    1.989195   -0.488849
      2          6           0       -1.198518    0.973601    0.111422
      3          6           0       -1.525498   -0.171640    0.686773
      4          6           0       -1.048114   -1.429325    0.116627
      5          6           0        2.129187    0.638671    0.170642
      6          8           0       -0.296363   -1.525797   -0.823868
      7          8           0        2.846140   -0.223847    0.200763
      8          1           0       -0.120758    2.500083   -0.308842
      9          1           0       -2.138789   -0.161432    1.576943
     10          1           0       -1.432154   -2.333699    0.625891
 ---------------------------------------------------------------------

 SCF Done:  E(RHF) =  -357.508928278     A.U. after    2 cycles

 The electronic state is 1-A.
 Alpha  occ. eigenvalues --  -20.68148 -20.56569 -15.68034 -11.37243 -11.37022
 Alpha  occ. eigenvalues --  -11.35485 -11.26245  -1.49284  -1.35883  -1.25582
 Alpha  occ. eigenvalues --   -1.06552  -0.86859  -0.81611  -0.78597  -0.70788
 Alpha  occ. eigenvalues --   -0.68820  -0.65826  -0.65771  -0.62901  -0.59450
 Alpha  occ. eigenvalues --   -0.55818  -0.54818  -0.50995  -0.44587  -0.37418
 Alpha virt. eigenvalues --    0.02911   0.03941   0.05103   0.06993   0.07995
 Alpha virt. eigenvalues --    0.08363   0.09308   0.10463   0.11576   0.12019
 Alpha virt. eigenvalues --    0.12239   0.13777   0.14334   0.14660   0.15654

 Mulliken charges:
               1
     1  N   -0.119513
     2  C   -0.513252
     3  C    0.987562
     4  C    0.443647
     5  C    0.209605
     6  O   -0.457626
     7  O   -0.216760
     8  H    0.138492
     9  H   -0.340623
    10  H   -0.131533
 Sum of Mulliken charges =  -0.00000

 Dipole moment (field-independent basis, Debye):
    X=             -1.0260    Y=              2.0169    Z=              3.0885  Tot=              3.8287

 Test job not archived.
 1\1\GINC-SE173\SP\RHF\Aug-CC-pVDZ\C4H3N1O2\OHZDE\09-Apr-2025\0\\#t hf
 aug-cc-pvdz iop(5/13=1,5/36=2,99/5=2) pseudo=read geom=check guess=(re
 ad,tcheck) scf=(maxcycle=1)\\title\\0,1\N,0,2.1227646,-0.11892953,0.40
 306192\C,0,1.06683334,-0.64893348,0.19256264\C,0,-0.094921,-1.27081186
 ,0.07803849\C,0,-1.29764281,-0.66620419,0.64605578\C,0,0.22305852,2.26
 500027,-1.21681234\O,0,-1.34925518,0.42181354,1.16808963\O,0,-0.731510
 69,2.83602935,-1.36375155\H,0,2.45952484,0.59461077,-0.23445374\H,0,-0
 .14005527,-2.21821086,-0.44064407\H,0,-2.20503135,-1.29408703,0.561576

 Normal termination of Gaussian 16 at Wed Apr  9 16:34:52 2025.
