 Gaussian 16, Revision C.01,

 ----------------------------------------------------------------------
 #t hf aug-cc-pvdz symm=none int=(grid=ultrafine) guess=(read,tcheck) s
 table=(opt,rrhf)
 ----------------------------------------------------------------------
 -----
 title
 -----
 Symbolic Z-matrix:
 Charge =  0 Multiplicity = 1

 SCF Done:  E(RHF) =  -322.644709856     A.U. after   15 cycles
 Normal termination of Gaussian 16 at Wed Apr  9 03:34:23 2025.
 Gaussian 16:  ES64L-G16RevC.01  3-Jul-2019

 ----------------------------------------------------------------------
 #t hf aug-cc-pvdz iop(5/13=1,5/36=2,99/5=2) pseudo=read geom=check gue
 ss=(read,tcheck) scf=(maxcycle=1)
 ----------------------------------------------------------------------
 -----
 title
 -----
 Structure from the checkpoint file:  "Grambow2020_wb97xd3_007129_reverse_mol2.chk"
 Charge =  0 Multiplicity = 1

                         Standard orientation:
 ---------------------------------------------------------------------
 Center     Atomic      Atomic             Coordinates (Angstroms)
 Number     Number       Type             X           Y           Z
 ---------------------------------------------------------------------
      1          7           0       -2.280202    0.123139   -0.166473
      2          6           0       -1.041667    0.024572    0.037293
      3          8           0       -0.395021   -1.163994   -0.062187
      4          6           0        1.024519   -1.228711    0.146738
      5          6           0        1.905078   -0.110647   -0.119592
      6          6           0        1.171692    1.146178   -0.285457
      7          6           0       -0.198666    1.213128    0.391028
      8          1           0       -2.680720   -0.788109   -0.380961
      9          1           0        1.345917   -2.156295   -0.327505
     10          1           0        1.256931   -1.360832    1.226284
     11          1           0       -0.054996    1.228712    1.476377
     12          1           0        1.056522    1.123864   -1.389773
     13          1           0        1.786827    2.025447   -0.088946
     14          1           0       -0.754636    2.110074    0.127279
 ---------------------------------------------------------------------

 SCF Done:  E(RHF) =  -322.740846395     A.U. after    2 cycles

 The electronic state is 1-A.
 Alpha  occ. eigenvalues --  -20.61625 -15.59868 -11.35483 -11.32145 -11.28711
 Alpha  occ. eigenvalues --  -11.26769 -11.26328  -1.39689  -1.17721  -1.11295
 Alpha  occ. eigenvalues --   -1.01992  -0.92893  -0.83875  -0.72658  -0.70824
 Alpha  occ. eigenvalues --   -0.68929  -0.67604  -0.61246  -0.60041  -0.58403
 Alpha  occ. eigenvalues --   -0.54771  -0.52384  -0.50479  -0.43423  -0.40579
 Alpha  occ. eigenvalues --   -0.36851
 Alpha virt. eigenvalues --    0.03111   0.04051   0.04271   0.05276   0.06374
 Alpha virt. eigenvalues --    0.06496   0.06872   0.06988   0.09112   0.11149
 Alpha virt. eigenvalues --    0.12263   0.13545   0.14113   0.14322   0.14739

 Mulliken charges:
               1
     1  N   -0.412334
     2  C    0.666531
     3  O   -0.651909
     4  C    0.816721
     5  C   -0.819041
     6  C    0.242516
     7  C    0.171668
     8  H    0.001224
     9  H   -0.183812
    10  H    0.109046
    11  H    0.038389
    12  H    0.137868
    13  H   -0.071480
    14  H   -0.045388
 Sum of Mulliken charges =  -0.00000

 Dipole moment (field-independent basis, Debye):
    X=              1.4527    Y=              0.0990    Z=              0.5351  Tot=              1.5513

 Test job not archived.
 1\1\GINC-SE150\SP\RHF\Aug-CC-pVDZ\C5H7N1O1\OHZDE\09-Apr-2025\0\\#t hf
 aug-cc-pvdz iop(5/13=1,5/36=2,99/5=2) pseudo=read geom=check guess=(re
 ad,tcheck) scf=(maxcycle=1)\\title\\0,1\N,0,1.71770875,-1.61013468,0.1
 6375615\C,0,0.92893231,-0.67986037,-0.14869364\O,0,1.34527071,0.400849
 13,-0.85542236\C,0,0.40698588,1.42552575,-1.21955392\C,0,-1.00201707,1
 .15911081,-1.4198448\C,0,-1.40063061,-0.146993,-0.8905264\C,0,-0.52210
 581,-0.70971591,0.22819231\H,0,2.65906291,-1.40663573,-0.16674856\H,0,
 0.86918716,1.96111232,-2.04909119\H,0,0.31268733,2.17852274,-0.4065383

 Normal termination of Gaussian 16 at Wed Apr  9 03:34:28 2025.
