 Gaussian 16, Revision C.01,

 ----------------------------------------------------------------------
 #t hf aug-cc-pvdz symm=none int=(grid=ultrafine) guess=(read,tcheck) s
 table=(opt,rrhf)
 ----------------------------------------------------------------------
 -----
 title
 -----
 Symbolic Z-matrix:
 Charge =  0 Multiplicity = 1

 SCF Done:  E(RHF) =  -308.897522051     A.U. after   15 cycles

 1\1\GINC-SE041\Stability\RHF\Aug-CC-pVDZ\C6H12O1\OHZDE\09-Apr-2025\0\\
 #t hf aug-cc-pvdz symm=none int=(grid=ultrafine) guess=(read,tcheck) s
 table=(opt,rrhf)\\title\\0,1\C,0,-2.00814144,-1.13671426,-0.7945456\C,
 0,-0.48082167,0.40167305,-0.13188114\C,0,-1.36225736,1.19950515,0.7731
 155\C,0,0.35661015,-0.55793523,0.60466123\O,0,1.21345687,-1.41228248,-
 0.1464509\C,0,1.82684069,-0.37437637,0.57709626\C,0,2.52648037,0.70044
 607,-0.20074531\H,0,-2.89009573,-0.78215667,-1.32614907\H,0,-1.5717036
 5,-2.01812823,-1.2588716\H,0,-2.22957367,-1.31243849,0.25218882\H,0,-1

 Normal termination of Gaussian 16 at Wed Apr  9 16:02:26 2025.
 Gaussian 16:  ES64L-G16RevC.01  3-Jul-2019

 ----------------------------------------------------------------------
 #t hf aug-cc-pvdz iop(5/13=1,5/36=2,99/5=2) pseudo=read geom=check gue
 ss=(read,tcheck) scf=(maxcycle=1)
 ----------------------------------------------------------------------
 -----
 title
 -----
 Structure from the checkpoint file:  "Grambow2020_wb97xd3_007707_reverse_mol1.chk"
 Charge =  0 Multiplicity = 1

                         Standard orientation:
 ---------------------------------------------------------------------
 Center     Atomic      Atomic             Coordinates (Angstroms)
 Number     Number       Type             X           Y           Z
 ---------------------------------------------------------------------
      1          6           0       -2.338524   -1.059527   -0.395291
      2          6           0       -0.692451    0.498756   -0.369503
      3          6           0       -1.467954    1.616294    0.248711
      4          6           0        0.142695   -0.213008    0.610578
      5          8           0        0.901271   -1.329849    0.157264
      6          6           0        1.615128   -0.155286    0.453609
      7          6           0        2.314559    0.540633   -0.676113
      8          1           0       -3.235217   -0.843199   -0.974343
      9          1           0       -1.980681   -2.074811   -0.550574
     10          1           0       -2.496894   -0.855046    0.657643
     11          1           0       -1.502472   -0.395498   -0.967783
     12          1           0       -1.841818    1.449051    1.269861
     13          1           0       -2.288835    1.951146   -0.385310
     14          1           0       -0.756209    2.448856    0.300761
     15          1           0       -0.219398   -0.340906    1.636821
     16          1           0        2.178199   -0.212817    1.385062
     17          1           0        1.674760    0.580331   -1.555045
     18          1           0        3.234152    0.006386   -0.923417
     19          1           0        2.583533    1.558132   -0.383744
 ---------------------------------------------------------------------

 SCF Done:  E(RHF) =  -308.996139471     A.U. after    2 cycles

 The electronic state is 1-A.
 Alpha  occ. eigenvalues --  -20.58128 -11.30116 -11.29077 -11.25809 -11.24999
 Alpha  occ. eigenvalues --  -11.23755 -11.22591  -1.38381  -1.05693  -1.00198
 Alpha  occ. eigenvalues --   -0.95291  -0.91134  -0.83479  -0.74860  -0.70376
 Alpha  occ. eigenvalues --   -0.64017  -0.60917  -0.59852  -0.57986  -0.57404
 Alpha  occ. eigenvalues --   -0.56114  -0.55970  -0.52927  -0.51458  -0.51075
 Alpha  occ. eigenvalues --   -0.45967  -0.43069  -0.31842
 Alpha virt. eigenvalues --    0.03391   0.04103   0.04550   0.04749   0.05982
 Alpha virt. eigenvalues --    0.06162   0.06550   0.07202   0.07375   0.08625
 Alpha virt. eigenvalues --    0.09000   0.10167   0.11304   0.12470   0.13211

 Mulliken charges:
               1
     1  C    0.493709
     2  C   -1.040001
     3  C    0.556545
     4  C    1.446580
     5  O   -0.801099
     6  C   -0.186011
     7  C    0.391983
     8  H   -0.143384
     9  H   -0.091020
    10  H   -0.073763
    11  H    0.116515
    12  H   -0.062382
    13  H   -0.061377
    14  H   -0.029313
    15  H   -0.382781
    16  H   -0.273845
    17  H    0.036061
    18  H    0.036037
    19  H    0.067547
 Sum of Mulliken charges =  -0.00000

 Dipole moment (field-independent basis, Debye):
    X=             -0.8416    Y=              1.6237    Z=              1.4255  Tot=              2.3188

 Test job not archived.
 1\1\GINC-SE041\SP\RHF\Aug-CC-pVDZ\C6H12O1\OHZDE\09-Apr-2025\0\\#t hf a
 ug-cc-pvdz iop(5/13=1,5/36=2,99/5=2) pseudo=read geom=check guess=(rea
 d,tcheck) scf=(maxcycle=1)\\title\\0,1\C,0,-2.00814144,-1.13671426,-0.
 7945456\C,0,-0.48082167,0.40167305,-0.13188114\C,0,-1.36225736,1.19950
 515,0.7731155\C,0,0.35661015,-0.55793523,0.60466123\O,0,1.21345687,-1.
 41228248,-0.1464509\C,0,1.82684069,-0.37437637,0.57709626\C,0,2.526480
 37,0.70044607,-0.20074531\H,0,-2.89009573,-0.78215667,-1.32614907\H,0,
 -1.57170365,-2.01812823,-1.2588716\H,0,-2.22957367,-1.31243849,0.25218

 Normal termination of Gaussian 16 at Wed Apr  9 16:02:33 2025.
