 Gaussian 16, Revision C.01,

 ----------------------------------------------------------------------
 #t hf aug-cc-pvdz symm=none int=(grid=ultrafine) guess=(read,tcheck) s
 table=(opt,rrhf)
 ----------------------------------------------------------------------
 -----
 title
 -----
 Symbolic Z-matrix:
 Charge =  0 Multiplicity = 1

 SCF Done:  E(RHF) =  -302.047141499     A.U. after   14 cycles
 Normal termination of Gaussian 16 at Wed Apr  9 14:17:18 2025.
 Gaussian 16:  ES64L-G16RevC.01  3-Jul-2019

 ----------------------------------------------------------------------
 #t hf aug-cc-pvdz iop(5/13=1,5/36=2,99/5=2) pseudo=read geom=check gue
 ss=(read,tcheck) scf=(maxcycle=1)
 ----------------------------------------------------------------------
 -----
 title
 -----
 Structure from the checkpoint file:  "Grambow2020_b97d3_006947_reverse_mol2.chk"
 Charge =  0 Multiplicity = 1

                         Standard orientation:
 ---------------------------------------------------------------------
 Center     Atomic      Atomic             Coordinates (Angstroms)
 Number     Number       Type             X           Y           Z
 ---------------------------------------------------------------------
      1          6           0       -1.553949    1.283900    0.259991
      2          7           0        1.880796    1.083798   -0.122527
      3          6           0        1.796881   -0.133866    0.033216
      4          8           0        1.647713   -1.298623    0.162902
      5          7           0       -1.084988    0.066516   -0.392828
      6          6           0       -1.812056   -1.126328    0.027177
      7          1           0       -2.636716    1.491583    0.123777
      8          1           0       -0.976481    2.137865   -0.116662
      9          1           0       -1.364566    1.205177    1.340828
     10          1           0        2.775849    1.551618   -0.020590
     11          1           0       -1.168666    0.176054   -1.404843
     12          1           0       -2.912315   -1.071113   -0.116459
     13          1           0       -1.429528   -1.997411   -0.521345
     14          1           0       -1.625189   -1.299225    1.097249
 ---------------------------------------------------------------------

 SCF Done:  E(RHF) =  -302.144272017     A.U. after    2 cycles

 The electronic state is 1-A.
 Alpha  occ. eigenvalues --  -20.62744 -15.64884 -15.60416 -11.42653 -11.24952
 Alpha  occ. eigenvalues --  -11.24930  -1.41857  -1.21393  -1.16123  -0.93567
 Alpha  occ. eigenvalues --   -0.83927  -0.79071  -0.72711  -0.65500  -0.64865
 Alpha  occ. eigenvalues --   -0.64106  -0.60070  -0.58608  -0.53341  -0.50404
 Alpha  occ. eigenvalues --   -0.50137  -0.47538  -0.43976  -0.36236
 Alpha virt. eigenvalues --    0.03185   0.04023   0.04936   0.05009   0.06733
 Alpha virt. eigenvalues --    0.07750   0.08237   0.08297   0.10452   0.11062
 Alpha virt. eigenvalues --    0.13447   0.13620   0.14786   0.15194   0.16061

 Mulliken charges:
               1
     1  C    0.767361
     2  N    0.044761
     3  C    0.086999
     4  O   -0.199994
     5  N   -0.597078
     6  C    0.741137
     7  H   -0.092425
     8  H   -0.213248
     9  H   -0.177988
    10  H    0.066416
    11  H    0.025567
    12  H   -0.108029
    13  H   -0.194435
    14  H   -0.149044
 Sum of Mulliken charges =  -0.00000

 Dipole moment (field-independent basis, Debye):
    X=              0.4743    Y=              1.7358    Z=             -0.3666  Tot=              1.8364

 Test job not archived.
 1\1\GINC-SE226\SP\RHF\Aug-CC-pVDZ\C3H8N2O1\OHZDE\09-Apr-2025\0\\#t hf
 aug-cc-pvdz iop(5/13=1,5/36=2,99/5=2) pseudo=read geom=check guess=(re
 ad,tcheck) scf=(maxcycle=1)\\title\\0,1\C,0,-0.60235019,1.23443281,0.6
 8939233\N,0,-1.81927543,-1.87479806,-0.22472504\C,0,-0.81255217,-2.032
 56734,-0.91437672\O,0,0.18693941,-2.13527459,-1.53582299\N,0,0.4232800
 3,0.21968961,0.47374861\C,0,1.60605889,0.73498898,-0.20699235\H,0,-0.2
 5669617,2.12533924,1.25585532\H,0,-1.44951131,0.78081266,1.21961815\H,
 0,-0.96973618,1.58394876,-0.28689526\H,0,-2.63740976,-2.4568179,-0.373

 Normal termination of Gaussian 16 at Wed Apr  9 14:17:22 2025.
