 Gaussian 16, Revision C.01,

 ----------------------------------------------------------------------
 #t hf aug-cc-pvdz symm=none int=(grid=ultrafine) guess=(read,tcheck) s
 table=(opt,rrhf)
 ----------------------------------------------------------------------
 -----
 title
 -----
 Symbolic Z-matrix:
 Charge =  0 Multiplicity = 1

 SCF Done:  E(RHF) =  -322.620577356     A.U. after   16 cycles
 Normal termination of Gaussian 16 at Wed Apr  9 15:35:00 2025.
 Gaussian 16:  ES64L-G16RevC.01  3-Jul-2019

 ----------------------------------------------------------------------
 #t hf aug-cc-pvdz iop(5/13=1,5/36=2,99/5=2) pseudo=read geom=check gue
 ss=(read,tcheck) scf=(maxcycle=1)
 ----------------------------------------------------------------------
 -----
 title
 -----
 Structure from the checkpoint file:  "Grambow2020_wb97xd3_007011_forward_mol1.chk"
 Charge =  0 Multiplicity = 1

                         Standard orientation:
 ---------------------------------------------------------------------
 Center     Atomic      Atomic             Coordinates (Angstroms)
 Number     Number       Type             X           Y           Z
 ---------------------------------------------------------------------
      1          6           0       -1.496783   -0.984484    0.721768
      2          6           0       -0.111697   -0.758275   -0.684180
      3          6           0       -1.214642    0.210999   -0.602865
      4          6           0       -0.686015    1.367997   -0.040581
      5          7           0        0.612413    1.106249    0.270446
      6          6           0        1.054879   -0.173117   -0.096645
      7          8           0        2.187438   -0.602553    0.106319
      8          1           0       -2.549859   -0.727036    0.834958
      9          1           0       -0.933866   -0.667407    1.591738
     10          1           0       -1.430768   -2.059550    0.575853
     11          1           0       -0.131565   -1.703619   -1.196596
     12          1           0       -2.099114    0.192634   -1.220276
     13          1           0       -1.145775    2.325347    0.132308
     14          1           0        1.230093    1.737599    0.753366
 ---------------------------------------------------------------------

 SCF Done:  E(RHF) =  -322.718657539     A.U. after    2 cycles

 The electronic state is 1-A.
 Alpha  occ. eigenvalues --  -20.48590 -15.68093 -11.33082 -11.31473 -11.28207
 Alpha  occ. eigenvalues --  -11.28075 -11.26246  -1.31505  -1.24083  -1.09563
 Alpha  occ. eigenvalues --   -0.96663  -0.94774  -0.81629  -0.79930  -0.71005
 Alpha  occ. eigenvalues --   -0.65466  -0.63251  -0.59895  -0.59353  -0.58445
 Alpha  occ. eigenvalues --   -0.58207  -0.57246  -0.48267  -0.43590  -0.40852
 Alpha  occ. eigenvalues --   -0.24917
 Alpha virt. eigenvalues --    0.02142   0.03339   0.03644   0.04479   0.06125
 Alpha virt. eigenvalues --    0.06903   0.07178   0.07644   0.09913   0.11022
 Alpha virt. eigenvalues --    0.12434   0.12860   0.13103   0.13572   0.14648

 Mulliken charges:
               1
     1  C    0.484841
     2  C    0.469156
     3  C    0.369198
     4  C    0.666989
     5  N   -0.374481
     6  C    0.388852
     7  O   -0.607797
     8  H   -0.060187
     9  H   -0.105210
    10  H   -0.098809
    11  H   -0.347977
    12  H   -0.366322
    13  H   -0.302236
    14  H   -0.116016
 Sum of Mulliken charges =  -0.00000

 Dipole moment (field-independent basis, Debye):
    X=             -6.3169    Y=              1.7613    Z=              0.5819  Tot=              6.5836

 Test job not archived.
 1\1\GINC-SE232\SP\RHF\Aug-CC-pVDZ\C5H7N1O1\OHZDE\09-Apr-2025\0\\#t hf
 aug-cc-pvdz iop(5/13=1,5/36=2,99/5=2) pseudo=read geom=check guess=(re
 ad,tcheck) scf=(maxcycle=1)\\title\\0,1\C,0,-1.35247086,0.38203795,0.5
 9931935\C,0,-0.30925475,0.00696847,-1.04911834\C,0,0.18663043,1.016711
 92,-0.10196038\C,0,1.24938315,0.43370027,0.57988164\N,0,1.34847319,-0.
 85178149,0.14527708\C,0,0.43655658,-1.20017998,-0.8618662\O,0,0.359968
 28,-2.31249229,-1.376836\H,0,-1.49301345,1.23582099,1.26216437\H,0,-1.
 12330888,-0.5085928,1.17248791\H,0,-2.26304177,0.25778702,0.01894209\H

 Normal termination of Gaussian 16 at Wed Apr  9 15:35:05 2025.
