 Gaussian 16, Revision C.01,

 ----------------------------------------------------------------------
 #t hf aug-cc-pvdz symm=none int=(grid=ultrafine) guess=(read,tcheck) s
 table=(opt,rrhf)
 ----------------------------------------------------------------------
 -----
 title
 -----
 Symbolic Z-matrix:
 Charge =  0 Multiplicity = 1

 SCF Done:  E(RHF) =  -359.582369805     A.U. after   16 cycles
 Normal termination of Gaussian 16 at Wed Apr  9 15:39:59 2025.
 Gaussian 16:  ES64L-G16RevC.01  3-Jul-2019

 ----------------------------------------------------------------------
 #t hf aug-cc-pvdz iop(5/13=1,5/36=2,99/5=2) pseudo=read geom=check gue
 ss=(read,tcheck) scf=(maxcycle=1)
 ----------------------------------------------------------------------
 -----
 title
 -----
 Structure from the checkpoint file:  "Grambow2020_wb97xd3_007275_forward_mol1.chk"
 Charge =  0 Multiplicity = 1

                         Standard orientation:
 ---------------------------------------------------------------------
 Center     Atomic      Atomic             Coordinates (Angstroms)
 Number     Number       Type             X           Y           Z
 ---------------------------------------------------------------------
      1          8           0       -1.894775   -0.909900   -0.233062
      2          6           0       -0.693530   -0.553677    0.132769
      3          6           0        0.549610   -1.369817   -0.166860
      4          7           0        1.640296   -0.509443    0.266751
      5          6           0        1.318871    0.850876   -0.146663
      6          6           0       -0.185220    0.922292    0.013843
      7          8           0       -0.883793    1.887694    0.003864
      8          1           0       -1.497734   -0.767897    1.118275
      9          1           0       -0.655766   -0.558359    1.560258
     10          1           0        0.558759   -2.336130    0.333453
     11          1           0        0.501002   -1.542548   -1.255285
     12          1           0        2.542741   -0.821275   -0.055698
     13          1           0        1.545503    1.070006   -1.202416
     14          1           0        1.813574    1.601905    0.469209
 ---------------------------------------------------------------------

 SCF Done:  E(RHF) =  -359.690907052     A.U. after    2 cycles

 The electronic state is 1-A.
 Alpha  occ. eigenvalues --  -20.59605 -20.53141 -15.64916 -11.39100 -11.36535
 Alpha  occ. eigenvalues --  -11.29982 -11.29962  -1.39380  -1.33102  -1.23717
 Alpha  occ. eigenvalues --   -1.01471  -1.00135  -0.86509  -0.79384  -0.73412
 Alpha  occ. eigenvalues --   -0.71587  -0.66703  -0.65396  -0.63585  -0.61450
 Alpha  occ. eigenvalues --   -0.59709  -0.57320  -0.54414  -0.50177  -0.42652
 Alpha  occ. eigenvalues --   -0.41332  -0.39485
 Alpha virt. eigenvalues --    0.02387   0.02910   0.03831   0.04591   0.06572
 Alpha virt. eigenvalues --    0.06924   0.07416   0.08183   0.09465   0.11227
 Alpha virt. eigenvalues --    0.12722   0.13073   0.13976   0.14178   0.14525

 Mulliken charges:
               1
     1  O   -0.858079
     2  C    0.021668
     3  C    0.975993
     4  N   -0.579449
     5  C    0.691882
     6  C   -0.067459
     7  O   -0.426029
     8  H    0.022218
     9  H    0.340023
    10  H   -0.083347
    11  H    0.001572
    12  H   -0.038755
    13  H    0.041943
    14  H   -0.042179
 Sum of Mulliken charges =  -0.00000

 Dipole moment (field-independent basis, Debye):
    X=              5.5981    Y=             -1.7882    Z=              0.8624  Tot=              5.9397

 Test job not archived.
 1\1\GINC-SE168\SP\RHF\Aug-CC-pVDZ\C4H7N1O2\OHZDE\09-Apr-2025\0\\#t hf
 aug-cc-pvdz iop(5/13=1,5/36=2,99/5=2) pseudo=read geom=check guess=(re
 ad,tcheck) scf=(maxcycle=1)\\title\\0,1\O,0,2.34972908,-0.13225902,-0.
 27004829\C,0,1.06769563,-0.05067002,-0.03885439\C,0,0.23057438,1.16671
 983,-0.38301477\N,0,-1.13295772,0.73561605,-0.11322371\C,0,-1.26649566
 ,-0.63206716,-0.59933601\C,0,0.08984223,-1.24197254,-0.31382814\O,0,0.
 4017881,-2.39188308,-0.33617255\H,0,1.78361365,-0.1773179,1.02663956\H
 ,0,0.87892187,-0.09011491,1.37605901\H,0,0.50679768,2.05174597,0.18671

 Normal termination of Gaussian 16 at Wed Apr  9 15:40:04 2025.
