 Gaussian 16, Revision C.01,

 ----------------------------------------------------------------------
 #t hf aug-cc-pvdz symm=none int=(grid=ultrafine) guess=(read,tcheck) s
 table=(opt,rrhf)
 ----------------------------------------------------------------------
 -----
 title
 -----
 Symbolic Z-matrix:
 Charge =  0 Multiplicity = 1

 SCF Done:  E(RHF) =  -321.361740880     A.U. after   17 cycles
 Normal termination of Gaussian 16 at Wed Apr  9 15:52:56 2025.
 Gaussian 16:  ES64L-G16RevC.01  3-Jul-2019

 ----------------------------------------------------------------------
 #t hf aug-cc-pvdz iop(5/13=1,5/36=2,99/5=2) pseudo=read geom=check gue
 ss=(read,tcheck) scf=(maxcycle=1)
 ----------------------------------------------------------------------
 -----
 title
 -----
 Structure from the checkpoint file:  "Grambow2020_wb97xd3_007501_reverse_mol1.chk"
 Charge =  0 Multiplicity = 1

                         Standard orientation:
 ---------------------------------------------------------------------
 Center     Atomic      Atomic             Coordinates (Angstroms)
 Number     Number       Type             X           Y           Z
 ---------------------------------------------------------------------
      1          8           0        0.419448    1.785097    0.256386
      2          6           0        0.421433    0.619955   -0.089372
      3          6           0        1.611496   -0.217020   -0.043045
      4          6           0        2.562199   -0.941726    0.036108
      5          6           0       -0.777360    0.067141   -0.758155
      6          6           0       -1.593918   -1.208061    0.292385
      7          7           0       -1.993726    0.185629   -0.064693
      8          1           0        3.420136   -1.569816    0.102103
      9          1           0       -0.685326   -1.453819   -0.374752
     10          1           0       -1.276937   -1.310865    1.324655
     11          1           0       -2.328397   -1.932423   -0.047162
     12          1           0       -1.872077    0.765000    0.769393
 ---------------------------------------------------------------------

 SCF Done:  E(RHF) =  -321.457390530     A.U. after    2 cycles

 The electronic state is 1-A.
 Alpha  occ. eigenvalues --  -20.58889 -15.66372 -11.38104 -11.32924 -11.32098
 Alpha  occ. eigenvalues --  -11.28462 -11.27525  -1.38138  -1.26536  -1.07213
 Alpha  occ. eigenvalues --   -0.96350  -0.95032  -0.83648  -0.75864  -0.73289
 Alpha  occ. eigenvalues --   -0.68837  -0.65554  -0.59975  -0.58868  -0.57193
 Alpha  occ. eigenvalues --   -0.49485  -0.47849  -0.43686  -0.43654  -0.34794
 Alpha virt. eigenvalues --    0.02521   0.03271   0.04459   0.04887   0.06097
 Alpha virt. eigenvalues --    0.06877   0.08433   0.10210   0.10503   0.10952
 Alpha virt. eigenvalues --    0.11441   0.12695   0.13091   0.13799   0.14556

 Mulliken charges:
               1
     1  O   -0.555695
     2  C    0.353398
     3  C   -0.417699
     4  C    1.064963
     5  C   -0.225928
     6  C    0.772981
     7  N   -0.525413
     8  H   -0.452512
     9  H    0.117922
    10  H   -0.092646
    11  H   -0.156857
    12  H    0.117485
 Sum of Mulliken charges =  -0.00000

 Dipole moment (field-independent basis, Debye):
    X=              0.5111    Y=             -4.6515    Z=              2.1226  Tot=              5.1384

 Test job not archived.
 1\1\GINC-SE454\SP\RHF\Aug-CC-pVDZ\C5H5N1O1\OHZDE\09-Apr-2025\0\\#t hf
 aug-cc-pvdz iop(5/13=1,5/36=2,99/5=2) pseudo=read geom=check guess=(re
 ad,tcheck) scf=(maxcycle=1)\\title\\0,1\O,0,0.60887125,1.81278053,1.25
 171379\C,0,0.65783894,0.8933245,0.45842355\C,0,1.75317008,-0.06480904,
 0.4244628\C,0,2.61424388,-0.89767284,0.4106505\C,0,-0.33179988,0.83933
 256,-0.64052039\C,0,-1.45862855,-0.6062122,-0.44765287\N,0,-1.68626368
 ,0.85845889,-0.2669765\H,0,3.39387061,-1.62365588,0.40433167\H,0,-0.41
 225964,-0.70409556,-0.92361579\H,0,-1.4432568,-1.15522004,0.48775055\H

 Normal termination of Gaussian 16 at Wed Apr  9 15:53:00 2025.
