 Gaussian 16, Revision C.01,

 ----------------------------------------------------------------------
 #t hf aug-cc-pvdz symm=none int=(grid=ultrafine) guess=(read,tcheck) s
 table=(opt,rrhf)
 ----------------------------------------------------------------------
 -----
 title
 -----
 Symbolic Z-matrix:
 Charge =  0 Multiplicity = 1

 SCF Done:  E(RHF) =  -301.624083688     A.U. after   17 cycles
 Normal termination of Gaussian 16 at Wed Apr  9 03:46:32 2025.
 Gaussian 16:  ES64L-G16RevC.01  3-Jul-2019

 ----------------------------------------------------------------------
 #t hf aug-cc-pvdz iop(5/13=1,5/36=2,99/5=2) pseudo=read geom=check gue
 ss=(read,tcheck) scf=(maxcycle=1)
 ----------------------------------------------------------------------
 -----
 title
 -----
 Structure from the checkpoint file:  "Grambow2020_wb97xd3_007934_reverse_mol2.chk"
 Charge =  0 Multiplicity = 1

                         Standard orientation:
 ---------------------------------------------------------------------
 Center     Atomic      Atomic             Coordinates (Angstroms)
 Number     Number       Type             X           Y           Z
 ---------------------------------------------------------------------
      1          6           0        1.182421    0.942821   -0.008323
      2          6           0        1.528003   -0.536475    0.325690
      3          6           0        0.556024   -1.255529   -0.560766
      4          7           0       -0.580738   -1.322057   -0.089460
      5          6           0       -1.545931   -0.529793    0.214019
      6          6           0       -1.288684    0.887882   -0.002620
      7          7           0       -0.164620    1.466179   -0.158595
      8          1           0        1.715824    1.239039   -0.912500
      9          1           0        1.622899    1.535346    0.800233
     10          1           0        2.572878   -0.715095    0.079994
     11          1           0        1.350624   -0.750058    1.382335
     12          1           0       -2.471535   -0.910192    0.624240
     13          1           0       -2.164177    1.538677   -0.045916
 ---------------------------------------------------------------------

 SCF Done:  E(RHF) =  -301.712434900     A.U. after    2 cycles

 The electronic state is 1-A.
 Alpha  occ. eigenvalues --  -15.69345 -15.63552 -11.30141 -11.30047 -11.29272
 Alpha  occ. eigenvalues --  -11.28842 -11.26644  -1.29100  -1.19247  -1.08179
 Alpha  occ. eigenvalues --   -0.97329  -0.92854  -0.80118  -0.71589  -0.70618
 Alpha  occ. eigenvalues --   -0.67160  -0.61980  -0.61206  -0.56389  -0.56050
 Alpha  occ. eigenvalues --   -0.51904  -0.48757  -0.42483  -0.38755  -0.31563
 Alpha virt. eigenvalues --    0.03232   0.03623   0.04498   0.04671   0.06035
 Alpha virt. eigenvalues --    0.06974   0.07340   0.09020   0.10061   0.11206
 Alpha virt. eigenvalues --    0.12008   0.12565   0.13569   0.14169   0.14455

 Mulliken charges:
               1
     1  C    0.476497
     2  C    0.384784
     3  C   -0.218599
     4  N   -0.100161
     5  C    0.533216
     6  C    0.425791
     7  N   -0.502532
     8  H   -0.145726
     9  H   -0.074176
    10  H   -0.031614
    11  H   -0.139506
    12  H   -0.310552
    13  H   -0.297421
 Sum of Mulliken charges =  -0.00000

 Dipole moment (field-independent basis, Debye):
    X=             -0.0545    Y=             -0.0618    Z=              2.0420  Tot=              2.0437

 Test job not archived.
 1\1\GINC-SE126\SP\RHF\Aug-CC-pVDZ\C5H6N2\OHZDE\09-Apr-2025\0\\#t hf au
 g-cc-pvdz iop(5/13=1,5/36=2,99/5=2) pseudo=read geom=check guess=(read
 ,tcheck) scf=(maxcycle=1)\\title\\0,1\C,0,-1.19324741,-0.50963937,-0.1
 2178699\C,0,-1.11166106,1.01355835,0.18238637\C,0,0.01966677,1.4156631
 7,-0.71538666\N,0,1.13126801,1.17174178,-0.24249391\C,0,1.83815153,0.1
 4783171,0.07891543\C,0,1.19517405,-1.1458218,-0.11068705\N,0,-0.046009
 92,-1.39067189,-0.25828904\H,0,-1.7907366,-0.66292225,-1.02140431\H,0,
 -1.77910365,-0.93997898,0.69702298\H,0,-2.066004,1.47162722,-0.0694837

 Normal termination of Gaussian 16 at Wed Apr  9 03:46:37 2025.
