 Gaussian 16, Revision C.01,

 ----------------------------------------------------------------------
 #t hf aug-cc-pvdz symm=none int=(grid=ultrafine) guess=(read,tcheck) s
 table=(opt,rrhf)
 ----------------------------------------------------------------------
 -----
 title
 -----
 Symbolic Z-matrix:
 Charge =  0 Multiplicity = 1

 SCF Done:  E(RHF) =  -304.383918994     A.U. after   17 cycles
 Normal termination of Gaussian 16 at Wed Apr  9 14:17:07 2025.
 Gaussian 16:  ES64L-G16RevC.01  3-Jul-2019

 ----------------------------------------------------------------------
 #t hf aug-cc-pvdz iop(5/13=1,5/36=2,99/5=2) pseudo=read geom=check gue
 ss=(read,tcheck) scf=(maxcycle=1)
 ----------------------------------------------------------------------
 -----
 title
 -----
 Structure from the checkpoint file:  "Grambow2020_b97d3_006929_forward_mol1.chk"
 Charge =  0 Multiplicity = 1

                         Standard orientation:
 ---------------------------------------------------------------------
 Center     Atomic      Atomic             Coordinates (Angstroms)
 Number     Number       Type             X           Y           Z
 ---------------------------------------------------------------------
      1          8           0        1.585983   -0.894127    0.222768
      2          6           0       -0.042950   -0.612120   -0.426494
      3          6           0        1.226508    0.976893   -0.200578
      4          6           0       -0.080197    0.651225    0.379504
      5          8           0       -1.456622    0.743606   -0.105061
      6          6           0       -1.506477   -0.756003    0.018085
      7          1           0        2.016940   -1.232764   -0.589960
      8          1           0        2.073569    1.263677    0.435321
      9          1           0        1.310476    1.216382   -1.257563
     10          1           0       -0.064101    0.631122    1.483854
     11          1           0       -2.209833   -1.201704   -0.698054
     12          1           0       -1.743240   -1.032513    1.061644
 ---------------------------------------------------------------------

 SCF Done:  E(RHF) =  -304.473165519     A.U. after    2 cycles

 The electronic state is 1-A.
 Alpha  occ. eigenvalues --  -20.60001 -20.57906 -11.37970 -11.30827 -11.30533
 Alpha  occ. eigenvalues --  -11.26654  -1.35655  -1.27225  -1.06705  -0.95756
 Alpha  occ. eigenvalues --   -0.87307  -0.77373  -0.69229  -0.68220  -0.64346
 Alpha  occ. eigenvalues --   -0.60242  -0.59293  -0.57414  -0.53234  -0.49110
 Alpha  occ. eigenvalues --   -0.46932  -0.41278  -0.32018
 Alpha virt. eigenvalues --    0.02914   0.04248   0.04573   0.04857   0.06213
 Alpha virt. eigenvalues --    0.06974   0.07969   0.09749   0.11408   0.11942
 Alpha virt. eigenvalues --    0.13016   0.13567   0.14315   0.14382   0.15205

 Mulliken charges:
               1
     1  O   -0.711916
     2  C   -0.267034
     3  C    0.865499
     4  C    0.764649
     5  O   -0.837142
     6  C    0.791693
     7  H    0.218108
     8  H   -0.167672
     9  H   -0.175937
    10  H   -0.178270
    11  H   -0.177766
    12  H   -0.124214
 Sum of Mulliken charges =  -0.00000

 Dipole moment (field-independent basis, Debye):
    X=              1.7665    Y=              1.2570    Z=              0.2143  Tot=              2.1786

 Test job not archived.
 1\1\GINC-SE039\SP\RHF\Aug-CC-pVDZ\C4H6O2\OHZDE\09-Apr-2025\0\\#t hf au
 g-cc-pvdz iop(5/13=1,5/36=2,99/5=2) pseudo=read geom=check guess=(read
 ,tcheck) scf=(maxcycle=1)\\title\\0,1\O,0,-0.50915788,-1.3559789,-0.96
 713004\C,0,0.52012954,-0.51055938,0.20774196\C,0,-1.49854193,-0.176046
 37,0.23205123\C,0,-0.34332,0.69777522,0.00416917\O,0,0.62284789,1.3523
 7298,0.88502412\C,0,1.67245241,0.50548508,0.21600325\H,0,-0.56184795,-
 2.22825205,-0.52295887\H,0,-2.34027483,-0.19818225,-0.47159737\H,0,-1.
 67934671,-0.59636416,1.21808619\H,0,-0.38675581,1.21783385,-0.9694352\

 Normal termination of Gaussian 16 at Wed Apr  9 14:17:12 2025.
