 Gaussian 16, Revision C.01,

 ----------------------------------------------------------------------
 #t hf aug-cc-pvdz symm=none int=(grid=ultrafine) guess=(read,tcheck) s
 table=(opt,rrhf)
 ----------------------------------------------------------------------
 -----
 title
 -----
 Symbolic Z-matrix:
 Charge =  0 Multiplicity = 1

 SCF Done:  E(RHF) =  -322.652023017     A.U. after   16 cycles
 Normal termination of Gaussian 16 at Wed Apr  9 15:35:05 2025.
 Gaussian 16:  ES64L-G16RevC.01  3-Jul-2019

 ----------------------------------------------------------------------
 #t hf aug-cc-pvdz iop(5/13=1,5/36=2,99/5=2) pseudo=read geom=check gue
 ss=(read,tcheck) scf=(maxcycle=1)
 ----------------------------------------------------------------------
 -----
 title
 -----
 Structure from the checkpoint file:  "Grambow2020_wb97xd3_007012_forward_mol1.chk"
 Charge =  0 Multiplicity = 1

                         Standard orientation:
 ---------------------------------------------------------------------
 Center     Atomic      Atomic             Coordinates (Angstroms)
 Number     Number       Type             X           Y           Z
 ---------------------------------------------------------------------
      1          6           0       -0.968904    0.926047    1.098655
      2          6           0        0.221203    0.879593   -0.738094
      3          6           0        1.536621    0.628889   -0.398928
      4          6           0        1.555190   -0.603826    0.254443
      5          7           0        0.334524   -1.090167    0.357788
      6          6           0       -0.664115   -0.202620   -0.276327
      7          8           0       -1.727681   -0.662144   -0.726472
      8          1           0       -1.491659    1.807565    0.739594
      9          1           0       -0.127525    1.181091    1.738844
     10          1           0       -1.677612    0.261129    1.585184
     11          1           0       -0.174089    1.738071   -1.258706
     12          1           0        2.386717    1.277682   -0.532915
     13          1           0        2.405971   -1.105567    0.695308
     14          1           0        0.078002   -2.000148    0.701455
 ---------------------------------------------------------------------

 SCF Done:  E(RHF) =  -322.750009336     A.U. after    2 cycles

 The electronic state is 1-A.
 Alpha  occ. eigenvalues --  -20.46401 -15.68644 -11.34756 -11.34000 -11.29857
 Alpha  occ. eigenvalues --  -11.25042 -11.25027  -1.31431  -1.24134  -1.08187
 Alpha  occ. eigenvalues --   -0.99439  -0.91316  -0.82350  -0.80831  -0.73405
 Alpha  occ. eigenvalues --   -0.63560  -0.62061  -0.61300  -0.59423  -0.59188
 Alpha  occ. eigenvalues --   -0.56194  -0.55226  -0.47910  -0.40199  -0.38107
 Alpha  occ. eigenvalues --   -0.31816
 Alpha virt. eigenvalues --    0.02194   0.03359   0.04091   0.04852   0.05437
 Alpha virt. eigenvalues --    0.05981   0.07619   0.07906   0.09502   0.11097
 Alpha virt. eigenvalues --    0.12099   0.12615   0.13272   0.14144   0.14752

 Mulliken charges:
               1
     1  C    0.437373
     2  C    0.534029
     3  C    0.460904
     4  C    0.544851
     5  N   -0.319151
     6  C    0.309931
     7  O   -0.741504
     8  H   -0.102420
     9  H   -0.111430
    10  H   -0.058657
    11  H   -0.300006
    12  H   -0.305847
    13  H   -0.270548
    14  H   -0.077526
 Sum of Mulliken charges =  -0.00000

 Dipole moment (field-independent basis, Debye):
    X=              5.5922    Y=              0.9169    Z=              2.7492  Tot=              6.2985

 Test job not archived.
 1\1\GINC-SE114\SP\RHF\Aug-CC-pVDZ\C5H7N1O1\OHZDE\09-Apr-2025\0\\#t hf
 aug-cc-pvdz iop(5/13=1,5/36=2,99/5=2) pseudo=read geom=check guess=(re
 ad,tcheck) scf=(maxcycle=1)\\title\\0,1\C,0,-1.41777177,-0.41693253,0.
 50260328\C,0,-0.18420984,0.72709066,-0.89800191\C,0,0.80877124,1.36703
 664,-0.18199226\C,0,1.54880633,0.37145912,0.45675394\N,0,1.04368019,-0
 .81791156,0.19699108\C,0,-0.12010255,-0.73212522,-0.71150871\O,0,-0.41
 8536,-1.68368243,-1.45342685\H,0,-2.31481669,-0.07059966,-0.00201252\H
 ,0,-1.1665236,0.20092687,1.36163279\H,0,-1.53353475,-1.46593787,0.7619

 Normal termination of Gaussian 16 at Wed Apr  9 15:35:11 2025.
