 Gaussian 16, Revision C.01,

 ----------------------------------------------------------------------
 #t hf aug-cc-pvdz symm=none int=(grid=ultrafine) guess=(read,tcheck) s
 table=(opt,rrhf)
 ----------------------------------------------------------------------
 -----
 title
 -----
 Symbolic Z-matrix:
 Charge =  0 Multiplicity = 1

 SCF Done:  E(RHF) =  -373.296772026     A.U. after   17 cycles
 Normal termination of Gaussian 16 at Wed Apr  9 03:26:59 2025.
 Gaussian 16:  ES64L-G16RevC.01  3-Jul-2019

 ----------------------------------------------------------------------
 #t hf aug-cc-pvdz iop(5/13=1,5/36=2,99/5=2) pseudo=read geom=check gue
 ss=(read,tcheck) scf=(maxcycle=1)
 ----------------------------------------------------------------------
 -----
 title
 -----
 Structure from the checkpoint file:  "Grambow2020_wb97xd3_006704_reverse_mol2.chk"
 Charge =  0 Multiplicity = 1

                         Standard orientation:
 ---------------------------------------------------------------------
 Center     Atomic      Atomic             Coordinates (Angstroms)
 Number     Number       Type             X           Y           Z
 ---------------------------------------------------------------------
      1          8           0       -2.798890    0.000528   -0.046790
      2          6           0       -1.636139    0.017632   -0.021347
      3          6           0       -0.322844    0.044208    0.074283
      4          7           0        0.471158    1.189966    0.075678
      5          6           0        1.655274    0.747125   -0.033951
      6          7           0        1.768170   -0.638042   -0.184891
      7          8           0        0.452579   -1.125108    0.075268
      8          1           0        2.372979   -1.082474    0.498902
      9          1           0        2.544466    1.361861   -0.076135
 ---------------------------------------------------------------------

 SCF Done:  E(RHF) =  -373.410542216     A.U. after    2 cycles

 The electronic state is 1-A.
 Alpha  occ. eigenvalues --  -20.65602 -20.64648 -15.73029 -15.66593 -11.38872
 Alpha  occ. eigenvalues --  -11.35858 -11.35216  -1.45416  -1.43524  -1.24760
 Alpha  occ. eigenvalues --   -1.16640  -1.00567  -0.87348  -0.80970  -0.75885
 Alpha  occ. eigenvalues --   -0.73093  -0.67614  -0.67334  -0.64776  -0.61046
 Alpha  occ. eigenvalues --   -0.60062  -0.52255  -0.50081  -0.47367  -0.31079
 Alpha virt. eigenvalues --    0.02347   0.04163   0.05992   0.07294   0.08458
 Alpha virt. eigenvalues --    0.09240   0.11049   0.11680   0.11702   0.12713
 Alpha virt. eigenvalues --    0.13878   0.14973   0.15851   0.16144   0.17542

 Mulliken charges:
               1
     1  O   -0.174696
     2  C   -0.486123
     3  C    1.299596
     4  N   -0.490725
     5  C    0.704079
     6  N   -0.101448
     7  O   -0.698689
     8  H    0.120113
     9  H   -0.172108
 Sum of Mulliken charges =  -0.00000

 Dipole moment (field-independent basis, Debye):
    X=              4.5164    Y=             -0.0437    Z=              0.9032  Tot=              4.6061

 Test job not archived.
 1\1\GINC-SE094\SP\RHF\Aug-CC-pVDZ\C3H2N2O2\OHZDE\09-Apr-2025\0\\#t hf
 aug-cc-pvdz iop(5/13=1,5/36=2,99/5=2) pseudo=read geom=check guess=(re
 ad,tcheck) scf=(maxcycle=1)\\title\\0,1\O,0,-3.01939635,0.04182782,-1.
 24808594\C,0,-1.94586991,0.01313859,-0.80126836\C,0,-0.75094357,0.0232
 571,-0.24751348\N,0,0.26168336,0.94428,-0.5111546\C,0,1.28256987,0.455
 93366,0.06292283\N,0,1.09498358,-0.79133642,0.665704\O,0,-0.31663584,-
 0.99295017,0.61694021\H,0,1.34948578,-0.82035959,1.64818671\H,0,2.2672
 2007,0.904045,0.06103763\\Version=ES64L-G16RevC.01\State=1-A\HF=-373.4

 Normal termination of Gaussian 16 at Wed Apr  9 03:27:02 2025.
