 Gaussian 16, Revision C.01,

 ----------------------------------------------------------------------
 #t hf aug-cc-pvdz symm=none int=(grid=ultrafine) guess=(read,tcheck) s
 table=(opt,rrhf)
 ----------------------------------------------------------------------
 -----
 title
 -----
 Symbolic Z-matrix:
 Charge =  0 Multiplicity = 1

 SCF Done:  E(RHF) =  -284.720789436     A.U. after   15 cycles
 Normal termination of Gaussian 16 at Wed Apr  9 14:25:21 2025.
 Gaussian 16:  ES64L-G16RevC.01  3-Jul-2019

 ----------------------------------------------------------------------
 #t hf aug-cc-pvdz iop(5/13=1,5/36=2,99/5=2) pseudo=read geom=check gue
 ss=(read,tcheck) scf=(maxcycle=1)
 ----------------------------------------------------------------------
 -----
 title
 -----
 Structure from the checkpoint file:  "Grambow2020_wb97xd3_006245_reverse_mol2.chk"
 Charge =  0 Multiplicity = 1

                         Standard orientation:
 ---------------------------------------------------------------------
 Center     Atomic      Atomic             Coordinates (Angstroms)
 Number     Number       Type             X           Y           Z
 ---------------------------------------------------------------------
      1          8           0        2.382504    0.147933   -0.223166
      2          6           0        1.399349   -0.217148    0.332215
      3          7           0        0.093623   -0.079839   -0.277865
      4          6           0       -0.844873    1.042062    0.206937
      5          6           0       -1.986246    0.164827   -0.267604
      6          6           0       -1.080288   -1.008865    0.036392
      7          1           0        1.365661   -0.672280    1.331476
      8          1           0       -0.641448    1.116254    1.299824
      9          1           0       -0.601581    1.998040   -0.263172
     10          1           0       -2.927176    0.224412    0.275902
     11          1           0        0.157659    0.029726   -1.290050
     12          1           0       -1.080555   -1.918019   -0.571775
     13          1           0       -0.915603   -1.287989    1.100534
 ---------------------------------------------------------------------

 SCF Done:  E(RHF) =  -284.807714216     A.U. after    2 cycles

 The electronic state is 1-A.
 Alpha  occ. eigenvalues --  -20.63448 -15.74730 -11.42800 -11.29903 -11.29638
 Alpha  occ. eigenvalues --  -11.15596  -1.44137  -1.30122  -1.03302  -0.94057
 Alpha  occ. eigenvalues --   -0.89927  -0.78116  -0.75736  -0.73267  -0.69637
 Alpha  occ. eigenvalues --   -0.63854  -0.58991  -0.57341  -0.55173  -0.53850
 Alpha  occ. eigenvalues --   -0.47362  -0.47098  -0.25085
 Alpha virt. eigenvalues --    0.02670   0.03637   0.04180   0.05024   0.06567
 Alpha virt. eigenvalues --    0.07269   0.07332   0.07881   0.09907   0.10485
 Alpha virt. eigenvalues --    0.12387   0.13596   0.13910   0.14396   0.14798

 Mulliken charges:
               1
     1  O   -0.363787
     2  C    0.811609
     3  N   -0.764022
     4  C    0.796607
     5  C    0.093252
     6  C    0.795165
     7  H   -0.186495
     8  H   -0.265207
     9  H   -0.213199
    10  H   -0.282813
    11  H    0.099323
    12  H   -0.247797
    13  H   -0.272636
 Sum of Mulliken charges =  -0.00000

 Dipole moment (field-independent basis, Debye):
    X=              2.4386    Y=             -1.4154    Z=              2.5325  Tot=              3.7899

 Test job not archived.
 1\1\GINC-SE226\SP\RHF\Aug-CC-pVDZ\C4H7N1O1\OHZDE\09-Apr-2025\0\\#t hf
 aug-cc-pvdz iop(5/13=1,5/36=2,99/5=2) pseudo=read geom=check guess=(re
 ad,tcheck) scf=(maxcycle=1)\\title\\0,1\O,0,2.14579843,0.70112889,-1.7
 8828867\C,0,1.67583388,0.24585513,-0.7982457\N,0,0.25482243,-0.0070093
 1,-0.68529376\C,0,-0.61491173,0.96266054,0.13797556\C,0,-1.55841304,-0
 .20567416,0.3435547\C,0,-0.3346555,-1.08798231,0.22241017\H,0,2.236620
 98,-0.01609113,0.10933603\H,0,0.04515517,1.27594944,0.97907548\H,0,-0.
 88901919,1.8461923,-0.44368077\H,0,-2.11387444,-0.24631658,1.27849339\

 Normal termination of Gaussian 16 at Wed Apr  9 14:25:24 2025.
