 Gaussian 16, Revision C.01,

 ----------------------------------------------------------------------
 #t hf aug-cc-pvdz symm=none int=(grid=ultrafine) guess=(read,tcheck) s
 table=(opt,rrhf)
 ----------------------------------------------------------------------
 -----
 title
 -----
 Symbolic Z-matrix:
 Charge =  0 Multiplicity = 1

 SCF Done:  E(RHF) =  -322.495470136     A.U. after   15 cycles
 Normal termination of Gaussian 16 at Wed Apr  9 14:56:04 2025.
 Gaussian 16:  ES64L-G16RevC.01  3-Jul-2019

 ----------------------------------------------------------------------
 #t hf aug-cc-pvdz iop(5/13=1,5/36=2,99/5=2) pseudo=read geom=check gue
 ss=(read,tcheck) scf=(maxcycle=1)
 ----------------------------------------------------------------------
 -----
 title
 -----
 Structure from the checkpoint file:  "Grambow2020_wb97xd3_006647_forward_mol1.chk"
 Charge =  0 Multiplicity = 1

                         Standard orientation:
 ---------------------------------------------------------------------
 Center     Atomic      Atomic             Coordinates (Angstroms)
 Number     Number       Type             X           Y           Z
 ---------------------------------------------------------------------
      1          6           0        1.780544    0.731038    0.000347
      2          7           0        1.596297   -1.009877   -0.000267
      3          6           0        0.543450   -0.180346   -0.000131
      4          6           0       -0.716100   -0.034401    0.907077
      5          6           0       -1.209049    1.103259   -0.001823
      6          6           0       -0.716736   -0.037665   -0.907075
      7          8           0       -1.376599   -0.985542    0.002059
      8          1           0        1.870265    1.280139    0.932212
      9          1           0        1.870220    1.282884   -0.929982
     10          1           0        2.660649   -0.009252   -0.002573
     11          1           0       -0.847442   -0.179900    1.977540
     12          1           0       -0.669036    2.051096   -0.003919
     13          1           0       -2.289747    1.225622   -0.001610
     14          1           0       -0.848854   -0.188421   -1.976644
 ---------------------------------------------------------------------

 SCF Done:  E(RHF) =  -322.588556008     A.U. after    2 cycles

 The electronic state is 1-A.
 Alpha  occ. eigenvalues --  -20.57052 -15.65122 -11.31095 -11.31072 -11.30627
 Alpha  occ. eigenvalues --  -11.29183 -11.25277  -1.37800  -1.22480  -1.05191
 Alpha  occ. eigenvalues --   -0.92559  -0.89863  -0.87252  -0.72508  -0.71132
 Alpha  occ. eigenvalues --   -0.65980  -0.64826  -0.60418  -0.56855  -0.56016
 Alpha  occ. eigenvalues --   -0.51552  -0.51014  -0.47854  -0.45696  -0.43753
 Alpha  occ. eigenvalues --   -0.35397
 Alpha virt. eigenvalues --    0.02826   0.03882   0.04111   0.04808   0.06246
 Alpha virt. eigenvalues --    0.06438   0.07601   0.09925   0.10922   0.11351
 Alpha virt. eigenvalues --    0.12823   0.13675   0.13721   0.14072   0.14278

 Mulliken charges:
               1
     1  C    0.112904
     2  N   -0.813068
     3  C    0.095635
     4  C    0.866927
     5  C    0.452119
     6  C    0.866729
     7  O   -0.825142
     8  H   -0.035534
     9  H   -0.035854
    10  H    0.277299
    11  H   -0.306628
    12  H   -0.184419
    13  H   -0.164627
    14  H   -0.306341
 Sum of Mulliken charges =  -0.00000

 Dipole moment (field-independent basis, Debye):
    X=              0.9786    Y=              4.2520    Z=             -0.0053  Tot=              4.3632

 Test job not archived.
 1\1\GINC-SE226\SP\RHF\Aug-CC-pVDZ\C5H7N1O1\OHZDE\09-Apr-2025\0\\#t hf
 aug-cc-pvdz iop(5/13=1,5/36=2,99/5=2) pseudo=read geom=check guess=(re
 ad,tcheck) scf=(maxcycle=1)\\title\\0,1\C,0,-1.52372715,-0.76595228,-0
 .1034874\N,0,-1.76981957,0.93463642,0.23142789\C,0,-0.54683432,0.40346
 169,0.09443213\C,0,0.73488424,0.40084837,0.98211714\C,0,1.46510736,-0.
 38792939,-0.11696069\C,0,0.68448121,0.74815147,-0.7977699\O,0,1.118089
 63,1.63851616,0.28834726\H,0,-1.4509553,-1.48675543,0.70464707\H,0,-1.
 50179516,-1.13619906,-1.12354857\H,0,-2.55756536,-0.276837,0.01720926\

 Normal termination of Gaussian 16 at Wed Apr  9 14:56:09 2025.
