 Gaussian 16, Revision C.01,

 ----------------------------------------------------------------------
 #t hf aug-cc-pvdz symm=none int=(grid=ultrafine) guess=(read,tcheck) s
 table=(opt,rrhf)
 ----------------------------------------------------------------------
 -----
 title
 -----
 Symbolic Z-matrix:
 Charge =  0 Multiplicity = 1

 SCF Done:  E(RHF) =  -302.890132198     A.U. after   14 cycles
 Normal termination of Gaussian 16 at Wed Apr  9 15:31:55 2025.
 Gaussian 16:  ES64L-G16RevC.01  3-Jul-2019

 ----------------------------------------------------------------------
 #t hf aug-cc-pvdz iop(5/13=1,5/36=2,99/5=2) pseudo=read geom=check gue
 ss=(read,tcheck) scf=(maxcycle=1)
 ----------------------------------------------------------------------
 -----
 title
 -----
 Structure from the checkpoint file:  "Grambow2020_wb97xd3_006954_forward_mol2.chk"
 Charge =  0 Multiplicity = 1

                         Standard orientation:
 ---------------------------------------------------------------------
 Center     Atomic      Atomic             Coordinates (Angstroms)
 Number     Number       Type             X           Y           Z
 ---------------------------------------------------------------------
      1          6           0        0.616139    1.559174    0.163143
      2          6           0        0.799678    0.068318    0.032714
      3          6           0        2.098793   -0.366964   -0.596018
      4          7           0        0.326877   -0.797866    1.103688
      5          6           0       -0.394182   -0.804596   -0.173864
      6          6           0       -1.708937   -0.217106   -0.252374
      7          7           0       -2.757633    0.247482   -0.306569
      8          1           0        0.687781    2.042183   -0.812905
      9          1           0        1.400294    1.972033    0.801421
     10          1           0       -0.352075    1.816866    0.594116
     11          1           0        2.941233    0.012014   -0.013712
     12          1           0        2.170490   -1.453916   -0.623398
     13          1           0        2.185806    0.019210   -1.613502
     14          1           0       -0.194695   -0.271040    1.795846
     15          1           0       -0.292493   -1.717615   -0.749305
 ---------------------------------------------------------------------

 SCF Done:  E(RHF) =  -302.980014967     A.U. after    2 cycles

 The electronic state is 1-A.
 Alpha  occ. eigenvalues --  -15.65297 -15.64462 -11.31926 -11.30960 -11.29326
 Alpha  occ. eigenvalues --  -11.25090 -11.24623  -1.28627  -1.19815  -1.03634
 Alpha  occ. eigenvalues --   -0.96611  -0.95332  -0.81845  -0.73345  -0.67023
 Alpha  occ. eigenvalues --   -0.63366  -0.60159  -0.58853  -0.56410  -0.55334
 Alpha  occ. eigenvalues --   -0.52990  -0.52661  -0.50483  -0.47297  -0.45906
 Alpha  occ. eigenvalues --   -0.39764
 Alpha virt. eigenvalues --    0.02954   0.03610   0.04538   0.04714   0.06349
 Alpha virt. eigenvalues --    0.07025   0.07368   0.08002   0.09827   0.10617
 Alpha virt. eigenvalues --    0.12646   0.12951   0.13358   0.14200   0.14545

 Mulliken charges:
               1
     1  C    0.699047
     2  C   -1.136688
     3  C    0.651784
     4  N   -0.729122
     5  C    1.747606
     6  C   -0.869657
     7  N   -0.097302
     8  H    0.063466
     9  H    0.094791
    10  H   -0.127123
    11  H    0.038009
    12  H   -0.019418
    13  H    0.039195
    14  H    0.037801
    15  H   -0.392389
 Sum of Mulliken charges =  -0.00000

 Dipole moment (field-independent basis, Debye):
    X=              3.4179    Y=              0.3479    Z=             -0.2624  Tot=              3.4455

 Test job not archived.
 1\1\GINC-SE332\SP\RHF\Aug-CC-pVDZ\C5H8N2\OHZDE\09-Apr-2025\0\\#t hf au
 g-cc-pvdz iop(5/13=1,5/36=2,99/5=2) pseudo=read geom=check guess=(read
 ,tcheck) scf=(maxcycle=1)\\title\\0,1\C,0,-0.62597701,1.28549364,-0.15
 457056\C,0,-0.25470371,-0.17335656,-0.06934662\C,0,-1.28299243,-1.0613
 8862,0.58371965\N,0,0.45419872,-0.78796139,-1.18313275\C,0,1.18080918,
 -0.56017199,0.07076431\C,0,2.19773205,0.46079814,0.12889458\N,0,3.0099
 6754,1.27159166,0.16670599\H,0,-0.82686403,1.68974327,0.83907218\H,0,-
 1.53157196,1.40032464,-0.75412196\H,0,0.16596143,1.88435703,-0.6059879

 Normal termination of Gaussian 16 at Wed Apr  9 15:32:00 2025.
