 Gaussian 16, Revision C.01,

 ----------------------------------------------------------------------
 #t hf aug-cc-pvdz symm=none int=(grid=ultrafine) guess=(read,tcheck) s
 table=(opt,rrhf)
 ----------------------------------------------------------------------
 -----
 title
 -----
 Symbolic Z-matrix:
 Charge =  0 Multiplicity = 1

 SCF Done:  E(RHF) =  -264.975071438     A.U. after   16 cycles
 Normal termination of Gaussian 16 at Wed Apr  9 14:14:19 2025.
 Gaussian 16:  ES64L-G16RevC.01  3-Jul-2019

 ----------------------------------------------------------------------
 #t hf aug-cc-pvdz iop(5/13=1,5/36=2,99/5=2) pseudo=read geom=check gue
 ss=(read,tcheck) scf=(maxcycle=1)
 ----------------------------------------------------------------------
 -----
 title
 -----
 Structure from the checkpoint file:  "Grambow2020_b97d3_006847_reverse_mol2.chk"
 Charge =  0 Multiplicity = 1

                         Standard orientation:
 ---------------------------------------------------------------------
 Center     Atomic      Atomic             Coordinates (Angstroms)
 Number     Number       Type             X           Y           Z
 ---------------------------------------------------------------------
      1          6           0        1.576887   -1.624506    0.036187
      2          7           0        0.263963   -1.070276   -0.294858
      3          6           0       -0.499363   -0.481110    0.598673
      4          6           0        1.571961    2.274793   -0.025713
      5          6           0       -1.723734    0.028943    0.089398
      6          7           0       -2.770459    0.518831   -0.155924
      7          1           0        1.739001   -1.470148    1.105931
      8          1           0        2.353761   -1.105824   -0.541943
      9          1           0        1.604420   -2.696223   -0.204188
     10          1           0        0.007940   -1.158801   -1.289217
     11          1           0        1.114687    1.704980    0.792064
     12          1           0        1.872597    3.264984    0.336729
     13          1           0        2.456215    1.741748   -0.398643
     14          1           0        0.842342    2.390687   -0.836537
 ---------------------------------------------------------------------

 SCF Done:  E(RHF) =  -265.058318895     A.U. after    2 cycles

 The electronic state is 1-A.
 Alpha  occ. eigenvalues --  -15.72177 -15.65809 -11.31713 -11.30346 -11.29491
 Alpha  occ. eigenvalues --  -11.22532  -1.27015  -1.18277  -1.01657  -0.94059
 Alpha  occ. eigenvalues --   -0.88416  -0.78814  -0.65826  -0.64644  -0.58749
 Alpha  occ. eigenvalues --   -0.55980  -0.55270  -0.54919  -0.54814  -0.51474
 Alpha  occ. eigenvalues --   -0.49536  -0.44078  -0.37848
 Alpha virt. eigenvalues --    0.02246   0.03807   0.03954   0.05176   0.06309
 Alpha virt. eigenvalues --    0.06512   0.07609   0.07814   0.08896   0.09721
 Alpha virt. eigenvalues --    0.10681   0.12644   0.13027   0.14431   0.14619

 Mulliken charges:
               1
     1  C    0.739258
     2  N   -0.132692
     3  C    0.287019
     4  C    0.656215
     5  C   -0.338716
     6  N   -0.169440
     7  H   -0.145014
     8  H   -0.073481
     9  H   -0.103901
    10  H   -0.078710
    11  H   -0.190487
    12  H   -0.159058
    13  H   -0.148867
    14  H   -0.142126
 Sum of Mulliken charges =  -0.00000

 Dipole moment (field-independent basis, Debye):
    X=              4.5588    Y=             -2.6871    Z=             -1.9634  Tot=              5.6444

 Test job not archived.
 1\1\GINC-SE173\SP\RHF\Aug-CC-pVDZ\C4H8N2\OHZDE\09-Apr-2025\0\\#t hf au
 g-cc-pvdz iop(5/13=1,5/36=2,99/5=2) pseudo=read geom=check guess=(read
 ,tcheck) scf=(maxcycle=1)\\title\\0,1\C,0,1.92825985,-0.36248183,0.234
 85913\N,0,0.93945314,0.59085633,0.73878274\C,0,0.36579615,1.48726129,-
 0.03294064\C,0,-1.69215096,-1.19535435,-0.9514535\C,0,-0.59583668,2.30
 423442,0.62006514\N,0,-1.42431357,3.06106233,0.98971989\H,0,2.07935001
 ,-0.14976402,-0.8264535\H,0,1.55391162,-1.38706429,0.36482834\H,0,2.87
 253799,-0.25161148,0.78545971\H,0,0.71604713,0.47715182,1.73842985\H,0

 Normal termination of Gaussian 16 at Wed Apr  9 14:14:23 2025.
