 Gaussian 16, Revision C.01,

 ----------------------------------------------------------------------
 #t hf aug-cc-pvdz symm=none int=(grid=ultrafine) guess=(read,tcheck) s
 table=(opt,rrhf)
 ----------------------------------------------------------------------
 -----
 title
 -----
 Symbolic Z-matrix:
 Charge =  0 Multiplicity = 1

 SCF Done:  E(RHF) =  -322.465845550     A.U. after   15 cycles
 Normal termination of Gaussian 16 at Wed Apr  9 14:28:50 2025.
 Gaussian 16:  ES64L-G16RevC.01  3-Jul-2019

 ----------------------------------------------------------------------
 #t hf aug-cc-pvdz iop(5/13=1,5/36=2,99/5=2) pseudo=read geom=check gue
 ss=(read,tcheck) scf=(maxcycle=1)
 ----------------------------------------------------------------------
 -----
 title
 -----
 Structure from the checkpoint file:  "Grambow2020_wb97xd3_006556_reverse_mol1.chk"
 Charge =  0 Multiplicity = 1

                         Standard orientation:
 ---------------------------------------------------------------------
 Center     Atomic      Atomic             Coordinates (Angstroms)
 Number     Number       Type             X           Y           Z
 ---------------------------------------------------------------------
      1          8           0       -2.243407   -0.207858    0.277537
      2          6           0       -1.118665    0.169991   -0.450454
      3          6           0        0.040730    0.891982    0.244366
      4          6           0        0.370422   -0.406946    1.043726
      5          6           0        2.042477   -0.046780    0.130362
      6          7           0        0.973720    0.324673   -0.813928
      7          6           0        0.039556   -0.813912   -0.426667
      8          1           0       -2.817896    0.551544    0.386126
      9          1           0       -1.348637    0.560586   -1.447835
     10          1           0        0.121579    1.929621    0.568138
     11          1           0        1.522771   -0.517005    1.325375
     12          1           0        2.646867    0.791489    0.477990
     13          1           0        2.645958   -0.898796   -0.183542
     14          1           0        0.113456   -1.793295   -0.897049
 ---------------------------------------------------------------------

 SCF Done:  E(RHF) =  -322.557858426     A.U. after    2 cycles

 The electronic state is 1-A.
 Alpha  occ. eigenvalues --  -20.58278 -15.64506 -11.31919 -11.30469 -11.28699
 Alpha  occ. eigenvalues --  -11.28659 -11.25826  -1.35136  -1.30094  -1.04283
 Alpha  occ. eigenvalues --   -0.93570  -0.89333  -0.86408  -0.73540  -0.70937
 Alpha  occ. eigenvalues --   -0.70001  -0.65026  -0.61871  -0.57983  -0.54207
 Alpha  occ. eigenvalues --   -0.50579  -0.48841  -0.46943  -0.45912  -0.44211
 Alpha  occ. eigenvalues --   -0.29531
 Alpha virt. eigenvalues --    0.03111   0.03464   0.04024   0.05081   0.06111
 Alpha virt. eigenvalues --    0.06572   0.07002   0.10336   0.11676   0.12062
 Alpha virt. eigenvalues --    0.12472   0.12751   0.13202   0.13841   0.14059

 Mulliken charges:
               1
     1  O   -0.618368
     2  C    0.972566
     3  C    0.589254
     4  C   -0.299715
     5  C    0.740405
     6  N   -0.924790
     7  C    0.731999
     8  H    0.153494
     9  H   -0.126199
    10  H   -0.392134
    11  H    0.117489
    12  H   -0.274813
    13  H   -0.275687
    14  H   -0.393503
 Sum of Mulliken charges =  -0.00000

 Dipole moment (field-independent basis, Debye):
    X=              1.3510    Y=              1.6591    Z=             -0.7600  Tot=              2.2705

 Test job not archived.
 1\1\GINC-SE057\SP\RHF\Aug-CC-pVDZ\C5H7N1O1\OHZDE\09-Apr-2025\0\\#t hf
 aug-cc-pvdz iop(5/13=1,5/36=2,99/5=2) pseudo=read geom=check guess=(re
 ad,tcheck) scf=(maxcycle=1)\\title\\0,1\O,0,2.45484988,0.14692165,0.27
 402483\C,0,1.28160105,0.3996138,-0.43125476\C,0,0.20427649,-0.68411264
 ,-0.54593263\C,0,-0.08786048,-0.55517909,0.98145731\C,0,-1.82256073,-0
 .19071379,0.19551849\N,0,-0.82974373,0.41915733,-0.70685281\C,0,0.1056
 1153,0.88159556,0.40232245\H,0,3.05520247,-0.35198722,-0.2820225\H,0,1
 .43490339,0.97011856,-1.35388274\H,0,0.17724396,-1.57642797,-1.1713138

 Normal termination of Gaussian 16 at Wed Apr  9 14:28:55 2025.
