 Gaussian 16, Revision C.01,

 ----------------------------------------------------------------------
 #t hf aug-cc-pvdz symm=none int=(grid=ultrafine) guess=(read,tcheck) s
 table=(opt,rrhf)
 ----------------------------------------------------------------------
 -----
 title
 -----
 Symbolic Z-matrix:
 Charge =  0 Multiplicity = 1

 SCF Done:  E(RHF) =  -318.824632523     A.U. after   17 cycles
 Normal termination of Gaussian 16 at Wed Apr  9 15:29:07 2025.
 Gaussian 16:  ES64L-G16RevC.01  3-Jul-2019

 ----------------------------------------------------------------------
 #t hf aug-cc-pvdz iop(5/13=1,5/36=2,99/5=2) pseudo=read geom=check gue
 ss=(read,tcheck) scf=(maxcycle=1)
 ----------------------------------------------------------------------
 -----
 title
 -----
 Structure from the checkpoint file:  "Grambow2020_wb97xd3_006929_reverse_mol2.chk"
 Charge =  0 Multiplicity = 1

                         Standard orientation:
 ---------------------------------------------------------------------
 Center     Atomic      Atomic             Coordinates (Angstroms)
 Number     Number       Type             X           Y           Z
 ---------------------------------------------------------------------
      1          7           0        2.331037   -0.511741    0.365832
      2          6           0        1.123698   -0.199685   -0.363653
      3          6           0       -0.094413   -1.062983   -0.231072
      4          6           0       -1.122342   -0.163400   -0.022824
      5          7           0       -2.507385   -0.446567    0.057176
      6          6           0       -0.624765    1.154905    0.060052
      7          7           0        0.682126    1.177551   -0.055790
      8          1           0        2.079988   -0.846218    1.288784
      9          1           0        2.796354   -1.283498   -0.092425
     10          1           0        1.350643   -0.198541   -1.439042
     11          1           0       -2.904546   -0.211168    0.956186
     12          1           0       -2.642298   -1.435330   -0.102544
     13          1           0       -1.184333    2.074855    0.198417
     14          1           0        1.270679    1.992180   -0.034921
 ---------------------------------------------------------------------

 SCF Done:  E(RHF) =  -318.917386248     A.U. after    2 cycles

 The electronic state is 1-A.
 Alpha  occ. eigenvalues --  -15.67663 -15.61783 -15.60327 -11.33558 -11.30507
 Alpha  occ. eigenvalues --  -11.24526 -11.20116  -1.28578  -1.15944  -1.14609
 Alpha  occ. eigenvalues --   -1.00611  -0.95064  -0.80235  -0.76104  -0.73912
 Alpha  occ. eigenvalues --   -0.68557  -0.65258  -0.61685  -0.60093  -0.56434
 Alpha  occ. eigenvalues --   -0.54682  -0.49559  -0.44888  -0.39941  -0.32530
 Alpha  occ. eigenvalues --   -0.30194
 Alpha virt. eigenvalues --    0.02411   0.03640   0.04273   0.04910   0.06129
 Alpha virt. eigenvalues --    0.06805   0.07501   0.07787   0.10547   0.11823
 Alpha virt. eigenvalues --    0.12492   0.13041   0.14064   0.14184   0.15503

 Mulliken charges:
               1
     1  N   -0.431649
     2  C    1.038709
     3  C   -0.757112
     4  C    0.857732
     5  N   -0.465135
     6  C    0.478556
     7  N   -0.392362
     8  H    0.022594
     9  H    0.059612
    10  H   -0.055175
    11  H   -0.030488
    12  H    0.039011
    13  H   -0.251778
    14  H   -0.112516
 Sum of Mulliken charges =   0.00000

 Dipole moment (field-independent basis, Debye):
    X=              0.8111    Y=              3.6896    Z=              1.2372  Tot=              3.9751

 Test job not archived.
 1\1\GINC-SE454\SP\RHF\Aug-CC-pVDZ\C4H7N3\OHZDE\09-Apr-2025\0\\#t hf au
 g-cc-pvdz iop(5/13=1,5/36=2,99/5=2) pseudo=read geom=check guess=(read
 ,tcheck) scf=(maxcycle=1)\\title\\0,1\N,0,-2.30223606,-0.50774107,-0.3
 5800605\C,0,-1.09977278,-0.22318214,0.39052893\C,0,0.12842933,-1.06374
 601,0.21269186\C,0,1.14625466,-0.14224409,0.05738391\N,0,2.53460067,-0
 .40465464,-0.0351557\C,0,0.63364246,1.17286196,0.04717039\N,0,-0.67361
 048,1.17406567,0.16111662\H,0,-2.04583411,-0.78720938,-1.2976313\H,0,-
 2.7593713,-1.3091748,0.05534663\H,0,-1.32847745,-0.28475012,1.46378114

 Normal termination of Gaussian 16 at Wed Apr  9 15:29:11 2025.
