 Gaussian 16, Revision C.01,

 ----------------------------------------------------------------------
 #t hf aug-cc-pvdz symm=none int=(grid=ultrafine) guess=(read,tcheck) s
 table=(opt,rrhf)
 ----------------------------------------------------------------------
 -----
 title
 -----
 Symbolic Z-matrix:
 Charge =  0 Multiplicity = 1

 SCF Done:  E(RHF) =  -284.855116670     A.U. after   13 cycles
 Normal termination of Gaussian 16 at Wed Apr  9 14:25:19 2025.
 Gaussian 16:  ES64L-G16RevC.01  3-Jul-2019

 ----------------------------------------------------------------------
 #t hf aug-cc-pvdz iop(5/13=1,5/36=2,99/5=2) pseudo=read geom=check gue
 ss=(read,tcheck) scf=(maxcycle=1)
 ----------------------------------------------------------------------
 -----
 title
 -----
 Structure from the checkpoint file:  "Grambow2020_wb97xd3_006244_reverse_mol2.chk"
 Charge =  0 Multiplicity = 1

                         Standard orientation:
 ---------------------------------------------------------------------
 Center     Atomic      Atomic             Coordinates (Angstroms)
 Number     Number       Type             X           Y           Z
 ---------------------------------------------------------------------
      1          8           0       -1.467823   -0.929386    0.619266
      2          6           0       -1.475994   -0.018816   -0.375523
      3          7           0       -0.657740    0.907741   -0.608879
      4          6           0        0.443680    1.128564    0.305952
      5          6           0        1.544105    0.100535    0.291766
      6          6           0        1.604902   -0.977447   -0.474640
      7          1           0       -2.342078   -0.160719   -1.016846
      8          1           0        0.888566    2.097345    0.063653
      9          1           0        0.078570    1.228157    1.339718
     10          1           0        2.356870    0.307983    0.983830
     11          1           0       -0.612244   -0.924105    1.065212
     12          1           0        2.448441   -1.653692   -0.418533
     13          1           0        0.828488   -1.211082   -1.194335
 ---------------------------------------------------------------------

 SCF Done:  E(RHF) =  -284.944271060     A.U. after    2 cycles

 The electronic state is 1-A.
 Alpha  occ. eigenvalues --  -20.61943 -15.61311 -11.35183 -11.27780 -11.25672
 Alpha  occ. eigenvalues --  -11.24213  -1.39294  -1.19492  -1.06381  -0.95712
 Alpha  occ. eigenvalues --   -0.86019  -0.77760  -0.69951  -0.68981  -0.66832
 Alpha  occ. eigenvalues --   -0.62001  -0.59727  -0.58730  -0.54946  -0.52256
 Alpha  occ. eigenvalues --   -0.41825  -0.40446  -0.37775
 Alpha virt. eigenvalues --    0.03183   0.04234   0.04573   0.05097   0.06257
 Alpha virt. eigenvalues --    0.07044   0.07770   0.10310   0.11367   0.11929
 Alpha virt. eigenvalues --    0.12850   0.13385   0.14365   0.14981   0.15608

 Mulliken charges:
               1
     1  O   -0.383101
     2  C    0.554498
     3  N   -0.387149
     4  C    0.684446
     5  C    0.219944
     6  C    0.520105
     7  H   -0.255389
     8  H   -0.112792
     9  H   -0.023286
    10  H   -0.373383
    11  H    0.170386
    12  H   -0.313719
    13  H   -0.300560
 Sum of Mulliken charges =  -0.00000

 Dipole moment (field-independent basis, Debye):
    X=              1.1791    Y=             -0.4587    Z=              1.2477  Tot=              1.7769

 Test job not archived.
 1\1\GINC-SE141\SP\RHF\Aug-CC-pVDZ\C4H7N1O1\OHZDE\09-Apr-2025\0\\#t hf
 aug-cc-pvdz iop(5/13=1,5/36=2,99/5=2) pseudo=read geom=check guess=(re
 ad,tcheck) scf=(maxcycle=1)\\title\\0,1\O,0,0.9499239,0.00625353,-1.98
 750216\C,0,1.63972561,0.47396647,-0.92720581\N,0,1.20595729,0.94019815
 ,0.15767973\C,0,-0.22329665,1.08008449,0.34865018\C,0,-1.00259362,-0.1
 9433545,0.53977746\C,0,-0.510639,-1.42351158,0.55476177\H,0,2.7094261,
 0.41835803,-1.112085\H,0,-0.38159116,1.70403698,1.23227633\H,0,-0.6757
 1823,1.63881419,-0.48503496\H,0,-2.06925674,-0.04616494,0.69094319\H,0

 Normal termination of Gaussian 16 at Wed Apr  9 14:25:22 2025.
