 Gaussian 16, Revision C.01,

 ----------------------------------------------------------------------
 #t hf aug-cc-pvdz symm=none int=(grid=ultrafine) guess=(read,tcheck) s
 table=(opt,rrhf)
 ----------------------------------------------------------------------
 -----
 title
 -----
 Symbolic Z-matrix:
 Charge =  0 Multiplicity = 1

 SCF Done:  E(RHF) =  -302.891210486     A.U. after   13 cycles
 Normal termination of Gaussian 16 at Wed Apr  9 03:59:44 2025.
 Gaussian 16:  ES64L-G16RevC.01  3-Jul-2019

 ----------------------------------------------------------------------
 #t hf aug-cc-pvdz iop(5/13=1,5/36=2,99/5=2) pseudo=read geom=check gue
 ss=(read,tcheck) scf=(maxcycle=1)
 ----------------------------------------------------------------------
 -----
 title
 -----
 Structure from the checkpoint file:  "Grambow2020_wb97xd3_008833_forward_mol2.chk"
 Charge =  0 Multiplicity = 1

                         Standard orientation:
 ---------------------------------------------------------------------
 Center     Atomic      Atomic             Coordinates (Angstroms)
 Number     Number       Type             X           Y           Z
 ---------------------------------------------------------------------
      1          6           0       -0.640875    1.604292    0.051219
      2          6           0       -0.615923    0.105272   -0.100250
      3          6           0        0.598245   -0.451637   -0.825502
      4          6           0        1.838453   -0.213995   -0.089247
      5          7           0        2.799616   -0.014720    0.504259
      6          6           0       -1.283657   -0.743568    0.905580
      7          7           0       -1.842010   -0.601605   -0.441511
      8          1           0        0.243893    1.956261    0.585206
      9          1           0       -0.660467    2.091558   -0.927139
     10          1           0       -1.520905    1.924958    0.611220
     11          1           0        0.688400    0.005690   -1.814251
     12          1           0        0.473652   -1.524851   -0.973968
     13          1           0       -1.781565   -0.246532    1.730554
     14          1           0       -0.891603   -1.727243    1.137472
     15          1           0       -2.632105    0.032263   -0.439125
 ---------------------------------------------------------------------

 SCF Done:  E(RHF) =  -302.981061912     A.U. after    2 cycles

 The electronic state is 1-A.
 Alpha  occ. eigenvalues --  -15.63854 -15.63629 -11.30146 -11.29166 -11.28617
 Alpha  occ. eigenvalues --  -11.27967 -11.25045  -1.26851  -1.19630  -1.05877
 Alpha  occ. eigenvalues --   -0.98654  -0.89594  -0.80572  -0.70931  -0.68583
 Alpha  occ. eigenvalues --   -0.66341  -0.63025  -0.59295  -0.56466  -0.54659
 Alpha  occ. eigenvalues --   -0.53810  -0.49101  -0.48495  -0.46036  -0.45763
 Alpha  occ. eigenvalues --   -0.40188
 Alpha virt. eigenvalues --    0.02858   0.03725   0.04045   0.04898   0.06320
 Alpha virt. eigenvalues --    0.06552   0.07653   0.08755   0.09263   0.09884
 Alpha virt. eigenvalues --    0.12453   0.13330   0.14046   0.14410   0.14672

 Mulliken charges:
               1
     1  C    0.430739
     2  C   -0.821867
     3  C    0.603898
     4  C   -0.102933
     5  N   -0.215126
     6  C    1.177622
     7  N   -0.633710
     8  H   -0.010534
     9  H    0.093665
    10  H   -0.106426
    11  H    0.104403
    12  H    0.049638
    13  H   -0.279643
    14  H   -0.311185
    15  H    0.021461
 Sum of Mulliken charges =  -0.00000

 Dipole moment (field-independent basis, Debye):
    X=             -3.5680    Y=              0.8743    Z=             -0.6894  Tot=              3.7377

 Test job not archived.
 1\1\GINC-SE362\SP\RHF\Aug-CC-pVDZ\C5H8N2\OHZDE\09-Apr-2025\0\\#t hf au
 g-cc-pvdz iop(5/13=1,5/36=2,99/5=2) pseudo=read geom=check guess=(read
 ,tcheck) scf=(maxcycle=1)\\title\\0,1\C,0,-0.95432842,1.13597891,-0.11
 391843\C,0,-0.20079397,-0.16893871,-0.11537856\C,0,1.21544015,-0.09765
 863,-0.66268296\C,0,2.08513116,0.73836472,0.16276477\N,0,2.7489634,1.4
 0038998,0.82370646\C,0,-0.51072171,-1.19462599,0.89951221\N,0,-0.88718
 759,-1.39305943,-0.50243849\H,0,-0.42168104,1.89230004,0.46582615\H,0,
 -1.07437692,1.51435293,-1.13245582\H,0,-1.94591244,1.01308483,0.324874

 Normal termination of Gaussian 16 at Wed Apr  9 03:59:49 2025.
