 Gaussian 16, Revision C.01,

 ----------------------------------------------------------------------
 #t hf aug-cc-pvdz symm=none int=(grid=ultrafine) guess=(read,tcheck) s
 table=(opt,rrhf)
 ----------------------------------------------------------------------
 -----
 title
 -----
 Symbolic Z-matrix:
 Charge =  0 Multiplicity = 1

 SCF Done:  E(RHF) =  -344.805859755     A.U. after   14 cycles

 1\1\GINC-SE123\Stability\RHF\Aug-CC-pVDZ\C5H10O2\OHZDE\09-Apr-2025\0\\
 #t hf aug-cc-pvdz symm=none int=(grid=ultrafine) guess=(read,tcheck) s
 table=(opt,rrhf)\\title\\0,1\C,0,-2.77734661,-0.9891402,0.24477928\C,0
 ,-0.20847896,1.58169922,-0.82398592\O,0,-0.50466644,2.10120839,0.32150
 117\C,0,0.44913138,0.24606823,-0.61375116\C,0,1.96915152,0.26136822,-0
 .85030283\C,0,2.06186706,-0.16688496,0.61807016\O,0,0.62882386,-0.1252
 4483,0.78007105\H,0,-3.65121979,-1.02070693,0.89355656\H,0,-2.79163257
 ,-1.85118544,-0.4210916\H,0,-1.87211568,-1.01383326,0.85103079\H,0,-2.

 Normal termination of Gaussian 16 at Wed Apr  9 03:33:31 2025.
 Gaussian 16:  ES64L-G16RevC.01  3-Jul-2019

 ----------------------------------------------------------------------
 #t hf aug-cc-pvdz iop(5/13=1,5/36=2,99/5=2) pseudo=read geom=check gue
 ss=(read,tcheck) scf=(maxcycle=1)
 ----------------------------------------------------------------------
 -----
 title
 -----
 Structure from the checkpoint file:  "Grambow2020_wb97xd3_007050_reverse_mol2.chk"
 Charge =  0 Multiplicity = 1

                         Standard orientation:
 ---------------------------------------------------------------------
 Center     Atomic      Atomic             Coordinates (Angstroms)
 Number     Number       Type             X           Y           Z
 ---------------------------------------------------------------------
      1          6           0        3.108300   -0.817427    0.138106
      2          6           0        0.086959    1.421034    0.597832
      3          8           0        0.377202    1.771023   -0.611724
      4          6           0       -0.328993   -0.023691    0.615576
      5          6           0       -1.844535   -0.228619    0.782275
      6          6           0       -1.760391   -0.921393   -0.581947
      7          8           0       -0.345049   -0.662995   -0.689773
      8          1           0        4.020339   -0.813140   -0.456645
      9          1           0        3.213691   -1.531298    0.954188
     10          1           0        2.265197   -1.105488   -0.489422
     11          1           0        2.942044    0.179320    0.546028
     12          1           0        0.258475    1.000457   -1.222545
     13          1           0        0.307387   -0.566146    1.319537
     14          1           0       -2.140033   -0.856793    1.618221
     15          1           0       -2.415751    0.697953    0.801172
     16          1           0       -2.320534   -0.453451   -1.394138
     17          1           0       -1.956083   -1.995070   -0.575464
 ---------------------------------------------------------------------

 SCF Done:  E(RHF) =  -344.916868586     A.U. after    2 cycles

 The electronic state is 1-A.
 Alpha  occ. eigenvalues --  -20.63505 -20.59351 -11.31194 -11.30677 -11.30519
 Alpha  occ. eigenvalues --  -11.26176 -11.21579  -1.41651  -1.36325  -1.04104
 Alpha  occ. eigenvalues --   -0.98396  -0.93785  -0.86782  -0.79774  -0.75670
 Alpha  occ. eigenvalues --   -0.71288  -0.66127  -0.64363  -0.60097  -0.57997
 Alpha  occ. eigenvalues --   -0.55842  -0.54533  -0.54504  -0.54428  -0.50572
 Alpha  occ. eigenvalues --   -0.50107  -0.46376  -0.36443
 Alpha virt. eigenvalues --    0.02999   0.04161   0.04366   0.04921   0.05995
 Alpha virt. eigenvalues --    0.06495   0.07008   0.07459   0.08630   0.09468
 Alpha virt. eigenvalues --    0.10645   0.11176   0.11822   0.12111   0.13446

 Mulliken charges:
               1
     1  C    0.734047
     2  C    0.014748
     3  O   -0.315259
     4  C    0.640460
     5  C    0.492044
     6  C    0.910890
     7  O   -0.962068
     8  H   -0.203119
     9  H   -0.141990
    10  H   -0.204286
    11  H   -0.183104
    12  H    0.252552
    13  H   -0.228604
    14  H   -0.135257
    15  H   -0.174534
    16  H   -0.241113
    17  H   -0.255406
 Sum of Mulliken charges =  -0.00000

 Dipole moment (field-independent basis, Debye):
    X=             -2.4338    Y=             -2.8662    Z=             -0.3569  Tot=              3.7770

 Test job not archived.
 1\1\GINC-SE123\SP\RHF\Aug-CC-pVDZ\C5H10O2\OHZDE\09-Apr-2025\0\\#t hf a
 ug-cc-pvdz iop(5/13=1,5/36=2,99/5=2) pseudo=read geom=check guess=(rea
 d,tcheck) scf=(maxcycle=1)\\title\\0,1\C,0,-2.77734661,-0.9891402,0.24
 477928\C,0,-0.20847896,1.58169922,-0.82398592\O,0,-0.50466644,2.101208
 39,0.32150117\C,0,0.44913138,0.24606823,-0.61375116\C,0,1.96915152,0.2
 6136822,-0.85030283\C,0,2.06186706,-0.16688496,0.61807016\O,0,0.628823
 86,-0.12524483,0.78007105\H,0,-3.65121979,-1.02070693,0.89355656\H,0,-
 2.79163257,-1.85118544,-0.4210916\H,0,-1.87211568,-1.01383326,0.851030

 Normal termination of Gaussian 16 at Wed Apr  9 03:33:36 2025.
