 Gaussian 16, Revision C.01,

 ----------------------------------------------------------------------
 #t hf aug-cc-pvdz symm=none int=(grid=ultrafine) guess=(read,tcheck) s
 table=(opt,rrhf)
 ----------------------------------------------------------------------
 -----
 title
 -----
 Symbolic Z-matrix:
 Charge =  0 Multiplicity = 1

 SCF Done:  E(RHF) =  -359.751588945     A.U. after   14 cycles
 Normal termination of Gaussian 16 at Wed Apr  9 04:04:45 2025.
 Gaussian 16:  ES64L-G16RevC.01  3-Jul-2019

 ----------------------------------------------------------------------
 #t hf aug-cc-pvdz iop(5/13=1,5/36=2,99/5=2) pseudo=read geom=check gue
 ss=(read,tcheck) scf=(maxcycle=1)
 ----------------------------------------------------------------------
 -----
 title
 -----
 Structure from the checkpoint file:  "Grambow2020_wb97xd3_009242_reverse_mol2.chk"
 Charge =  0 Multiplicity = 1

                         Standard orientation:
 ---------------------------------------------------------------------
 Center     Atomic      Atomic             Coordinates (Angstroms)
 Number     Number       Type             X           Y           Z
 ---------------------------------------------------------------------
      1          6           0        0.886205    2.014390   -0.108969
      2          6           0        1.410573    0.640480    0.176724
      3          6           0       -1.479561   -0.026806    0.328097
      4          8           0       -2.618511    0.057618    0.006407
      5          6           0        0.774229   -0.505051   -0.057984
      6          8           0       -0.539388   -0.551526   -0.491540
      7          7           0        1.306849   -1.780541   -0.017563
      8          1           0       -0.046239    1.988618   -0.673442
      9          1           0        0.708982    2.583925    0.807458
     10          1           0        1.607371    2.581575   -0.701771
     11          1           0        2.424171    0.560657    0.554585
     12          1           0       -1.065408    0.288397    1.299761
     13          1           0        2.245363   -1.837898    0.338984
     14          1           0        0.692337   -2.488300    0.351222
 ---------------------------------------------------------------------

 SCF Done:  E(RHF) =  -359.868153820     A.U. after    2 cycles

 The electronic state is 1-A.
 Alpha  occ. eigenvalues --  -20.64038 -20.57876 -15.64793 -11.40741 -11.35727
 Alpha  occ. eigenvalues --  -11.24315 -11.23931  -1.44716  -1.36343  -1.19818
 Alpha  occ. eigenvalues --   -1.05590  -0.94395  -0.89183  -0.81602  -0.73155
 Alpha  occ. eigenvalues --   -0.71268  -0.69721  -0.67718  -0.62642  -0.60352
 Alpha  occ. eigenvalues --   -0.58166  -0.56508  -0.53629  -0.51489  -0.49314
 Alpha  occ. eigenvalues --   -0.47931  -0.33272
 Alpha virt. eigenvalues --    0.02594   0.03730   0.04398   0.05096   0.06563
 Alpha virt. eigenvalues --    0.07000   0.08095   0.10095   0.10725   0.11946
 Alpha virt. eigenvalues --    0.12739   0.13642   0.14169   0.14568   0.14989

 Mulliken charges:
               1
     1  C    0.192480
     2  C    0.519201
     3  C    0.788666
     4  O   -0.414647
     5  C    0.609533
     6  O   -0.721311
     7  N   -0.293797
     8  H   -0.129876
     9  H    0.046689
    10  H   -0.017243
    11  H   -0.480378
    12  H   -0.087276
    13  H    0.014258
    14  H   -0.026300
 Sum of Mulliken charges =  -0.00000

 Dipole moment (field-independent basis, Debye):
    X=              4.0319    Y=             -0.3950    Z=              2.7451  Tot=              4.8937

 Test job not archived.
 1\1\GINC-SE453\SP\RHF\Aug-CC-pVDZ\C4H7N1O2\OHZDE\09-Apr-2025\0\\#t hf
 aug-cc-pvdz iop(5/13=1,5/36=2,99/5=2) pseudo=read geom=check guess=(re
 ad,tcheck) scf=(maxcycle=1)\\title\\0,1\C,0,-1.33329176,-1.2328406,0.2
 3389064\C,0,-0.0748707,-0.90919271,-0.51165456\C,0,-0.40509912,1.72516
 345,0.81957835\O,0,-0.69917441,2.44513998,1.71566628\C,0,0.8301644,0.0
 0229746,-0.16185245\O,0,0.64071211,0.87020974,0.89954185\N,0,2.0955459
 8,0.17065579,-0.69350773\H,0,-1.37880799,-0.7297345,1.20009954\H,0,-2.
 22719178,-0.9561961,-0.33181984\H,0,-1.39721256,-2.30640441,0.42511662

 Normal termination of Gaussian 16 at Wed Apr  9 04:04:49 2025.
