 Gaussian 16, Revision C.01,

 ----------------------------------------------------------------------
 #t hf aug-cc-pvdz symm=none int=(grid=ultrafine) guess=(read,tcheck) s
 table=(opt,rrhf)
 ----------------------------------------------------------------------
 -----
 title
 -----
 Symbolic Z-matrix:
 Charge =  0 Multiplicity = 1

 SCF Done:  E(RHF) =  -283.539312022     A.U. after   16 cycles
 Normal termination of Gaussian 16 at Wed Apr  9 03:07:41 2025.
 Gaussian 16:  ES64L-G16RevC.01  3-Jul-2019

 ----------------------------------------------------------------------
 #t hf aug-cc-pvdz iop(5/13=1,5/36=2,99/5=2) pseudo=read geom=check gue
 ss=(read,tcheck) scf=(maxcycle=1)
 ----------------------------------------------------------------------
 -----
 title
 -----
 Structure from the checkpoint file:  "Grambow2020_b97d3_006654_reverse_mol1.chk"
 Charge =  0 Multiplicity = 1

                         Standard orientation:
 ---------------------------------------------------------------------
 Center     Atomic      Atomic             Coordinates (Angstroms)
 Number     Number       Type             X           Y           Z
 ---------------------------------------------------------------------
      1          7           0       -1.757207   -0.677466    0.028966
      2          6           0       -1.426178    0.473010   -0.036995
      3          6           0       -0.282678    1.330704   -0.099826
      4          6           0        0.811919    0.075461    0.390604
      5          6           0        0.154636   -1.193328   -0.087407
      6          8           0        1.972884    0.008092   -0.188018
      7          1           0       -0.252647    2.164465    0.606792
      8          1           0       -0.052936    1.654594   -1.122425
      9          1           0        0.773826    0.178961    1.500752
     10          1           0        0.324127   -2.108940    0.486608
     11          1           0        0.178811   -1.326638   -1.168599
 ---------------------------------------------------------------------

 SCF Done:  E(RHF) =  -283.621888586     A.U. after    2 cycles

 The electronic state is 1-A.
 Alpha  occ. eigenvalues --  -20.50673 -15.69491 -11.36602 -11.36424 -11.33662
 Alpha  occ. eigenvalues --  -11.29921  -1.28509  -1.24683  -1.04804  -0.99445
 Alpha  occ. eigenvalues --   -0.81641  -0.72593  -0.69935  -0.63856  -0.62268
 Alpha  occ. eigenvalues --   -0.60884  -0.58528  -0.56452  -0.50355  -0.48836
 Alpha  occ. eigenvalues --   -0.39263  -0.37481
 Alpha virt. eigenvalues --    0.01469   0.03353   0.04123   0.04203   0.06609
 Alpha virt. eigenvalues --    0.06715   0.07674   0.09899   0.11045   0.11338
 Alpha virt. eigenvalues --    0.12442   0.13334   0.14322   0.14661   0.15350

 Mulliken charges:
               1
     1  N   -0.387728
     2  C    0.101468
     3  C    0.215813
     4  C    0.628086
     5  C    0.498454
     6  O   -0.803742
     7  H   -0.018137
     8  H   -0.003137
     9  H   -0.129347
    10  H   -0.061487
    11  H   -0.040243
 Sum of Mulliken charges =   0.00000

 Dipole moment (field-independent basis, Debye):
    X=             -3.5778    Y=              0.4257    Z=              0.5289  Tot=              3.6416

 Test job not archived.
 1\1\GINC-SE459\SP\RHF\Aug-CC-pVDZ\C4H5N1O1\OHZDE\09-Apr-2025\0\\#t hf
 aug-cc-pvdz iop(5/13=1,5/36=2,99/5=2) pseudo=read geom=check guess=(re
 ad,tcheck) scf=(maxcycle=1)\\title\\0,1\N,0,1.47683021,1.26318349,-0.0
 8734854\C,0,1.5305496,0.06791999,-0.16470472\C,0,0.72300969,-1.1131097
 7,-0.17985573\C,0,-0.68151726,-0.28249113,0.41316611\C,0,-0.50248922,1
 .13367919,-0.06927537\O,0,-1.83891463,-0.59059324,-0.08951477\H,0,1.01
 16345,-1.91620982,0.50358696\H,0,0.54061555,-1.4874373,-1.1947479\H,0,
 -0.53635326,-0.37511093,1.5154098\H,0,-0.91838689,1.94161559,0.5396857

 Normal termination of Gaussian 16 at Wed Apr  9 03:07:45 2025.
