 Gaussian 16, Revision C.01,

 ----------------------------------------------------------------------
 #t hf aug-cc-pvdz symm=none int=(grid=ultrafine) guess=(read,tcheck) s
 table=(opt,rrhf)
 ----------------------------------------------------------------------
 -----
 title
 -----
 Symbolic Z-matrix:
 Charge =  0 Multiplicity = 1

 SCF Done:  E(RHF) =  -338.635727936     A.U. after   16 cycles
 Normal termination of Gaussian 16 at Wed Apr  9 15:19:49 2025.
 Gaussian 16:  ES64L-G16RevC.01  3-Jul-2019

 ----------------------------------------------------------------------
 #t hf aug-cc-pvdz iop(5/13=1,5/36=2,99/5=2) pseudo=read geom=check gue
 ss=(read,tcheck) scf=(maxcycle=1)
 ----------------------------------------------------------------------
 -----
 title
 -----
 Structure from the checkpoint file:  "Grambow2020_wb97xd3_006850_reverse_mol1.chk"
 Charge =  0 Multiplicity = 1

                         Standard orientation:
 ---------------------------------------------------------------------
 Center     Atomic      Atomic             Coordinates (Angstroms)
 Number     Number       Type             X           Y           Z
 ---------------------------------------------------------------------
      1          7           0       -2.482347   -0.484582    0.043739
      2          6           0       -1.128280   -0.118094   -0.005713
      3          6           0       -0.642636    1.167078   -0.037992
      4          7           0        0.716908    1.141512   -0.006232
      5          6           0        1.087712   -0.195660    0.140387
      6          8           0        2.393439   -0.494675   -0.123950
      7          6           0       -0.053958   -1.068200    0.004357
      8          1           0       -3.077127    0.048464   -0.571341
      9          1           0       -2.586801   -1.471600   -0.134644
     10          1           0       -1.174158    2.108839   -0.017298
     11          1           0        1.329310    1.933861    0.057973
     12          1           0        2.405187   -1.405427   -0.431658
     13          1           0        0.737118   -0.565986    1.219791
 ---------------------------------------------------------------------

 SCF Done:  E(RHF) =  -338.736733204     A.U. after    2 cycles

 The electronic state is 1-A.
 Alpha  occ. eigenvalues --  -20.60465 -15.67189 -15.61209 -11.34979 -11.29612
 Alpha  occ. eigenvalues --  -11.26248 -11.23367  -1.38001  -1.27185  -1.16197
 Alpha  occ. eigenvalues --   -1.03771  -0.97764  -0.81150  -0.79282  -0.75751
 Alpha  occ. eigenvalues --   -0.69484  -0.67659  -0.64450  -0.62735  -0.59753
 Alpha  occ. eigenvalues --   -0.54819  -0.53438  -0.46931  -0.41546  -0.35853
 Alpha  occ. eigenvalues --   -0.29599
 Alpha virt. eigenvalues --    0.02711   0.03810   0.04377   0.05804   0.06212
 Alpha virt. eigenvalues --    0.07627   0.08995   0.09934   0.11542   0.12311
 Alpha virt. eigenvalues --    0.12606   0.13724   0.14247   0.15143   0.15965

 Mulliken charges:
               1
     1  N   -0.426094
     2  C    0.613618
     3  C    0.765016
     4  N   -0.499551
     5  C    1.135457
     6  O   -0.597560
     7  C   -0.965008
     8  H   -0.042083
     9  H    0.009369
    10  H   -0.299592
    11  H   -0.105040
    12  H    0.180272
    13  H    0.231196
 Sum of Mulliken charges =   0.00000

 Dipole moment (field-independent basis, Debye):
    X=             -0.0414    Y=              2.8750    Z=             -0.8446  Tot=              2.9968

 Test job not archived.
 1\1\GINC-SE454\SP\RHF\Aug-CC-pVDZ\C4H6N2O1\OHZDE\09-Apr-2025\0\\#t hf
 aug-cc-pvdz iop(5/13=1,5/36=2,99/5=2) pseudo=read geom=check guess=(re
 ad,tcheck) scf=(maxcycle=1)\\title\\0,1\N,0,-2.2402602,0.58316025,-0.3
 8022866\C,0,-0.91827472,0.17745592,-0.13936989\C,0,-0.42237602,-1.0929
 6073,-0.30873839\N,0,0.9133752,-1.09878996,-0.05230894\C,0,1.27771219,
 0.22482223,0.19735313\O,0,2.4936048,0.41733678,0.78790425\C,0,0.114165
 87,1.07329232,0.29481455\H,0,-2.93799064,-0.06163323,-0.04312635\H,0,-
 2.40057745,1.50399438,-0.00167875\H,0,-0.91772761,-1.9887215,-0.658160

 Normal termination of Gaussian 16 at Wed Apr  9 15:19:53 2025.
