 Gaussian 16, Revision C.01,

 ----------------------------------------------------------------------
 #t hf aug-cc-pvdz symm=none int=(grid=ultrafine) guess=(read,tcheck) s
 table=(opt,rrhf)
 ----------------------------------------------------------------------
 -----
 title
 -----
 Symbolic Z-matrix:
 Charge =  0 Multiplicity = 1

 SCF Done:  E(RHF) =  -338.532222850     A.U. after   16 cycles
 Normal termination of Gaussian 16 at Wed Apr  9 03:39:31 2025.
 Gaussian 16:  ES64L-G16RevC.01  3-Jul-2019

 ----------------------------------------------------------------------
 #t hf aug-cc-pvdz iop(5/13=1,5/36=2,99/5=2) pseudo=read geom=check gue
 ss=(read,tcheck) scf=(maxcycle=1)
 ----------------------------------------------------------------------
 -----
 title
 -----
 Structure from the checkpoint file:  "Grambow2020_wb97xd3_007477_forward_mol1.chk"
 Charge =  0 Multiplicity = 1

                         Standard orientation:
 ---------------------------------------------------------------------
 Center     Atomic      Atomic             Coordinates (Angstroms)
 Number     Number       Type             X           Y           Z
 ---------------------------------------------------------------------
      1          6           0        2.322647    0.328401    0.336936
      2          8           0        1.372535   -0.435091   -0.395060
      3          6           0        0.085898   -0.119127   -0.157947
      4          6           0       -0.726681    1.108912   -0.397964
      5          7           0       -1.834564    0.764815    0.144378
      6          6           0       -1.419875   -0.474865    0.747861
      7          7           0       -0.899973   -1.189465   -0.394555
      8          1           0        2.183596    1.398710    0.165086
      9          1           0        3.303631    0.027053   -0.021810
     10          1           0        2.239746    0.116310    1.406564
     11          1           0       -0.498080    2.043783   -0.898202
     12          1           0       -0.167659   -0.132499    1.166898
     13          1           0       -0.471693   -2.060002   -0.080123
 ---------------------------------------------------------------------

 SCF Done:  E(RHF) =  -338.631064317     A.U. after    2 cycles

 The electronic state is 1-A.
 Alpha  occ. eigenvalues --  -20.63565 -15.65911 -15.64266 -11.39048 -11.32962
 Alpha  occ. eigenvalues --  -11.32254 -11.31354  -1.41945  -1.33171  -1.16135
 Alpha  occ. eigenvalues --   -1.00172  -0.91896  -0.87669  -0.77116  -0.74105
 Alpha  occ. eigenvalues --   -0.71698  -0.67718  -0.65854  -0.62478  -0.57149
 Alpha  occ. eigenvalues --   -0.56567  -0.51683  -0.45844  -0.43912  -0.40973
 Alpha  occ. eigenvalues --   -0.36635
 Alpha virt. eigenvalues --    0.02491   0.03863   0.04748   0.05102   0.06405
 Alpha virt. eigenvalues --    0.07318   0.08215   0.08678   0.10465   0.10973
 Alpha virt. eigenvalues --    0.13010   0.13567   0.13871   0.14408   0.14850

 Mulliken charges:
               1
     1  C    0.645967
     2  O   -0.624406
     3  C    0.361804
     4  C    0.551444
     5  N   -0.551891
     6  C    0.226395
     7  N   -0.634427
     8  H   -0.031103
     9  H   -0.224587
    10  H   -0.039918
    11  H   -0.163258
    12  H    0.430338
    13  H    0.053643
 Sum of Mulliken charges =  -0.00000

 Dipole moment (field-independent basis, Debye):
    X=              4.7376    Y=              1.0621    Z=              0.1929  Tot=              4.8590

 Test job not archived.
 1\1\GINC-SE252\SP\RHF\Aug-CC-pVDZ\C4H6N2O1\OHZDE\09-Apr-2025\0\\#t hf
 aug-cc-pvdz iop(5/13=1,5/36=2,99/5=2) pseudo=read geom=check guess=(re
 ad,tcheck) scf=(maxcycle=1)\\title\\0,1\C,0,-1.89355749,-0.29764648,-0
 .20247061\O,0,-0.86262652,-0.35134327,0.77515326\C,0,0.3531054,0.02844
 15,0.34012206\C,0,0.90278007,1.32290846,-0.15805971\N,0,2.08665764,0.9
 6207202,-0.48695499\C,0,1.95127886,-0.46024517,-0.30904271\N,0,1.50724
 103,-0.53602681,1.06323728\H,0,-1.97003576,0.7013562,-0.63901715\H,0,-
 2.81989087,-0.54163241,0.31154899\H,0,-1.70709791,-1.02892174,-0.99394

 Normal termination of Gaussian 16 at Wed Apr  9 03:39:35 2025.
