 Gaussian 16, Revision C.01,

 ----------------------------------------------------------------------
 #t hf aug-cc-pvdz symm=none int=(grid=ultrafine) guess=(read,tcheck) s
 table=(opt,rrhf)
 ----------------------------------------------------------------------
 -----
 title
 -----
 Symbolic Z-matrix:
 Charge =  0 Multiplicity = 1

 SCF Done:  E(RHF) =  -318.927395976     A.U. after   14 cycles
 Normal termination of Gaussian 16 at Wed Apr  9 15:27:55 2025.
 Gaussian 16:  ES64L-G16RevC.01  3-Jul-2019

 ----------------------------------------------------------------------
 #t hf aug-cc-pvdz iop(5/13=1,5/36=2,99/5=2) pseudo=read geom=check gue
 ss=(read,tcheck) scf=(maxcycle=1)
 ----------------------------------------------------------------------
 -----
 title
 -----
 Structure from the checkpoint file:  "Grambow2020_wb97xd3_006918_reverse_mol2.chk"
 Charge =  0 Multiplicity = 1

                         Standard orientation:
 ---------------------------------------------------------------------
 Center     Atomic      Atomic             Coordinates (Angstroms)
 Number     Number       Type             X           Y           Z
 ---------------------------------------------------------------------
      1          7           0       -2.464811   -0.506130    0.051678
      2          6           0       -1.232696   -0.196372   -0.030838
      3          6           0       -0.013862   -1.015025   -0.041624
      4          6           0        1.055821   -0.209189    0.004671
      5          7           0        2.386961   -0.515897    0.078548
      6          6           0        0.616005    1.230185    0.044050
      7          7           0       -0.810026    1.121030   -0.126744
      8          1           0       -2.573322   -1.512734    0.102576
      9          1           0        0.902823    1.683751    1.001184
     10          1           0       -0.017771   -2.094908   -0.063732
     11          1           0        3.039635    0.184649   -0.224819
     12          1           0        2.656263   -1.456587   -0.149066
     13          1           0        1.086994    1.810800   -0.758307
     14          1           0       -1.431095    1.834416    0.210242
 ---------------------------------------------------------------------

 SCF Done:  E(RHF) =  -319.022103526     A.U. after    2 cycles

 The electronic state is 1-A.
 Alpha  occ. eigenvalues --  -15.65674 -15.62369 -15.56465 -11.31158 -11.31099
 Alpha  occ. eigenvalues --  -11.29049 -11.22534  -1.25939  -1.20446  -1.11989
 Alpha  occ. eigenvalues --   -1.02643  -0.94654  -0.80103  -0.77846  -0.71297
 Alpha  occ. eigenvalues --   -0.69383  -0.65360  -0.64105  -0.58392  -0.57605
 Alpha  occ. eigenvalues --   -0.53635  -0.50857  -0.49555  -0.39635  -0.35282
 Alpha  occ. eigenvalues --   -0.31563
 Alpha virt. eigenvalues --    0.02208   0.03293   0.04347   0.04881   0.06132
 Alpha virt. eigenvalues --    0.06818   0.08836   0.09815   0.12207   0.12639
 Alpha virt. eigenvalues --    0.12747   0.13370   0.14056   0.14260   0.15492

 Mulliken charges:
               1
     1  N   -0.445930
     2  C    0.106232
     3  C    1.332837
     4  C   -0.555739
     5  N   -0.299993
     6  C    1.026868
     7  N   -0.425452
     8  H   -0.032226
     9  H    0.002251
    10  H   -0.475899
    11  H   -0.062414
    12  H   -0.030994
    13  H   -0.037427
    14  H   -0.102113
 Sum of Mulliken charges =   0.00000

 Dipole moment (field-independent basis, Debye):
    X=              5.4817    Y=              0.2554    Z=             -0.1298  Tot=              5.4892

 Test job not archived.
 1\1\GINC-SE113\SP\RHF\Aug-CC-pVDZ\C4H7N3\OHZDE\09-Apr-2025\0\\#t hf au
 g-cc-pvdz iop(5/13=1,5/36=2,99/5=2) pseudo=read geom=check guess=(read
 ,tcheck) scf=(maxcycle=1)\\title\\0,1\N,0,-2.61231087,-0.47477247,-0.6
 3817472\C,0,-1.39962463,-0.17991006,-0.38655182\C,0,-0.19762248,-1.010
 67821,-0.24205005\C,0,0.81911629,-0.24224055,0.17205424\N,0,2.10238821
 ,-0.58231191,0.50224275\C,0,0.35819153,1.18239175,0.32939949\N,0,-0.98
 818349,1.12823639,-0.1795144\H,0,-2.71288114,-1.47502534,-0.76854736\H
 ,0,0.40934419,1.47855114,1.38475028\H,0,-0.1783886,-2.07418634,-0.4297

 Normal termination of Gaussian 16 at Wed Apr  9 15:27:59 2025.
