 Gaussian 16, Revision C.01,

 ----------------------------------------------------------------------
 #t hf aug-cc-pvdz symm=none int=(grid=ultrafine) guess=(read,tcheck) s
 table=(opt,rrhf)
 ----------------------------------------------------------------------
 -----
 title
 -----
 Symbolic Z-matrix:
 Charge =  0 Multiplicity = 1

 SCF Done:  E(RHF) =  -283.561633312     A.U. after   16 cycles
 Normal termination of Gaussian 16 at Wed Apr  9 03:09:44 2025.
 Gaussian 16:  ES64L-G16RevC.01  3-Jul-2019

 ----------------------------------------------------------------------
 #t hf aug-cc-pvdz iop(5/13=1,5/36=2,99/5=2) pseudo=read geom=check gue
 ss=(read,tcheck) scf=(maxcycle=1)
 ----------------------------------------------------------------------
 -----
 title
 -----
 Structure from the checkpoint file:  "Grambow2020_b97d3_006724_forward_mol1.chk"
 Charge =  0 Multiplicity = 1

                         Standard orientation:
 ---------------------------------------------------------------------
 Center     Atomic      Atomic             Coordinates (Angstroms)
 Number     Number       Type             X           Y           Z
 ---------------------------------------------------------------------
      1          6           0        1.687149   -0.160206    0.588705
      2          6           0        0.743991   -0.577228   -0.441444
      3          8           0       -0.568694   -1.169298   -0.097334
      4          6           0       -1.366864   -0.119567    0.207844
      5          7           0       -0.921445    1.083225    0.081357
      6          6           0        0.448799    0.952527   -0.332871
      7          1           0        1.185052   -0.264299    1.572247
      8          1           0        1.229677    1.297790    0.485718
      9          1           0        1.077487   -1.015206   -1.381777
     10          1           0       -2.357115   -0.382846    0.574438
     11          1           0        0.786112    1.563217   -1.174855
 ---------------------------------------------------------------------

 SCF Done:  E(RHF) =  -283.644504650     A.U. after    2 cycles

 The electronic state is 1-A.
 Alpha  occ. eigenvalues --  -20.63220 -15.64065 -11.37413 -11.33146 -11.32492
 Alpha  occ. eigenvalues --  -11.27920  -1.41469  -1.20995  -1.11397  -0.89859
 Alpha  occ. eigenvalues --   -0.87864  -0.79334  -0.73841  -0.65554  -0.64463
 Alpha  occ. eigenvalues --   -0.60777  -0.59649  -0.57966  -0.51582  -0.44485
 Alpha  occ. eigenvalues --   -0.41273  -0.37084
 Alpha virt. eigenvalues --    0.03415   0.03852   0.04841   0.05133   0.07783
 Alpha virt. eigenvalues --    0.08903   0.09546   0.09616   0.10761   0.12874
 Alpha virt. eigenvalues --    0.13451   0.14429   0.14588   0.15239   0.15672

 Mulliken charges:
               1
     1  C   -0.354579
     2  C    0.989368
     3  O   -0.666262
     4  C    0.695320
     5  N   -0.522171
     6  C    0.201057
     7  H    0.054495
     8  H    0.120365
     9  H   -0.232584
    10  H   -0.190232
    11  H   -0.094776
 Sum of Mulliken charges =   0.00000

 Dipole moment (field-independent basis, Debye):
    X=             -1.0010    Y=             -0.3235    Z=             -0.5590  Tot=              1.1913

 Test job not archived.
 1\1\GINC-SE159\SP\RHF\Aug-CC-pVDZ\C4H5N1O1\OHZDE\09-Apr-2025\0\\#t hf
 aug-cc-pvdz iop(5/13=1,5/36=2,99/5=2) pseudo=read geom=check guess=(re
 ad,tcheck) scf=(maxcycle=1)\\title\\0,1\C,0,-1.47934528,0.40331258,-0.
 54262216\C,0,-0.34500287,-0.47785138,-0.79057254\O,0,1.00199002,0.0579
 3189,-1.09164972\C,0,1.52909825,0.39825109,0.10771857\N,0,0.87482869,0
 .14958909,1.18994099\C,0,-0.37564733,-0.42144336,0.76986245\H,0,-1.100
 5415,1.44534428,-0.51148099\H,0,-1.31029557,0.27411066,0.97407389\H,0,
 -0.45834249,-1.42542757,-1.31642635\H,0,2.49481381,0.8979804,0.0633523

 Normal termination of Gaussian 16 at Wed Apr  9 03:09:48 2025.
