 Gaussian 16, Revision C.01,

 ----------------------------------------------------------------------
 #t hf aug-cc-pvdz symm=none int=(grid=ultrafine) guess=(read,tcheck) s
 table=(opt,rrhf)
 ----------------------------------------------------------------------
 -----
 title
 -----
 Symbolic Z-matrix:
 Charge =  0 Multiplicity = 1

 SCF Done:  E(RHF) =  -283.487939792     A.U. after   16 cycles
 Normal termination of Gaussian 16 at Wed Apr  9 03:20:55 2025.
 Gaussian 16:  ES64L-G16RevC.01  3-Jul-2019

 ----------------------------------------------------------------------
 #t hf aug-cc-pvdz iop(5/13=1,5/36=2,99/5=2) pseudo=read geom=check gue
 ss=(read,tcheck) scf=(maxcycle=1)
 ----------------------------------------------------------------------
 -----
 title
 -----
 Structure from the checkpoint file:  "Grambow2020_wb97xd3_006131_reverse_mol2.chk"
 Charge =  0 Multiplicity = 1

                         Standard orientation:
 ---------------------------------------------------------------------
 Center     Atomic      Atomic             Coordinates (Angstroms)
 Number     Number       Type             X           Y           Z
 ---------------------------------------------------------------------
      1          7           0        2.594178    0.051687    0.158494
      2          6           0        1.489546   -0.079407   -0.117066
      3          6           0        0.104922   -0.242894   -0.504401
      4          6           0       -0.973784   -0.952230    0.335202
      5          8           0       -1.788288    0.144726    0.114661
      6          6           0       -0.855456    0.876633   -0.437163
      7          1           0        0.030865   -0.713974   -1.492717
      8          1           0       -0.003996    1.130604    2.052490
      9          1           0       -1.426367   -1.905446    0.072308
     10          1           0       -0.181366    0.401558    2.126093
     11          1           0       -0.863448    1.955029   -0.444354
 ---------------------------------------------------------------------

 SCF Done:  E(RHF) =  -283.577824802     A.U. after    2 cycles

 The electronic state is 1-A.
 Alpha  occ. eigenvalues --  -20.71788 -15.65458 -11.37954 -11.32883 -11.30518
 Alpha  occ. eigenvalues --  -11.30072  -1.50457  -1.21321  -1.09428  -0.98912
 Alpha  occ. eigenvalues --   -0.85754  -0.77116  -0.75419  -0.70479  -0.64250
 Alpha  occ. eigenvalues --   -0.60317  -0.57662  -0.56580  -0.55765  -0.47810
 Alpha  occ. eigenvalues --   -0.47037  -0.30426
 Alpha virt. eigenvalues --    0.02335   0.02855   0.03763   0.04880   0.07049
 Alpha virt. eigenvalues --    0.08000   0.08382   0.09889   0.10190   0.11452
 Alpha virt. eigenvalues --    0.12621   0.13643   0.13858   0.14684   0.14892

 Mulliken charges:
               1
     1  N   -0.091199
     2  C   -0.641048
     3  C    0.552522
     4  C    0.572543
     5  O   -0.499266
     6  C    0.581163
     7  H    0.092564
     8  H   -0.035912
     9  H   -0.367317
    10  H    0.114507
    11  H   -0.278556
 Sum of Mulliken charges =  -0.00000

 Dipole moment (field-independent basis, Debye):
    X=             -2.7291    Y=              0.8197    Z=             -2.8273  Tot=              4.0142

 Test job not archived.
 1\1\GINC-SE322\SP\RHF\Aug-CC-pVDZ\C4H5N1O1\OHZDE\09-Apr-2025\0\\#t hf
 aug-cc-pvdz iop(5/13=1,5/36=2,99/5=2) pseudo=read geom=check guess=(re
 ad,tcheck) scf=(maxcycle=1)\\title\\0,1\N,0,2.56432664,-0.59347669,0.8
 8001936\C,0,1.54954264,-0.59860409,0.34755633\C,0,0.28529879,-0.624934
 31,-0.35595974\C,0,-1.10232704,-0.57514206,0.31015879\O,0,-1.43874439,
 0.41893335,-0.59206351\C,0,-0.22924417,0.56142191,-1.0686954\H,0,0.231
 80305,-1.49173784,-1.02674969\H,0,0.1994765,1.81359256,1.21956239\H,0,
 -1.79939345,-1.40937289,0.33702887\H,0,-0.22691602,1.27375371,1.528025

 Normal termination of Gaussian 16 at Wed Apr  9 03:20:59 2025.
