 Gaussian 16, Revision C.01,

 ----------------------------------------------------------------------
 #t hf aug-cc-pvdz symm=none int=(grid=ultrafine) guess=(read,tcheck) s
 table=(opt,rrhf)
 ----------------------------------------------------------------------
 -----
 title
 -----
 Symbolic Z-matrix:
 Charge =  0 Multiplicity = 1

 SCF Done:  E(RHF) =  -304.597516313     A.U. after   16 cycles
 Normal termination of Gaussian 16 at Wed Apr  9 14:17:07 2025.
 Gaussian 16:  ES64L-G16RevC.01  3-Jul-2019

 ----------------------------------------------------------------------
 #t hf aug-cc-pvdz iop(5/13=1,5/36=2,99/5=2) pseudo=read geom=check gue
 ss=(read,tcheck) scf=(maxcycle=1)
 ----------------------------------------------------------------------
 -----
 title
 -----
 Structure from the checkpoint file:  "Grambow2020_b97d3_006932_reverse_mol2.chk"
 Charge =  0 Multiplicity = 1

                         Standard orientation:
 ---------------------------------------------------------------------
 Center     Atomic      Atomic             Coordinates (Angstroms)
 Number     Number       Type             X           Y           Z
 ---------------------------------------------------------------------
      1          8           0        2.600479   -0.391931   -0.706443
      2          6           0        1.682073   -0.193512    0.006252
      3          6           0       -2.722706   -0.146925   -0.443712
      4          6           0       -1.493385    0.277850   -0.128150
      5          8           0       -0.586437   -0.557299    0.505085
      6          6           0        0.647003    0.017524    0.817163
      7          1           0        1.070386    3.677303   -0.159861
      8          1           0       -3.415369    0.530647   -0.936493
      9          1           0       -3.050260   -1.160598   -0.220475
     10          1           0       -1.123644    1.282198   -0.341541
     11          1           0        0.765688    0.574829    1.744885
     12          1           0        0.962955    2.959834    0.015036
 ---------------------------------------------------------------------

 SCF Done:  E(RHF) =  -304.699289218     A.U. after    2 cycles

 The electronic state is 1-A.
 Alpha  occ. eigenvalues --  -20.66071 -20.63037 -11.41219 -11.32579 -11.32063
 Alpha  occ. eigenvalues --  -11.24071  -1.43990  -1.38941  -1.07289  -1.00484
 Alpha  occ. eigenvalues --   -0.82505  -0.78707  -0.74227  -0.72418  -0.67465
 Alpha  occ. eigenvalues --   -0.64733  -0.61745  -0.60334  -0.58696  -0.57281
 Alpha  occ. eigenvalues --   -0.54390  -0.37634  -0.36492
 Alpha virt. eigenvalues --    0.03501   0.04348   0.04981   0.06103   0.06741
 Alpha virt. eigenvalues --    0.07035   0.08674   0.09728   0.10589   0.11164
 Alpha virt. eigenvalues --    0.12445   0.12814   0.13491   0.14130   0.14943

 Mulliken charges:
               1
     1  O   -0.230750
     2  C   -0.369105
     3  C    0.506119
     4  C    0.675122
     5  O   -0.706719
     6  C    1.191021
     7  H    0.037699
     8  H   -0.227066
     9  H   -0.294548
    10  H   -0.343182
    11  H   -0.193114
    12  H   -0.045476
 Sum of Mulliken charges =  -0.00000

 Dipole moment (field-independent basis, Debye):
    X=             -0.9727    Y=              1.6741    Z=              0.9769  Tot=              2.1686

 Test job not archived.
 1\1\GINC-SE054\SP\RHF\Aug-CC-pVDZ\C4H6O2\OHZDE\09-Apr-2025\0\\#t hf au
 g-cc-pvdz iop(5/13=1,5/36=2,99/5=2) pseudo=read geom=check guess=(read
 ,tcheck) scf=(maxcycle=1)\\title\\0,1\O,0,1.20838226,-2.90487934,0.644
 01312\C,0,1.12890345,-1.73281544,0.74755755\C,0,-2.09935594,1.27016573
 ,0.33870539\C,0,-0.92000377,0.66776596,0.14508983\O,0,-0.19277276,0.15
 615512,1.20829352\C,0,1.03991599,-0.41058025,0.87893382\H,0,1.97409413
 ,-0.32714954,-2.81540824\H,0,-2.6467519,1.66610267,-0.51294636\H,0,-2.
 52992834,1.37393787,1.3329377\H,0,-0.45802182,0.53621003,-0.83481985\H

 Normal termination of Gaussian 16 at Wed Apr  9 14:17:11 2025.
