 Gaussian 16, Revision C.01,

 ----------------------------------------------------------------------
 #t hf aug-cc-pvdz symm=none int=(grid=ultrafine) guess=(read,tcheck) s
 table=(opt,rrhf)
 ----------------------------------------------------------------------
 -----
 title
 -----
 Symbolic Z-matrix:
 Charge =  0 Multiplicity = 1

 SCF Done:  E(RHF) =  -345.911508484     A.U. after   15 cycles

 1\1\GINC-SE226\Stability\RHF\Aug-CC-pVDZ\C5H12O2\OHZDE\09-Apr-2025\0\\
 #t hf aug-cc-pvdz symm=none int=(grid=ultrafine) guess=(read,tcheck) s
 table=(opt,rrhf)\\title\\0,1\C,0,2.26429094,-0.41109129,1.53090191\C,0
 ,0.53121377,0.71249364,0.77086143\C,0,0.20203795,-0.11700448,-0.385521
 68\O,0,0.26895372,-1.41177816,-0.13179488\C,0,-1.37532569,0.34389142,-
 0.4829238\C,0,-1.7856819,0.1688452,-1.93620441\O,0,-2.06195581,-0.4897
 2879,0.38463038\H,0,2.28641376,-0.99436492,2.45261951\H,0,3.16461951,-
 0.55595524,0.93472641\H,0,2.27525611,0.63616442,1.85347273\H,0,-0.0184

 Normal termination of Gaussian 16 at Wed Apr  9 16:20:27 2025.
 Gaussian 16:  ES64L-G16RevC.01  3-Jul-2019

 ----------------------------------------------------------------------
 #t hf aug-cc-pvdz iop(5/13=1,5/36=2,99/5=2) pseudo=read geom=check gue
 ss=(read,tcheck) scf=(maxcycle=1)
 ----------------------------------------------------------------------
 -----
 title
 -----
 Structure from the checkpoint file:  "Grambow2020_wb97xd3_008081_forward_mol1.chk"
 Charge =  0 Multiplicity = 1

                         Standard orientation:
 ---------------------------------------------------------------------
 Center     Atomic      Atomic             Coordinates (Angstroms)
 Number     Number       Type             X           Y           Z
 ---------------------------------------------------------------------
      1          6           0       -2.939367   -0.053940   -0.051398
      2          6           0       -0.996850   -0.103495    0.981963
      3          6           0       -0.152100   -0.541365   -0.126330
      4          8           0       -0.437964    0.061177   -1.266732
      5          6           0        1.253004    0.065621    0.479673
      6          6           0        2.373500   -0.782273   -0.100518
      7          8           0        1.296693    1.387612    0.068014
      8          1           0       -3.500169    0.847366   -0.303207
      9          1           0       -3.378812   -0.945713   -0.497080
     10          1           0       -3.049389   -0.167001    1.033051
     11          1           0       -1.047307    0.968429    1.144978
     12          1           0       -1.161863   -0.732871    1.854637
     13          1           0       -0.048277   -1.639565   -0.150479
     14          1           0       -1.955441    0.097633   -0.667319
     15          1           0        1.312517    0.047441    1.574748
     16          1           0        2.279833   -0.813916   -1.187127
     17          1           0        3.333249   -0.334055    0.160836
     18          1           0        2.342596   -1.801467    0.289584
     19          1           0        0.774110    1.376118   -0.763216
 ---------------------------------------------------------------------

 SCF Done:  E(RHF) =  -346.020935988     A.U. after    2 cycles

 The electronic state is 1-A.
 Alpha  occ. eigenvalues --  -20.55231 -20.47434 -11.37172 -11.30314 -11.29231
 Alpha  occ. eigenvalues --  -11.24264 -11.22291  -1.32943  -1.24852  -1.05895
 Alpha  occ. eigenvalues --   -1.00512  -0.95637  -0.84562  -0.79993  -0.71138
 Alpha  occ. eigenvalues --   -0.70394  -0.64880  -0.62751  -0.60507  -0.58647
 Alpha  occ. eigenvalues --   -0.57435  -0.55645  -0.54464  -0.53803  -0.52015
 Alpha  occ. eigenvalues --   -0.47078  -0.43720  -0.39458  -0.37550
 Alpha virt. eigenvalues --    0.02098   0.03463   0.04082   0.04611   0.05744
 Alpha virt. eigenvalues --    0.06116   0.06361   0.06962   0.07142   0.08276
 Alpha virt. eigenvalues --    0.08742   0.09117   0.10542   0.12351   0.13476

 Mulliken charges:
               1
     1  C    0.579222
     2  C    0.399210
     3  C    1.007795
     4  O   -1.079139
     5  C    0.337798
     6  C    0.380751
     7  O   -0.650380
     8  H    0.011862
     9  H   -0.037640
    10  H   -0.055669
    11  H   -0.043953
    12  H   -0.363632
    13  H   -0.287974
    14  H   -0.081586
    15  H   -0.332524
    16  H   -0.002188
    17  H   -0.016074
    18  H   -0.003768
    19  H    0.237891
 Sum of Mulliken charges =  -0.00000

 Dipole moment (field-independent basis, Debye):
    X=             -2.4976    Y=             -2.1692    Z=              4.8358  Tot=              5.8590

 Test job not archived.
 1\1\GINC-SE226\SP\RHF\Aug-CC-pVDZ\C5H12O2\OHZDE\09-Apr-2025\0\\#t hf a
 ug-cc-pvdz iop(5/13=1,5/36=2,99/5=2) pseudo=read geom=check guess=(rea
 d,tcheck) scf=(maxcycle=1)\\title\\0,1\C,0,2.26429094,-0.41109129,1.53
 090191\C,0,0.53121377,0.71249364,0.77086143\C,0,0.20203795,-0.11700448
 ,-0.38552168\O,0,0.26895372,-1.41177816,-0.13179488\C,0,-1.37532569,0.
 34389142,-0.4829238\C,0,-1.7856819,0.1688452,-1.93620441\O,0,-2.061955
 81,-0.48972879,0.38463038\H,0,2.28641376,-0.99436492,2.45261951\H,0,3.
 16461951,-0.55595524,0.93472641\H,0,2.27525611,0.63616442,1.85347273\H

 Normal termination of Gaussian 16 at Wed Apr  9 16:20:34 2025.
