 Gaussian 16, Revision C.01,

 ----------------------------------------------------------------------
 #t hf aug-cc-pvdz symm=none int=(grid=ultrafine) guess=(read,tcheck) s
 table=(opt,rrhf)
 ----------------------------------------------------------------------
 -----
 title
 -----
 Symbolic Z-matrix:
 Charge =  0 Multiplicity = 1

 SCF Done:  E(RHF) =  -379.563036405     A.U. after   13 cycles
 Normal termination of Gaussian 16 at Wed Apr  9 16:31:55 2025.
 Gaussian 16:  ES64L-G16RevC.01  3-Jul-2019

 ----------------------------------------------------------------------
 #t hf aug-cc-pvdz iop(5/13=1,5/36=2,99/5=2) pseudo=read geom=check gue
 ss=(read,tcheck) scf=(maxcycle=1)
 ----------------------------------------------------------------------
 -----
 title
 -----
 Structure from the checkpoint file:  "Grambow2020_wb97xd3_008536_reverse_mol2.chk"
 Charge =  0 Multiplicity = 1

                         Standard orientation:
 ---------------------------------------------------------------------
 Center     Atomic      Atomic             Coordinates (Angstroms)
 Number     Number       Type             X           Y           Z
 ---------------------------------------------------------------------
      1          8           0        0.056700   -1.090913   -0.539159
      2          6           0       -0.716578   -0.262179    0.279324
      3          6           0       -2.191256   -0.653653    0.350349
      4          8           0       -2.597620    0.689432    0.044117
      5          6           0       -1.255222    1.053650   -0.306009
      6          6           0        3.098737   -0.030164    0.008594
      7          8           0        4.138017    0.350949    0.185973
      8          1           0        0.983432   -0.862239   -0.428668
      9          1           0       -2.585701   -0.995237    1.309377
     10          1           0       -2.467065   -1.357002   -0.441889
     11          1           0       -1.114490    1.114696   -1.390715
     12          1           0       -0.947656    1.990311    0.165822
     13          1           0       -0.259377   -0.132202    1.265079
 ---------------------------------------------------------------------

 SCF Done:  E(RHF) =  -379.684437249     A.U. after    2 cycles

 The electronic state is 1-A.
 Alpha  occ. eigenvalues --  -20.70717 -20.57911 -20.56371 -11.39772 -11.29744
 Alpha  occ. eigenvalues --  -11.28529 -11.28473  -1.51850  -1.35765  -1.32541
 Alpha  occ. eigenvalues --   -0.99266  -0.93904  -0.84063  -0.78136  -0.74471
 Alpha  occ. eigenvalues --   -0.69314  -0.68280  -0.68277  -0.65579  -0.62538
 Alpha  occ. eigenvalues --   -0.58744  -0.56607  -0.56392  -0.54288  -0.47924
 Alpha  occ. eigenvalues --   -0.44351  -0.42518
 Alpha virt. eigenvalues --    0.03697   0.04521   0.04747   0.05421   0.06740
 Alpha virt. eigenvalues --    0.06956   0.07495   0.08375   0.09277   0.11495
 Alpha virt. eigenvalues --    0.12415   0.13566   0.13891   0.14032   0.15175

 Mulliken charges:
               1
     1  O   -0.499927
     2  C    0.406221
     3  C    0.872905
     4  O   -0.770094
     5  C    0.782684
     6  C    0.197995
     7  O   -0.212287
     8  H    0.124033
     9  H   -0.168988
    10  H   -0.171474
    11  H   -0.184407
    12  H   -0.193178
    13  H   -0.183484
 Sum of Mulliken charges =  -0.00000

 Dipole moment (field-independent basis, Debye):
    X=              2.6546    Y=              0.0351    Z=              0.9498  Tot=              2.8196

 Test job not archived.
 1\1\GINC-SE163\SP\RHF\Aug-CC-pVDZ\C4H6O3\OHZDE\09-Apr-2025\0\\#t hf au
 g-cc-pvdz iop(5/13=1,5/36=2,99/5=2) pseudo=read geom=check guess=(read
 ,tcheck) scf=(maxcycle=1)\\title\\0,1\O,0,0.26138399,-1.0278281,-0.782
 04745\C,0,-0.29891556,-0.23760117,0.22605973\C,0,-1.80623978,-0.416843
 38,0.39581419\O,0,-2.01635383,1.00258,0.33357112\C,0,-0.66659557,1.219
 19892,-0.10059813\C,0,3.46871522,-0.52221851,-0.41246005\O,0,4.5666555
 ,-0.32964297,-0.29306151\H,0,1.21868961,-0.95699231,-0.73867488\H,0,-2
 .16956294,-0.84679657,1.33130292\H,0,-2.25562768,-0.93638393,-0.456558

 Normal termination of Gaussian 16 at Wed Apr  9 16:31:59 2025.
