 Gaussian 16, Revision C.01,

 ----------------------------------------------------------------------
 #t hf aug-cc-pvdz symm=none int=(grid=ultrafine) guess=(read,tcheck) s
 table=(opt,rrhf)
 ----------------------------------------------------------------------
 -----
 title
 -----
 Symbolic Z-matrix:
 Charge =  0 Multiplicity = 1

 SCF Done:  E(RHF) =  -308.840230847     A.U. after   15 cycles

 1\1\GINC-SE114\Stability\RHF\Aug-CC-pVDZ\C6H12O1\OHZDE\09-Apr-2025\0\\
 #t hf aug-cc-pvdz symm=none int=(grid=ultrafine) guess=(read,tcheck) s
 table=(opt,rrhf)\\title\\0,1\C,0,1.71563351,0.03273143,-1.45691068\C,0
 ,1.07351145,0.16949343,-0.09746067\O,0,0.90128308,1.5498061,0.29512199
 \C,0,-0.52221775,1.47509827,0.13880617\C,0,-0.44428593,-0.02017266,-0.
 08305406\C,0,-0.63045395,-0.62908077,1.92630519\C,0,-1.27244576,-0.831
 58492,-0.90429661\H,0,2.72168313,0.45300116,-1.4250628\H,0,1.78538121,
 -1.01938493,-1.74029365\H,0,1.1395419,0.55698073,-2.21983303\H,0,1.628

 Normal termination of Gaussian 16 at Wed Apr  9 14:36:11 2025.
 Gaussian 16:  ES64L-G16RevC.01  3-Jul-2019

 ----------------------------------------------------------------------
 #t hf aug-cc-pvdz iop(5/13=1,5/36=2,99/5=2) pseudo=read geom=check gue
 ss=(read,tcheck) scf=(maxcycle=1)
 ----------------------------------------------------------------------
 -----
 title
 -----
 Structure from the checkpoint file:  "Grambow2020_wb97xd3_006578_reverse_mol1.chk"
 Charge =  0 Multiplicity = 1

                         Standard orientation:
 ---------------------------------------------------------------------
 Center     Atomic      Atomic             Coordinates (Angstroms)
 Number     Number       Type             X           Y           Z
 ---------------------------------------------------------------------
      1          6           0        2.051128    0.535663   -0.487306
      2          6           0        0.746920   -0.218635   -0.583240
      3          8           0        0.720624   -1.385940    0.268671
      4          6           0       -0.224570   -0.781815    1.161985
      5          6           0       -0.405498    0.388259    0.218946
      6          6           0       -1.988987   -0.397287   -0.929285
      7          6           0       -0.680132    1.744163    0.542639
      8          1           0        2.863193   -0.100516   -0.841714
      9          1           0        2.016570    1.434918   -1.105581
     10          1           0        2.260264    0.832843    0.540661
     11          1           0        0.519003   -0.481119   -1.616943
     12          1           0        0.242924   -0.469176    2.102016
     13          1           0       -1.086509   -1.415934    1.365229
     14          1           0       -1.636615   -1.419930   -1.034453
     15          1           0       -2.051559    0.096796   -1.901628
     16          1           0       -2.949997   -0.370949   -0.407721
     17          1           0       -1.540891    0.840058   -0.207712
     18          1           0       -0.316739    2.531807   -0.100859
     19          1           0       -1.077800    1.986635    1.516898
 ---------------------------------------------------------------------

 SCF Done:  E(RHF) =  -308.938552141     A.U. after    2 cycles

 The electronic state is 1-A.
 Alpha  occ. eigenvalues --  -20.57849 -11.32872 -11.31132 -11.30688 -11.23573
 Alpha  occ. eigenvalues --  -11.22187 -11.20153  -1.36613  -1.09740  -1.02230
 Alpha  occ. eigenvalues --   -0.93041  -0.91888  -0.87764  -0.73554  -0.70379
 Alpha  occ. eigenvalues --   -0.67648  -0.65939  -0.59676  -0.58534  -0.57358
 Alpha  occ. eigenvalues --   -0.55843  -0.55284  -0.53534  -0.51963  -0.50599
 Alpha  occ. eigenvalues --   -0.47226  -0.44158  -0.26210
 Alpha virt. eigenvalues --    0.03353   0.04169   0.04703   0.04775   0.06171
 Alpha virt. eigenvalues --    0.06280   0.06320   0.06888   0.07459   0.08898
 Alpha virt. eigenvalues --    0.09121   0.10044   0.11428   0.12604   0.13415

 Mulliken charges:
               1
     1  C    0.464578
     2  C    0.362103
     3  O   -0.802237
     4  C    1.023951
     5  C   -0.912544
     6  C    0.317600
     7  C    0.878117
     8  H    0.029261
     9  H    0.043903
    10  H    0.037363
    11  H   -0.258494
    12  H   -0.136157
    13  H   -0.128575
    14  H   -0.282281
    15  H   -0.105016
    16  H   -0.075060
    17  H    0.243248
    18  H   -0.326062
    19  H   -0.373700
 Sum of Mulliken charges =  -0.00000

 Dipole moment (field-independent basis, Debye):
    X=              0.0389    Y=              0.5326    Z=             -0.0824  Tot=              0.5403

 Test job not archived.
 1\1\GINC-SE114\SP\RHF\Aug-CC-pVDZ\C6H12O1\OHZDE\09-Apr-2025\0\\#t hf a
 ug-cc-pvdz iop(5/13=1,5/36=2,99/5=2) pseudo=read geom=check guess=(rea
 d,tcheck) scf=(maxcycle=1)\\title\\0,1\C,0,1.71563351,0.03273143,-1.45
 691068\C,0,1.07351145,0.16949343,-0.09746067\O,0,0.90128308,1.5498061,
 0.29512199\C,0,-0.52221775,1.47509827,0.13880617\C,0,-0.44428593,-0.02
 017266,-0.08305406\C,0,-0.63045395,-0.62908077,1.92630519\C,0,-1.27244
 576,-0.83158492,-0.90429661\H,0,2.72168313,0.45300116,-1.4250628\H,0,1
 .78538121,-1.01938493,-1.74029365\H,0,1.1395419,0.55698073,-2.21983303

 Normal termination of Gaussian 16 at Wed Apr  9 14:36:18 2025.
