 Gaussian 16, Revision C.01,

 ----------------------------------------------------------------------
 #t hf aug-cc-pvdz symm=none int=(grid=ultrafine) guess=(read,tcheck) s
 table=(opt,rrhf)
 ----------------------------------------------------------------------
 -----
 title
 -----
 Symbolic Z-matrix:
 Charge =  0 Multiplicity = 1

 SCF Done:  E(RHF) =  -306.484215903     A.U. after   17 cycles
 Normal termination of Gaussian 16 at Wed Apr  9 16:23:10 2025.
 Gaussian 16:  ES64L-G16RevC.01  3-Jul-2019

 ----------------------------------------------------------------------
 #t hf aug-cc-pvdz iop(5/13=1,5/36=2,99/5=2) pseudo=read geom=check gue
 ss=(read,tcheck) scf=(maxcycle=1)
 ----------------------------------------------------------------------
 -----
 title
 -----
 Structure from the checkpoint file:  "Grambow2020_wb97xd3_008174_forward_mol1.chk"
 Charge =  0 Multiplicity = 1

                         Standard orientation:
 ---------------------------------------------------------------------
 Center     Atomic      Atomic             Coordinates (Angstroms)
 Number     Number       Type             X           Y           Z
 ---------------------------------------------------------------------
      1          6           0        1.564871    0.272629    0.206991
      2          6           0        0.885575   -0.737183   -0.670976
      3          8           0        0.006590   -1.490346    0.001134
      4          6           0       -0.879452   -0.743661    0.669154
      5          6           0       -1.567578    0.259725   -0.208155
      6          6           0       -0.507630    1.235647   -0.504153
      7          6           0        0.496759    1.238862    0.503896
      8          1           0        2.074925   -0.193407    1.066442
      9          1           0        2.326241    0.769526   -0.403711
     10          1           0        1.442840   -1.333670   -1.384617
     11          1           0       -1.427792   -1.338687    1.390720
     12          1           0       -2.072796   -0.210880   -1.067515
     13          1           0       -2.331644    0.749506    0.404702
     14          1           0       -0.802685    2.160338   -1.005675
     15          1           0        0.782927    2.163922    1.010036
 ---------------------------------------------------------------------

 SCF Done:  E(RHF) =  -306.576232147     A.U. after    2 cycles

 The electronic state is 1-A.
 Alpha  occ. eigenvalues --  -20.65400 -11.31101 -11.30952 -11.25814 -11.25703
 Alpha  occ. eigenvalues --  -11.24469 -11.24423  -1.43355  -1.10756  -1.05437
 Alpha  occ. eigenvalues --   -0.93805  -0.90277  -0.76098  -0.75437  -0.73292
 Alpha  occ. eigenvalues --   -0.68534  -0.63545  -0.62513  -0.60012  -0.57028
 Alpha  occ. eigenvalues --   -0.53808  -0.53696  -0.49080  -0.48741  -0.29906
 Alpha  occ. eigenvalues --   -0.24988
 Alpha virt. eigenvalues --    0.03505   0.04289   0.04350   0.04595   0.05537
 Alpha virt. eigenvalues --    0.06364   0.06471   0.06676   0.06709   0.09408
 Alpha virt. eigenvalues --    0.11063   0.12431   0.13736   0.13945   0.13989

 Mulliken charges:
               1
     1  C    0.187974
     2  C    0.667790
     3  O   -0.539798
     4  C    0.676947
     5  C    0.184263
     6  C    0.281758
     7  C    0.275927
     8  H   -0.116312
     9  H    0.009948
    10  H   -0.414379
    11  H   -0.413235
    12  H   -0.116158
    13  H    0.011511
    14  H   -0.348254
    15  H   -0.347983
 Sum of Mulliken charges =  -0.00000

 Dipole moment (field-independent basis, Debye):
    X=             -0.0292    Y=              0.6983    Z=              0.0248  Tot=              0.6994

 Test job not archived.
 1\1\GINC-SE229\SP\RHF\Aug-CC-pVDZ\C6H8O1\OHZDE\09-Apr-2025\0\\#t hf au
 g-cc-pvdz iop(5/13=1,5/36=2,99/5=2) pseudo=read geom=check guess=(read
 ,tcheck) scf=(maxcycle=1)\\title\\0,1\C,0,-1.56088831,-0.12333061,-0.2
 2309533\C,0,-0.80615282,-0.8386051,0.85891422\O,0,0.15951413,-1.627868
 38,0.37295896\C,0,0.98293376,-0.96099048,-0.44319852\C,0,1.54624823,0.
 2768372,0.18959711\C,0,0.38759141,1.18029186,0.25896661\C,0,-0.5872441
 6,0.85729859,-0.72609193\H,0,-2.00094411,-0.81786299,-0.9579261\H,0,-2
 .38257407,0.41585349,0.26028985\H,0,-1.3185759,-1.3160563,1.68661485\H

 Normal termination of Gaussian 16 at Wed Apr  9 16:23:15 2025.
