 Gaussian 16, Revision C.01,

 ----------------------------------------------------------------------
 #t hf aug-cc-pvdz symm=none int=(grid=ultrafine) guess=(read,tcheck) s
 table=(opt,rrhf)
 ----------------------------------------------------------------------
 -----
 title
 -----
 Symbolic Z-matrix:
 Charge =  0 Multiplicity = 1

 SCF Done:  E(RHF) =  -271.919997971     A.U. after   15 cycles
 Normal termination of Gaussian 16 at Wed Apr  9 15:53:35 2025.
 Gaussian 16:  ES64L-G16RevC.01  3-Jul-2019

 ----------------------------------------------------------------------
 #t hf aug-cc-pvdz iop(5/13=1,5/36=2,99/5=2) pseudo=read geom=check gue
 ss=(read,tcheck) scf=(maxcycle=1)
 ----------------------------------------------------------------------
 -----
 title
 -----
 Structure from the checkpoint file:  "Grambow2020_wb97xd3_007423_forward_mol1.chk"
 Charge =  0 Multiplicity = 1

                         Standard orientation:
 ---------------------------------------------------------------------
 Center     Atomic      Atomic             Coordinates (Angstroms)
 Number     Number       Type             X           Y           Z
 ---------------------------------------------------------------------
      1          6           0       -2.328608   -0.869662   -0.598695
      2          6           0       -1.082927    0.436266    0.777846
      3          6           0        0.088693   -0.466622    1.117791
      4          6           0        1.314021    0.045934    0.322828
      5          6           0        1.959050   -0.973341   -0.615151
      6          6           0        0.742589    1.226503   -0.409669
      7          6           0       -0.577438    1.358317   -0.227658
      8          1           0       -1.443928   -1.094387   -1.181722
      9          1           0       -2.760417   -1.767310   -0.156791
     10          1           0       -3.056788   -0.307620   -1.180323
     11          1           0       -2.180162   -0.153468    0.437401
     12          1           0        0.266368   -0.400240    2.194163
     13          1           0       -0.129571   -1.517477    0.917174
     14          1           0        2.077422    0.390781    1.028235
     15          1           0        1.228182   -1.357553   -1.331090
     16          1           0        2.358070   -1.820186   -0.052902
     17          1           0        2.781119   -0.529820   -1.181533
     18          1           0        1.359958    1.894433   -1.001423
     19          1           0       -1.192537    2.118480   -0.694941
 ---------------------------------------------------------------------

 SCF Done:  E(RHF) =  -272.003097894     A.U. after    2 cycles

 The electronic state is 1-A.
 Alpha  occ. eigenvalues --  -11.24697 -11.24620 -11.24266 -11.24094 -11.23168
 Alpha  occ. eigenvalues --  -11.22924 -11.22916  -1.13856  -1.01080  -0.97204
 Alpha  occ. eigenvalues --   -0.93713  -0.87265  -0.76155  -0.71926  -0.67777
 Alpha  occ. eigenvalues --   -0.62696  -0.58484  -0.57733  -0.56974  -0.55440
 Alpha  occ. eigenvalues --   -0.53384  -0.50575  -0.49941  -0.48154  -0.47562
 Alpha  occ. eigenvalues --   -0.39254  -0.28397
 Alpha virt. eigenvalues --    0.03309   0.04164   0.04285   0.04826   0.05759
 Alpha virt. eigenvalues --    0.05993   0.06489   0.07104   0.07822   0.08598
 Alpha virt. eigenvalues --    0.08987   0.09596   0.10395   0.11573   0.12985

 Mulliken charges:
               1
     1  C    0.415989
     2  C   -0.510882
     3  C    0.664695
     4  C   -0.472907
     5  C    0.502333
     6  C    0.344147
     7  C    0.504290
     8  H   -0.199334
     9  H   -0.133472
    10  H   -0.125246
    11  H    0.122396
    12  H   -0.013921
    13  H   -0.172491
    14  H   -0.062512
    15  H   -0.044074
    16  H   -0.048918
    17  H   -0.089925
    18  H   -0.341292
    19  H   -0.338876
 Sum of Mulliken charges =  -0.00000

 Dipole moment (field-independent basis, Debye):
    X=              1.1362    Y=             -0.7961    Z=             -1.2139  Tot=              1.8434

 Test job not archived.
 1\1\GINC-SE092\SP\RHF\Aug-CC-pVDZ\C7H12\OHZDE\09-Apr-2025\0\\#t hf aug
 -cc-pvdz iop(5/13=1,5/36=2,99/5=2) pseudo=read geom=check guess=(read,
 tcheck) scf=(maxcycle=1)\\title\\0,1\C,0,-2.34513507,-0.72514519,-0.11
 311075\C,0,-1.03132114,1.10803101,0.14260166\C,0,0.04430904,0.61291101
 ,1.0919899\C,0,1.33430946,0.40498294,0.26206666\C,0,1.9147703,-1.00804
 008,0.2970187\C,0,0.89301062,0.81587467,-1.11388782\C,0,-0.41504855,1.
 09549606,-1.1752704\H,0,-1.46637928,-1.32233061,-0.32343742\H,0,-2.868
 49376,-1.07519423,0.77631112\H,0,-3.00214956,-0.66471062,-0.97862119\H

 Normal termination of Gaussian 16 at Wed Apr  9 15:53:42 2025.
