 Gaussian 16, Revision C.01,

 ----------------------------------------------------------------------
 #t hf aug-cc-pvdz symm=none int=(grid=ultrafine) guess=(read,tcheck) s
 table=(opt,rrhf)
 ----------------------------------------------------------------------
 -----
 title
 -----
 Symbolic Z-matrix:
 Charge =  0 Multiplicity = 1

 SCF Done:  E(RHF) =  -338.541547953     A.U. after   17 cycles
 Normal termination of Gaussian 16 at Wed Apr  9 15:19:56 2025.
 Gaussian 16:  ES64L-G16RevC.01  3-Jul-2019

 ----------------------------------------------------------------------
 #t hf aug-cc-pvdz iop(5/13=1,5/36=2,99/5=2) pseudo=read geom=check gue
 ss=(read,tcheck) scf=(maxcycle=1)
 ----------------------------------------------------------------------
 -----
 title
 -----
 Structure from the checkpoint file:  "Grambow2020_wb97xd3_006845_reverse_mol1.chk"
 Charge =  0 Multiplicity = 1

                         Standard orientation:
 ---------------------------------------------------------------------
 Center     Atomic      Atomic             Coordinates (Angstroms)
 Number     Number       Type             X           Y           Z
 ---------------------------------------------------------------------
      1          7           0       -2.254502   -0.224450    0.062554
      2          6           0       -0.923665    0.081028   -0.118753
      3          6           0        0.122533   -0.971246   -0.146996
      4          7           0        1.125225   -0.564936   -0.915192
      5          6           0        1.241066    0.825735   -0.354651
      6          8           0        1.211303   -0.052480    1.240245
      7          6           0       -0.224213    1.202566   -0.328118
      8          1           0       -2.459845   -1.060593    0.581725
      9          1           0       -2.851820    0.546822    0.305909
     10          1           0       -0.014508   -2.002611    0.170483
     11          1           0        1.977016   -1.106841   -0.867353
     12          1           0        0.845726    0.518573    1.925898
     13          1           0       -0.576380    2.221689   -0.379044
 ---------------------------------------------------------------------

 SCF Done:  E(RHF) =  -338.638886992     A.U. after    2 cycles

 The electronic state is 1-A.
 Alpha  occ. eigenvalues --  -20.53302 -15.66000 -15.65441 -11.38975 -11.30938
 Alpha  occ. eigenvalues --  -11.27729 -11.23370  -1.30943  -1.21392  -1.19456
 Alpha  occ. eigenvalues --   -1.04299  -0.94662  -0.80983  -0.77616  -0.73901
 Alpha  occ. eigenvalues --   -0.70152  -0.66617  -0.65175  -0.56793  -0.55966
 Alpha  occ. eigenvalues --   -0.53772  -0.49525  -0.48129  -0.42881  -0.32822
 Alpha  occ. eigenvalues --   -0.32212
 Alpha virt. eigenvalues --    0.01929   0.03097   0.04529   0.05832   0.06005
 Alpha virt. eigenvalues --    0.06268   0.07434   0.09748   0.11425   0.11805
 Alpha virt. eigenvalues --    0.12350   0.13660   0.14040   0.14659   0.15390

 Mulliken charges:
               1
     1  N   -0.331675
     2  C    0.102653
     3  C    1.001433
     4  N   -0.464830
     5  C   -0.068510
     6  O   -0.628778
     7  C    0.865173
     8  H   -0.034765
     9  H   -0.013008
    10  H   -0.307449
    11  H    0.046856
    12  H    0.138745
    13  H   -0.305845
 Sum of Mulliken charges =  -0.00000

 Dipole moment (field-independent basis, Debye):
    X=             -4.9118    Y=             -2.8708    Z=              1.0303  Tot=              5.7818

 Test job not archived.
 1\1\GINC-SE100\SP\RHF\Aug-CC-pVDZ\C4H6N2O1\OHZDE\09-Apr-2025\0\\#t hf
 aug-cc-pvdz iop(5/13=1,5/36=2,99/5=2) pseudo=read geom=check guess=(re
 ad,tcheck) scf=(maxcycle=1)\\title\\0,1\N,0,-1.87973314,0.72654212,-0.
 37905246\C,0,-0.54852435,0.37362103,-0.35360621\C,0,-0.11210752,-1.004
 95748,-0.01943875\N,0,1.03251194,-1.2596617,-0.64038508\C,0,1.72610621
 ,0.02895197,-0.2939863\O,0,1.14125917,-0.36427702,1.38505109\C,0,0.607
 51093,1.00033908,-0.60204399\H,0,-2.49759641,0.20377351,0.21743642\H,0
 ,-2.07143454,1.71351383,-0.37634127\H,0,-0.74116333,-1.77310638,0.4249

 Normal termination of Gaussian 16 at Wed Apr  9 15:20:00 2025.
