 Gaussian 16, Revision C.01,

 ----------------------------------------------------------------------
 #t hf aug-cc-pvdz symm=none int=(grid=ultrafine) guess=(read,tcheck) s
 table=(opt,rrhf)
 ----------------------------------------------------------------------
 -----
 title
 -----
 Symbolic Z-matrix:
 Charge =  0 Multiplicity = 1

 SCF Done:  E(RHF) =  -306.601908036     A.U. after   16 cycles
 Normal termination of Gaussian 16 at Wed Apr  9 16:25:07 2025.
 Gaussian 16:  ES64L-G16RevC.01  3-Jul-2019

 ----------------------------------------------------------------------
 #t hf aug-cc-pvdz iop(5/13=1,5/36=2,99/5=2) pseudo=read geom=check gue
 ss=(read,tcheck) scf=(maxcycle=1)
 ----------------------------------------------------------------------
 -----
 title
 -----
 Structure from the checkpoint file:  "Grambow2020_wb97xd3_008221_reverse_mol2.chk"
 Charge =  0 Multiplicity = 1

                         Standard orientation:
 ---------------------------------------------------------------------
 Center     Atomic      Atomic             Coordinates (Angstroms)
 Number     Number       Type             X           Y           Z
 ---------------------------------------------------------------------
      1          6           0        1.298236   -0.596541   -0.312989
      2          8           0        2.432633    0.230767   -0.217008
      3          6           0       -0.421934    1.178441    0.451845
      4          6           0       -1.464091    1.104123   -0.402669
      5          6           0       -1.795609   -0.190041   -0.610363
      6          6           0       -1.099518   -1.072518    0.395450
      7          6           0        0.189199   -0.194946    0.657609
      8          1           0        0.888621   -0.599648   -1.333049
      9          1           0        1.640655   -1.608368   -0.087408
     10          1           0       -0.172440    2.022995    1.086062
     11          1           0        2.194024    1.109681   -0.520490
     12          1           0       -2.301643   -0.587544   -1.483995
     13          1           0       -1.641413   -1.210747    1.334809
     14          1           0       -0.891422   -2.068376   -0.008149
     15          1           0        0.584854   -0.275238    1.674988
 ---------------------------------------------------------------------

 SCF Done:  E(RHF) =  -306.693499293     A.U. after    2 cycles

 The electronic state is 1-A.
 Alpha  occ. eigenvalues --  -20.58150 -11.30004 -11.28737 -11.28116 -11.26533
 Alpha  occ. eigenvalues --  -11.26437 -11.20761  -1.33697  -1.16363  -1.00694
 Alpha  occ. eigenvalues --   -0.96999  -0.90104  -0.79248  -0.73535  -0.72337
 Alpha  occ. eigenvalues --   -0.66260  -0.63145  -0.63020  -0.58328  -0.55728
 Alpha  occ. eigenvalues --   -0.54278  -0.51177  -0.49993  -0.46555  -0.38610
 Alpha  occ. eigenvalues --   -0.31454
 Alpha virt. eigenvalues --    0.02279   0.03104   0.03958   0.04389   0.04901
 Alpha virt. eigenvalues --    0.06206   0.06508   0.07286   0.07528   0.09787
 Alpha virt. eigenvalues --    0.12225   0.13025   0.13658   0.14078   0.14315

 Mulliken charges:
               1
     1  C    0.940776
     2  O   -0.564516
     3  C    0.673974
     4  C   -0.873546
     5  C    0.607557
     6  C    0.522687
     7  C   -0.379311
     8  H   -0.087874
     9  H   -0.151553
    10  H   -0.246387
    11  H    0.169378
    12  H   -0.246740
    13  H   -0.079340
    14  H   -0.113202
    15  H   -0.171903
 Sum of Mulliken charges =  -0.00000

 Dipole moment (field-independent basis, Debye):
    X=             -0.2310    Y=             -2.2023    Z=              0.8378  Tot=              2.3675

 Test job not archived.
 1\1\GINC-SE042\SP\RHF\Aug-CC-pVDZ\C6H8O1\OHZDE\09-Apr-2025\0\\#t hf au
 g-cc-pvdz iop(5/13=1,5/36=2,99/5=2) pseudo=read geom=check guess=(read
 ,tcheck) scf=(maxcycle=1)\\title\\0,1\C,0,-0.97242083,-0.66870326,-0.8
 6162529\O,0,-1.48382777,-1.95756749,-0.6212082\C,0,0.63527008,-0.61090
 086,1.16482606\C,0,1.81446492,-0.13452316,0.712753\C,0,1.60163435,0.94
 008947,-0.07959297\C,0,0.17477829,1.41019593,0.05476701\C,0,-0.5153753
 6,0.03418503,0.41522976\H,0,-0.13098301,-0.69593601,-1.56841827\H,0,-1
 .78180223,-0.10313661,-1.32742389\H,0,0.4829967,-1.19066049,2.06950401

 Normal termination of Gaussian 16 at Wed Apr  9 16:25:12 2025.
