 Gaussian 16, Revision C.01,

 ----------------------------------------------------------------------
 #t hf aug-cc-pvdz symm=none int=(grid=ultrafine) guess=(read,tcheck) s
 table=(opt,rrhf)
 ----------------------------------------------------------------------
 -----
 title
 -----
 Symbolic Z-matrix:
 Charge =  0 Multiplicity = 1

 SCF Done:  E(RHF) =  -359.456543241     A.U. after   16 cycles
 Normal termination of Gaussian 16 at Wed Apr  9 03:45:28 2025.
 Gaussian 16:  ES64L-G16RevC.01  3-Jul-2019

 ----------------------------------------------------------------------
 #t hf aug-cc-pvdz iop(5/13=1,5/36=2,99/5=2) pseudo=read geom=check gue
 ss=(read,tcheck) scf=(maxcycle=1)
 ----------------------------------------------------------------------
 -----
 title
 -----
 Structure from the checkpoint file:  "Grambow2020_wb97xd3_007897_forward_mol1.chk"
 Charge =  0 Multiplicity = 1

                         Standard orientation:
 ---------------------------------------------------------------------
 Center     Atomic      Atomic             Coordinates (Angstroms)
 Number     Number       Type             X           Y           Z
 ---------------------------------------------------------------------
      1          6           0       -1.068795    1.730052    0.035899
      2          6           0        0.586428   -0.074911   -0.026211
      3          7           0        1.734444   -0.578684   -0.132485
      4          8           0        2.745273    0.351067    0.181882
      5          6           0       -0.578431   -0.896674   -0.355463
      6          6           0       -1.648036   -0.930050    0.634283
      7          8           0       -1.716514    0.030686   -0.442324
      8          1           0       -0.452178    2.089023   -0.772581
      9          1           0       -2.116036    2.007328   -0.029164
     10          1           0       -0.622601    1.856754    1.008086
     11          1           0        3.543678   -0.165295    0.053030
     12          1           0       -0.589070   -1.603503   -1.177606
     13          1           0       -2.437995   -1.669723    0.593923
     14          1           0       -1.443970   -0.488327    1.604196
 ---------------------------------------------------------------------

 SCF Done:  E(RHF) =  -359.567627739     A.U. after    2 cycles

 The electronic state is 1-A.
 Alpha  occ. eigenvalues --  -20.65530 -20.55936 -15.63368 -11.35684 -11.32859
 Alpha  occ. eigenvalues --  -11.31354 -11.19842  -1.42629  -1.32393  -1.09266
 Alpha  occ. eigenvalues --   -1.00942  -0.94909  -0.89938  -0.76921  -0.72616
 Alpha  occ. eigenvalues --   -0.66661  -0.65728  -0.64145  -0.62704  -0.58568
 Alpha  occ. eigenvalues --   -0.56868  -0.55766  -0.52817  -0.50820  -0.45087
 Alpha  occ. eigenvalues --   -0.34626  -0.28147
 Alpha virt. eigenvalues --    0.02451   0.03631   0.04548   0.05028   0.06267
 Alpha virt. eigenvalues --    0.06540   0.07007   0.07968   0.10534   0.11453
 Alpha virt. eigenvalues --    0.13005   0.13508   0.14260   0.14575   0.14889

 Mulliken charges:
               1
     1  C    0.787947
     2  C   -0.285123
     3  N   -0.171390
     4  O   -0.481749
     5  C    0.750539
     6  C    0.924411
     7  O   -0.655816
     8  H   -0.016981
     9  H   -0.185675
    10  H    0.002483
    11  H    0.154744
    12  H   -0.335096
    13  H   -0.241904
    14  H   -0.246389
 Sum of Mulliken charges =  -0.00000

 Dipole moment (field-independent basis, Debye):
    X=             -4.7533    Y=              0.4246    Z=              0.7496  Tot=              4.8307

 Test job not archived.
 1\1\GINC-SE367\SP\RHF\Aug-CC-pVDZ\C4H7N1O2\OHZDE\09-Apr-2025\0\\#t hf
 aug-cc-pvdz iop(5/13=1,5/36=2,99/5=2) pseudo=read geom=check guess=(re
 ad,tcheck) scf=(maxcycle=1)\\title\\0,1\C,0,-0.56388828,-1.68826269,-0
 .19408932\C,0,-0.47281919,0.71087385,0.29310869\N,0,-0.91816536,1.8242
 0658,0.67413196\O,0,-2.01527975,1.67856775,1.54600898\C,0,0.64536606,0
 .68305427,-0.65001677\C,0,1.77197371,-0.17051998,-0.29374189\O,0,0.727
 90502,-0.70135621,-1.13927018\H,0,-1.53553147,-1.40029211,-0.56246099\
 H,0,-0.11110813,-2.53073319,-0.7069855\H,0,-0.50230191,-1.72153194,0.8

 Normal termination of Gaussian 16 at Wed Apr  9 03:45:33 2025.
