 Gaussian 16, Revision C.01,

 ----------------------------------------------------------------------
 #t hf aug-cc-pvdz symm=none int=(grid=ultrafine) guess=(read,tcheck) s
 table=(opt,rrhf)
 ----------------------------------------------------------------------
 -----
 title
 -----
 Symbolic Z-matrix:
 Charge =  0 Multiplicity = 1

 SCF Done:  E(RHF) =  -360.921334769     A.U. after   13 cycles
 Normal termination of Gaussian 16 at Wed Apr  9 03:58:15 2025.
 Gaussian 16:  ES64L-G16RevC.01  3-Jul-2019

 ----------------------------------------------------------------------
 #t hf aug-cc-pvdz iop(5/13=1,5/36=2,99/5=2) pseudo=read geom=check gue
 ss=(read,tcheck) scf=(maxcycle=1)
 ----------------------------------------------------------------------
 -----
 title
 -----
 Structure from the checkpoint file:  "Grambow2020_wb97xd3_008722_reverse_mol2.chk"
 Charge =  0 Multiplicity = 1

                         Standard orientation:
 ---------------------------------------------------------------------
 Center     Atomic      Atomic             Coordinates (Angstroms)
 Number     Number       Type             X           Y           Z
 ---------------------------------------------------------------------
      1          6           0        2.431392   -0.829951    0.116142
      2          6           0        1.190192    0.027139    0.294331
      3          8           0        1.264641    1.199044   -0.542336
      4          6           0       -0.058245   -0.724698   -0.037399
      5          6           0       -1.268192   -0.149951    0.033253
      6          8           0       -2.435945   -0.797151   -0.200721
      7          7           0       -1.488235    1.160985    0.376419
      8          1           0        2.511020   -1.163372   -0.920321
      9          1           0        2.389056   -1.706013    0.766284
     10          1           0        3.334615   -0.269031    0.368412
     11          1           0        1.142467    0.373935    1.338051
     12          1           0        2.032143    1.708309   -0.271477
     13          1           0        0.020418   -1.756895   -0.355499
     14          1           0       -2.253340   -1.732976   -0.307481
     15          1           0       -2.415123    1.491684    0.168553
     16          1           0       -0.744056    1.777085    0.085044
 ---------------------------------------------------------------------

 SCF Done:  E(RHF) =  -361.035555816     A.U. after    2 cycles

 The electronic state is 1-A.
 Alpha  occ. eigenvalues --  -20.60825 -20.56850 -15.62412 -11.34293 -11.29059
 Alpha  occ. eigenvalues --  -11.22566 -11.19665  -1.38301  -1.31907  -1.17625
 Alpha  occ. eigenvalues --   -1.04114  -0.96620  -0.85454  -0.80827  -0.72335
 Alpha  occ. eigenvalues --   -0.70318  -0.67275  -0.65071  -0.61883  -0.61069
 Alpha  occ. eigenvalues --   -0.59262  -0.55271  -0.55041  -0.52583  -0.48692
 Alpha  occ. eigenvalues --   -0.46944  -0.44649  -0.30614
 Alpha virt. eigenvalues --    0.03330   0.03852   0.04405   0.05375   0.05986
 Alpha virt. eigenvalues --    0.06470   0.07763   0.08821   0.09231   0.11746
 Alpha virt. eigenvalues --    0.12082   0.13574   0.14555   0.15149   0.15465

 Mulliken charges:
               1
     1  C    0.556744
     2  C   -0.020815
     3  O   -0.673864
     4  C    0.925626
     5  C    0.421906
     6  O   -0.503499
     7  N   -0.296374
     8  H    0.024585
     9  H    0.009498
    10  H   -0.091891
    11  H   -0.088375
    12  H    0.153130
    13  H   -0.621699
    14  H    0.153630
    15  H   -0.021302
    16  H    0.072700
 Sum of Mulliken charges =  -0.00000

 Dipole moment (field-independent basis, Debye):
    X=              1.0745    Y=             -0.2614    Z=              0.4736  Tot=              1.2030

 Test job not archived.
 1\1\GINC-SE207\SP\RHF\Aug-CC-pVDZ\C4H9N1O2\OHZDE\09-Apr-2025\0\\#t hf
 aug-cc-pvdz iop(5/13=1,5/36=2,99/5=2) pseudo=read geom=check guess=(re
 ad,tcheck) scf=(maxcycle=1)\\title\\0,1\C,0,-2.10298157,0.11568013,-0.
 84258321\C,0,-0.61117013,0.38606256,-0.75134706\O,0,-0.36408926,1.5902
 3745,0.00219641\C,0,0.12172633,-0.74596568,-0.10693045\C,0,1.44780856,
 -0.70659425,0.09119686\O,0,2.17183784,-1.72424644,0.61790878\N,0,2.252
 32748,0.35669498,-0.23575695\H,0,-2.52051137,-0.02326235,0.1564813\H,0
 ,-2.29453289,-0.7824562,-1.43302472\H,0,-2.62375199,0.9485651,-1.32131

 Normal termination of Gaussian 16 at Wed Apr  9 03:58:21 2025.
