 Gaussian 16, Revision C.01,

 ----------------------------------------------------------------------
 #t hf aug-cc-pvdz symm=none int=(grid=ultrafine) guess=(read,tcheck) s
 table=(opt,rrhf)
 ----------------------------------------------------------------------
 -----
 title
 -----
 Symbolic Z-matrix:
 Charge =  0 Multiplicity = 1

 SCF Done:  E(RHF) =  -307.718716116     A.U. after   16 cycles

 1\1\GINC-SE454\Stability\RHF\Aug-CC-pVDZ\C6H10O1\OHZDE\09-Apr-2025\0\\
 #t hf aug-cc-pvdz symm=none int=(grid=ultrafine) guess=(read,tcheck) s
 table=(opt,rrhf)\\title\\0,1\C,0,-1.98347324,-0.37381515,0.46799591\C,
 0,-1.08991098,0.02680068,-0.70457607\O,0,-0.93516492,1.27560048,-0.917
 79506\C,0,1.27069233,1.60379856,-0.20972824\C,0,1.5232632,0.33338841,-
 0.5841045\C,0,1.00709265,-0.93328345,0.92662516\C,0,0.51331907,-0.7497
 3222,-0.3612469\H,0,-3.00971693,-0.07379815,0.24777032\H,0,-1.67184028
 ,0.14587629,1.3756473\H,0,-1.96517594,-1.45301025,0.64568807\H,0,-1.29

 Normal termination of Gaussian 16 at Wed Apr  9 15:25:07 2025.
 Gaussian 16:  ES64L-G16RevC.01  3-Jul-2019

 ----------------------------------------------------------------------
 #t hf aug-cc-pvdz iop(5/13=1,5/36=2,99/5=2) pseudo=read geom=check gue
 ss=(read,tcheck) scf=(maxcycle=1)
 ----------------------------------------------------------------------
 -----
 title
 -----
 Structure from the checkpoint file:  "Grambow2020_wb97xd3_006891_forward_mol1.chk"
 Charge =  0 Multiplicity = 1

                         Standard orientation:
 ---------------------------------------------------------------------
 Center     Atomic      Atomic             Coordinates (Angstroms)
 Number     Number       Type             X           Y           Z
 ---------------------------------------------------------------------
      1          6           0       -2.066745    0.398847   -0.409617
      2          6           0       -1.069326   -0.332239    0.487345
      3          8           0       -0.684278   -1.488276    0.107576
      4          6           0        1.514363   -1.054206   -0.565061
      5          6           0        1.549415   -0.078517    0.364829
      6          6           0        0.753732    1.628368   -0.414034
      7          6           0        0.353168    0.786033    0.618506
      8          1           0       -3.012684   -0.145975   -0.402265
      9          1           0       -1.703566    0.422108   -1.438493
     10          1           0       -2.249807    1.421863   -0.068297
     11          1           0       -1.342858   -0.248287    1.558264
     12          1           0        2.277113   -1.823038   -0.573605
     13          1           0        0.821697   -1.044894   -1.390924
     14          1           0        2.365818    0.014184    1.069202
     15          1           0        0.793642    1.273343   -1.433991
     16          1           0        0.981073    2.682023   -0.266104
     17          1           0        0.336151    1.265159    1.593795
 ---------------------------------------------------------------------

 SCF Done:  E(RHF) =  -307.814022427     A.U. after    2 cycles

 The electronic state is 1-A.
 Alpha  occ. eigenvalues --  -20.47679 -11.33249 -11.28332 -11.27104 -11.26934
 Alpha  occ. eigenvalues --  -11.25499 -11.21147  -1.25225  -1.13733  -1.00846
 Alpha  occ. eigenvalues --   -0.96112  -0.87075  -0.78111  -0.74872  -0.71517
 Alpha  occ. eigenvalues --   -0.62687  -0.61684  -0.60358  -0.59775  -0.56474
 Alpha  occ. eigenvalues --   -0.55480  -0.52178  -0.51109  -0.48171  -0.36765
 Alpha  occ. eigenvalues --   -0.35911  -0.32876
 Alpha virt. eigenvalues --    0.02082   0.02613   0.04012   0.04140   0.05012
 Alpha virt. eigenvalues --    0.06060   0.06213   0.06792   0.07216   0.08449
 Alpha virt. eigenvalues --    0.09176   0.11601   0.12679   0.13371   0.13653

 Mulliken charges:
               1
     1  C    0.321894
     2  C    0.587531
     3  O   -0.804037
     4  C    0.559497
     5  C    0.406613
     6  C    0.566864
     7  C    0.570287
     8  H   -0.085839
     9  H   -0.036060
    10  H   -0.048621
    11  H   -0.160668
    12  H   -0.296681
    13  H   -0.308359
    14  H   -0.410512
    15  H   -0.277941
    16  H   -0.280709
    17  H   -0.303258
 Sum of Mulliken charges =  -0.00000

 Dipole moment (field-independent basis, Debye):
    X=              2.8475    Y=              5.0578    Z=             -0.6087  Tot=              5.8361

 Test job not archived.
 1\1\GINC-SE454\SP\RHF\Aug-CC-pVDZ\C6H10O1\OHZDE\09-Apr-2025\0\\#t hf a
 ug-cc-pvdz iop(5/13=1,5/36=2,99/5=2) pseudo=read geom=check guess=(rea
 d,tcheck) scf=(maxcycle=1)\\title\\0,1\C,0,-1.98347324,-0.37381515,0.4
 6799591\C,0,-1.08991098,0.02680068,-0.70457607\O,0,-0.93516492,1.27560
 048,-0.91779506\C,0,1.27069233,1.60379856,-0.20972824\C,0,1.5232632,0.
 33338841,-0.5841045\C,0,1.00709265,-0.93328345,0.92662516\C,0,0.513319
 07,-0.74973222,-0.3612469\H,0,-3.00971693,-0.07379815,0.24777032\H,0,-
 1.67184028,0.14587629,1.3756473\H,0,-1.96517594,-1.45301025,0.64568807

 Normal termination of Gaussian 16 at Wed Apr  9 15:25:13 2025.
