 Gaussian 16, Revision C.01,

 ----------------------------------------------------------------------
 #t hf aug-cc-pvdz symm=none int=(grid=ultrafine) guess=(read,tcheck) s
 table=(opt,rrhf)
 ----------------------------------------------------------------------
 -----
 title
 -----
 Symbolic Z-matrix:
 Charge =  0 Multiplicity = 1

 SCF Done:  E(RHF) =  -305.399116977     A.U. after   16 cycles
 Normal termination of Gaussian 16 at Wed Apr  9 16:14:58 2025.
 Gaussian 16:  ES64L-G16RevC.01  3-Jul-2019

 ----------------------------------------------------------------------
 #t hf aug-cc-pvdz iop(5/13=1,5/36=2,99/5=2) pseudo=read geom=check gue
 ss=(read,tcheck) scf=(maxcycle=1)
 ----------------------------------------------------------------------
 -----
 title
 -----
 Structure from the checkpoint file:  "Grambow2020_wb97xd3_008027_reverse_mol2.chk"
 Charge =  0 Multiplicity = 1

                         Standard orientation:
 ---------------------------------------------------------------------
 Center     Atomic      Atomic             Coordinates (Angstroms)
 Number     Number       Type             X           Y           Z
 ---------------------------------------------------------------------
      1          8           0        2.262090   -0.663480    0.021392
      2          6           0        0.929631   -0.980230   -0.297684
      3          6           0       -0.070093   -0.097426    0.477644
      4          6           0       -0.365120    2.355835   -0.394933
      5          6           0        0.185047    1.358226    0.204805
      6          6           0       -1.440512   -0.490415    0.151303
      7          6           0       -2.545985   -0.846502   -0.134133
      8          1           0        2.578377    0.010413   -0.582076
      9          1           0        0.731377   -0.885534   -1.369416
     10          1           0        0.760737   -2.019384   -0.011037
     11          1           0        0.100204   -0.271185    1.544095
     12          1           0        1.110556    1.827903    0.585876
     13          1           0       -3.535772   -1.151301   -0.380593
 ---------------------------------------------------------------------

 SCF Done:  E(RHF) =  -305.492142741     A.U. after    2 cycles

 The electronic state is 1-A.
 Alpha  occ. eigenvalues --  -20.59516 -11.31458 -11.30651 -11.30355 -11.26222
 Alpha  occ. eigenvalues --  -11.25809 -11.25319  -1.35146  -1.12977  -1.04618
 Alpha  occ. eigenvalues --   -1.00190  -0.89364  -0.76369  -0.74090  -0.70879
 Alpha  occ. eigenvalues --   -0.66650  -0.64191  -0.61879  -0.59154  -0.52458
 Alpha  occ. eigenvalues --   -0.50146  -0.45822  -0.41992  -0.41140  -0.39929
 Alpha virt. eigenvalues --    0.03126   0.03633   0.04612   0.04941   0.05788
 Alpha virt. eigenvalues --    0.06712   0.07238   0.08732   0.10223   0.10730
 Alpha virt. eigenvalues --    0.11262   0.12394   0.12845   0.12926   0.14159

 Mulliken charges:
               1
     1  O   -0.528309
     2  C    0.856858
     3  C   -0.576797
     4  C   -0.447353
     5  C    0.715512
     6  C   -0.177365
     7  C    1.001746
     8  H    0.180877
     9  H   -0.110242
    10  H   -0.173776
    11  H    0.064998
    12  H   -0.294860
    13  H   -0.511288
 Sum of Mulliken charges =  -0.00000

 Dipole moment (field-independent basis, Debye):
    X=              0.3951    Y=             -1.5804    Z=             -0.0980  Tot=              1.6320

 Test job not archived.
 1\1\GINC-SE173\SP\RHF\Aug-CC-pVDZ\C6H6O1\OHZDE\09-Apr-2025\0\\#t hf au
 g-cc-pvdz iop(5/13=1,5/36=2,99/5=2) pseudo=read geom=check guess=(read
 ,tcheck) scf=(maxcycle=1)\\title\\0,1\O,0,1.95564856,-1.15085946,-0.03
 234522\C,0,1.25781684,0.04312304,0.22265482\C,0,-0.20217496,-0.0306448
 9,-0.27020025\C,0,-1.85883297,-1.40622639,1.2231779\C,0,-0.92048199,-1
 .18514104,0.36982428\C,0,-0.87603517,1.24447618,-0.02736784\C,0,-1.389
 55374,2.30456457,0.17964552\H,0,1.86098974,-1.73726704,0.7196589\H,0,1
 .26201551,0.30104531,1.2858289\H,0,1.76217141,0.84202252,-0.3231637\H,

 Normal termination of Gaussian 16 at Wed Apr  9 16:15:29 2025.
