 Gaussian 16, Revision C.01,

 ----------------------------------------------------------------------
 #t hf aug-cc-pvdz symm=none int=(grid=ultrafine) guess=(read,tcheck) s
 table=(opt,rrhf)
 ----------------------------------------------------------------------
 -----
 title
 -----
 Symbolic Z-matrix:
 Charge =  0 Multiplicity = 1

 SCF Done:  E(RHF) =  -306.563199832     A.U. after   16 cycles
 Normal termination of Gaussian 16 at Wed Apr  9 16:25:09 2025.
 Gaussian 16:  ES64L-G16RevC.01  3-Jul-2019

 ----------------------------------------------------------------------
 #t hf aug-cc-pvdz iop(5/13=1,5/36=2,99/5=2) pseudo=read geom=check gue
 ss=(read,tcheck) scf=(maxcycle=1)
 ----------------------------------------------------------------------
 -----
 title
 -----
 Structure from the checkpoint file:  "Grambow2020_wb97xd3_008212_forward_mol1.chk"
 Charge =  0 Multiplicity = 1

                         Standard orientation:
 ---------------------------------------------------------------------
 Center     Atomic      Atomic             Coordinates (Angstroms)
 Number     Number       Type             X           Y           Z
 ---------------------------------------------------------------------
      1          6           0        1.163165   -0.748463   -0.583388
      2          8           0        1.674324    0.489022   -0.131976
      3          6           0        0.618852    0.918746    0.702213
      4          6           0       -0.596710    1.327643   -0.039822
      5          6           0       -1.583624    0.485779   -0.327288
      6          6           0       -1.353784   -0.952428    0.048239
      7          6           0        0.088876   -1.035901    0.485770
      8          1           0        0.717402   -0.679604   -1.583154
      9          1           0        1.971090   -1.482233   -0.608568
     10          1           0        0.317936   -0.141877    1.374101
     11          1           0       -0.657050    2.388228   -0.262602
     12          1           0       -2.516839    0.801829   -0.778628
     13          1           0       -2.021289   -1.275995    0.852649
     14          1           0       -1.544862   -1.621931   -0.800337
     15          1           0        0.318366   -1.872850    1.148004
 ---------------------------------------------------------------------

 SCF Done:  E(RHF) =  -306.654328059     A.U. after    2 cycles

 The electronic state is 1-A.
 Alpha  occ. eigenvalues --  -20.57708 -11.30543 -11.30087 -11.29326 -11.26019
 Alpha  occ. eigenvalues --  -11.24560 -11.24320  -1.36205  -1.12640  -1.02462
 Alpha  occ. eigenvalues --   -0.94600  -0.92485  -0.78555  -0.74502  -0.68932
 Alpha  occ. eigenvalues --   -0.68447  -0.64117  -0.62607  -0.58659  -0.57053
 Alpha  occ. eigenvalues --   -0.55348  -0.50863  -0.49601  -0.45672  -0.39030
 Alpha  occ. eigenvalues --   -0.30522
 Alpha virt. eigenvalues --    0.02795   0.03873   0.04361   0.04887   0.06137
 Alpha virt. eigenvalues --    0.06496   0.06898   0.07600   0.09405   0.11701
 Alpha virt. eigenvalues --    0.12595   0.12746   0.13461   0.13768   0.14129

 Mulliken charges:
               1
     1  C    1.068847
     2  O   -0.708845
     3  C   -0.282286
     4  C    0.582254
     5  C    0.179832
     6  C    0.251637
     7  C   -0.117948
     8  H   -0.203576
     9  H   -0.198245
    10  H    0.380194
    11  H   -0.309198
    12  H   -0.331465
    13  H   -0.043925
    14  H   -0.052216
    15  H   -0.215059
 Sum of Mulliken charges =  -0.00000

 Dipole moment (field-independent basis, Debye):
    X=             -2.4232    Y=             -3.2155    Z=             -1.0447  Tot=              4.1597

 Test job not archived.
 1\1\GINC-SE173\SP\RHF\Aug-CC-pVDZ\C6H8O1\OHZDE\09-Apr-2025\0\\#t hf au
 g-cc-pvdz iop(5/13=1,5/36=2,99/5=2) pseudo=read geom=check guess=(read
 ,tcheck) scf=(maxcycle=1)\\title\\0,1\C,0,-1.32628723,-0.58681787,-0.6
 363007\O,0,-0.85756008,-1.83281843,-0.16279905\C,0,0.14258819,-1.40950
 257,0.7400089\C,0,1.34306709,-0.84841197,0.07711178\C,0,1.47942945,0.4
 4532628,-0.1931031\C,0,0.28884459,1.31189986,0.11323722\C,0,-0.8275740
 9,0.36142681,0.47362493\H,0,-0.89617651,-0.31787822,-1.60874842\H,0,-2
 .41316151,-0.62533326,-0.73125451\H,0,-0.42464276,-0.44481196,1.383846

 Normal termination of Gaussian 16 at Wed Apr  9 16:25:14 2025.
