 Gaussian 16, Revision C.01,

 ----------------------------------------------------------------------
 #t hf aug-cc-pvdz symm=none int=(grid=ultrafine) guess=(read,tcheck) s
 table=(opt,rrhf)
 ----------------------------------------------------------------------
 -----
 title
 -----
 Symbolic Z-matrix:
 Charge =  0 Multiplicity = 1

 SCF Done:  E(RHF) =  -268.871537440     A.U. after   15 cycles
 Normal termination of Gaussian 16 at Wed Apr  9 03:03:21 2025.
 Gaussian 16:  ES64L-G16RevC.01  3-Jul-2019

 ----------------------------------------------------------------------
 #t hf aug-cc-pvdz iop(5/13=1,5/36=2,99/5=2) pseudo=read geom=check gue
 ss=(read,tcheck) scf=(maxcycle=1)
 ----------------------------------------------------------------------
 -----
 title
 -----
 Structure from the checkpoint file:  "Grambow2020_b97d3_006486_reverse_mol2.chk"
 Charge =  0 Multiplicity = 1

                         Standard orientation:
 ---------------------------------------------------------------------
 Center     Atomic      Atomic             Coordinates (Angstroms)
 Number     Number       Type             X           Y           Z
 ---------------------------------------------------------------------
      1          8           0        0.159747    1.893817   -0.137712
      2          6           0       -0.064505    0.710510    0.113843
      3          6           0       -1.414356    0.145240   -0.171371
      4          6           0       -1.811047   -1.119257    0.065448
      5          6           0        1.715031   -0.985002   -0.480095
      6          6           0        1.030656   -0.201395    0.659818
      7          1           0       -2.104876    0.863281   -0.618753
      8          1           0        2.138384   -0.291854   -1.218978
      9          1           0       -2.820437   -1.450861   -0.180800
     10          1           0       -1.151855   -1.865308    0.509768
     11          1           0        2.530256   -1.604929   -0.083243
     12          1           0        1.003095   -1.641644   -0.997561
     13          1           0        0.627198   -0.901584    1.405251
     14          1           0        1.765575    0.441791    1.160151
 ---------------------------------------------------------------------

 SCF Done:  E(RHF) =  -268.955124260     A.U. after    2 cycles

 The electronic state is 1-A.
 Alpha  occ. eigenvalues --  -20.56260 -11.34680 -11.27691 -11.26416 -11.25199
 Alpha  occ. eigenvalues --  -11.24445  -1.34178  -1.07940  -1.03388  -0.89799
 Alpha  occ. eigenvalues --   -0.85105  -0.73373  -0.68297  -0.66195  -0.61399
 Alpha  occ. eigenvalues --   -0.60200  -0.57538  -0.55447  -0.53768  -0.50611
 Alpha  occ. eigenvalues --   -0.50260  -0.42872  -0.39685
 Alpha virt. eigenvalues --    0.03063   0.03879   0.04766   0.04871   0.06347
 Alpha virt. eigenvalues --    0.06542   0.06916   0.07964   0.08187   0.10776
 Alpha virt. eigenvalues --    0.12391   0.13024   0.13954   0.14497   0.14948

 Mulliken charges:
               1
     1  O   -0.580508
     2  C    0.129340
     3  C    0.759902
     4  C    0.496832
     5  C    0.280387
     6  C    0.225904
     7  H   -0.388480
     8  H   -0.042111
     9  H   -0.293586
    10  H   -0.333033
    11  H   -0.057022
    12  H   -0.093395
    13  H   -0.016610
    14  H   -0.087621
 Sum of Mulliken charges =  -0.00000

 Dipole moment (field-independent basis, Debye):
    X=             -0.7089    Y=             -3.9514    Z=              0.6221  Tot=              4.0624

 Test job not archived.
 1\1\GINC-SE059\SP\RHF\Aug-CC-pVDZ\C5H8O1\OHZDE\09-Apr-2025\0\\#t hf au
 g-cc-pvdz iop(5/13=1,5/36=2,99/5=2) pseudo=read geom=check guess=(read
 ,tcheck) scf=(maxcycle=1)\\title\\0,1\O,0,-0.80421418,2.09608595,-0.60
 416861\C,0,-0.4840673,1.04274286,-0.05484332\C,0,-1.54721362,0.1416725
 3,0.47503138\C,0,-1.35085404,-1.02789031,1.11218618\C,0,1.35432801,-0.
 33413033,-1.11257405\C,0,0.97808214,0.61670034,0.0433543\H,0,-2.560705
 93,0.507929,0.29828135\H,0,1.16932496,0.15010864,-2.08051875\H,0,-2.19
 06784,-1.62875826,1.46306959\H,0,-0.35546309,-1.42758542,1.30709019\H,

 Normal termination of Gaussian 16 at Wed Apr  9 03:03:26 2025.
