 Gaussian 16, Revision C.01,

 ----------------------------------------------------------------------
 #t hf aug-cc-pvdz symm=none int=(grid=ultrafine) guess=(read,tcheck) s
 table=(opt,rrhf)
 ----------------------------------------------------------------------
 -----
 title
 -----
 Symbolic Z-matrix:
 Charge =  0 Multiplicity = 1

 SCF Done:  E(RHF) =  -302.187005098     A.U. after   18 cycles
 Normal termination of Gaussian 16 at Wed Apr  9 03:09:12 2025.
 Gaussian 16:  ES64L-G16RevC.01  3-Jul-2019

 ----------------------------------------------------------------------
 #t hf aug-cc-pvdz iop(5/13=1,5/36=2,99/5=2) pseudo=read geom=check gue
 ss=(read,tcheck) scf=(maxcycle=1)
 ----------------------------------------------------------------------
 -----
 title
 -----
 Structure from the checkpoint file:  "Grambow2020_b97d3_006714_forward_mol1.chk"
 Charge =  0 Multiplicity = 1

                         Standard orientation:
 ---------------------------------------------------------------------
 Center     Atomic      Atomic             Coordinates (Angstroms)
 Number     Number       Type             X           Y           Z
 ---------------------------------------------------------------------
      1          8           0       -2.594515    0.703608   -0.178972
      2          6           0       -1.977079   -0.240878    0.328099
      3          6           0       -0.703805   -0.619971   -0.173422
      4          6           0        0.557837   -0.322533   -0.162903
      5          6           0        1.824315    0.027869   -0.022770
      6          8           0        2.935598    0.387586    0.190110
      7          1           0       -2.395404   -0.887814    1.132847
      8          1           0        1.459126   -0.908660   -1.035972
 ---------------------------------------------------------------------

 SCF Done:  E(RHF) =  -302.280070172     A.U. after    2 cycles

 The electronic state is 1-A.
 Alpha  occ. eigenvalues --  -20.67421 -20.56624 -11.47672 -11.37709 -11.35899
 Alpha  occ. eigenvalues --  -11.31773  -1.45870  -1.34392  -1.16105  -1.02518
 Alpha  occ. eigenvalues --   -0.88395  -0.77478  -0.72729  -0.72166  -0.67095
 Alpha  occ. eigenvalues --   -0.65251  -0.58348  -0.53237  -0.47274  -0.46114
 Alpha  occ. eigenvalues --   -0.36870
 Alpha virt. eigenvalues --    0.00817   0.02160   0.03935   0.06555   0.07984
 Alpha virt. eigenvalues --    0.08113   0.09496   0.10290   0.10707   0.12539
 Alpha virt. eigenvalues --    0.12919   0.14288   0.14563   0.15308   0.16350

 Mulliken charges:
               1
     1  O   -0.542596
     2  C    0.633621
     3  C   -0.330488
     4  C    0.892424
     5  C   -0.613761
     6  O   -0.234356
     7  H   -0.024455
     8  H    0.219610
 Sum of Mulliken charges =  -0.00000

 Dipole moment (field-independent basis, Debye):
    X=              2.0461    Y=             -2.8406    Z=              1.0718  Tot=              3.6612

 Test job not archived.
 1\1\GINC-SE083\SP\RHF\Aug-CC-pVDZ\C4H2O2\OHZDE\09-Apr-2025\0\\#t hf au
 g-cc-pvdz iop(5/13=1,5/36=2,99/5=2) pseudo=read geom=check guess=(read
 ,tcheck) scf=(maxcycle=1)\\title\\0,1\O,0,-2.45808813,0.03458833,0.927
 40928\C,0,-1.86037154,-0.35585269,-0.08288448\C,0,-0.60769944,0.209026
 02,-0.44091373\C,0,0.66221425,0.19224479,-0.18137572\C,0,1.94075396,0.
 04104731,0.11671717\O,0,3.0657143,-0.18659942,0.42053612\H,0,-2.283869
 95,-1.09500654,-0.80082769\H,0,1.53060455,1.1411002,-0.69487896\\Versi
 on=ES64L-G16RevC.01\State=1-A\HF=-302.2800702\RMSD=7.619e-03\Dipole=0.

 Normal termination of Gaussian 16 at Wed Apr  9 03:09:17 2025.
