 Gaussian 16, Revision C.01,

 ----------------------------------------------------------------------
 #t hf aug-cc-pvdz symm=none int=(grid=ultrafine) guess=(read,tcheck) s
 table=(opt,rrhf)
 ----------------------------------------------------------------------
 -----
 title
 -----
 Symbolic Z-matrix:
 Charge =  0 Multiplicity = 1

 SCF Done:  E(RHF) =  -269.829120821     A.U. after   15 cycles

 1\1\GINC-SE114\Stability\RHF\Aug-CC-pVDZ\C5H10O1\OHZDE\09-Apr-2025\0\\
 #t hf aug-cc-pvdz symm=none int=(grid=ultrafine) guess=(read,tcheck) s
 table=(opt,rrhf)\\title\\0,1\C,0,2.31634883,0.01326157,0.39189639\O,0,
 1.23695541,-0.73232913,0.53045326\C,0,0.09807053,-0.38895059,0.0155178
 5\C,0,-0.52780974,0.9790686,-0.01772262\C,0,-1.89902157,0.25245873,-0.
 05668628\C,0,-1.20386739,-1.10678232,0.23867131\H,0,2.18997267,1.08729
 999,0.33104051\H,0,1.871596,-0.12039943,-1.47866127\H,0,3.19710589,-0.
 42317446,0.83616958\H,0,1.09541963,-0.29827419,-1.62005635\H,0,-0.3529

 Normal termination of Gaussian 16 at Wed Apr  9 14:23:28 2025.
 Gaussian 16:  ES64L-G16RevC.01  3-Jul-2019

 ----------------------------------------------------------------------
 #t hf aug-cc-pvdz iop(5/13=1,5/36=2,99/5=2) pseudo=read geom=check gue
 ss=(read,tcheck) scf=(maxcycle=1)
 ----------------------------------------------------------------------
 -----
 title
 -----
 Structure from the checkpoint file:  "Grambow2020_wb97xd3_006205_forward_mol1.chk"
 Charge =  0 Multiplicity = 1

                         Standard orientation:
 ---------------------------------------------------------------------
 Center     Atomic      Atomic             Coordinates (Angstroms)
 Number     Number       Type             X           Y           Z
 ---------------------------------------------------------------------
      1          6           0       -2.269293    0.214732   -0.130552
      2          8           0       -1.234233   -0.601447   -0.182491
      3          6           0       -0.045854   -0.221833    0.169323
      4          6           0        0.633988    1.086955   -0.129338
      5          6           0        1.974410    0.310087   -0.032148
      6          6           0        1.205347   -1.040632    0.013803
      7          1           0       -2.096417    1.269490   -0.306144
      8          1           0       -1.684785    0.447324    1.691235
      9          1           0       -3.198655   -0.255296   -0.411528
     10          1           0       -0.907502    0.260302    1.813446
     11          1           0        0.407599    1.434032   -1.147091
     12          1           0        0.487109    1.921611    0.556428
     13          1           0        2.515779    0.517494    0.889263
     14          1           0        2.652073    0.434485   -0.874561
     15          1           0        1.246560   -1.596389   -0.927453
     16          1           0        1.460511   -1.717330    0.829798
 ---------------------------------------------------------------------

 SCF Done:  E(RHF) =  -269.917744759     A.U. after    2 cycles

 The electronic state is 1-A.
 Alpha  occ. eigenvalues --  -20.67417 -11.31290 -11.28353 -11.24765 -11.24648
 Alpha  occ. eigenvalues --  -11.24506  -1.44897  -1.13880  -0.98939  -0.92587
 Alpha  occ. eigenvalues --   -0.85074  -0.77114  -0.71037  -0.70968  -0.69696
 Alpha  occ. eigenvalues --   -0.63768  -0.56132  -0.55756  -0.52718  -0.50876
 Alpha  occ. eigenvalues --   -0.50003  -0.48519  -0.46755  -0.25659
 Alpha virt. eigenvalues --    0.03525   0.04429   0.04618   0.04813   0.06099
 Alpha virt. eigenvalues --    0.06793   0.07224   0.07685   0.08076   0.08174
 Alpha virt. eigenvalues --    0.10410   0.11704   0.12379   0.13163   0.13861

 Mulliken charges:
               1
     1  C    0.719913
     2  O   -0.308222
     3  C   -0.507741
     4  C    0.461364
     5  C    0.486245
     6  C    0.434675
     7  H   -0.233758
     8  H   -0.089175
     9  H   -0.338496
    10  H    0.265377
    11  H   -0.092970
    12  H   -0.224769
    13  H   -0.178798
    14  H   -0.171537
    15  H   -0.094758
    16  H   -0.127350
 Sum of Mulliken charges =  -0.00000

 Dipole moment (field-independent basis, Debye):
    X=              1.7337    Y=              0.5408    Z=             -1.1632  Tot=              2.1567

 Test job not archived.
 1\1\GINC-SE114\SP\RHF\Aug-CC-pVDZ\C5H10O1\OHZDE\09-Apr-2025\0\\#t hf a
 ug-cc-pvdz iop(5/13=1,5/36=2,99/5=2) pseudo=read geom=check guess=(rea
 d,tcheck) scf=(maxcycle=1)\\title\\0,1\C,0,2.31634883,0.01326157,0.391
 89639\O,0,1.23695541,-0.73232913,0.53045326\C,0,0.09807053,-0.38895059
 ,0.01551785\C,0,-0.52780974,0.9790686,-0.01772262\C,0,-1.89902157,0.25
 245873,-0.05668628\C,0,-1.20386739,-1.10678232,0.23867131\H,0,2.189972
 67,1.08729999,0.33104051\H,0,1.871596,-0.12039943,-1.47866127\H,0,3.19
 710589,-0.42317446,0.83616958\H,0,1.09541963,-0.29827419,-1.62005635\H

 Normal termination of Gaussian 16 at Wed Apr  9 14:23:33 2025.
