 Gaussian 16, Revision C.01,

 ----------------------------------------------------------------------
 #t hf aug-cc-pvdz symm=none int=(grid=ultrafine) guess=(read,tcheck) s
 table=(opt,rrhf)
 ----------------------------------------------------------------------
 -----
 title
 -----
 Symbolic Z-matrix:
 Charge =  0 Multiplicity = 1

 SCF Done:  E(RHF) =  -262.461684069     A.U. after   18 cycles
 Normal termination of Gaussian 16 at Wed Apr  9 14:16:01 2025.
 Gaussian 16:  ES64L-G16RevC.01  3-Jul-2019

 ----------------------------------------------------------------------
 #t hf aug-cc-pvdz iop(5/13=1,5/36=2,99/5=2) pseudo=read geom=check gue
 ss=(read,tcheck) scf=(maxcycle=1)
 ----------------------------------------------------------------------
 -----
 title
 -----
 Structure from the checkpoint file:  "Grambow2020_b97d3_006906_reverse_mol1.chk"
 Charge =  0 Multiplicity = 1

                         Standard orientation:
 ---------------------------------------------------------------------
 Center     Atomic      Atomic             Coordinates (Angstroms)
 Number     Number       Type             X           Y           Z
 ---------------------------------------------------------------------
      1          6           0        0.006643    1.416750   -0.072598
      2          6           0       -1.168254    0.695763   -0.193916
      3          7           0       -1.145362   -0.789497    0.172545
      4          7           0        0.056862   -1.315243    0.028586
      5          6           0        1.157792   -0.622571   -0.212974
      6          6           0        1.184531    0.775255    0.178079
      7          1           0       -1.406445    0.117007    0.985910
      8          1           0       -2.097958    1.000885   -0.673630
      9          1           0        2.001108   -1.186838   -0.613690
     10          1           0        2.038517    1.210949    0.701940
 ---------------------------------------------------------------------

 SCF Done:  E(RHF) =  -262.532747994     A.U. after    2 cycles

 The electronic state is 1-A.
 Alpha  occ. eigenvalues --  -15.72401 -15.70577 -11.33302 -11.32644 -11.29240
 Alpha  occ. eigenvalues --  -11.24694  -1.33278  -1.11852  -1.09403  -0.90972
 Alpha  occ. eigenvalues --   -0.86685  -0.72585  -0.70177  -0.68265  -0.64491
 Alpha  occ. eigenvalues --   -0.59895  -0.51236  -0.44884  -0.42648  -0.39133
 Alpha  occ. eigenvalues --   -0.32600
 Alpha virt. eigenvalues --    0.02806   0.03273   0.04021   0.04371   0.05555
 Alpha virt. eigenvalues --    0.07606   0.09562   0.10317   0.10963   0.12428
 Alpha virt. eigenvalues --    0.13304   0.14097   0.14927   0.15197   0.15987

 Mulliken charges:
               1
     1  C   -0.459256
     2  C    0.590124
     3  N   -0.717671
     4  N   -0.281926
     5  C    0.517423
     6  C    0.548468
     7  H    0.400545
     8  H   -0.179014
     9  H   -0.227854
    10  H   -0.190839
 Sum of Mulliken charges =   0.00000

 Dipole moment (field-independent basis, Debye):
    X=              0.8907    Y=             -0.1508    Z=              0.2296  Tot=              0.9321

 Test job not archived.
 1\1\GINC-SE207\SP\RHF\Aug-CC-pVDZ\C4H4N2\OHZDE\09-Apr-2025\0\\#t hf au
 g-cc-pvdz iop(5/13=1,5/36=2,99/5=2) pseudo=read geom=check guess=(read
 ,tcheck) scf=(maxcycle=1)\\title\\0,1\C,0,0.54036381,1.08441516,0.4238
 0063\C,0,1.36664295,0.01153779,0.1389842\N,0,0.76346216,-1.1913236,-0.
 58910481\N,0,-0.53367495,-1.30139746,-0.37048428\C,0,-1.27492378,-0.38
 997672,0.23783664\C,0,-0.80707686,0.98430726,0.23364494\H,0,1.28234043
 ,-0.22135062,-1.17339475\H,0,2.37618359,-0.17526922,0.50436763\H,0,-2.
 23532702,-0.73339524,0.62493163\H,0,-1.47332334,1.81925666,0.00446116\

 Normal termination of Gaussian 16 at Wed Apr  9 14:16:04 2025.
