 Gaussian 16, Revision C.01,

 ----------------------------------------------------------------------
 #t hf aug-cc-pvdz symm=none int=(grid=ultrafine) guess=(read,tcheck) s
 table=(opt,rrhf)
 ----------------------------------------------------------------------
 -----
 title
 -----
 Symbolic Z-matrix:
 Charge =  0 Multiplicity = 1

 SCF Done:  E(RHF) =  -353.548929722     A.U. after   15 cycles
 Normal termination of Gaussian 16 at Wed Apr  9 03:46:14 2025.
 Gaussian 16:  ES64L-G16RevC.01  3-Jul-2019

 ----------------------------------------------------------------------
 #t hf aug-cc-pvdz iop(5/13=1,5/36=2,99/5=2) pseudo=read geom=check gue
 ss=(read,tcheck) scf=(maxcycle=1)
 ----------------------------------------------------------------------
 -----
 title
 -----
 Structure from the checkpoint file:  "Grambow2020_wb97xd3_007950_reverse_mol2.chk"
 Charge =  0 Multiplicity = 1

                         Standard orientation:
 ---------------------------------------------------------------------
 Center     Atomic      Atomic             Coordinates (Angstroms)
 Number     Number       Type             X           Y           Z
 ---------------------------------------------------------------------
      1          8           0        2.355159    0.363220   -0.121596
      2          6           0        1.823824   -0.812430    0.011865
      3          6           0        1.380022   -1.918295    0.130931
      4          7           0       -2.296947   -1.685803   -0.068943
      5          7           0       -2.456040   -0.610079   -0.038410
      6          6           0       -1.005308    2.380645    0.081827
      7          7           0        0.088196    2.064755    0.010429
      8          1           0        1.658308    1.046231   -0.083292
      9          1           0        0.995265   -2.902548    0.237662
     10          1           0       -2.032539    2.668923    0.149121
 ---------------------------------------------------------------------

 SCF Done:  E(RHF) =  -353.663677612     A.U. after    2 cycles

 The electronic state is 1-A.
 Alpha  occ. eigenvalues --  -20.61552 -15.75854 -15.75460 -15.69295 -11.33894
 Alpha  occ. eigenvalues --  -11.29370 -11.21274  -1.43850  -1.38472  -1.24671
 Alpha  occ. eigenvalues --   -1.00107  -0.83764  -0.81201  -0.75733  -0.69478
 Alpha  occ. eigenvalues --   -0.66127  -0.63199  -0.61783  -0.61755  -0.61304
 Alpha  occ. eigenvalues --   -0.60642  -0.53081  -0.53018  -0.37890  -0.36177
 Alpha virt. eigenvalues --    0.02200   0.04727   0.05963   0.06937   0.08048
 Alpha virt. eigenvalues --    0.10548   0.11217   0.11847   0.11994   0.12852
 Alpha virt. eigenvalues --    0.13677   0.14159   0.14323   0.15351   0.15795

 Mulliken charges:
               1
     1  O   -0.375533
     2  C   -0.407595
     3  C    0.962517
     4  N    0.028859
     5  N   -0.031493
     6  C    0.060747
     7  N   -0.086273
     8  H    0.268291
     9  H   -0.392267
    10  H   -0.027253
 Sum of Mulliken charges =  -0.00000

 Dipole moment (field-independent basis, Debye):
    X=             -5.1002    Y=              2.6412    Z=              0.3003  Tot=              5.7513

 Test job not archived.
 1\1\GINC-SE332\SP\RHF\Aug-CC-pVDZ\C3H3N3O1\OHZDE\09-Apr-2025\0\\#t hf
 aug-cc-pvdz iop(5/13=1,5/36=2,99/5=2) pseudo=read geom=check guess=(re
 ad,tcheck) scf=(maxcycle=1)\\title\\0,1\O,0,2.24203102,-0.57852425,0.2
 4370744\C,0,1.86573998,0.64664481,0.04459201\C,0,1.56712819,1.79246228
 ,-0.13431758\N,0,-2.11433924,2.02496646,-0.05163552\N,0,-2.40553903,0.
 97683863,-0.04404623\C,0,-1.33667842,-2.17252006,0.00678833\N,0,-0.214
 83125,-1.99123722,0.10286517\H,0,1.46676726,-1.17126818,0.20916523\H,0
 ,1.31153333,2.81097563,-0.29395824\H,0,-2.38947184,-2.33443211,-0.0840

 Normal termination of Gaussian 16 at Wed Apr  9 03:46:17 2025.
