 Gaussian 16, Revision C.01,

 ----------------------------------------------------------------------
 #t hf aug-cc-pvdz symm=none int=(grid=ultrafine) guess=(read,tcheck) s
 table=(opt,rrhf)
 ----------------------------------------------------------------------
 -----
 title
 -----
 Symbolic Z-matrix:
 Charge =  0 Multiplicity = 1

 SCF Done:  E(RHF) =  -322.546951472     A.U. after   16 cycles
 Normal termination of Gaussian 16 at Wed Apr  9 15:30:58 2025.
 Gaussian 16:  ES64L-G16RevC.01  3-Jul-2019

 ----------------------------------------------------------------------
 #t hf aug-cc-pvdz iop(5/13=1,5/36=2,99/5=2) pseudo=read geom=check gue
 ss=(read,tcheck) scf=(maxcycle=1)
 ----------------------------------------------------------------------
 -----
 title
 -----
 Structure from the checkpoint file:  "Grambow2020_wb97xd3_006943_forward_mol1.chk"
 Charge =  0 Multiplicity = 1

                         Standard orientation:
 ---------------------------------------------------------------------
 Center     Atomic      Atomic             Coordinates (Angstroms)
 Number     Number       Type             X           Y           Z
 ---------------------------------------------------------------------
      1          8           0       -2.762619   -0.395003   -0.319740
      2          6           0       -1.573096   -0.581135   -0.265391
      3          7           0       -0.693366    0.094058    1.064562
      4          6           0       -0.260831    0.914105    0.104256
      5          6           0        1.190128    1.117341   -0.268988
      6          6           0        1.984424   -0.100259   -0.160752
      7          6           0        2.605626   -1.117603   -0.058012
      8          1           0       -0.997428   -1.515484   -0.275175
      9          1           0        0.028669   -0.563340    1.349430
     10          1           0       -0.927016    1.738330   -0.144955
     11          1           0       -0.847403    0.052063   -1.088712
     12          1           0        1.257268    1.529565   -1.277663
     13          1           0        1.589755    1.880477    0.409325
     14          1           0        3.173167   -2.014696    0.027054
 ---------------------------------------------------------------------

 SCF Done:  E(RHF) =  -322.645818999     A.U. after    2 cycles

 The electronic state is 1-A.
 Alpha  occ. eigenvalues --  -20.51106 -15.63716 -11.37695 -11.37594 -11.31683
 Alpha  occ. eigenvalues --  -11.28191 -11.27266  -1.32870  -1.23398  -1.10020
 Alpha  occ. eigenvalues --   -1.02014  -0.88218  -0.85844  -0.75741  -0.70784
 Alpha  occ. eigenvalues --   -0.69431  -0.66633  -0.62344  -0.62043  -0.60953
 Alpha  occ. eigenvalues --   -0.58299  -0.45644  -0.43380  -0.42768  -0.40248
 Alpha  occ. eigenvalues --   -0.37128
 Alpha virt. eigenvalues --    0.02336   0.02719   0.04079   0.05359   0.05469
 Alpha virt. eigenvalues --    0.06859   0.07649   0.09122   0.09576   0.10172
 Alpha virt. eigenvalues --    0.10824   0.11643   0.12231   0.12903   0.13542

 Mulliken charges:
               1
     1  O   -0.567630
     2  C    0.689538
     3  N   -0.541857
     4  C    0.135256
     5  C    0.108444
     6  C   -0.424111
     7  C    0.968030
     8  H   -0.086594
     9  H    0.040420
    10  H   -0.216411
    11  H    0.220525
    12  H    0.066766
    13  H    0.121110
    14  H   -0.513485
 Sum of Mulliken charges =  -0.00000

 Dipole moment (field-independent basis, Debye):
    X=              6.6633    Y=              1.0760    Z=             -0.6018  Tot=              6.7764

 Test job not archived.
 1\1\GINC-SE114\SP\RHF\Aug-CC-pVDZ\C5H7N1O1\OHZDE\09-Apr-2025\0\\#t hf
 aug-cc-pvdz iop(5/13=1,5/36=2,99/5=2) pseudo=read geom=check guess=(re
 ad,tcheck) scf=(maxcycle=1)\\title\\0,1\O,0,-2.95210046,-0.05094547,1.
 0868403\C,0,-1.81529216,0.30462949,0.90299914\N,0,-1.15804497,0.170778
 9,-0.69346472\C,0,-0.48103047,-0.82445521,-0.11647848\C,0,1.02652048,-
 0.92551227,-0.06193192\C,0,1.68143046,0.36843316,0.08629619\C,0,2.1847
 3594,1.44728941,0.20541243\H,0,-1.3277864,1.26604656,1.10918611\H,0,-0
 .56186048,0.97521813,-0.87262382\H,0,-1.01578432,-1.76893424,-0.031324

 Normal termination of Gaussian 16 at Wed Apr  9 15:31:02 2025.
