 Gaussian 16, Revision C.01,

 ----------------------------------------------------------------------
 #t hf aug-cc-pvdz symm=none int=(grid=ultrafine) guess=(read,tcheck) s
 table=(opt,rrhf)
 ----------------------------------------------------------------------
 -----
 title
 -----
 Symbolic Z-matrix:
 Charge =  0 Multiplicity = 1

 SCF Done:  E(RHF) =  -322.542457244     A.U. after   18 cycles
 Normal termination of Gaussian 16 at Wed Apr  9 14:52:12 2025.
 Gaussian 16:  ES64L-G16RevC.01  3-Jul-2019

 ----------------------------------------------------------------------
 #t hf aug-cc-pvdz iop(5/13=1,5/36=2,99/5=2) pseudo=read geom=check gue
 ss=(read,tcheck) scf=(maxcycle=1)
 ----------------------------------------------------------------------
 -----
 title
 -----
 Structure from the checkpoint file:  "Grambow2020_wb97xd3_006636_reverse_mol1.chk"
 Charge =  0 Multiplicity = 1

                         Standard orientation:
 ---------------------------------------------------------------------
 Center     Atomic      Atomic             Coordinates (Angstroms)
 Number     Number       Type             X           Y           Z
 ---------------------------------------------------------------------
      1          8           0        1.178258   -1.175677    0.052833
      2          6           0        1.503632   -0.054308   -0.308422
      3          6           0        0.683752    1.124034   -0.055156
      4          6           0       -0.804551    0.985962   -0.290833
      5          6           0       -1.333197   -0.367932   -0.674431
      6          6           0       -0.841162   -1.194533    0.469871
      7          7           0       -0.249155    0.966302    1.017717
      8          1           0        2.461254    0.061611   -0.831683
      9          1           0        1.152884    2.079812   -0.279801
     10          1           0       -1.283161    1.885787   -0.686332
     11          1           0       -0.973821   -0.731393   -1.638687
     12          1           0       -2.430209   -0.405403   -0.706885
     13          1           0       -0.635032   -2.243649    0.301043
     14          1           0       -1.224729   -0.964804    1.449493
 ---------------------------------------------------------------------

 SCF Done:  E(RHF) =  -322.637234817     A.U. after    2 cycles

 The electronic state is 1-A.
 Alpha  occ. eigenvalues --  -20.60302 -15.54699 -11.36309 -11.35558 -11.26419
 Alpha  occ. eigenvalues --  -11.26169 -11.24748  -1.38728  -1.21370  -1.06347
 Alpha  occ. eigenvalues --   -0.92958  -0.90044  -0.78212  -0.75852  -0.71979
 Alpha  occ. eigenvalues --   -0.66821  -0.66527  -0.62321  -0.58269  -0.56837
 Alpha  occ. eigenvalues --   -0.54954  -0.51534  -0.46948  -0.43679  -0.34738
 Alpha  occ. eigenvalues --   -0.28603
 Alpha virt. eigenvalues --    0.02779   0.03733   0.04140   0.05062   0.05985
 Alpha virt. eigenvalues --    0.06335   0.06717   0.07316   0.08732   0.10987
 Alpha virt. eigenvalues --    0.12050   0.12561   0.13146   0.13901   0.14612

 Mulliken charges:
               1
     1  O   -0.479719
     2  C    0.410932
     3  C    0.851955
     4  C    0.201564
     5  C    0.244185
     6  C    1.066247
     7  N   -1.025186
     8  H   -0.220657
     9  H   -0.333437
    10  H   -0.343433
    11  H   -0.034665
    12  H    0.023011
    13  H   -0.178069
    14  H   -0.182728
 Sum of Mulliken charges =  -0.00000

 Dipole moment (field-independent basis, Debye):
    X=             -0.9201    Y=             -2.0166    Z=             -3.0421  Tot=              3.7640

 Test job not archived.
 1\1\GINC-SE114\SP\RHF\Aug-CC-pVDZ\C5H7N1O1\OHZDE\09-Apr-2025\0\\#t hf
 aug-cc-pvdz iop(5/13=1,5/36=2,99/5=2) pseudo=read geom=check guess=(re
 ad,tcheck) scf=(maxcycle=1)\\title\\0,1\O,0,0.4282051,1.05935796,1.418
 59455\C,0,1.03516907,1.30703841,0.38704624\C,0,0.52125129,0.96030903,-
 0.93223504\C,0,-0.09509706,-0.41287334,-1.08760027\C,0,-0.2151026,-1.2
 727805,0.13951106\C,0,-1.00468986,-0.37313538,1.0350468\N,0,-0.8941763
 3,0.75731667,-0.97235987\H,0,1.99932599,1.82494282,0.46739106\H,0,1.07
 171325,1.37454394,-1.77453191\H,0,0.08397511,-0.87937094,-2.05996071\H

 Normal termination of Gaussian 16 at Wed Apr  9 14:52:16 2025.
