 Gaussian 16, Revision C.01,

 ----------------------------------------------------------------------
 #t hf aug-cc-pvdz symm=none int=(grid=ultrafine) guess=(read,tcheck) s
 table=(opt,rrhf)
 ----------------------------------------------------------------------
 -----
 title
 -----
 Symbolic Z-matrix:
 Charge =  0 Multiplicity = 1

 SCF Done:  E(RHF) =  -270.012108029     A.U. after   12 cycles

 1\1\GINC-SE112\Stability\RHF\Aug-CC-pVDZ\C5H10O1\OHZDE\09-Apr-2025\0\\
 #t hf aug-cc-pvdz symm=none int=(grid=ultrafine) guess=(read,tcheck) s
 table=(opt,rrhf)\\title\\0,1\C,0,2.38236698,0.00026069,0.13305712\O,0,
 1.23099955,-0.70355235,0.52026655\C,0,0.10713236,-0.36383726,-0.237167
 76\C,0,-0.57238278,1.00375226,-0.00336741\C,0,-1.9282704,0.27165746,-0
 .10461934\C,0,-1.19007867,-1.05261688,0.18873259\H,0,2.25789428,1.0830
 7995,0.26138307\H,0,2.6378041,-0.19815888,-0.9165353\H,0,3.20185804,-0
 .33626674,0.76663127\H,0,0.31166502,-0.51807436,-1.30709464\H,0,-0.379

 Normal termination of Gaussian 16 at Wed Apr  9 14:23:24 2025.
 Gaussian 16:  ES64L-G16RevC.01  3-Jul-2019

 ----------------------------------------------------------------------
 #t hf aug-cc-pvdz iop(5/13=1,5/36=2,99/5=2) pseudo=read geom=check gue
 ss=(read,tcheck) scf=(maxcycle=1)
 ----------------------------------------------------------------------
 -----
 title
 -----
 Structure from the checkpoint file:  "Grambow2020_wb97xd3_006204_forward_mol2.chk"
 Charge =  0 Multiplicity = 1

                         Standard orientation:
 ---------------------------------------------------------------------
 Center     Atomic      Atomic             Coordinates (Angstroms)
 Number     Number       Type             X           Y           Z
 ---------------------------------------------------------------------
      1          6           0       -2.318132    0.245758    0.051962
      2          8           0       -1.230770   -0.575112   -0.286782
      3          6           0       -0.045270   -0.194048    0.346916
      4          6           0        0.686244    1.080642   -0.129274
      5          6           0        2.007091    0.292328    0.007007
      6          6           0        1.185752   -1.014517   -0.040356
      7          1           0       -2.147508    1.288093   -0.246172
      8          1           0       -2.515991    0.221220    1.132014
      9          1           0       -3.192222   -0.131861   -0.476814
     10          1           0       -0.188867   -0.174981    1.437504
     11          1           0        0.446171    1.274267   -1.176743
     12          1           0        0.567977    1.997758    0.447659
     13          1           0        2.472716    0.445421    0.981333
     14          1           0        2.760524    0.438748   -0.765304
     15          1           0        1.073270   -1.377099   -1.063233
     16          1           0        1.475981   -1.841646    0.606477
 ---------------------------------------------------------------------

 SCF Done:  E(RHF) =  -270.098800801     A.U. after    2 cycles

 The electronic state is 1-A.
 Alpha  occ. eigenvalues --  -20.56664 -11.28259 -11.27899 -11.22945 -11.22570
 Alpha  occ. eigenvalues --  -11.22375  -1.33866  -1.11873  -0.94585  -0.89754
 Alpha  occ. eigenvalues --   -0.85796  -0.76303  -0.68599  -0.67112  -0.63943
 Alpha  occ. eigenvalues --   -0.62120  -0.57325  -0.54163  -0.51876  -0.48558
 Alpha  occ. eigenvalues --   -0.47748  -0.46719  -0.44326  -0.41273
 Alpha virt. eigenvalues --    0.03579   0.04436   0.04590   0.04927   0.06399
 Alpha virt. eigenvalues --    0.06529   0.07044   0.07286   0.08023   0.09251
 Alpha virt. eigenvalues --    0.11809   0.12721   0.13809   0.13995   0.15391

 Mulliken charges:
               1
     1  C    0.705495
     2  O   -0.680454
     3  C    0.436077
     4  C    0.357489
     5  C    0.516099
     6  C    0.383099
     7  H   -0.071263
     8  H   -0.042521
     9  H   -0.250650
    10  H   -0.274424
    11  H   -0.196214
    12  H   -0.205746
    13  H   -0.205324
    14  H   -0.176945
    15  H   -0.167727
    16  H   -0.126991
 Sum of Mulliken charges =  -0.00000

 Dipole moment (field-independent basis, Debye):
    X=              0.1386    Y=              1.1461    Z=              0.8187  Tot=              1.4153

 Test job not archived.
 1\1\GINC-SE112\SP\RHF\Aug-CC-pVDZ\C5H10O1\OHZDE\09-Apr-2025\0\\#t hf a
 ug-cc-pvdz iop(5/13=1,5/36=2,99/5=2) pseudo=read geom=check guess=(rea
 d,tcheck) scf=(maxcycle=1)\\title\\0,1\C,0,2.38236698,0.00026069,0.133
 05712\O,0,1.23099955,-0.70355235,0.52026655\C,0,0.10713236,-0.36383726
 ,-0.23716776\C,0,-0.57238278,1.00375226,-0.00336741\C,0,-1.9282704,0.2
 7165746,-0.10461934\C,0,-1.19007867,-1.05261688,0.18873259\H,0,2.25789
 428,1.08307995,0.26138307\H,0,2.6378041,-0.19815888,-0.9165353\H,0,3.2
 0185804,-0.33626674,0.76663127\H,0,0.31166502,-0.51807436,-1.30709464\

 Normal termination of Gaussian 16 at Wed Apr  9 14:23:29 2025.
