 Gaussian 16, Revision C.01,

 ----------------------------------------------------------------------
 #t hf aug-cc-pvdz symm=none int=(grid=ultrafine) guess=(read,tcheck) s
 table=(opt,rrhf)
 ----------------------------------------------------------------------
 -----
 title
 -----
 Symbolic Z-matrix:
 Charge =  0 Multiplicity = 1

 SCF Done:  E(RHF) =  -355.960759730     A.U. after   14 cycles
 Normal termination of Gaussian 16 at Wed Apr  9 03:58:12 2025.
 Gaussian 16:  ES64L-G16RevC.01  3-Jul-2019

 ----------------------------------------------------------------------
 #t hf aug-cc-pvdz iop(5/13=1,5/36=2,99/5=2) pseudo=read geom=check gue
 ss=(read,tcheck) scf=(maxcycle=1)
 ----------------------------------------------------------------------
 -----
 title
 -----
 Structure from the checkpoint file:  "Grambow2020_wb97xd3_008714_forward_mol2.chk"
 Charge =  0 Multiplicity = 1

                         Standard orientation:
 ---------------------------------------------------------------------
 Center     Atomic      Atomic             Coordinates (Angstroms)
 Number     Number       Type             X           Y           Z
 ---------------------------------------------------------------------
      1          6           0        2.491750   -0.437131    0.006808
      2          7           0        1.083270   -0.755197    0.015512
      3          6           0        0.264534    0.218407   -0.004284
      4          7           0        0.524451    1.545819   -0.047294
      5          6           0       -1.230677   -0.075936    0.001890
      6          8           0       -2.042611    0.829433    0.025328
      7          7           0       -1.521411   -1.382967   -0.017063
      8          1           0        2.785796    0.146616    0.889972
      9          1           0        2.775183    0.139021   -0.884119
     10          1           0        3.076455   -1.355540    0.009683
     11          1           0       -0.268774    2.160480    0.029184
     12          1           0        1.448812    1.904308    0.093166
     13          1           0       -0.755327   -2.036058   -0.021847
     14          1           0       -2.479063   -1.679926   -0.003237
 ---------------------------------------------------------------------

 SCF Done:  E(RHF) =  -356.071165596     A.U. after    2 cycles

 The electronic state is 1-A.
 Alpha  occ. eigenvalues --  -20.54760 -15.64845 -15.64822 -15.61047 -11.37435
 Alpha  occ. eigenvalues --  -11.33735 -11.26321  -1.36389  -1.25182  -1.19019
 Alpha  occ. eigenvalues --   -1.13827  -0.96789  -0.86290  -0.78253  -0.75524
 Alpha  occ. eigenvalues --   -0.71682  -0.66627  -0.65548  -0.62396  -0.60142
 Alpha  occ. eigenvalues --   -0.58499  -0.56923  -0.50258  -0.46872  -0.42480
 Alpha  occ. eigenvalues --   -0.41055  -0.35991
 Alpha virt. eigenvalues --    0.02992   0.03597   0.04382   0.05480   0.06792
 Alpha virt. eigenvalues --    0.07302   0.08318   0.10957   0.11071   0.11734
 Alpha virt. eigenvalues --    0.11847   0.14286   0.14784   0.14854   0.15699

 Mulliken charges:
               1
     1  C    0.787374
     2  N   -0.602754
     3  C    0.522804
     4  N   -0.188741
     5  C    0.540896
     6  O   -0.545635
     7  N   -0.077132
     8  H   -0.104220
     9  H   -0.083304
    10  H   -0.291305
    11  H    0.018266
    12  H   -0.011034
    13  H    0.045821
    14  H   -0.011036
 Sum of Mulliken charges =  -0.00000

 Dipole moment (field-independent basis, Debye):
    X=              2.2665    Y=             -0.6496    Z=              0.2346  Tot=              2.3694

 Test job not archived.
 1\1\GINC-SE120\SP\RHF\Aug-CC-pVDZ\C3H7N3O1\OHZDE\09-Apr-2025\0\\#t hf
 aug-cc-pvdz iop(5/13=1,5/36=2,99/5=2) pseudo=read geom=check guess=(re
 ad,tcheck) scf=(maxcycle=1)\\title\\0,1\C,0,1.8942072,0.72047204,-0.48
 740641\N,0,0.45276455,0.72574186,-0.40212022\C,0,-0.1020962,-0.2661836
 6,0.16957711\N,0,0.47472352,-1.35032185,0.73821993\C,0,-1.62158979,-0.
 29680814,0.28152973\O,0,-2.18905019,-1.24795568,0.78430884\N,0,-2.2195
 6028,0.79213975,-0.21830882\H,0,2.26758682,-0.1350466,-1.06695669\H,0,
 2.36226367,0.68144704,0.50528534\H,0,2.23692303,1.62782266,-0.98200136

 Normal termination of Gaussian 16 at Wed Apr  9 03:58:17 2025.
