 Gaussian 16, Revision C.01,

 ----------------------------------------------------------------------
 #t hf aug-cc-pvdz symm=none int=(grid=ultrafine) guess=(read,tcheck) s
 table=(opt,rrhf)
 ----------------------------------------------------------------------
 -----
 title
 -----
 Symbolic Z-matrix:
 Charge =  0 Multiplicity = 1

 SCF Done:  E(RHF) =  -322.583678614     A.U. after   17 cycles
 Normal termination of Gaussian 16 at Wed Apr  9 15:31:02 2025.
 Gaussian 16:  ES64L-G16RevC.01  3-Jul-2019

 ----------------------------------------------------------------------
 #t hf aug-cc-pvdz iop(5/13=1,5/36=2,99/5=2) pseudo=read geom=check gue
 ss=(read,tcheck) scf=(maxcycle=1)
 ----------------------------------------------------------------------
 -----
 title
 -----
 Structure from the checkpoint file:  "Grambow2020_wb97xd3_006941_forward_mol1.chk"
 Charge =  0 Multiplicity = 1

                         Standard orientation:
 ---------------------------------------------------------------------
 Center     Atomic      Atomic             Coordinates (Angstroms)
 Number     Number       Type             X           Y           Z
 ---------------------------------------------------------------------
      1          8           0       -1.078283   -0.790257    1.084700
      2          6           0       -0.995666   -0.773276   -0.212779
      3          7           0       -0.954195    0.408623   -0.839971
      4          6           0       -0.150495    1.513448   -0.244173
      5          6           0        0.956186    0.948461    0.616873
      6          6           0        1.465249   -0.205431    0.123431
      7          6           0        1.303240   -1.295386   -0.471915
      8          1           0       -1.319481   -1.655307   -0.748246
      9          1           0       -0.866601    0.326057   -1.840263
     10          1           0       -0.809813    2.142947    0.357374
     11          1           0        0.188125    2.106526   -1.096565
     12          1           0        1.258141    1.445550    1.526368
     13          1           0       -0.357228   -0.147132    1.391852
     14          1           0        1.741408   -1.883839   -1.256946
 ---------------------------------------------------------------------

 SCF Done:  E(RHF) =  -322.683557184     A.U. after    2 cycles

 The electronic state is 1-A.
 Alpha  occ. eigenvalues --  -20.62238 -15.68145 -11.41766 -11.29472 -11.23743
 Alpha  occ. eigenvalues --  -11.20756 -11.20270  -1.42119  -1.24032  -1.06155
 Alpha  occ. eigenvalues --   -0.99211  -0.89273  -0.85821  -0.79051  -0.73366
 Alpha  occ. eigenvalues --   -0.68577  -0.66156  -0.63378  -0.62061  -0.59625
 Alpha  occ. eigenvalues --   -0.56007  -0.55141  -0.46574  -0.41257  -0.36029
 Alpha  occ. eigenvalues --   -0.27027
 Alpha virt. eigenvalues --    0.02643   0.03760   0.04383   0.04995   0.06296
 Alpha virt. eigenvalues --    0.06824   0.07578   0.09876   0.10251   0.11153
 Alpha virt. eigenvalues --    0.12078   0.12785   0.13280   0.13636   0.14281

 Mulliken charges:
               1
     1  O   -0.536873
     2  C    1.009289
     3  N   -0.407778
     4  C    0.716371
     5  C    0.225577
     6  C   -0.616611
     7  C    0.435868
     8  H   -0.245008
     9  H    0.007152
    10  H   -0.154460
    11  H   -0.097074
    12  H   -0.355872
    13  H    0.394002
    14  H   -0.374584
 Sum of Mulliken charges =   0.00000

 Dipole moment (field-independent basis, Debye):
    X=             -2.5432    Y=              1.2005    Z=             -2.7826  Tot=              3.9563

 Test job not archived.
 1\1\GINC-SE226\SP\RHF\Aug-CC-pVDZ\C5H7N1O1\OHZDE\09-Apr-2025\0\\#t hf
 aug-cc-pvdz iop(5/13=1,5/36=2,99/5=2) pseudo=read geom=check guess=(re
 ad,tcheck) scf=(maxcycle=1)\\title\\0,1\O,0,-1.14285772,0.09220199,-1.
 24199891\C,0,-0.98559808,0.85958289,-0.2042314\N,0,-0.95771923,0.30049
 797,1.01175439\C,0,-0.23756516,-0.99150984,1.19516419\C,0,0.84000025,-
 1.14221969,0.14564287\C,0,1.42531638,0.03601028,-0.17572428\C,0,1.3445
 3183,1.27167399,-0.36359375\H,0,-1.24005511,1.90537437,-0.30972607\H,0
 ,-0.80859304,0.96625196,1.75311023\H,0,-0.95685048,-1.80942189,1.11469

 Normal termination of Gaussian 16 at Wed Apr  9 15:31:07 2025.
