 Gaussian 16, Revision C.01,

 ----------------------------------------------------------------------
 #t hf aug-cc-pvdz symm=none int=(grid=ultrafine) guess=(read,tcheck) s
 table=(opt,rrhf)
 ----------------------------------------------------------------------
 -----
 title
 -----
 Symbolic Z-matrix:
 Charge =  0 Multiplicity = 1

 SCF Done:  E(RHF) =  -320.536456484     A.U. after   18 cycles
 Normal termination of Gaussian 16 at Wed Apr  9 14:19:07 2025.
 Gaussian 16:  ES64L-G16RevC.01  3-Jul-2019

 ----------------------------------------------------------------------
 #t hf aug-cc-pvdz iop(5/13=1,5/36=2,99/5=2) pseudo=read geom=check gue
 ss=(read,tcheck) scf=(maxcycle=1)
 ----------------------------------------------------------------------
 -----
 title
 -----
 Structure from the checkpoint file:  "Grambow2020_b97d3_007129_reverse_mol1.chk"
 Charge =  0 Multiplicity = 1

                         Standard orientation:
 ---------------------------------------------------------------------
 Center     Atomic      Atomic             Coordinates (Angstroms)
 Number     Number       Type             X           Y           Z
 ---------------------------------------------------------------------
      1          6           0        1.329546   -1.127499    0.406880
      2          7           0        0.279302   -1.018775   -0.446852
      3          6           0       -0.865270   -0.029354   -0.098389
      4          8           0       -1.988120   -0.458292    0.131953
      5          6           0       -0.283402    1.256745    0.074776
      6          8           0        1.027186    1.431285   -0.160713
      7          1           0        1.577036    0.577249    0.149102
      8          1           0        1.098258   -1.042401    1.471871
      9          1           0        2.176838   -1.740842    0.096849
     10          1           0        0.563167   -0.993675   -1.431184
     11          1           0       -0.768189    1.947808    0.771812
 ---------------------------------------------------------------------

 SCF Done:  E(RHF) =  -320.634696529     A.U. after    2 cycles

 The electronic state is 1-A.
 Alpha  occ. eigenvalues --  -20.60793 -20.52682 -15.75021 -11.40535 -11.36358
 Alpha  occ. eigenvalues --  -11.26500  -1.35905  -1.32245  -1.26073  -0.98886
 Alpha  occ. eigenvalues --   -0.92752  -0.81525  -0.75858  -0.73070  -0.66973
 Alpha  occ. eigenvalues --   -0.65912  -0.62102  -0.59907  -0.53577  -0.52188
 Alpha  occ. eigenvalues --   -0.51595  -0.43537  -0.26648
 Alpha virt. eigenvalues --   -0.02180   0.01279   0.03183   0.04845   0.05596
 Alpha virt. eigenvalues --    0.06778   0.09631   0.10422   0.10976   0.12400
 Alpha virt. eigenvalues --    0.12959   0.14624   0.14888   0.15669   0.15763

 Mulliken charges:
               1
     1  C    0.583073
     2  N   -0.442881
     3  C    0.579926
     4  O   -0.548816
     5  C    0.503208
     6  O   -0.571345
     7  H    0.292101
     8  H   -0.129257
     9  H   -0.152166
    10  H    0.097085
    11  H   -0.210926
 Sum of Mulliken charges =  -0.00000

 Dipole moment (field-independent basis, Debye):
    X=              6.5508    Y=             -3.6968    Z=              0.1509  Tot=              7.5235

 Test job not archived.
 1\1\GINC-SE039\SP\RHF\Aug-CC-pVDZ\C3H5N1O2\OHZDE\09-Apr-2025\0\\#t hf
 aug-cc-pvdz iop(5/13=1,5/36=2,99/5=2) pseudo=read geom=check guess=(re
 ad,tcheck) scf=(maxcycle=1)\\title\\0,1\C,0,-0.63443569,1.21157315,-0.
 29126038\N,0,0.23959386,0.76290871,0.64600285\C,0,0.27685069,-0.756287
 84,0.96393465\O,0,-0.04747669,-1.15093046,2.07609684\C,0,0.52341414,-1
 .44448694,-0.25598244\O,0,0.76194942,-0.74564164,-1.37771155\H,0,0.168
 22594,0.13452185,-1.40011602\H,0,-1.60244709,0.70536885,-0.33191205\H,
 0,-0.57328967,2.2606816,-0.58425215\H,0,1.16661465,1.19277003,0.568732

 Normal termination of Gaussian 16 at Wed Apr  9 14:19:11 2025.
