 Gaussian 16, Revision C.01,

 ----------------------------------------------------------------------
 #t hf aug-cc-pvdz symm=none int=(grid=ultrafine) guess=(read,tcheck) s
 table=(opt,rrhf)
 ----------------------------------------------------------------------
 -----
 title
 -----
 Symbolic Z-matrix:
 Charge =  0 Multiplicity = 1

 SCF Done:  E(RHF) =  -320.229804122     A.U. after   17 cycles
 Normal termination of Gaussian 16 at Wed Apr  9 04:05:27 2025.
 Gaussian 16:  ES64L-G16RevC.01  3-Jul-2019

 ----------------------------------------------------------------------
 #t hf aug-cc-pvdz iop(5/13=1,5/36=2,99/5=2) pseudo=read geom=check gue
 ss=(read,tcheck) scf=(maxcycle=1)
 ----------------------------------------------------------------------
 -----
 title
 -----
 Structure from the checkpoint file:  "Grambow2020_wb97xd3_009382_reverse_mol1.chk"
 Charge =  0 Multiplicity = 1

                         Standard orientation:
 ---------------------------------------------------------------------
 Center     Atomic      Atomic             Coordinates (Angstroms)
 Number     Number       Type             X           Y           Z
 ---------------------------------------------------------------------
      1          8           0       -0.385288   -1.041929    0.022647
      2          6           0        0.312813    0.054711   -0.007812
      3          6           0       -0.568319    1.166866   -0.018047
      4          6           0       -1.980370    0.642610   -0.105683
      5          6           0       -1.727721   -0.702339   -0.006386
      6          6           0        1.728214   -0.025823   -0.008632
      7          7           0        2.877061   -0.034653   -0.011664
      8          1           0       -0.248406    2.174136   -0.247298
      9          1           0       -1.029039    1.157663    1.042775
     10          1           0       -2.367380   -1.569942   -0.015642
 ---------------------------------------------------------------------

 SCF Done:  E(RHF) =  -320.324567502     A.U. after    2 cycles

 The electronic state is 1-A.
 Alpha  occ. eigenvalues --  -20.73265 -15.69650 -11.41858 -11.33695 -11.32130
 Alpha  occ. eigenvalues --  -11.30715 -11.24814  -1.51445  -1.24548  -1.14124
 Alpha  occ. eigenvalues --   -1.08761  -0.90195  -0.86648  -0.81156  -0.73466
 Alpha  occ. eigenvalues --   -0.69821  -0.63980  -0.61184  -0.59549  -0.54117
 Alpha  occ. eigenvalues --   -0.52762  -0.51814  -0.37467  -0.35057
 Alpha virt. eigenvalues --   -0.00485   0.02878   0.03872   0.04966   0.06963
 Alpha virt. eigenvalues --    0.08542   0.09294   0.09935   0.10629   0.11644
 Alpha virt. eigenvalues --    0.12465   0.13513   0.13955   0.14351   0.14441

 Mulliken charges:
               1
     1  O   -0.458947
     2  C    1.277435
     3  C   -0.021950
     4  C   -0.693343
     5  C    0.722652
     6  C   -0.789099
     7  N   -0.047449
     8  H   -0.194501
     9  H    0.517722
    10  H   -0.312518
 Sum of Mulliken charges =  -0.00000

 Dipole moment (field-independent basis, Debye):
    X=              0.3832    Y=             -0.0869    Z=              0.6553  Tot=              0.7641

 Test job not archived.
 1\1\GINC-SE341\SP\RHF\Aug-CC-pVDZ\C5H3N1O1\OHZDE\09-Apr-2025\0\\#t hf
 aug-cc-pvdz iop(5/13=1,5/36=2,99/5=2) pseudo=read geom=check guess=(re
 ad,tcheck) scf=(maxcycle=1)\\title\\0,1\O,0,0.21712778,0.67336585,0.98
 708222\C,0,-0.5140694,0.44793071,-0.06430866\C,0,0.04782251,-0.6276262
 4,-0.799727\C,0,1.34459858,-1.01977302,-0.13564614\C,0,1.29064386,-0.2
 0147101,0.96437732\C,0,-1.67201955,1.23586277,-0.28376892\N,0,-2.61939
 29,1.84541657,-0.50929599\H,0,-0.24930789,-0.87371698,-1.80999776\H,0,
 -0.14245402,-1.54684553,-0.1240636\H,0,1.95940502,-0.04748412,1.795658

 Normal termination of Gaussian 16 at Wed Apr  9 04:05:31 2025.
