 Gaussian 16, Revision C.01,

 ----------------------------------------------------------------------
 #t hf aug-cc-pvdz symm=none int=(grid=ultrafine) guess=(read,tcheck) s
 table=(opt,rrhf)
 ----------------------------------------------------------------------
 -----
 title
 -----
 Symbolic Z-matrix:
 Charge =  0 Multiplicity = 1

 SCF Done:  E(RHF) =  -359.720670442     A.U. after   14 cycles
 Normal termination of Gaussian 16 at Wed Apr  9 03:52:33 2025.
 Gaussian 16:  ES64L-G16RevC.01  3-Jul-2019

 ----------------------------------------------------------------------
 #t hf aug-cc-pvdz iop(5/13=1,5/36=2,99/5=2) pseudo=read geom=check gue
 ss=(read,tcheck) scf=(maxcycle=1)
 ----------------------------------------------------------------------
 -----
 title
 -----
 Structure from the checkpoint file:  "Grambow2020_wb97xd3_008363_reverse_mol2.chk"
 Charge =  0 Multiplicity = 1

                         Standard orientation:
 ---------------------------------------------------------------------
 Center     Atomic      Atomic             Coordinates (Angstroms)
 Number     Number       Type             X           Y           Z
 ---------------------------------------------------------------------
      1          8           0        1.796149   -1.965686    0.001833
      2          6           0        1.178658   -0.780708   -0.009848
      3          6           0       -3.403707   -0.367517    0.028445
      4          7           0       -2.148592   -0.450757   -0.030072
      5          6           0        1.857928    0.372743    0.022239
      6          6           0        1.155235    1.646932    0.009933
      7          8           0       -0.048604    1.805090   -0.025270
      8          1           0        1.143790   -2.669084   -0.023677
      9          1           0        0.091767   -0.801577   -0.046278
     10          1           0       -3.952798    0.578658    0.060364
     11          1           0       -4.002161   -1.279836    0.048790
     12          1           0       -1.702929    0.470168   -0.041364
     13          1           0        2.940436    0.375736    0.059316
     14          1           0        1.812993    2.537296    0.036235
 ---------------------------------------------------------------------

 SCF Done:  E(RHF) =  -359.835625463     A.U. after    2 cycles

 The electronic state is 1-A.
 Alpha  occ. eigenvalues --  -20.63302 -20.55667 -15.61976 -11.34248 -11.33888
 Alpha  occ. eigenvalues --  -11.29100 -11.23143  -1.40193  -1.34709  -1.17641
 Alpha  occ. eigenvalues --   -1.06111  -0.89760  -0.83448  -0.78327  -0.77481
 Alpha  occ. eigenvalues --   -0.68727  -0.67512  -0.65489  -0.62402  -0.62187
 Alpha  occ. eigenvalues --   -0.59922  -0.55088  -0.54595  -0.44627  -0.44050
 Alpha  occ. eigenvalues --   -0.41614  -0.36698
 Alpha virt. eigenvalues --    0.03206   0.03936   0.04129   0.05913   0.06078
 Alpha virt. eigenvalues --    0.07209   0.08012   0.08509   0.10613   0.10722
 Alpha virt. eigenvalues --    0.11949   0.12723   0.14123   0.14553   0.15063

 Mulliken charges:
               1
     1  O   -0.554258
     2  C    1.019736
     3  C    0.556581
     4  N   -0.091099
     5  C    0.541287
     6  C    0.355929
     7  O   -0.457259
     8  H    0.214964
     9  H   -0.508271
    10  H   -0.183671
    11  H   -0.305293
    12  H    0.016364
    13  H   -0.365272
    14  H   -0.239737
 Sum of Mulliken charges =  -0.00000

 Dipole moment (field-independent basis, Debye):
    X=             -0.2165    Y=             -1.3421    Z=              0.0926  Tot=              1.3626

 Test job not archived.
 1\1\GINC-SE423\SP\RHF\Aug-CC-pVDZ\C4H7N1O2\OHZDE\09-Apr-2025\0\\#t hf
 aug-cc-pvdz iop(5/13=1,5/36=2,99/5=2) pseudo=read geom=check guess=(re
 ad,tcheck) scf=(maxcycle=1)\\title\\0,1\O,0,-0.94784218,-2.53184012,-0
 .75842242\C,0,-0.11556814,-1.53145426,-0.45485577\C,0,-1.58980567,2.71
 661648,0.52022401\N,0,-1.15496266,1.57583846,0.21167412\C,0,1.20749129
 ,-1.71428714,-0.36013984\C,0,2.08678979,-0.60399118,-0.02613009\O,0,1.
 7482605,0.54151903,0.19451802\H,0,-1.85023691,-2.20574377,-0.77676904\
 H,0,-0.57006375,-0.55754239,-0.28745109\H,0,-0.95108233,3.55565903,0.8

 Normal termination of Gaussian 16 at Wed Apr  9 03:52:37 2025.
