 Gaussian 16, Revision C.01,

 ----------------------------------------------------------------------
 #t hf aug-cc-pvdz symm=none int=(grid=ultrafine) guess=(read,tcheck) s
 table=(opt,rrhf)
 ----------------------------------------------------------------------
 -----
 title
 -----
 Symbolic Z-matrix:
 Charge =  0 Multiplicity = 1

 SCF Done:  E(RHF) =  -283.573142709     A.U. after   14 cycles
 Normal termination of Gaussian 16 at Wed Apr  9 14:24:09 2025.
 Gaussian 16:  ES64L-G16RevC.01  3-Jul-2019

 ----------------------------------------------------------------------
 #t hf aug-cc-pvdz iop(5/13=1,5/36=2,99/5=2) pseudo=read geom=check gue
 ss=(read,tcheck) scf=(maxcycle=1)
 ----------------------------------------------------------------------
 -----
 title
 -----
 Structure from the checkpoint file:  "Grambow2020_wb97xd3_006227_reverse_mol2.chk"
 Charge =  0 Multiplicity = 1

                         Standard orientation:
 ---------------------------------------------------------------------
 Center     Atomic      Atomic             Coordinates (Angstroms)
 Number     Number       Type             X           Y           Z
 ---------------------------------------------------------------------
      1          8           0       -1.428434   -0.056684   -0.763302
      2          6           0       -0.279733    0.001026   -0.000554
      3          6           0        0.829300   -1.061117    0.048710
      4          6           0        1.751956    0.146192    0.024107
      5          6           0        0.778581    1.054822   -0.047896
      6          7           0       -1.509791   -0.042462    0.709711
      7          1           0        0.866580   -1.700159   -0.834295
      8          1           0        0.843647   -1.672950    0.951407
      9          1           0        2.830563    0.224708    0.056304
     10          1           0        0.749956    2.134639   -0.111003
     11          1           0       -1.775361    0.918934    0.929822
 ---------------------------------------------------------------------

 SCF Done:  E(RHF) =  -283.656434597     A.U. after    2 cycles

 The electronic state is 1-A.
 Alpha  occ. eigenvalues --  -20.61422 -15.68802 -11.34623 -11.27166 -11.25802
 Alpha  occ. eigenvalues --  -11.25447  -1.43182  -1.16563  -1.03759  -0.92582
 Alpha  occ. eigenvalues --   -0.86079  -0.75457  -0.71761  -0.68942  -0.62617
 Alpha  occ. eigenvalues --   -0.59729  -0.55908  -0.52070  -0.48805  -0.46945
 Alpha  occ. eigenvalues --   -0.44861  -0.38016
 Alpha virt. eigenvalues --    0.03092   0.03871   0.04870   0.05471   0.06254
 Alpha virt. eigenvalues --    0.09212   0.10331   0.11689   0.12123   0.12573
 Alpha virt. eigenvalues --    0.13354   0.13618   0.15506   0.15758   0.16574

 Mulliken charges:
               1
     1  O   -0.688134
     2  C    1.133885
     3  C   -0.007979
     4  C    0.446420
     5  C   -0.101459
     6  N   -0.427709
     7  H    0.026703
     8  H   -0.013384
     9  H   -0.209395
    10  H   -0.201335
    11  H    0.042387
 Sum of Mulliken charges =  -0.00000

 Dipole moment (field-independent basis, Debye):
    X=              2.7326    Y=              1.3504    Z=              1.1149  Tot=              3.2456

 Test job not archived.
 1\1\GINC-SE174\SP\RHF\Aug-CC-pVDZ\C4H5N1O1\OHZDE\09-Apr-2025\0\\#t hf
 aug-cc-pvdz iop(5/13=1,5/36=2,99/5=2) pseudo=read geom=check guess=(re
 ad,tcheck) scf=(maxcycle=1)\\title\\0,1\O,0,-0.14549223,1.82640526,-0.
 68867111\C,0,-0.03241716,0.61777885,-0.03211511\C,0,-1.02437519,-0.552
 771,-0.11187028\C,0,0.23819434,-1.39514136,-0.18819583\C,0,1.08587417,
 -0.36653581,-0.14745561\N,0,-0.16707042,1.77224,0.78550208\H,0,-1.6413
 1362,-0.54669983,-1.01120976\H,0,-1.65282191,-0.68699851,0.7692904\H,0
 ,0.38290595,-2.46545998,-0.25200108\H,0,2.1629057,-0.26749659,-0.17911

 Normal termination of Gaussian 16 at Wed Apr  9 14:24:12 2025.
