 Gaussian 16, Revision C.01,

 ----------------------------------------------------------------------
 #t hf aug-cc-pvdz symm=none int=(grid=ultrafine) guess=(read,tcheck) s
 table=(opt,rrhf)
 ----------------------------------------------------------------------
 -----
 title
 -----
 Symbolic Z-matrix:
 Charge =  0 Multiplicity = 1

 SCF Done:  E(RHF) =  -320.641303506     A.U. after   15 cycles
 Normal termination of Gaussian 16 at Wed Apr  9 14:19:04 2025.
 Gaussian 16:  ES64L-G16RevC.01  3-Jul-2019

 ----------------------------------------------------------------------
 #t hf aug-cc-pvdz iop(5/13=1,5/36=2,99/5=2) pseudo=read geom=check gue
 ss=(read,tcheck) scf=(maxcycle=1)
 ----------------------------------------------------------------------
 -----
 title
 -----
 Structure from the checkpoint file:  "Grambow2020_b97d3_007134_reverse_mol2.chk"
 Charge =  0 Multiplicity = 1

                         Standard orientation:
 ---------------------------------------------------------------------
 Center     Atomic      Atomic             Coordinates (Angstroms)
 Number     Number       Type             X           Y           Z
 ---------------------------------------------------------------------
      1          8           0       -2.242275   -0.832793   -0.471017
      2          6           0       -1.378227   -0.076064   -0.098434
      3          7           0       -0.469373    0.138431    0.915074
      4          6           0       -0.618878    1.183718   -0.186098
      5          6           0        2.040399   -0.676170    0.216558
      6          8           0        2.348735    0.199812   -0.570278
      7          1           0       -0.762469    0.329607    1.876006
      8          1           0       -1.158947    2.107777    0.041735
      9          1           0        0.285480    1.297199   -0.788436
     10          1           0        1.528641   -1.613096   -0.099620
     11          1           0        2.281463   -0.615560    1.303006
 ---------------------------------------------------------------------

 SCF Done:  E(RHF) =  -320.741492692     A.U. after    2 cycles

 The electronic state is 1-A.
 Alpha  occ. eigenvalues --  -20.58841 -20.58492 -15.67547 -11.40395 -11.35838
 Alpha  occ. eigenvalues --  -11.31302  -1.38003  -1.36037  -1.27231  -0.93520
 Alpha  occ. eigenvalues --   -0.86481  -0.81170  -0.71527  -0.69347  -0.68655
 Alpha  occ. eigenvalues --   -0.65767  -0.64428  -0.55841  -0.54256  -0.53517
 Alpha  occ. eigenvalues --   -0.47516  -0.45101  -0.42164
 Alpha virt. eigenvalues --    0.02483   0.03735   0.04570   0.05652   0.07184
 Alpha virt. eigenvalues --    0.08403   0.09686   0.10256   0.11411   0.11941
 Alpha virt. eigenvalues --    0.13057   0.13535   0.14908   0.15433   0.15820

 Mulliken charges:
               1
     1  O   -0.391759
     2  C    0.178956
     3  N   -0.376468
     4  C    0.949776
     5  C    0.671607
     6  O   -0.462041
     7  H    0.010593
     8  H   -0.172237
     9  H   -0.203178
    10  H   -0.090925
    11  H   -0.114326
 Sum of Mulliken charges =  -0.00000

 Dipole moment (field-independent basis, Debye):
    X=              0.6340    Y=              1.2320    Z=              3.5255  Tot=              3.7880

 Test job not archived.
 1\1\GINC-SE131\SP\RHF\Aug-CC-pVDZ\C3H5N1O2\OHZDE\09-Apr-2025\0\\#t hf
 aug-cc-pvdz iop(5/13=1,5/36=2,99/5=2) pseudo=read geom=check guess=(re
 ad,tcheck) scf=(maxcycle=1)\\title\\0,1\O,0,0.85801428,-1.92504738,-1.
 65718979\C,0,0.55555492,-1.34073344,-0.64470241\N,0,0.91393954,-0.2803
 6887,0.15929362\C,0,-0.21741694,-1.20306636,0.60225758\C,0,-0.64764138
 ,1.91153168,-0.29621567\O,0,-1.68837625,1.55682683,0.22587914\H,0,1.80
 692657,-0.25362774,0.65699137\H,0,-0.01733577,-1.93014767,1.39521949\H
 ,0,-1.18292531,-0.69460944,0.65533126\H,0,-0.41736891,1.71587164,-1.36

 Normal termination of Gaussian 16 at Wed Apr  9 14:19:07 2025.
