 Gaussian 16, Revision C.01,

 ----------------------------------------------------------------------
 #t hf aug-cc-pvdz symm=none int=(grid=ultrafine) guess=(read,tcheck) s
 table=(opt,rrhf)
 ----------------------------------------------------------------------
 -----
 title
 -----
 Symbolic Z-matrix:
 Charge =  0 Multiplicity = 1

 SCF Done:  E(RHF) =  -323.813856782     A.U. after   14 cycles
 Normal termination of Gaussian 16 at Wed Apr  9 03:52:43 2025.
 Gaussian 16:  ES64L-G16RevC.01  3-Jul-2019

 ----------------------------------------------------------------------
 #t hf aug-cc-pvdz iop(5/13=1,5/36=2,99/5=2) pseudo=read geom=check gue
 ss=(read,tcheck) scf=(maxcycle=1)
 ----------------------------------------------------------------------
 -----
 title
 -----
 Structure from the checkpoint file:  "Grambow2020_wb97xd3_008326_reverse_mol2.chk"
 Charge =  0 Multiplicity = 1

                         Standard orientation:
 ---------------------------------------------------------------------
 Center     Atomic      Atomic             Coordinates (Angstroms)
 Number     Number       Type             X           Y           Z
 ---------------------------------------------------------------------
      1          7           0        1.093780    1.384292   -0.704866
      2          6           0        0.594412    0.554712    0.072000
      3          6           0       -0.680405    0.722282    0.828793
      4          6           0       -1.911842    0.368090   -0.016196
      5          6           0       -1.959825   -1.083332   -0.473942
      6          6           0        2.358651   -1.130016    0.093960
      7          8           0        1.140294   -0.778508    0.324119
      8          1           0        1.954077    1.066895   -1.151099
      9          1           0       -0.644919    0.097125    1.723178
     10          1           0       -0.738827    1.766415    1.135685
     11          1           0       -1.938997    1.036333   -0.880796
     12          1           0       -2.797239    0.595157    0.582780
     13          1           0       -1.915617   -1.770144    0.373980
     14          1           0       -2.882120   -1.282800   -1.021305
     15          1           0        2.905999   -0.233574   -0.312432
     16          1           0       -1.127107   -1.327808   -1.136575
 ---------------------------------------------------------------------

 SCF Done:  E(RHF) =  -323.914441787     A.U. after    2 cycles

 The electronic state is 1-A.
 Alpha  occ. eigenvalues --  -20.66335 -15.63968 -11.37648 -11.32575 -11.26012
 Alpha  occ. eigenvalues --  -11.24895 -11.23131  -1.43486  -1.21786  -1.08223
 Alpha  occ. eigenvalues --   -0.98779  -0.92097  -0.82863  -0.77091  -0.75949
 Alpha  occ. eigenvalues --   -0.66511  -0.65428  -0.63076  -0.60705  -0.57784
 Alpha  occ. eigenvalues --   -0.56718  -0.51593  -0.50268  -0.49421  -0.46799
 Alpha  occ. eigenvalues --   -0.44934  -0.37195
 Alpha virt. eigenvalues --    0.03253   0.03945   0.04294   0.04865   0.05938
 Alpha virt. eigenvalues --    0.06383   0.07065   0.07356   0.07868   0.08639
 Alpha virt. eigenvalues --    0.10899   0.12231   0.12947   0.13516   0.14583

 Mulliken charges:
               1
     1  N   -0.318737
     2  C    0.543853
     3  C    0.270593
     4  C    0.108442
     5  C    0.390072
     6  C    0.166401
     7  O   -0.526605
     8  H    0.014109
     9  H   -0.057986
    10  H   -0.033638
    11  H   -0.100474
    12  H   -0.079343
    13  H   -0.050406
    14  H   -0.089417
    15  H   -0.135740
    16  H   -0.101122
 Sum of Mulliken charges =  -0.00000

 Dipole moment (field-independent basis, Debye):
    X=             -1.3888    Y=              1.3687    Z=              0.0915  Tot=              1.9521

 Test job not archived.
 1\1\GINC-SE026\SP\RHF\Aug-CC-pVDZ\C5H9N1O1\OHZDE\09-Apr-2025\0\\#t hf
 aug-cc-pvdz iop(5/13=1,5/36=2,99/5=2) pseudo=read geom=check guess=(re
 ad,tcheck) scf=(maxcycle=1)\\title\\0,1\N,0,1.6282704,0.62520873,1.251
 85111\C,0,1.03467061,0.4638376,0.17357008\C,0,0.66620656,-0.848074,-0.
 4339639\C,0,-0.64367587,-1.40852261,0.13700053\C,0,-1.86487522,-0.5391
 0618,-0.12992369\C,0,0.92412475,2.77279724,-0.60605352\O,0,0.52158182,
 1.54974338,-0.66104103\H,0,1.75744989,1.60327015,1.51008518\H,0,0.5835
 2731,-0.72551584,-1.51569782\H,0,1.48017161,-1.54148815,-0.22313568\H,

 Normal termination of Gaussian 16 at Wed Apr  9 03:52:50 2025.
