 Gaussian 16, Revision C.01,

 ----------------------------------------------------------------------
 #t hf aug-cc-pvdz symm=none int=(grid=ultrafine) guess=(read,tcheck) s
 table=(opt,rrhf)
 ----------------------------------------------------------------------
 -----
 title
 -----
 Symbolic Z-matrix:
 Charge =  0 Multiplicity = 1

 SCF Done:  E(RHF) =  -342.392389071     A.U. after   17 cycles
 Normal termination of Gaussian 16 at Wed Apr  9 16:50:12 2025.
 Gaussian 16:  ES64L-G16RevC.01  3-Jul-2019

 ----------------------------------------------------------------------
 #t hf aug-cc-pvdz iop(5/13=1,5/36=2,99/5=2) pseudo=read geom=check gue
 ss=(read,tcheck) scf=(maxcycle=1)
 ----------------------------------------------------------------------
 -----
 title
 -----
 Structure from the checkpoint file:  "Grambow2020_wb97xd3_008945_forward_mol1.chk"
 Charge =  0 Multiplicity = 1

                         Standard orientation:
 ---------------------------------------------------------------------
 Center     Atomic      Atomic             Coordinates (Angstroms)
 Number     Number       Type             X           Y           Z
 ---------------------------------------------------------------------
      1          8           0       -1.945462   -0.696394   -0.472905
      2          6           0       -1.097355   -0.142339    0.085512
      3          6           0       -0.076580    1.420452   -0.661721
      4          6           0        0.679918    0.662648    0.223811
      5          6           0        1.782479   -0.245581   -0.089290
      6          8           0        0.804917   -1.190490   -0.358974
      7          6           0       -0.335343    0.208157    1.283711
      8          1           0       -0.831592    2.086152   -0.260312
      9          1           0        0.243933    1.596654   -1.680464
     10          1           0        2.375602    0.076814   -0.954802
     11          1           0        2.451127   -0.485368    0.749201
     12          1           0       -0.060561   -0.635501    1.906739
     13          1           0       -0.772873    1.036297    1.842535
 ---------------------------------------------------------------------

 SCF Done:  E(RHF) =  -342.496358113     A.U. after    2 cycles

 The electronic state is 1-A.
 Alpha  occ. eigenvalues --  -20.63603 -20.49362 -11.44855 -11.34645 -11.31446
 Alpha  occ. eigenvalues --  -11.28381 -11.26467  -1.44549  -1.27539  -1.15722
 Alpha  occ. eigenvalues --   -0.99787  -0.91584  -0.79132  -0.78371  -0.71791
 Alpha  occ. eigenvalues --   -0.69877  -0.67302  -0.64463  -0.63125  -0.58768
 Alpha  occ. eigenvalues --   -0.57989  -0.53424  -0.53065  -0.43092  -0.40137
 Alpha  occ. eigenvalues --   -0.34080
 Alpha virt. eigenvalues --    0.02408   0.04048   0.04274   0.05484   0.06219
 Alpha virt. eigenvalues --    0.06403   0.07395   0.08080   0.10315   0.11247
 Alpha virt. eigenvalues --    0.12094   0.12754   0.12883   0.13336   0.14211

 Mulliken charges:
               1
     1  O   -0.291650
     2  C    0.205695
     3  C    0.527810
     4  C   -0.477603
     5  C    1.137556
     6  O   -0.881590
     7  C    0.589782
     8  H   -0.212000
     9  H   -0.305227
    10  H   -0.111758
    11  H   -0.146367
    12  H   -0.048138
    13  H    0.013490
 Sum of Mulliken charges =  -0.00000

 Dipole moment (field-independent basis, Debye):
    X=              0.3485    Y=              4.8591    Z=              3.2520  Tot=              5.8573

 Test job not archived.
 1\1\GINC-SE097\SP\RHF\Aug-CC-pVDZ\C5H6O2\OHZDE\09-Apr-2025\0\\#t hf au
 g-cc-pvdz iop(5/13=1,5/36=2,99/5=2) pseudo=read geom=check guess=(read
 ,tcheck) scf=(maxcycle=1)\\title\\0,1\O,0,-1.93769306,-0.16036545,-1.4
 9674282\C,0,-1.19685584,-0.34376618,-0.62748046\C,0,-0.65359183,1.0503
 2871,0.71565652\C,0,0.34233095,0.10756915,0.49190747\C,0,1.59459952,0.
 2840546,-0.24241508\O,0,0.84920747,0.04638501,-1.38658051\C,0,-0.42990
 409,-1.20276607,0.27423718\H,0,-1.50376425,0.77105926,1.32684\H,0,-0.4
 8264964,2.10830758,0.56376395\H,0,2.00877411,1.29668102,-0.15358056\H,

 Normal termination of Gaussian 16 at Wed Apr  9 16:50:16 2025.
