 Gaussian 16, Revision C.01,

 ----------------------------------------------------------------------
 #t hf aug-cc-pvdz symm=none int=(grid=ultrafine) guess=(read,tcheck) s
 table=(opt,rrhf)
 ----------------------------------------------------------------------
 -----
 title
 -----
 Symbolic Z-matrix:
 Charge =  0 Multiplicity = 1

 SCF Done:  E(RHF) =  -268.615927102     A.U. after   17 cycles
 Normal termination of Gaussian 16 at Wed Apr  9 14:25:24 2025.
 Gaussian 16:  ES64L-G16RevC.01  3-Jul-2019

 ----------------------------------------------------------------------
 #t hf aug-cc-pvdz iop(5/13=1,5/36=2,99/5=2) pseudo=read geom=check gue
 ss=(read,tcheck) scf=(maxcycle=1)
 ----------------------------------------------------------------------
 -----
 title
 -----
 Structure from the checkpoint file:  "Grambow2020_wb97xd3_006258_forward_mol1.chk"
 Charge =  0 Multiplicity = 1

                         Standard orientation:
 ---------------------------------------------------------------------
 Center     Atomic      Atomic             Coordinates (Angstroms)
 Number     Number       Type             X           Y           Z
 ---------------------------------------------------------------------
      1          6           0       -1.938184   -0.916233    0.118556
      2          6           0       -1.256699    0.373804   -0.241205
      3          6           0       -0.311051    1.063648    0.663545
      4          6           0        0.225711    0.506323   -0.681428
      5          6           0        1.374220   -0.102949   -0.194050
      6          8           0        2.062075   -0.980809    0.100979
      7          1           0       -1.296164   -1.545735    0.736019
      8          1           0       -2.850651   -0.706174    0.679861
      9          1           0       -2.215058   -1.475799   -0.776532
     10          1           0       -1.810800    0.991031   -0.944939
     11          1           0       -0.071656    0.375807    1.485980
     12          1           0        0.913635    1.823921    0.796075
     13          1           0        0.434521    1.316215   -1.371327
     14          1           0        1.835589    1.519650    0.594516
 ---------------------------------------------------------------------

 SCF Done:  E(RHF) =  -268.702285240     A.U. after    2 cycles

 The electronic state is 1-A.
 Alpha  occ. eigenvalues --  -20.66785 -11.44596 -11.30206 -11.28328 -11.25262
 Alpha  occ. eigenvalues --  -11.24684  -1.47025  -1.19039  -1.02311  -0.92685
 Alpha  occ. eigenvalues --   -0.82508  -0.78404  -0.71897  -0.68258  -0.65979
 Alpha  occ. eigenvalues --   -0.63552  -0.59848  -0.58590  -0.54852  -0.52641
 Alpha  occ. eigenvalues --   -0.47668  -0.38145  -0.32087
 Alpha virt. eigenvalues --    0.02977   0.04054   0.04770   0.05198   0.06421
 Alpha virt. eigenvalues --    0.06879   0.07475   0.07829   0.08678   0.09962
 Alpha virt. eigenvalues --    0.11075   0.11740   0.12706   0.13333   0.14182

 Mulliken charges:
               1
     1  C    0.346753
     2  C    0.021430
     3  C   -0.223945
     4  C    0.907509
     5  C   -0.377801
     6  O   -0.208206
     7  H   -0.038183
     8  H    0.044628
     9  H    0.025434
    10  H   -0.277728
    11  H   -0.181730
    12  H    0.523870
    13  H   -0.264610
    14  H   -0.297421
 Sum of Mulliken charges =  -0.00000

 Dipole moment (field-independent basis, Debye):
    X=             -2.7978    Y=             -0.9742    Z=             -1.7677  Tot=              3.4498

 Test job not archived.
 1\1\GINC-SE112\SP\RHF\Aug-CC-pVDZ\C5H8O1\OHZDE\09-Apr-2025\0\\#t hf au
 g-cc-pvdz iop(5/13=1,5/36=2,99/5=2) pseudo=read geom=check guess=(read
 ,tcheck) scf=(maxcycle=1)\\title\\0,1\C,0,-1.46179679,-1.05930852,-0.6
 0330205\C,0,-0.72165647,0.24835292,-0.61944358\C,0,-0.18558624,0.88449
 203,0.60393732\C,0,0.81619897,0.40405355,-0.47924376\C,0,1.71919532,-0
 .23327668,0.36113058\O,0,2.26901277,-1.12728601,0.83995491\H,0,-1.0773
 0572,-1.72367192,0.17162357\H,0,-2.52019053,-0.88052452,-0.40424905\H,
 0,-1.3815327,-1.56668522,-1.56615347\H,0,-0.99257104,0.90527449,-1.443

 Normal termination of Gaussian 16 at Wed Apr  9 14:25:29 2025.
