 Gaussian 16, Revision C.01,

 ----------------------------------------------------------------------
 #t hf aug-cc-pvdz symm=none int=(grid=ultrafine) guess=(read,tcheck) s
 table=(opt,rrhf)
 ----------------------------------------------------------------------
 -----
 title
 -----
 Symbolic Z-matrix:
 Charge =  0 Multiplicity = 1

 SCF Done:  E(RHF) =  -338.635660213     A.U. after   15 cycles
 Normal termination of Gaussian 16 at Wed Apr  9 15:17:54 2025.
 Gaussian 16:  ES64L-G16RevC.01  3-Jul-2019

 ----------------------------------------------------------------------
 #t hf aug-cc-pvdz iop(5/13=1,5/36=2,99/5=2) pseudo=read geom=check gue
 ss=(read,tcheck) scf=(maxcycle=1)
 ----------------------------------------------------------------------
 -----
 title
 -----
 Structure from the checkpoint file:  "Grambow2020_wb97xd3_006837_forward_mol1.chk"
 Charge =  0 Multiplicity = 1

                         Standard orientation:
 ---------------------------------------------------------------------
 Center     Atomic      Atomic             Coordinates (Angstroms)
 Number     Number       Type             X           Y           Z
 ---------------------------------------------------------------------
      1          7           0        2.437633   -0.359324   -0.137112
      2          6           0        1.108783   -0.035162    0.002480
      3          6           0        0.554207    1.200475   -0.097948
      4          7           0       -0.872067    1.031512    0.097352
      5          6           0       -1.100879   -0.414762    0.111481
      6          8           0       -2.344582   -0.531539   -0.188913
      7          6           0        0.083903   -1.063341    0.162227
      8          1           0        3.094269    0.398445   -0.067443
      9          1           0        2.734922   -1.194023    0.336455
     10          1           0        1.002604    2.177641   -0.143369
     11          1           0       -1.164602    1.408937    0.997683
     12          1           0       -1.985301    0.757771   -0.469752
     13          1           0        0.239720   -2.125040    0.066611
 ---------------------------------------------------------------------

 SCF Done:  E(RHF) =  -338.737307054     A.U. after    2 cycles

 The electronic state is 1-A.
 Alpha  occ. eigenvalues --  -20.55060 -15.69438 -15.64508 -11.35520 -11.30907
 Alpha  occ. eigenvalues --  -11.24867 -11.22371  -1.36890  -1.24024  -1.19063
 Alpha  occ. eigenvalues --   -1.04298  -0.95767  -0.80797  -0.79041  -0.72507
 Alpha  occ. eigenvalues --   -0.70020  -0.68028  -0.64571  -0.60980  -0.57385
 Alpha  occ. eigenvalues --   -0.55210  -0.52430  -0.50417  -0.46532  -0.36549
 Alpha  occ. eigenvalues --   -0.28943
 Alpha virt. eigenvalues --    0.02644   0.03452   0.04126   0.05614   0.06402
 Alpha virt. eigenvalues --    0.07252   0.10664   0.11152   0.11876   0.12463
 Alpha virt. eigenvalues --    0.13170   0.13868   0.14347   0.14989   0.15723

 Mulliken charges:
               1
     1  N   -0.351789
     2  C    0.070691
     3  C    0.729680
     4  N   -0.631013
     5  C    0.175207
     6  O   -0.722231
     7  C    0.959634
     8  H   -0.012225
     9  H   -0.034329
    10  H   -0.340330
    11  H    0.114521
    12  H    0.433036
    13  H   -0.390852
 Sum of Mulliken charges =  -0.00000

 Dipole moment (field-independent basis, Debye):
    X=              3.6585    Y=              2.2448    Z=              1.7275  Tot=              4.6269

 Test job not archived.
 1\1\GINC-SE113\SP\RHF\Aug-CC-pVDZ\C4H6N2O1\OHZDE\09-Apr-2025\0\\#t hf
 aug-cc-pvdz iop(5/13=1,5/36=2,99/5=2) pseudo=read geom=check guess=(re
 ad,tcheck) scf=(maxcycle=1)\\title\\0,1\N,0,-2.07614563,0.64497467,-0.
 36385714\C,0,-0.79722787,0.19669502,-0.13185701\C,0,-0.26866808,-0.996
 35593,-0.50827649\N,0,1.11116409,-0.99664155,-0.06441623\C,0,1.3752180
 8,0.36414168,0.40760758\O,0,2.65397368,0.46918746,0.34111876\C,0,0.216
 62293,1.05729493,0.47190132\H,0,-2.75642385,-0.05016447,-0.61731672\H,
 0,-2.42277998,1.32923559,0.28498923\H,0,-0.7310377,-1.88369304,-0.9042

 Normal termination of Gaussian 16 at Wed Apr  9 15:17:58 2025.
