 Gaussian 16, Revision C.01,

 ----------------------------------------------------------------------
 #t hf aug-cc-pvdz symm=none int=(grid=ultrafine) guess=(read,tcheck) s
 table=(opt,rrhf)
 ----------------------------------------------------------------------
 -----
 title
 -----
 Symbolic Z-matrix:
 Charge =  0 Multiplicity = 1

 SCF Done:  E(RHF) =  -306.714713946     A.U. after   15 cycles
 Normal termination of Gaussian 16 at Wed Apr  9 16:25:05 2025.
 Gaussian 16:  ES64L-G16RevC.01  3-Jul-2019

 ----------------------------------------------------------------------
 #t hf aug-cc-pvdz iop(5/13=1,5/36=2,99/5=2) pseudo=read geom=check gue
 ss=(read,tcheck) scf=(maxcycle=1)
 ----------------------------------------------------------------------
 -----
 title
 -----
 Structure from the checkpoint file:  "Grambow2020_wb97xd3_008213_reverse_mol2.chk"
 Charge =  0 Multiplicity = 1

                         Standard orientation:
 ---------------------------------------------------------------------
 Center     Atomic      Atomic             Coordinates (Angstroms)
 Number     Number       Type             X           Y           Z
 ---------------------------------------------------------------------
      1          6           0       -2.916036   -0.306068   -0.316185
      2          8           0        1.663053   -1.359378    0.181090
      3          6           0        2.161624   -0.311097   -0.151027
      4          6           0        1.440004    0.956663   -0.359358
      5          6           0        0.195701    1.215740    0.049094
      6          6           0       -0.739887    0.292363    0.771860
      7          6           0       -1.604845   -0.450883   -0.211150
      8          1           0       -3.465611    0.374319    0.326245
      9          1           0       -3.489764   -0.868896   -1.042296
     10          1           0        3.254547   -0.254349   -0.329266
     11          1           0        2.003832    1.735586   -0.862437
     12          1           0       -0.205513    2.200142   -0.179014
     13          1           0       -0.173021   -0.430484    1.359697
     14          1           0       -1.372280    0.877719    1.442866
     15          1           0       -1.075983   -1.139318   -0.863915
 ---------------------------------------------------------------------

 SCF Done:  E(RHF) =  -306.810723963     A.U. after    2 cycles

 The electronic state is 1-A.
 Alpha  occ. eigenvalues --  -20.57042 -11.34650 -11.28076 -11.25004 -11.24751
 Alpha  occ. eigenvalues --  -11.24673 -11.23329  -1.36027  -1.10658  -1.04689
 Alpha  occ. eigenvalues --   -0.95738  -0.86874  -0.77453  -0.74251  -0.70362
 Alpha  occ. eigenvalues --   -0.65577  -0.64051  -0.61628  -0.60038  -0.55960
 Alpha  occ. eigenvalues --   -0.54407  -0.52375  -0.50139  -0.43797  -0.39129
 Alpha  occ. eigenvalues --   -0.36706
 Alpha virt. eigenvalues --    0.03143   0.03948   0.04653   0.04984   0.05953
 Alpha virt. eigenvalues --    0.06035   0.06554   0.07459   0.07995   0.10948
 Alpha virt. eigenvalues --    0.11355   0.12297   0.12481   0.13565   0.14430

 Mulliken charges:
               1
     1  C    0.513845
     2  O   -0.473208
     3  C    0.435254
     4  C    0.362705
     5  C    0.355879
     6  C    0.516895
     7  C    0.344916
     8  H   -0.297908
     9  H   -0.289337
    10  H   -0.176132
    11  H   -0.430249
    12  H   -0.417398
    13  H    0.059664
    14  H   -0.079649
    15  H   -0.425276
 Sum of Mulliken charges =  -0.00000

 Dipole moment (field-independent basis, Debye):
    X=              0.1390    Y=              2.9981    Z=             -0.4534  Tot=              3.0354

 Test job not archived.
 1\1\GINC-SE174\SP\RHF\Aug-CC-pVDZ\C6H8O1\OHZDE\09-Apr-2025\0\\#t hf au
 g-cc-pvdz iop(5/13=1,5/36=2,99/5=2) pseudo=read geom=check guess=(read
 ,tcheck) scf=(maxcycle=1)\\title\\0,1\C,0,-1.96835411,1.10171049,-1.45
 887615\O,0,0.02978974,-0.99532613,2.27403984\C,0,1.01794045,-1.4577749
 7,1.75686911\C,0,1.50246279,-1.15008252,0.39969653\C,0,1.09865399,-0.1
 2391013,-0.35273396\C,0,0.06712873,0.91011057,-0.01053744\C,0,-1.28797
 927,0.48208804,-0.50788449\H,0,-1.58061549,1.98923863,-1.94839333\H,0,
 -2.94206581,0.74981837,-1.77704829\H,0,1.6418338,-2.1844399,2.31560451

 Normal termination of Gaussian 16 at Wed Apr  9 16:25:11 2025.
