 Gaussian 16, Revision C.01,

 ----------------------------------------------------------------------
 #t hf aug-cc-pvdz symm=none int=(grid=ultrafine) guess=(read,tcheck) s
 table=(opt,rrhf)
 ----------------------------------------------------------------------
 -----
 title
 -----
 Symbolic Z-matrix:
 Charge =  0 Multiplicity = 1

 SCF Done:  E(RHF) =  -306.724983265     A.U. after   14 cycles
 Normal termination of Gaussian 16 at Wed Apr  9 03:58:52 2025.
 Gaussian 16:  ES64L-G16RevC.01  3-Jul-2019

 ----------------------------------------------------------------------
 #t hf aug-cc-pvdz iop(5/13=1,5/36=2,99/5=2) pseudo=read geom=check gue
 ss=(read,tcheck) scf=(maxcycle=1)
 ----------------------------------------------------------------------
 -----
 title
 -----
 Structure from the checkpoint file:  "Grambow2020_wb97xd3_008780_reverse_mol2.chk"
 Charge =  0 Multiplicity = 1

                         Standard orientation:
 ---------------------------------------------------------------------
 Center     Atomic      Atomic             Coordinates (Angstroms)
 Number     Number       Type             X           Y           Z
 ---------------------------------------------------------------------
      1          8           0       -0.349680   -1.133127   -0.227847
      2          6           0       -1.047055    0.019497   -0.020621
      3          6           0       -2.377976   -0.016387   -0.010086
      4          6           0        0.966201   -1.165479    0.307950
      5          6           0        1.810002   -0.008580   -0.193533
      6          6           0        1.051996    1.270874   -0.009679
      7          6           0       -0.272450    1.257427    0.101189
      8          1           0       -2.944576    0.898691    0.084556
      9          1           0       -2.908082   -0.952381   -0.119326
     10          1           0        0.909688   -1.138381    1.402909
     11          1           0        1.376942   -2.128782    0.008138
     12          1           0        2.753179    0.016769    0.358462
     13          1           0        2.065683   -0.149959   -1.249205
     14          1           0        1.598100    2.206455    0.032769
     15          1           0       -0.837802    2.168487    0.253148
 ---------------------------------------------------------------------

 SCF Done:  E(RHF) =  -306.820915493     A.U. after    2 cycles

 The electronic state is 1-A.
 Alpha  occ. eigenvalues --  -20.58800 -11.30292 -11.29554 -11.25181 -11.24653
 Alpha  occ. eigenvalues --  -11.24571 -11.21735  -1.36706  -1.09371  -1.06380
 Alpha  occ. eigenvalues --   -0.95790  -0.88525  -0.81647  -0.72843  -0.69739
 Alpha  occ. eigenvalues --   -0.66393  -0.64500  -0.60279  -0.58743  -0.57402
 Alpha  occ. eigenvalues --   -0.54735  -0.53608  -0.49913  -0.46360  -0.40727
 Alpha  occ. eigenvalues --   -0.31524
 Alpha virt. eigenvalues --    0.03267   0.04231   0.04422   0.05080   0.05970
 Alpha virt. eigenvalues --    0.06275   0.06984   0.08254   0.09479   0.11197
 Alpha virt. eigenvalues --    0.11679   0.12595   0.13952   0.14076   0.14751

 Mulliken charges:
               1
     1  O   -0.731210
     2  C    0.158606
     3  C    1.153971
     4  C    0.859512
     5  C    0.067852
     6  C   -0.173314
     7  C    0.571458
     8  H   -0.333737
     9  H   -0.416098
    10  H   -0.121208
    11  H   -0.204894
    12  H    0.048846
    13  H    0.028155
    14  H   -0.384279
    15  H   -0.523658
 Sum of Mulliken charges =   0.00000

 Dipole moment (field-independent basis, Debye):
    X=              1.9103    Y=              0.9076    Z=              0.5714  Tot=              2.1908

 Test job not archived.
 1\1\GINC-SE162\SP\RHF\Aug-CC-pVDZ\C6H8O1\OHZDE\09-Apr-2025\0\\#t hf au
 g-cc-pvdz iop(5/13=1,5/36=2,99/5=2) pseudo=read geom=check guess=(read
 ,tcheck) scf=(maxcycle=1)\\title\\0,1\O,0,-1.02924888,-0.51695602,0.65
 467892\C,0,-0.11248042,-1.17646639,-0.1084727\C,0,-0.25643683,-2.48363
 739,-0.31663089\C,0,-1.16487259,0.87380219,0.3957088\C,0,0.15977142,1.
 60366951,0.5161739\C,0,1.19696173,0.87917257,-0.28676934\C,0,1.0344011
 3,-0.40387875,-0.59333642\H,0,0.49797055,-3.03247004,-0.86161926\H,0,-
 1.11234952,-3.01618423,0.07431441\H,0,-1.57738864,1.01389255,-0.610803

 Normal termination of Gaussian 16 at Wed Apr  9 03:58:57 2025.
