 Gaussian 16, Revision C.01,

 ----------------------------------------------------------------------
 #t hf aug-cc-pvdz symm=none int=(grid=ultrafine) guess=(read,tcheck) s
 table=(opt,rrhf)
 ----------------------------------------------------------------------
 -----
 title
 -----
 Symbolic Z-matrix:
 Charge =  0 Multiplicity = 1

 SCF Done:  E(RHF) =  -322.660184738     A.U. after   14 cycles
 Normal termination of Gaussian 16 at Wed Apr  9 15:32:01 2025.
 Gaussian 16:  ES64L-G16RevC.01  3-Jul-2019

 ----------------------------------------------------------------------
 #t hf aug-cc-pvdz iop(5/13=1,5/36=2,99/5=2) pseudo=read geom=check gue
 ss=(read,tcheck) scf=(maxcycle=1)
 ----------------------------------------------------------------------
 -----
 title
 -----
 Structure from the checkpoint file:  "Grambow2020_wb97xd3_006950_reverse_mol2.chk"
 Charge =  0 Multiplicity = 1

                         Standard orientation:
 ---------------------------------------------------------------------
 Center     Atomic      Atomic             Coordinates (Angstroms)
 Number     Number       Type             X           Y           Z
 ---------------------------------------------------------------------
      1          8           0        2.369025    0.236153   -0.567842
      2          6           0        1.850114   -0.926870   -0.128052
      3          7           0        0.755117   -0.667330    0.569834
      4          6           0        0.144797    0.627055    0.838546
      5          6           0       -0.891246    1.022077   -0.218707
      6          6           0       -2.009160    0.084042   -0.277100
      7          6           0       -2.908243   -0.706725   -0.294658
      8          1           0        3.164191    0.010474   -1.051203
      9          1           0        0.264244   -1.479096    0.901326
     10          1           0        0.930999    1.378643    0.870974
     11          1           0       -0.327155    0.583103    1.821155
     12          1           0       -1.270983    2.021900    0.007295
     13          1           0       -0.405318    1.074022   -1.195513
     14          1           0       -3.711574   -1.404431   -0.320309
 ---------------------------------------------------------------------

 SCF Done:  E(RHF) =  -322.762574992     A.U. after    2 cycles

 The electronic state is 1-A.
 Alpha  occ. eigenvalues --  -20.60845 -15.65131 -11.30467 -11.28621 -11.26936
 Alpha  occ. eigenvalues --  -11.25084 -11.23861  -1.38357  -1.21255  -1.07580
 Alpha  occ. eigenvalues --   -1.00027  -0.90417  -0.84500  -0.72818  -0.69910
 Alpha  occ. eigenvalues --   -0.68901  -0.65434  -0.63812  -0.62104  -0.58327
 Alpha  occ. eigenvalues --   -0.56996  -0.53355  -0.42884  -0.39738  -0.39341
 Alpha  occ. eigenvalues --   -0.36381
 Alpha virt. eigenvalues --    0.03364   0.03604   0.04434   0.04878   0.06161
 Alpha virt. eigenvalues --    0.07147   0.07376   0.10215   0.10484   0.11219
 Alpha virt. eigenvalues --    0.12082   0.12987   0.13583   0.13808   0.14252

 Mulliken charges:
               1
     1  O   -0.494948
     2  C    0.155456
     3  N   -0.236563
     4  C    0.648663
     5  C   -0.025429
     6  C   -0.540424
     7  C    1.001453
     8  H    0.234406
     9  H   -0.032407
    10  H   -0.092014
    11  H   -0.152026
    12  H    0.050249
    13  H    0.010352
    14  H   -0.526769
 Sum of Mulliken charges =  -0.00000

 Dipole moment (field-independent basis, Debye):
    X=             -0.6435    Y=              1.3243    Z=              0.6241  Tot=              1.5992

 Test job not archived.
 1\1\GINC-SE226\SP\RHF\Aug-CC-pVDZ\C5H7N1O1\OHZDE\09-Apr-2025\0\\#t hf
 aug-cc-pvdz iop(5/13=1,5/36=2,99/5=2) pseudo=read geom=check guess=(re
 ad,tcheck) scf=(maxcycle=1)\\title\\0,1\O,0,-2.51160906,-0.11293757,-0
 .40670464\C,0,-2.06243053,0.94245588,0.30018272\N,0,-0.94695822,0.5938
 8086,0.9227925\C,0,-0.25441931,-0.68621506,0.8795185\C,0,0.79451672,-0
 .75251109,-0.23517862\C,0,1.85098111,0.24096069,-0.06212489\C,0,2.6986
 4125,1.06820422,0.1142599\H,0,-3.32375433,0.17068274,-0.82722479\H,0,-
 0.50478908,1.33279226,1.44077306\H,0,-0.99173744,-1.4719137,0.72756644

 Normal termination of Gaussian 16 at Wed Apr  9 15:32:05 2025.
