 Gaussian 16, Revision C.01,

 ----------------------------------------------------------------------
 #t hf aug-cc-pvdz symm=none int=(grid=ultrafine) guess=(read,tcheck) s
 table=(opt,rrhf)
 ----------------------------------------------------------------------
 -----
 title
 -----
 Symbolic Z-matrix:
 Charge =  0 Multiplicity = 1

 SCF Done:  E(RHF) =  -307.805830154     A.U. after   15 cycles

 1\1\GINC-SE100\Stability\RHF\Aug-CC-pVDZ\C6H10O1\OHZDE\09-Apr-2025\0\\
 #t hf aug-cc-pvdz symm=none int=(grid=ultrafine) guess=(read,tcheck) s
 table=(opt,rrhf)\\title\\0,1\C,0,-2.90825458,-0.68319518,0.55379199\C,
 0,0.02060551,0.28844652,-1.57741277\O,0,0.15908662,1.46791415,-1.05040
 642\C,0,1.32057659,1.6328142,-0.1569253\C,0,1.88855329,0.25402808,-0.0
 2830857\C,0,0.94011563,-0.76315269,0.49103189\C,0,1.07766691,-0.575947
 86,-1.00552543\H,0,-3.98516433,-0.80384558,0.44441822\H,0,-2.70787058,
 0.11552505,1.26757814\H,0,-2.47835707,-1.61529565,0.91969518\H,0,-2.46

 Normal termination of Gaussian 16 at Wed Apr  9 15:26:10 2025.
 Gaussian 16:  ES64L-G16RevC.01  3-Jul-2019

 ----------------------------------------------------------------------
 #t hf aug-cc-pvdz iop(5/13=1,5/36=2,99/5=2) pseudo=read geom=check gue
 ss=(read,tcheck) scf=(maxcycle=1)
 ----------------------------------------------------------------------
 -----
 title
 -----
 Structure from the checkpoint file:  "Grambow2020_wb97xd3_006892_reverse_mol2.chk"
 Charge =  0 Multiplicity = 1

                         Standard orientation:
 ---------------------------------------------------------------------
 Center     Atomic      Atomic             Coordinates (Angstroms)
 Number     Number       Type             X           Y           Z
 ---------------------------------------------------------------------
      1          6           0       -3.361563   -0.047763   -0.230950
      2          6           0        0.082102   -0.620186    1.139395
      3          8           0        0.466680   -1.388400    0.164714
      4          6           0        1.424484   -0.785214   -0.780452
      5          6           0        1.509347    0.648324   -0.358601
      6          6           0        0.213976    1.373524   -0.356450
      7          6           0        0.692490    0.710271    0.918214
      8          1           0       -4.380751   -0.369570   -0.021307
      9          1           0       -3.071707   -0.398280   -1.221263
     10          1           0       -3.316055    1.040625   -0.201810
     11          1           0       -2.685663   -0.462439    0.516411
     12          1           0        2.364291   -1.327901   -0.677924
     13          1           0        1.013084   -0.946852   -1.776497
     14          1           0        2.444305    1.181194   -0.454562
     15          1           0       -0.631375    0.927749   -0.869008
     16          1           0        0.231886    2.454692   -0.364735
     17          1           0        0.933534    1.334241    1.766042
 ---------------------------------------------------------------------

 SCF Done:  E(RHF) =  -307.903998446     A.U. after    2 cycles

 The electronic state is 1-A.
 Alpha  occ. eigenvalues --  -20.62847 -11.31059 -11.29389 -11.26407 -11.26288
 Alpha  occ. eigenvalues --  -11.24957 -11.20946  -1.40636  -1.16602  -1.01039
 Alpha  occ. eigenvalues --   -0.93141  -0.88750  -0.82246  -0.78013  -0.72126
 Alpha  occ. eigenvalues --   -0.67514  -0.63429  -0.60383  -0.57182  -0.54929
 Alpha  occ. eigenvalues --   -0.53999  -0.53924  -0.53605  -0.52009  -0.44990
 Alpha  occ. eigenvalues --   -0.43882  -0.34683
 Alpha virt. eigenvalues --    0.02774   0.03887   0.04196   0.04802   0.05648
 Alpha virt. eigenvalues --    0.06112   0.07220   0.07823   0.08588   0.09383
 Alpha virt. eigenvalues --    0.10251   0.11485   0.12114   0.13323   0.13741

 Mulliken charges:
               1
     1  C    0.741214
     2  C   -0.038686
     3  O   -0.506234
     4  C    0.823152
     5  C    0.202413
     6  C    0.861143
     7  C    0.486116
     8  H   -0.219491
     9  H   -0.168639
    10  H   -0.160367
    11  H   -0.173746
    12  H   -0.163749
    13  H   -0.129775
    14  H   -0.373259
    15  H   -0.430113
    16  H   -0.360185
    17  H   -0.389794
 Sum of Mulliken charges =  -0.00000

 Dipole moment (field-independent basis, Debye):
    X=              2.5078    Y=              2.4605    Z=             -2.3272  Tot=              4.2141

 Test job not archived.
 1\1\GINC-SE100\SP\RHF\Aug-CC-pVDZ\C6H10O1\OHZDE\09-Apr-2025\0\\#t hf a
 ug-cc-pvdz iop(5/13=1,5/36=2,99/5=2) pseudo=read geom=check guess=(rea
 d,tcheck) scf=(maxcycle=1)\\title\\0,1\C,0,-2.90825458,-0.68319518,0.5
 5379199\C,0,0.02060551,0.28844652,-1.57741277\O,0,0.15908662,1.4679141
 5,-1.05040642\C,0,1.32057659,1.6328142,-0.1569253\C,0,1.88855329,0.254
 02808,-0.02830857\C,0,0.94011563,-0.76315269,0.49103189\C,0,1.07766691
 ,-0.57594786,-1.00552543\H,0,-3.98516433,-0.80384558,0.44441822\H,0,-2
 .70787058,0.11552505,1.26757814\H,0,-2.47835707,-1.61529565,0.91969518

 Normal termination of Gaussian 16 at Wed Apr  9 15:26:16 2025.
