 Gaussian 16, Revision C.01,

 ----------------------------------------------------------------------
 #t hf aug-cc-pvdz symm=none int=(grid=ultrafine) guess=(read,tcheck) s
 table=(opt,rrhf)
 ----------------------------------------------------------------------
 -----
 title
 -----
 Symbolic Z-matrix:
 Charge =  0 Multiplicity = 1

 SCF Done:  E(RHF) =  -266.591258760     A.U. after   15 cycles
 Normal termination of Gaussian 16 at Wed Apr  9 03:02:35 2025.
 Gaussian 16:  ES64L-G16RevC.01  3-Jul-2019

 ----------------------------------------------------------------------
 #t hf aug-cc-pvdz iop(5/13=1,5/36=2,99/5=2) pseudo=read geom=check gue
 ss=(read,tcheck) scf=(maxcycle=1)
 ----------------------------------------------------------------------
 -----
 title
 -----
 Structure from the checkpoint file:  "Grambow2020_b97d3_006482_forward_mol1.chk"
 Charge =  0 Multiplicity = 1

                         Standard orientation:
 ---------------------------------------------------------------------
 Center     Atomic      Atomic             Coordinates (Angstroms)
 Number     Number       Type             X           Y           Z
 ---------------------------------------------------------------------
      1          8           0        1.594461   -0.882692   -0.103184
      2          6           0        0.957433    0.954544   -0.101446
      3          6           0       -0.269014    0.319906   -0.041521
      4          6           0       -1.414921   -0.333345   -0.609947
      5          8           0       -1.145376   -0.105390    0.862556
      6          1           0        1.699284   -1.120696    0.843032
      7          1           0        1.432851    1.333548    0.797379
      8          1           0        1.393795    1.143108   -1.074886
      9          1           0       -0.177872    2.021003   -0.222012
     10          1           0       -1.333585   -1.376745   -0.910525
     11          1           0       -2.248141    0.257810   -0.990473
 ---------------------------------------------------------------------

 SCF Done:  E(RHF) =  -266.675182942     A.U. after    2 cycles

 The electronic state is 1-A.
 Alpha  occ. eigenvalues --  -20.67319 -20.46668 -11.42824 -11.36945 -11.34861
 Alpha  occ. eigenvalues --   -1.47168  -1.16857  -1.06516  -0.99247  -0.83509
 Alpha  occ. eigenvalues --   -0.74242  -0.73199  -0.69413  -0.62308  -0.58267
 Alpha  occ. eigenvalues --   -0.55242  -0.53501  -0.49311  -0.40300  -0.33651
 Alpha virt. eigenvalues --    0.02646   0.03899   0.04862   0.05062   0.07046
 Alpha virt. eigenvalues --    0.07484   0.08146   0.09875   0.11533   0.12351
 Alpha virt. eigenvalues --    0.13170   0.14068   0.14905   0.16208   0.16967

 Mulliken charges:
               1
     1  O   -0.803723
     2  C    0.736771
     3  C   -0.079633
     4  C    1.007945
     5  O   -0.586220
     6  H    0.069011
     7  H   -0.189111
     8  H   -0.124682
     9  H    0.197894
    10  H   -0.096848
    11  H   -0.131404
 Sum of Mulliken charges =  -0.00000

 Dipole moment (field-independent basis, Debye):
    X=             -3.4552    Y=              2.4592    Z=             -0.8919  Tot=              4.3338

 Test job not archived.
 1\1\GINC-SE456\SP\RHF\Aug-CC-pVDZ\C3H6O2\OHZDE\09-Apr-2025\0\\#t hf au
 g-cc-pvdz iop(5/13=1,5/36=2,99/5=2) pseudo=read geom=check guess=(read
 ,tcheck) scf=(maxcycle=1)\\title\\0,1\O,0,-1.79809655,-0.54738627,-0.2
 835619\C,0,-0.64963552,0.99718698,-0.00684485\C,0,0.33370028,0.0275979
 7,-0.06580799\C,0,1.17068179,-0.99923019,0.48920137\O,0,1.13289073,-0.
 55048894,-0.95651169\H,0,-1.87111887,-0.64389572,-1.25737495\H,0,-0.89
 705272,1.59320148,-0.87925772\H,0,-1.10802553,1.20956802,0.95144871\H,
 0,0.73164365,1.64729095,0.3251527\H,0,0.75412402,-1.99279109,0.6471967

 Normal termination of Gaussian 16 at Wed Apr  9 03:02:38 2025.
