 Gaussian 16, Revision C.01,

 ----------------------------------------------------------------------
 #t hf aug-cc-pvdz symm=none int=(grid=ultrafine) guess=(read,tcheck) s
 table=(opt,rrhf)
 ----------------------------------------------------------------------
 -----
 title
 -----
 Symbolic Z-matrix:
 Charge =  0 Multiplicity = 1

 SCF Done:  E(RHF) =  -264.901851538     A.U. after   17 cycles
 Normal termination of Gaussian 16 at Wed Apr  9 03:07:57 2025.
 Gaussian 16:  ES64L-G16RevC.01  3-Jul-2019

 ----------------------------------------------------------------------
 #t hf aug-cc-pvdz iop(5/13=1,5/36=2,99/5=2) pseudo=read geom=check gue
 ss=(read,tcheck) scf=(maxcycle=1)
 ----------------------------------------------------------------------
 -----
 title
 -----
 Structure from the checkpoint file:  "Grambow2020_b97d3_006632_forward_mol1.chk"
 Charge =  0 Multiplicity = 1

                         Standard orientation:
 ---------------------------------------------------------------------
 Center     Atomic      Atomic             Coordinates (Angstroms)
 Number     Number       Type             X           Y           Z
 ---------------------------------------------------------------------
      1          6           0        2.284008    0.084303   -0.028128
      2          6           0        1.200750   -0.949542    0.166420
      3          6           0       -0.895554   -0.346362   -0.521492
      4          7           0       -1.776892   -1.144251    0.139847
      5          6           0       -0.773341    1.004196   -0.102347
      6          7           0       -0.668861    2.149026    0.157680
      7          1           0        1.920127    1.093628    0.209201
      8          1           0        2.676380    0.086055   -1.054031
      9          1           0        3.135305   -0.116416    0.647939
     10          1           0        1.445215   -1.959056   -0.193044
     11          1           0        0.797263   -0.991011    1.181693
     12          1           0        0.155795   -0.785127   -0.863367
     13          1           0       -1.946779   -1.049905    1.141095
     14          1           0       -1.958218   -2.067157   -0.238894
 ---------------------------------------------------------------------

 SCF Done:  E(RHF) =  -264.982357181     A.U. after    2 cycles

 The electronic state is 1-A.
 Alpha  occ. eigenvalues --  -15.66429 -15.63573 -11.32191 -11.28809 -11.28784
 Alpha  occ. eigenvalues --  -11.24661  -1.21647  -1.16493  -1.04031  -0.95042
 Alpha  occ. eigenvalues --   -0.85256  -0.74339  -0.70057  -0.64806  -0.63752
 Alpha  occ. eigenvalues --   -0.57449  -0.54872  -0.53888  -0.52408  -0.49834
 Alpha  occ. eigenvalues --   -0.45220  -0.44158  -0.30044
 Alpha virt. eigenvalues --    0.02311   0.03752   0.04052   0.05294   0.06269
 Alpha virt. eigenvalues --    0.06732   0.07635   0.08200   0.08393   0.10983
 Alpha virt. eigenvalues --    0.12332   0.12811   0.13134   0.14257   0.15024

 Mulliken charges:
               1
     1  C    0.283498
     2  C   -0.043776
     3  C    0.763709
     4  N   -0.319421
     5  C   -0.387290
     6  N   -0.244829
     7  H   -0.091972
     8  H   -0.073377
     9  H   -0.016577
    10  H   -0.175237
    11  H   -0.125253
    12  H    0.371201
    13  H   -0.002916
    14  H    0.062241
 Sum of Mulliken charges =  -0.00000

 Dipole moment (field-independent basis, Debye):
    X=              1.0181    Y=             -5.1411    Z=              0.9103  Tot=              5.3194

 Test job not archived.
 1\1\GINC-SE113\SP\RHF\Aug-CC-pVDZ\C4H8N2\OHZDE\09-Apr-2025\0\\#t hf au
 g-cc-pvdz iop(5/13=1,5/36=2,99/5=2) pseudo=read geom=check guess=(read
 ,tcheck) scf=(maxcycle=1)\\title\\0,1\C,0,-1.92368392,0.2326246,0.1186
 6582\C,0,-0.73451907,-0.69393615,0.03203961\C,0,1.30276851,0.2458016,0
 .47689109\N,0,2.24351835,-0.55280319,-0.09579897\C,0,1.00290261,1.4816
 8653,-0.15342077\N,0,0.75193126,2.54570712,-0.59392117\H,0,-1.69296291
 ,1.21939929,-0.30620537\H,0,-2.26904338,0.36882858,1.15240222\H,0,-2.7
 7331726,-0.17438128,-0.45972087\H,0,-0.84151306,-1.64663378,0.56964033

 Normal termination of Gaussian 16 at Wed Apr  9 03:08:01 2025.
