 Gaussian 16, Revision C.01,

 ----------------------------------------------------------------------
 #t hf aug-cc-pvdz symm=none int=(grid=ultrafine) guess=(read,tcheck) s
 table=(opt,rrhf)
 ----------------------------------------------------------------------
 -----
 title
 -----
 Symbolic Z-matrix:
 Charge =  0 Multiplicity = 1

 SCF Done:  E(RHF) =  -286.703093179     A.U. after   15 cycles
 Normal termination of Gaussian 16 at Wed Apr  9 16:12:08 2025.
 Gaussian 16:  ES64L-G16RevC.01  3-Jul-2019

 ----------------------------------------------------------------------
 #t hf aug-cc-pvdz iop(5/13=1,5/36=2,99/5=2) pseudo=read geom=check gue
 ss=(read,tcheck) scf=(maxcycle=1)
 ----------------------------------------------------------------------
 -----
 title
 -----
 Structure from the checkpoint file:  "Grambow2020_wb97xd3_007990_reverse_mol1.chk"
 Charge =  0 Multiplicity = 1

                         Standard orientation:
 ---------------------------------------------------------------------
 Center     Atomic      Atomic             Coordinates (Angstroms)
 Number     Number       Type             X           Y           Z
 ---------------------------------------------------------------------
      1          6           0        3.457357    0.401616    0.101048
      2          6           0        2.092836   -0.097960   -0.021725
      3          6           0        0.971090   -0.506635   -0.127863
      4          6           0       -0.411864   -0.966817   -0.244133
      5          6           0       -1.373687   -0.015477    0.444779
      6          6           0       -1.707392    1.294017   -0.171876
      7          7           0       -2.767866   -0.179222    0.002654
      8          1           0        3.657612    0.736936    1.119732
      9          1           0        3.621333    1.245715   -0.570512
     10          1           0        4.179528   -0.376926   -0.148938
     11          1           0       -0.506250   -1.966419    0.189331
     12          1           0       -0.695967   -1.046719   -1.296871
     13          1           0       -1.251409   -0.012957    1.526648
     14          1           0       -1.465926    1.166031   -1.241720
     15          1           0       -3.001062    0.935118   -0.324550
     16          1           0       -3.332836   -0.078696    0.846916
 ---------------------------------------------------------------------

 SCF Done:  E(RHF) =  -286.788346411     A.U. after    2 cycles

 The electronic state is 1-A.
 Alpha  occ. eigenvalues --  -15.68195 -11.29070 -11.26368 -11.26052 -11.25645
 Alpha  occ. eigenvalues --  -11.23549 -11.22958  -1.24495  -1.07004  -1.02069
 Alpha  occ. eigenvalues --   -0.94212  -0.90017  -0.81995  -0.69880  -0.64424
 Alpha  occ. eigenvalues --   -0.61691  -0.60927  -0.59735  -0.58901  -0.58617
 Alpha  occ. eigenvalues --   -0.55992  -0.50345  -0.44681  -0.37700  -0.37318
 Alpha  occ. eigenvalues --   -0.35334
 Alpha virt. eigenvalues --    0.03299   0.03496   0.04549   0.04781   0.05659
 Alpha virt. eigenvalues --    0.06441   0.06900   0.07423   0.09134   0.09759
 Alpha virt. eigenvalues --    0.10826   0.12550   0.12783   0.14391   0.14588

 Mulliken charges:
               1
     1  C    0.119001
     2  C   -0.880391
     3  C    0.084163
     4  C   -0.053543
     5  C    0.749609
     6  C   -0.260537
     7  N   -0.623568
     8  H    0.145955
     9  H    0.153799
    10  H    0.142138
    11  H    0.164113
    12  H    0.139597
    13  H   -0.305819
    14  H   -0.047089
    15  H    0.361011
    16  H    0.111560
 Sum of Mulliken charges =  -0.00000

 Dipole moment (field-independent basis, Debye):
    X=              0.2225    Y=             -1.1932    Z=              0.7233  Tot=              1.4129

 Test job not archived.
 1\1\GINC-SE168\SP\RHF\Aug-CC-pVDZ\C6H9N1\OHZDE\09-Apr-2025\0\\#t hf au
 g-cc-pvdz iop(5/13=1,5/36=2,99/5=2) pseudo=read geom=check guess=(read
 ,tcheck) scf=(maxcycle=1)\\title\\0,1\C,0,2.63608869,0.49788505,2.2226
 0383\C,0,1.62539916,-0.05978734,1.3314946\C,0,0.79757391,-0.51628957,0
 .59467285\C,0,-0.23282922,-1.03529399,-0.30352056\C,0,-1.44030601,-0.1
 164666,-0.3535721\C,0,-1.37631932,1.17013386,-1.09314078\N,0,-2.293820
 65,-0.34385354,-1.53078484\H,0,2.18278449,0.85397234,3.14887331\H,0,3.
 14492364,1.33965233,1.7504808\H,0,3.38552962,-0.25284817,2.47733763\H,

 Normal termination of Gaussian 16 at Wed Apr  9 16:12:13 2025.
