 Gaussian 16, Revision C.01,

 ----------------------------------------------------------------------
 #t hf aug-cc-pvdz symm=none int=(grid=ultrafine) guess=(read,tcheck) s
 table=(opt,rrhf)
 ----------------------------------------------------------------------
 -----
 title
 -----
 Symbolic Z-matrix:
 Charge =  0 Multiplicity = 1

 SCF Done:  E(RHF) =  -341.412365980     A.U. after   15 cycles
 Normal termination of Gaussian 16 at Wed Apr  9 16:58:00 2025.
 Gaussian 16:  ES64L-G16RevC.01  3-Jul-2019

 ----------------------------------------------------------------------
 #t hf aug-cc-pvdz iop(5/13=1,5/36=2,99/5=2) pseudo=read geom=check gue
 ss=(read,tcheck) scf=(maxcycle=1)
 ----------------------------------------------------------------------
 -----
 title
 -----
 Structure from the checkpoint file:  "Grambow2020_wb97xd3_009088_forward_mol2.chk"
 Charge =  0 Multiplicity = 1

                         Standard orientation:
 ---------------------------------------------------------------------
 Center     Atomic      Atomic             Coordinates (Angstroms)
 Number     Number       Type             X           Y           Z
 ---------------------------------------------------------------------
      1          8           0        1.234472    1.621654   -0.004013
      2          6           0        0.360190    0.809730   -0.000184
      3          6           0       -1.137774    1.054882    0.004320
      4          6           0       -1.708331   -0.335379   -0.001976
      5          6           0       -0.791666   -1.305415   -0.002602
      6          6           0        0.565869   -0.733509    0.000455
      7          8           0        1.628023   -1.288052    0.003001
      8          1           0       -1.431553    1.627918    0.887340
      9          1           0       -1.435572    1.640271   -0.869055
     10          1           0       -2.777865   -0.510008   -0.004937
     11          1           0       -0.984706   -2.368848   -0.005334
 ---------------------------------------------------------------------

 SCF Done:  E(RHF) =  -341.515818378     A.U. after    2 cycles

 The electronic state is 1-A.
 Alpha  occ. eigenvalues --  -20.59844 -20.58678 -11.36482 -11.36034 -11.30606
 Alpha  occ. eigenvalues --  -11.28291 -11.27552  -1.39724  -1.37042  -1.16604
 Alpha  occ. eigenvalues --   -0.99967  -0.93240  -0.80902  -0.74899  -0.72048
 Alpha  occ. eigenvalues --   -0.66798  -0.65833  -0.65053  -0.62695  -0.57684
 Alpha  occ. eigenvalues --   -0.57576  -0.53847  -0.52411  -0.41269  -0.41087
 Alpha virt. eigenvalues --    0.02268   0.03269   0.03921   0.04737   0.04803
 Alpha virt. eigenvalues --    0.08628   0.09315   0.10306   0.11265   0.11815
 Alpha virt. eigenvalues --    0.13112   0.13124   0.14114   0.14597   0.15339

 Mulliken charges:
               1
     1  O   -0.444478
     2  C    0.314195
     3  C    0.046517
     4  C    0.255858
     5  C    0.671500
     6  C    0.028554
     7  O   -0.424284
     8  H    0.078082
     9  H    0.075363
    10  H   -0.285856
    11  H   -0.315451
 Sum of Mulliken charges =   0.00000

 Dipole moment (field-independent basis, Debye):
    X=             -6.3974    Y=             -0.1930    Z=              0.0055  Tot=              6.4003

 Test job not archived.
 1\1\GINC-SE232\SP\RHF\Aug-CC-pVDZ\C5H4O2\OHZDE\09-Apr-2025\0\\#t hf au
 g-cc-pvdz iop(5/13=1,5/36=2,99/5=2) pseudo=read geom=check guess=(read
 ,tcheck) scf=(maxcycle=1)\\title\\0,1\O,0,-0.69072178,2.32250961,-0.14
 545704\C,0,-0.32080935,1.19090549,-0.06646265\C,0,-1.14868619,-0.07195
 022,-0.22084183\C,0,-0.13679526,-1.1659166,-0.02663809\C,0,1.10212019,
 -0.73189705,0.21410644\C,0,1.14148184,0.740647,0.22139709\O,0,2.067579
 46,1.47882096,0.40343486\H,0,-1.94951249,-0.10066829,0.52229528\H,0,-1
 .6249004,-0.10335333,-1.20388877\H,0,-0.41426838,-2.21205858,-0.081444

 Normal termination of Gaussian 16 at Wed Apr  9 16:58:04 2025.
