 Gaussian 16, Revision C.01,

 ----------------------------------------------------------------------
 #t hf aug-cc-pvdz symm=none int=(grid=ultrafine) guess=(read,tcheck) s
 table=(opt,rrhf)
 ----------------------------------------------------------------------
 -----
 title
 -----
 Symbolic Z-matrix:
 Charge =  0 Multiplicity = 1

 SCF Done:  E(RHF) =  -323.669593934     A.U. after   17 cycles
 Normal termination of Gaussian 16 at Wed Apr  9 15:17:09 2025.
 Gaussian 16:  ES64L-G16RevC.01  3-Jul-2019

 ----------------------------------------------------------------------
 #t hf aug-cc-pvdz iop(5/13=1,5/36=2,99/5=2) pseudo=read geom=check gue
 ss=(read,tcheck) scf=(maxcycle=1)
 ----------------------------------------------------------------------
 -----
 title
 -----
 Structure from the checkpoint file:  "Grambow2020_wb97xd3_006831_forward_mol1.chk"
 Charge =  0 Multiplicity = 1

                         Standard orientation:
 ---------------------------------------------------------------------
 Center     Atomic      Atomic             Coordinates (Angstroms)
 Number     Number       Type             X           Y           Z
 ---------------------------------------------------------------------
      1          6           0        1.907631   -1.289306   -0.251788
      2          6           0        1.115611   -0.209405    0.452563
      3          6           0        1.348642    1.280435    0.044066
      4          6           0       -0.133997    1.381605   -0.210386
      5          6           0       -0.336562    0.013412    0.040806
      6          7           0       -1.399636   -0.851694    0.149852
      7          8           0       -2.543331   -0.073210   -0.008861
      8          1           0        2.955871   -1.262911    0.052029
      9          1           0        1.870905   -1.156275   -1.336969
     10          1           0        1.512643   -2.280215   -0.020559
     11          1           0        1.171387   -0.328518    1.535995
     12          1           0        1.717062    1.901407    0.866257
     13          1           0        2.009963    1.424955   -0.816074
     14          1           0       -0.465003   -0.277114   -1.073210
     15          1           0       -0.804181    2.187569   -0.464964
     16          1           0       -3.232498   -0.721807   -0.172145
 ---------------------------------------------------------------------

 SCF Done:  E(RHF) =  -323.765759899     A.U. after    2 cycles

 The electronic state is 1-A.
 Alpha  occ. eigenvalues --  -20.60347 -15.66652 -11.29037 -11.26299 -11.25700
 Alpha  occ. eigenvalues --  -11.24896 -11.23412  -1.37174  -1.18650  -1.06495
 Alpha  occ. eigenvalues --   -0.99295  -0.87241  -0.84488  -0.73954  -0.69278
 Alpha  occ. eigenvalues --   -0.68250  -0.64828  -0.61662  -0.58758  -0.56659
 Alpha  occ. eigenvalues --   -0.55122  -0.52243  -0.49328  -0.47345  -0.47138
 Alpha  occ. eigenvalues --   -0.43272  -0.25593
 Alpha virt. eigenvalues --    0.03325   0.04025   0.04426   0.04683   0.05909
 Alpha virt. eigenvalues --    0.06389   0.06894   0.07189   0.07790   0.08076
 Alpha virt. eigenvalues --    0.11935   0.12898   0.13114   0.14018   0.15209

 Mulliken charges:
               1
     1  C    0.581959
     2  C   -0.446552
     3  C    0.671473
     4  C    0.178505
     5  C    0.344931
     6  N   -0.565740
     7  O   -0.519967
     8  H   -0.051989
     9  H   -0.051434
    10  H   -0.010420
    11  H   -0.111351
    12  H   -0.066811
    13  H   -0.103409
    14  H    0.284400
    15  H   -0.309811
    16  H    0.176215
 Sum of Mulliken charges =  -0.00000

 Dipole moment (field-independent basis, Debye):
    X=              1.4779    Y=              0.2625    Z=             -0.9186  Tot=              1.7598

 Test job not archived.
 1\1\GINC-SE226\SP\RHF\Aug-CC-pVDZ\C5H9N1O1\OHZDE\09-Apr-2025\0\\#t hf
 aug-cc-pvdz iop(5/13=1,5/36=2,99/5=2) pseudo=read geom=check guess=(re
 ad,tcheck) scf=(maxcycle=1)\\title\\0,1\C,0,-1.62540471,-1.10787039,0.
 06000683\C,0,-0.59115979,-0.24220139,-0.62595656\C,0,-0.73468373,1.311
 07006,-0.53908589\C,0,0.66698295,1.35112432,0.01492333\C,0,0.76243808,
 -0.05088237,0.05166141\N,0,1.72212646,-0.99565294,0.32884765\O,0,2.889
 17706,-0.28616976,0.60068114\H,0,-2.58025138,-1.06392369,-0.46738678\H
 ,0,-1.79566163,-0.77359096,1.08759352\H,0,-1.30473636,-2.15065425,0.09

 Normal termination of Gaussian 16 at Wed Apr  9 15:17:15 2025.
