 Gaussian 16, Revision C.01,

 ----------------------------------------------------------------------
 #t hf aug-cc-pvdz symm=none int=(grid=ultrafine) guess=(read,tcheck) s
 table=(opt,rrhf)
 ----------------------------------------------------------------------
 -----
 title
 -----
 Symbolic Z-matrix:
 Charge =  0 Multiplicity = 1

 SCF Done:  E(RHF) =  -284.690844213     A.U. after   16 cycles
 Normal termination of Gaussian 16 at Wed Apr  9 14:20:17 2025.
 Gaussian 16:  ES64L-G16RevC.01  3-Jul-2019

 ----------------------------------------------------------------------
 #t hf aug-cc-pvdz iop(5/13=1,5/36=2,99/5=2) pseudo=read geom=check gue
 ss=(read,tcheck) scf=(maxcycle=1)
 ----------------------------------------------------------------------
 -----
 title
 -----
 Structure from the checkpoint file:  "Grambow2020_b97d3_007215_forward_mol1.chk"
 Charge =  0 Multiplicity = 1

                         Standard orientation:
 ---------------------------------------------------------------------
 Center     Atomic      Atomic             Coordinates (Angstroms)
 Number     Number       Type             X           Y           Z
 ---------------------------------------------------------------------
      1          6           0       -2.205422    0.150517   -0.178974
      2          6           0       -0.848069   -0.044411    0.427599
      3          8           0       -0.104393   -1.006242   -0.168608
      4          6           0        1.301681   -0.913180    0.022124
      5          6           0        1.741077    0.553195   -0.171550
      6          7           0        0.855801    1.399713   -0.008927
      7          1           0       -2.882980   -0.702865    0.012870
      8          1           0       -2.687843    1.044255    0.242513
      9          1           0       -2.131686    0.269374   -1.269523
     10          1           0       -0.750560    0.027144    1.519790
     11          1           0       -0.004699    1.920814   -0.054876
     12          1           0        1.771023   -1.602739   -0.686611
     13          1           0        1.595681   -1.180758    1.051991
 ---------------------------------------------------------------------

 SCF Done:  E(RHF) =  -284.780142251     A.U. after    2 cycles

 The electronic state is 1-A.
 Alpha  occ. eigenvalues --  -20.62131 -15.65532 -11.34343 -11.30879 -11.27245
 Alpha  occ. eigenvalues --  -11.25886  -1.38852  -1.18353  -1.04783  -0.95536
 Alpha  occ. eigenvalues --   -0.84001  -0.82244  -0.71178  -0.67929  -0.67226
 Alpha  occ. eigenvalues --   -0.59179  -0.56994  -0.56286  -0.54192  -0.50462
 Alpha  occ. eigenvalues --   -0.46276  -0.44970  -0.25885
 Alpha virt. eigenvalues --    0.03018   0.04027   0.04459   0.04989   0.06589
 Alpha virt. eigenvalues --    0.06702   0.07220   0.08641   0.09333   0.11806
 Alpha virt. eigenvalues --    0.12597   0.12973   0.13353   0.14683   0.15085

 Mulliken charges:
               1
     1  C    0.180571
     2  C    0.439261
     3  O   -0.645048
     4  C    0.814414
     5  C   -0.309198
     6  N   -0.173340
     7  H    0.005536
     8  H   -0.042317
     9  H   -0.002530
    10  H   -0.224860
    11  H    0.135144
    12  H   -0.155271
    13  H   -0.022361
 Sum of Mulliken charges =   0.00000

 Dipole moment (field-independent basis, Debye):
    X=             -3.3672    Y=             -0.3097    Z=              1.0943  Tot=              3.5541

 Test job not archived.
 1\1\GINC-SE231\SP\RHF\Aug-CC-pVDZ\C4H7N1O1\OHZDE\09-Apr-2025\0\\#t hf
 aug-cc-pvdz iop(5/13=1,5/36=2,99/5=2) pseudo=read geom=check guess=(re
 ad,tcheck) scf=(maxcycle=1)\\title\\0,1\C,0,-1.76300591,-0.65849231,-0
 .05119231\C,0,-0.55063572,0.12761565,-0.45184914\O,0,0.09287039,0.7235
 4562,0.57984924\C,0,1.4565637,1.05685639,0.35329364\C,0,2.15847828,-0.
 13157759,-0.33646954\N,0,1.41481882,-0.90804793,-0.94541869\H,0,-2.594
 02983,-0.01294028,0.2905854\H,0,-2.13960791,-1.24168557,-0.90395557\H,
 0,-1.52614603,-1.34793735,0.77186621\H,0,-0.58837757,0.7021818,-1.3877

 Normal termination of Gaussian 16 at Wed Apr  9 14:20:21 2025.
