 Gaussian 16, Revision C.01,

 ----------------------------------------------------------------------
 #t hf aug-cc-pvdz symm=none int=(grid=ultrafine) guess=(read,tcheck) s
 table=(opt,rrhf)
 ----------------------------------------------------------------------
 -----
 title
 -----
 Symbolic Z-matrix:
 Charge =  0 Multiplicity = 1

 SCF Done:  E(RHF) =  -186.879215857     A.U. after   14 cycles
 Normal termination of Gaussian 16 at Wed Apr  9 03:06:34 2025.
 Gaussian 16:  ES64L-G16RevC.01  3-Jul-2019

 ----------------------------------------------------------------------
 #t hf aug-cc-pvdz iop(5/13=1,5/36=2,99/5=2) pseudo=read geom=check gue
 ss=(read,tcheck) scf=(maxcycle=1)
 ----------------------------------------------------------------------
 -----
 title
 -----
 Structure from the checkpoint file:  "Grambow2020_b97d3_006605_forward_mol1.chk"
 Charge =  0 Multiplicity = 1

                         Standard orientation:
 ---------------------------------------------------------------------
 Center     Atomic      Atomic             Coordinates (Angstroms)
 Number     Number       Type             X           Y           Z
 ---------------------------------------------------------------------
      1          7           0        1.134861   -0.660680   -0.024015
      2          6           0        1.206643    0.631223    0.140548
      3          6           0       -1.345650    0.615396   -0.322253
      4          7           0       -1.652054   -0.420169    0.175276
      5          1           0        0.212750   -1.071936    0.243778
      6          1           0        1.713356   -1.145722   -0.705581
      7          1           0        2.002397    1.197179   -0.341328
      8          1           0        0.525883    1.106703    0.834532
 ---------------------------------------------------------------------

 SCF Done:  E(RHF) =  -186.935792039     A.U. after    2 cycles

 The electronic state is 1-A.
 Alpha  occ. eigenvalues --  -15.75845 -15.54378 -11.42332 -11.17560  -1.30532
 Alpha  occ. eigenvalues --   -1.08626  -0.97139  -0.82782  -0.76058  -0.65696
 Alpha  occ. eigenvalues --   -0.57963  -0.51871  -0.38471  -0.37737  -0.37579
 Alpha virt. eigenvalues --    0.00602   0.01927   0.03064   0.05194   0.07438
 Alpha virt. eigenvalues --    0.08276   0.10075   0.12877   0.13338   0.13941
 Alpha virt. eigenvalues --    0.14307   0.15440   0.17037   0.19211   0.20384

 Mulliken charges:
               1
     1  N   -0.068535
     2  C    0.847000
     3  C   -0.440870
     4  N   -0.480482
     5  H    0.228110
     6  H    0.059797
     7  H   -0.106014
     8  H   -0.039005
 Sum of Mulliken charges =  -0.00000

 Dipole moment (field-independent basis, Debye):
    X=              9.6852    Y=             -0.2847    Z=              0.0162  Tot=              9.6894

 Test job not archived.
 1\1\GINC-SE080\SP\RHF\Aug-CC-pVDZ\C2H4N2\OHZDE\09-Apr-2025\0\\#t hf au
 g-cc-pvdz iop(5/13=1,5/36=2,99/5=2) pseudo=read geom=check guess=(read
 ,tcheck) scf=(maxcycle=1)\\title\\0,1\N,0,-0.78154063,-0.45198727,0.30
 667383\C,0,-0.48736656,0.80914619,0.15094534\C,0,1.88752289,-0.0413280
 9,-0.45339633\N,0,1.62143049,-1.06068421,-1.00468851\H,0,-0.22456258,-
 1.09552389,-0.2989402\H,0,-1.17282506,-0.80624476,1.1760719\H,0,-0.801
 86472,1.53686419,0.89743852\H,0,-0.01586984,1.12423884,-0.77075856\\Ve
 rsion=ES64L-G16RevC.01\State=1-A\HF=-186.935792\RMSD=1.536e-03\Dipole=

 Normal termination of Gaussian 16 at Wed Apr  9 03:06:36 2025.
