 Gaussian 16, Revision C.01,

 ----------------------------------------------------------------------
 #t hf aug-cc-pvdz symm=none int=(grid=ultrafine) guess=(read,tcheck) s
 table=(opt,rrhf)
 ----------------------------------------------------------------------
 -----
 title
 -----
 Symbolic Z-matrix:
 Charge =  0 Multiplicity = 1

 SCF Done:  E(RHF) =  -342.391072824     A.U. after   16 cycles
 Normal termination of Gaussian 16 at Wed Apr  9 03:58:39 2025.
 Gaussian 16:  ES64L-G16RevC.01  3-Jul-2019

 ----------------------------------------------------------------------
 #t hf aug-cc-pvdz iop(5/13=1,5/36=2,99/5=2) pseudo=read geom=check gue
 ss=(read,tcheck) scf=(maxcycle=1)
 ----------------------------------------------------------------------
 -----
 title
 -----
 Structure from the checkpoint file:  "Grambow2020_wb97xd3_008772_forward_mol1.chk"
 Charge =  0 Multiplicity = 1

                         Standard orientation:
 ---------------------------------------------------------------------
 Center     Atomic      Atomic             Coordinates (Angstroms)
 Number     Number       Type             X           Y           Z
 ---------------------------------------------------------------------
      1          8           0       -2.339772   -0.770385    0.100101
      2          6           0       -1.771844    0.392190    0.020511
      3          6           0       -0.311111    0.333893   -0.072939
      4          8           0        0.609616    1.232446    0.240153
      5          6           0        1.643854    0.351082   -0.314739
      6          6           0        1.699137   -0.841823    0.530414
      7          6           0        0.591132   -0.714656   -0.526160
      8          1           0       -1.997443    1.170213    0.797999
      9          1           0       -1.942904    1.016286   -0.933464
     10          1           0        2.374544    0.796593   -0.971002
     11          1           0        2.452520   -1.573454    0.265602
     12          1           0        1.449748   -0.777006    1.581964
     13          1           0        0.397774   -1.453235   -1.285657
 ---------------------------------------------------------------------

 SCF Done:  E(RHF) =  -342.497109685     A.U. after    2 cycles

 The electronic state is 1-A.
 Alpha  occ. eigenvalues --  -20.69448 -20.42325 -11.42259 -11.38263 -11.32275
 Alpha  occ. eigenvalues --  -11.31321 -11.28145  -1.50217  -1.21316  -1.20075
 Alpha  occ. eigenvalues --   -1.02648  -0.92783  -0.88619  -0.80402  -0.76803
 Alpha  occ. eigenvalues --   -0.73910  -0.69446  -0.64551  -0.62055  -0.58486
 Alpha  occ. eigenvalues --   -0.57222  -0.52129  -0.51586  -0.47514  -0.35076
 Alpha  occ. eigenvalues --   -0.33325
 Alpha virt. eigenvalues --    0.01477   0.03050   0.03868   0.04579   0.05021
 Alpha virt. eigenvalues --    0.06149   0.06985   0.08229   0.09197   0.09896
 Alpha virt. eigenvalues --    0.11901   0.12368   0.12568   0.13249   0.14502

 Mulliken charges:
               1
     1  O   -0.794353
     2  C    0.680618
     3  C   -0.247300
     4  O   -0.692156
     5  C    0.935742
     6  C    0.751116
     7  C    0.369382
     8  H    0.004604
     9  H    0.165384
    10  H   -0.323869
    11  H   -0.254470
    12  H   -0.246060
    13  H   -0.348638
 Sum of Mulliken charges =  -0.00000

 Dipole moment (field-independent basis, Debye):
    X=              9.0342    Y=              1.6498    Z=             -1.3791  Tot=              9.2865

 Test job not archived.
 1\1\GINC-SE437\SP\RHF\Aug-CC-pVDZ\C5H6O2\OHZDE\09-Apr-2025\0\\#t hf au
 g-cc-pvdz iop(5/13=1,5/36=2,99/5=2) pseudo=read geom=check guess=(read
 ,tcheck) scf=(maxcycle=1)\\title\\0,1\O,0,1.64301892,1.50248427,-1.498
 44673\C,0,1.89522455,0.52283431,-0.68780642\C,0,0.69994226,-0.06843559
 ,-0.08152812\O,0,0.55108695,-0.75040026,1.04360652\C,0,-0.85298963,-0.
 99873493,0.69538626\C,0,-1.54150579,0.2919809,0.71436639\C,0,-0.692130
 82,-0.09380641,-0.50625773\H,0,2.62058958,0.67774373,0.1551343\H,0,2.3
 1851592,-0.45363832,-1.13069499\H,0,-1.220366,-2.00652031,0.80706276\H

 Normal termination of Gaussian 16 at Wed Apr  9 03:58:43 2025.
