 Gaussian 16, Revision C.01,

 ----------------------------------------------------------------------
 #t hf aug-cc-pvdz symm=none int=(grid=ultrafine) guess=(read,tcheck) s
 table=(opt,rrhf)
 ----------------------------------------------------------------------
 -----
 title
 -----
 Symbolic Z-matrix:
 Charge =  0 Multiplicity = 1

 SCF Done:  E(RHF) =  -331.614134305     A.U. after   16 cycles
 Normal termination of Gaussian 16 at Wed Apr  9 03:14:14 2025.
 Gaussian 16:  ES64L-G16RevC.01  3-Jul-2019

 ----------------------------------------------------------------------
 #t hf aug-cc-pvdz iop(5/13=1,5/36=2,99/5=2) pseudo=read geom=check gue
 ss=(read,tcheck) scf=(maxcycle=1)
 ----------------------------------------------------------------------
 -----
 title
 -----
 Structure from the checkpoint file:  "Grambow2020_b97d3_006979_forward_mol2.chk"
 Charge =  0 Multiplicity = 1

                         Standard orientation:
 ---------------------------------------------------------------------
 Center     Atomic      Atomic             Coordinates (Angstroms)
 Number     Number       Type             X           Y           Z
 ---------------------------------------------------------------------
      1          7           0       -1.993054    0.024435   -0.080243
      2          6           0       -0.627689   -0.030983   -0.003251
      3          7           0        0.106307   -1.130861    0.007019
      4          8           0        1.396541   -0.659613    0.003200
      5          7           0        1.367580    0.760649    0.003665
      6          7           0        0.156494    1.118288   -0.002242
      7          1           0       -2.396885    0.878965    0.289306
      8          1           0       -2.470600   -0.823746    0.207206
 ---------------------------------------------------------------------

 SCF Done:  E(RHF) =  -331.708417684     A.U. after    2 cycles

 The electronic state is 1-A.
 Alpha  occ. eigenvalues --  -20.70824 -15.80650 -15.72823 -15.71688 -15.68250
 Alpha  occ. eigenvalues --  -11.39102  -1.51761  -1.30549  -1.25568  -1.13319
 Alpha  occ. eigenvalues --   -0.93185  -0.87175  -0.76277  -0.71812  -0.71491
 Alpha  occ. eigenvalues --   -0.66149  -0.58993  -0.55895  -0.51125  -0.50177
 Alpha  occ. eigenvalues --   -0.50166  -0.38767
 Alpha virt. eigenvalues --    0.02334   0.04815   0.06593   0.08277   0.09092
 Alpha virt. eigenvalues --    0.11027   0.11188   0.14591   0.15682   0.15822
 Alpha virt. eigenvalues --    0.17389   0.18179   0.19017   0.19925   0.20076

 Mulliken charges:
               1
     1  N   -0.255584
     2  C    1.123627
     3  N   -0.152638
     4  O   -0.605966
     5  N    0.155431
     6  N   -0.334754
     7  H    0.033628
     8  H    0.036256
 Sum of Mulliken charges =  -0.00000

 Dipole moment (field-independent basis, Debye):
    X=             -3.6934    Y=              0.7130    Z=              0.9903  Tot=              3.8898

 Test job not archived.
 1\1\GINC-SE090\SP\RHF\Aug-CC-pVDZ\C1H2N4O1\OHZDE\09-Apr-2025\0\\#t hf
 aug-cc-pvdz iop(5/13=1,5/36=2,99/5=2) pseudo=read geom=check guess=(re
 ad,tcheck) scf=(maxcycle=1)\\title\\0,1\N,0,1.43176872,0.0283438,-0.16
 556323\C,0,0.06639305,-0.00564126,-0.07715677\N,0,-0.77979124,0.636591
 2,-0.86461913\O,0,-2.01205707,0.21122422,-0.43175018\N,0,-1.83301048,-
 0.69386614,0.64840573\N,0,-0.59136978,-0.81336933,0.84517232\H,0,1.911
 1086,-0.19816166,0.69976673\H,0,1.80695821,0.83487917,-0.65425547\\Ver
 sion=ES64L-G16RevC.01\State=1-A\HF=-331.7084177\RMSD=2.710e-03\Dipole=

 Normal termination of Gaussian 16 at Wed Apr  9 03:14:17 2025.
