 Gaussian 16, Revision C.01,

 ----------------------------------------------------------------------
 #t hf aug-cc-pvdz symm=none int=(grid=ultrafine) guess=(read,tcheck) s
 table=(opt,rrhf)
 ----------------------------------------------------------------------
 -----
 title
 -----
 Symbolic Z-matrix:
 Charge =  0 Multiplicity = 1

 SCF Done:  E(RHF) =  -323.873853701     A.U. after   15 cycles
 Normal termination of Gaussian 16 at Wed Apr  9 15:24:06 2025.
 Gaussian 16:  ES64L-G16RevC.01  3-Jul-2019

 ----------------------------------------------------------------------
 #t hf aug-cc-pvdz iop(5/13=1,5/36=2,99/5=2) pseudo=read geom=check gue
 ss=(read,tcheck) scf=(maxcycle=1)
 ----------------------------------------------------------------------
 -----
 title
 -----
 Structure from the checkpoint file:  "Grambow2020_wb97xd3_006876_reverse_mol2.chk"
 Charge =  0 Multiplicity = 1

                         Standard orientation:
 ---------------------------------------------------------------------
 Center     Atomic      Atomic             Coordinates (Angstroms)
 Number     Number       Type             X           Y           Z
 ---------------------------------------------------------------------
      1          6           0       -2.724415   -0.606381   -0.241594
      2          7           0       -1.583072   -0.059332    0.463515
      3          6           0       -1.067710    1.201798   -0.025189
      4          6           0       -0.322996   -0.064306   -0.244140
      5          6           0        2.139736    0.258160   -0.021512
      6          8           0        3.156651   -0.303251   -0.322141
      7          6           0        0.917274   -0.419945    0.536316
      8          1           0       -3.640514   -0.183760    0.173633
      9          1           0       -2.750492   -1.687703   -0.099237
     10          1           0       -2.703339   -0.396407   -1.321415
     11          1           0       -1.553743    1.649455   -0.887854
     12          1           0       -0.742245    1.905650    0.733392
     13          1           0       -0.348062   -0.447386   -1.263425
     14          1           0        1.084633   -1.497865    0.556296
     15          1           0        2.047940    1.358414   -0.149311
     16          1           0        0.782779   -0.075018    1.567158
 ---------------------------------------------------------------------

 SCF Done:  E(RHF) =  -323.974116183     A.U. after    2 cycles

 The electronic state is 1-A.
 Alpha  occ. eigenvalues --  -20.57526 -15.63601 -11.34488 -11.28533 -11.27551
 Alpha  occ. eigenvalues --  -11.26712 -11.25211  -1.36585  -1.27009  -1.04987
 Alpha  occ. eigenvalues --   -0.98244  -0.85280  -0.81913  -0.79171  -0.70993
 Alpha  occ. eigenvalues --   -0.66903  -0.65511  -0.63854  -0.60761  -0.57951
 Alpha  occ. eigenvalues --   -0.56128  -0.55122  -0.51146  -0.47962  -0.46853
 Alpha  occ. eigenvalues --   -0.42694  -0.38335
 Alpha virt. eigenvalues --    0.03112   0.03751   0.04138   0.04524   0.06498
 Alpha virt. eigenvalues --    0.06800   0.06969   0.07329   0.07965   0.10557
 Alpha virt. eigenvalues --    0.11339   0.11644   0.13099   0.13659   0.14252

 Mulliken charges:
               1
     1  C    0.722443
     2  N   -0.796855
     3  C    0.808923
     4  C    0.489039
     5  C    0.761249
     6  O   -0.472656
     7  C    0.145066
     8  H   -0.195429
     9  H   -0.173235
    10  H   -0.133812
    11  H   -0.281646
    12  H   -0.333240
    13  H   -0.418035
    14  H   -0.056995
    15  H   -0.133255
    16  H    0.068438
 Sum of Mulliken charges =  -0.00000

 Dipole moment (field-independent basis, Debye):
    X=             -3.3025    Y=              1.3526    Z=             -0.3266  Tot=              3.5837

 Test job not archived.
 1\1\GINC-SE100\SP\RHF\Aug-CC-pVDZ\C5H9N1O1\OHZDE\09-Apr-2025\0\\#t hf
 aug-cc-pvdz iop(5/13=1,5/36=2,99/5=2) pseudo=read geom=check guess=(re
 ad,tcheck) scf=(maxcycle=1)\\title\\0,1\C,0,1.24832478,0.07371451,-2.1
 2814629\N,0,0.8923432,0.47373078,-0.78190324\C,0,1.13806543,-0.4955624
 2,0.26450511\C,0,-0.24374942,-0.19378266,-0.18834622\C,0,-1.8574984,-0
 .1673777,1.71263085\O,0,-3.04160427,-0.23214586,1.89531847\C,0,-1.1992
 5373,0.64074411,0.62678351\H,0,2.30153148,0.29777342,-2.30368168\H,0,0
 .65280534,0.64446512,-2.84215084\H,0,1.08541728,-0.99822755,-2.3150884

 Normal termination of Gaussian 16 at Wed Apr  9 15:24:11 2025.
