 Gaussian 16, Revision C.01,

 ----------------------------------------------------------------------
 #t hf aug-cc-pvdz symm=none int=(grid=ultrafine) guess=(read,tcheck) s
 table=(opt,rrhf)
 ----------------------------------------------------------------------
 -----
 title
 -----
 Symbolic Z-matrix:
 Charge =  0 Multiplicity = 1

 SCF Done:  E(RHF) =  -306.580227812     A.U. after   16 cycles
 Normal termination of Gaussian 16 at Wed Apr  9 03:59:21 2025.
 Gaussian 16:  ES64L-G16RevC.01  3-Jul-2019

 ----------------------------------------------------------------------
 #t hf aug-cc-pvdz iop(5/13=1,5/36=2,99/5=2) pseudo=read geom=check gue
 ss=(read,tcheck) scf=(maxcycle=1)
 ----------------------------------------------------------------------
 -----
 title
 -----
 Structure from the checkpoint file:  "Grambow2020_wb97xd3_008789_forward_mol1.chk"
 Charge =  0 Multiplicity = 1

                         Standard orientation:
 ---------------------------------------------------------------------
 Center     Atomic      Atomic             Coordinates (Angstroms)
 Number     Number       Type             X           Y           Z
 ---------------------------------------------------------------------
      1          8           0        2.328279   -0.294518    0.248229
      2          6           0        1.136021   -0.134239    0.038033
      3          6           0        0.459702    1.242721    0.142026
      4          6           0       -0.910315    1.056539   -0.463839
      5          6           0       -1.750008   -0.509821    0.868475
      6          6           0       -1.181828   -0.638389   -0.448771
      7          6           0        0.190474   -1.084166   -0.441019
      8          1           0        0.435061    1.596355    1.172726
      9          1           0        1.053632    1.952516   -0.435582
     10          1           0       -1.708416    1.650886   -0.030938
     11          1           0       -0.925255    1.217480   -1.541156
     12          1           0       -1.192140   -0.872933    1.722144
     13          1           0       -2.599857    0.133082    1.067142
     14          1           0       -1.864505   -0.881459   -1.266341
     15          1           0        0.510967   -2.035653   -0.843263
 ---------------------------------------------------------------------

 SCF Done:  E(RHF) =  -306.671792955     A.U. after    2 cycles

 The electronic state is 1-A.
 Alpha  occ. eigenvalues --  -20.48228 -11.35918 -11.30787 -11.30037 -11.28996
 Alpha  occ. eigenvalues --  -11.23893 -11.19042  -1.28079  -1.16004  -1.02701
 Alpha  occ. eigenvalues --   -0.95954  -0.89716  -0.80913  -0.71360  -0.69674
 Alpha  occ. eigenvalues --   -0.67523  -0.63416  -0.60940  -0.58178  -0.54952
 Alpha  occ. eigenvalues --   -0.54307  -0.52852  -0.49637  -0.45861  -0.37264
 Alpha  occ. eigenvalues --   -0.26531
 Alpha virt. eigenvalues --   -0.00978   0.01798   0.03394   0.04269   0.04777
 Alpha virt. eigenvalues --    0.06021   0.06545   0.06719   0.07900   0.09839
 Alpha virt. eigenvalues --    0.11662   0.12093   0.12858   0.13011   0.14356

 Mulliken charges:
               1
     1  O   -0.620132
     2  C   -0.096556
     3  C    0.187016
     4  C    0.365808
     5  C    0.668232
     6  C    0.313778
     7  C    0.564245
     8  H   -0.061714
     9  H   -0.003876
    10  H   -0.174434
    11  H   -0.109047
    12  H   -0.188898
    13  H   -0.173642
    14  H   -0.277355
    15  H   -0.393425
 Sum of Mulliken charges =  -0.00000

 Dipole moment (field-independent basis, Debye):
    X=             -8.7103    Y=              1.8894    Z=              0.3230  Tot=              8.9187

 Test job not archived.
 1\1\GINC-SE132\SP\RHF\Aug-CC-pVDZ\C6H8O1\OHZDE\09-Apr-2025\0\\#t hf au
 g-cc-pvdz iop(5/13=1,5/36=2,99/5=2) pseudo=read geom=check guess=(read
 ,tcheck) scf=(maxcycle=1)\\title\\0,1\O,0,0.72731466,-2.66901959,-0.25
 017644\C,0,0.45808743,-1.49514517,-0.04796895\C,0,-0.98958598,-0.97931
 927,0.00108341\C,0,-0.89062485,0.42334371,0.55010539\C,0,0.40157399,1.
 3837052,-0.98010899\C,0,0.74860199,0.87991897,0.3238342\C,0,1.34387082
 ,-0.43409016,0.29182394\H,0,-1.46285401,-1.03020858,-0.97944435\H,0,-1
 .55389708,-1.62740837,0.67318981\H,0,-1.61898479,1.1350998,0.17525684\

 Normal termination of Gaussian 16 at Wed Apr  9 03:59:26 2025.
