 Gaussian 16, Revision C.01,

 ----------------------------------------------------------------------
 #t hf aug-cc-pvdz symm=none int=(grid=ultrafine) guess=(read,tcheck) s
 table=(opt,rrhf)
 ----------------------------------------------------------------------
 -----
 title
 -----
 Symbolic Z-matrix:
 Charge =  0 Multiplicity = 1

 SCF Done:  E(RHF) =  -272.036961557     A.U. after   13 cycles
 Normal termination of Gaussian 16 at Wed Apr  9 15:53:18 2025.
 Gaussian 16:  ES64L-G16RevC.01  3-Jul-2019

 ----------------------------------------------------------------------
 #t hf aug-cc-pvdz iop(5/13=1,5/36=2,99/5=2) pseudo=read geom=check gue
 ss=(read,tcheck) scf=(maxcycle=1)
 ----------------------------------------------------------------------
 -----
 title
 -----
 Structure from the checkpoint file:  "Grambow2020_wb97xd3_007419_reverse_mol2.chk"
 Charge =  0 Multiplicity = 1

                         Standard orientation:
 ---------------------------------------------------------------------
 Center     Atomic      Atomic             Coordinates (Angstroms)
 Number     Number       Type             X           Y           Z
 ---------------------------------------------------------------------
      1          6           0       -2.408983   -0.628377    0.766201
      2          6           0       -1.581974    0.007533   -0.352412
      3          6           0       -1.266610    1.465153   -0.047987
      4          6           0        2.110343    0.040539   -0.477873
      5          6           0        2.946142    0.030088    0.770674
      6          6           0        0.884102   -0.391604   -0.549424
      7          6           0       -0.343977   -0.820165   -0.612947
      8          1           0       -1.858421   -0.602839    1.710056
      9          1           0       -3.350321   -0.093081    0.908085
     10          1           0       -2.645918   -1.671370    0.545432
     11          1           0       -2.183918   -0.028851   -1.269072
     12          1           0       -0.707076    1.930494   -0.860933
     13          1           0       -2.187013    2.032191    0.104290
     14          1           0        2.566695    0.438794   -1.381146
     15          1           0        2.390925   -0.390544    1.608397
     16          1           0        3.257638    1.043467    1.035494
     17          1           0        3.854082   -0.560229    0.625352
     18          1           0       -0.662483    1.549822    0.858930
     19          1           0       -0.508451   -1.866860   -0.862284
 ---------------------------------------------------------------------

 SCF Done:  E(RHF) =  -272.124829160     A.U. after    2 cycles

 The electronic state is 1-A.
 Alpha  occ. eigenvalues --  -11.24593 -11.24287 -11.24223 -11.23896 -11.23386
 Alpha  occ. eigenvalues --  -11.22280 -11.21782  -1.09863  -1.05292  -0.97527
 Alpha  occ. eigenvalues --   -0.92643  -0.88808  -0.79704  -0.68574  -0.64310
 Alpha  occ. eigenvalues --   -0.63703  -0.60336  -0.57217  -0.56964  -0.54761
 Alpha  occ. eigenvalues --   -0.53456  -0.52501  -0.49606  -0.48400  -0.47700
 Alpha  occ. eigenvalues --   -0.35651  -0.35520
 Alpha virt. eigenvalues --    0.03483   0.04008   0.04554   0.04673   0.06040
 Alpha virt. eigenvalues --    0.06126   0.06325   0.06841   0.07596   0.08823
 Alpha virt. eigenvalues --    0.09044   0.09271   0.11897   0.12684   0.13437

 Mulliken charges:
               1
     1  C    0.583826
     2  C   -0.930227
     3  C    0.617982
     4  C    0.605873
     5  C    0.241981
     6  C   -1.042555
     7  C    1.112920
     8  H   -0.018296
     9  H   -0.093826
    10  H   -0.060977
    11  H   -0.046911
    12  H   -0.025635
    13  H   -0.079375
    14  H   -0.382244
    15  H   -0.157131
    16  H    0.021680
    17  H    0.002903
    18  H    0.044876
    19  H   -0.394864
 Sum of Mulliken charges =  -0.00000

 Dipole moment (field-independent basis, Debye):
    X=             -0.0626    Y=              0.1620    Z=              0.1616  Tot=              0.2373

 Test job not archived.
 1\1\GINC-SE009\SP\RHF\Aug-CC-pVDZ\C7H12\OHZDE\09-Apr-2025\0\\#t hf aug
 -cc-pvdz iop(5/13=1,5/36=2,99/5=2) pseudo=read geom=check guess=(read,
 tcheck) scf=(maxcycle=1)\\title\\0,1\C,0,-2.31926439,-0.59869795,-0.74
 448581\C,0,-1.52920267,0.32051391,0.18850669\C,0,-1.0665619,-0.4205730
 3,1.43491732\C,0,2.1314358,0.80318893,0.05892324\C,0,3.05704402,-0.277
 73839,-0.42313915\C,0,0.87059813,0.88996814,-0.25459211\C,0,-0.3911366
 1,0.96784098,-0.56738569\H,0,-1.69737387,-1.43531514,-1.07305397\H,0,-
 3.19708002,-1.00674867,-0.23879367\H,0,-2.66173304,-0.06681255,-1.6347

 Normal termination of Gaussian 16 at Wed Apr  9 15:53:26 2025.
