 Gaussian 16, Revision C.01,

 ----------------------------------------------------------------------
 #t hf aug-cc-pvdz symm=none int=(grid=ultrafine) guess=(read,tcheck) s
 table=(opt,rrhf)
 ----------------------------------------------------------------------
 -----
 title
 -----
 Symbolic Z-matrix:
 Charge =  0 Multiplicity = 1

 SCF Done:  E(RHF) =  -321.370206547     A.U. after   16 cycles
 Normal termination of Gaussian 16 at Wed Apr  9 03:39:12 2025.
 Gaussian 16:  ES64L-G16RevC.01  3-Jul-2019

 ----------------------------------------------------------------------
 #t hf aug-cc-pvdz iop(5/13=1,5/36=2,99/5=2) pseudo=read geom=check gue
 ss=(read,tcheck) scf=(maxcycle=1)
 ----------------------------------------------------------------------
 -----
 title
 -----
 Structure from the checkpoint file:  "Grambow2020_wb97xd3_007493_reverse_mol1.chk"
 Charge =  0 Multiplicity = 1

                         Standard orientation:
 ---------------------------------------------------------------------
 Center     Atomic      Atomic             Coordinates (Angstroms)
 Number     Number       Type             X           Y           Z
 ---------------------------------------------------------------------
      1          8           0        0.203261    1.624653    0.228919
      2          6           0        0.392095    0.466855   -0.091979
      3          6           0        1.717820   -0.134399   -0.040377
      4          6           0        2.797002   -0.649664    0.021650
      5          6           0       -0.646475   -0.440094   -0.592745
      6          6           0       -1.523339   -1.076606    0.397235
      7          7           0       -2.141204    0.143794   -0.123647
      8          1           0        3.761742   -1.098229    0.074059
      9          1           0       -1.636567    0.105309   -1.224485
     10          1           0       -1.234269   -0.985574    1.439964
     11          1           0       -2.051148   -1.994034    0.160757
     12          1           0       -1.900034    0.972196    0.421169
 ---------------------------------------------------------------------

 SCF Done:  E(RHF) =  -321.465742585     A.U. after    2 cycles

 The electronic state is 1-A.
 Alpha  occ. eigenvalues --  -20.58148 -15.69317 -11.38027 -11.31057 -11.27896
 Alpha  occ. eigenvalues --  -11.27675 -11.26734  -1.37780  -1.27618  -1.06604
 Alpha  occ. eigenvalues --   -0.97272  -0.91899  -0.83757  -0.77625  -0.73167
 Alpha  occ. eigenvalues --   -0.68451  -0.66219  -0.60172  -0.58348  -0.55946
 Alpha  occ. eigenvalues --   -0.48548  -0.45353  -0.43015  -0.42428  -0.36841
 Alpha virt. eigenvalues --    0.03140   0.03689   0.04704   0.04944   0.06695
 Alpha virt. eigenvalues --    0.06956   0.08813   0.09212   0.11114   0.11228
 Alpha virt. eigenvalues --    0.11538   0.12235   0.13833   0.14503   0.15275

 Mulliken charges:
               1
     1  O   -0.585483
     2  C    0.285255
     3  C   -0.413428
     4  C    1.111775
     5  C   -0.289533
     6  C    0.912855
     7  N   -0.619180
     8  H   -0.453341
     9  H    0.364085
    10  H   -0.208782
    11  H   -0.240166
    12  H    0.135941
 Sum of Mulliken charges =  -0.00000

 Dipole moment (field-independent basis, Debye):
    X=              0.0240    Y=             -2.6199    Z=              1.0860  Tot=              2.8362

 Test job not archived.
 1\1\GINC-SE343\SP\RHF\Aug-CC-pVDZ\C5H5N1O1\OHZDE\09-Apr-2025\0\\#t hf
 aug-cc-pvdz iop(5/13=1,5/36=2,99/5=2) pseudo=read geom=check guess=(re
 ad,tcheck) scf=(maxcycle=1)\\title\\0,1\O,0,0.33272178,-0.06505318,1.9
 0076224\C,0,0.55564702,0.21486465,0.73840312\C,0,1.88533069,0.07640829
 ,0.16005417\C,0,2.96703107,-0.05695991,-0.3360468\C,0,-0.44085099,0.74
 683484,-0.19752013\C,0,-1.36056255,-0.21089821,-0.8228014\N,0,-1.96720
 135,0.37414853,0.37392815\H,0,3.93400917,-0.17283474,-0.7675635\H,0,-1
 .40320778,1.44489918,0.31572229\H,0,-1.1297252,-1.26491661,-0.70077267

 Normal termination of Gaussian 16 at Wed Apr  9 03:39:17 2025.
