 Gaussian 16, Revision C.01,

 ----------------------------------------------------------------------
 #t hf aug-cc-pvdz symm=none int=(grid=ultrafine) guess=(read,tcheck) s
 table=(opt,rrhf)
 ----------------------------------------------------------------------
 -----
 title
 -----
 Symbolic Z-matrix:
 Charge =  0 Multiplicity = 1

 SCF Done:  E(RHF) =  -302.902450664     A.U. after   14 cycles
 Normal termination of Gaussian 16 at Wed Apr  9 04:05:51 2025.
 Gaussian 16:  ES64L-G16RevC.01  3-Jul-2019

 ----------------------------------------------------------------------
 #t hf aug-cc-pvdz iop(5/13=1,5/36=2,99/5=2) pseudo=read geom=check gue
 ss=(read,tcheck) scf=(maxcycle=1)
 ----------------------------------------------------------------------
 -----
 title
 -----
 Structure from the checkpoint file:  "Grambow2020_wb97xd3_009324_forward_mol2.chk"
 Charge =  0 Multiplicity = 1

                         Standard orientation:
 ---------------------------------------------------------------------
 Center     Atomic      Atomic             Coordinates (Angstroms)
 Number     Number       Type             X           Y           Z
 ---------------------------------------------------------------------
      1          6           0        2.450704   -0.490613    0.008403
      2          7           0        1.065070   -0.091871   -0.013506
      3          6           0       -0.023700   -0.889869   -0.003251
      4          6           0       -1.132327   -0.077659    0.005832
      5          6           0       -2.569046   -0.488703    0.000843
      6          6           0       -0.584546    1.220041    0.005050
      7          7           0        0.739013    1.199374   -0.005091
      8          1           0        2.903916   -0.260017    0.973161
      9          1           0        2.995841    0.032053   -0.776106
     10          1           0        2.511355   -1.563552   -0.167296
     11          1           0        0.066242   -1.965425   -0.006248
     12          1           0       -3.117389   -0.036885    0.829297
     13          1           0       -2.663354   -1.571436    0.094448
     14          1           0       -3.067955   -0.193636   -0.924643
     15          1           0       -1.103745    2.167195    0.006315
 ---------------------------------------------------------------------

 SCF Done:  E(RHF) =  -302.994170147     A.U. after    2 cycles

 The electronic state is 1-A.
 Alpha  occ. eigenvalues --  -15.69707 -15.64100 -11.28146 -11.27070 -11.25007
 Alpha  occ. eigenvalues --  -11.23393 -11.22711  -1.34127  -1.10538  -1.05974
 Alpha  occ. eigenvalues --   -0.97192  -0.91084  -0.78523  -0.77028  -0.70173
 Alpha  occ. eigenvalues --   -0.65214  -0.60415  -0.59083  -0.57735  -0.56531
 Alpha  occ. eigenvalues --   -0.54724  -0.53489  -0.52291  -0.44080  -0.34460
 Alpha  occ. eigenvalues --   -0.32660
 Alpha virt. eigenvalues --    0.02992   0.03759   0.04552   0.05015   0.05938
 Alpha virt. eigenvalues --    0.06846   0.06977   0.08319   0.11190   0.11344
 Alpha virt. eigenvalues --    0.11755   0.12574   0.13247   0.14426   0.14976

 Mulliken charges:
               1
     1  C    0.935357
     2  N   -0.441936
     3  C    0.727650
     4  C   -0.470109
     5  C    0.253865
     6  C    0.785399
     7  N   -0.503024
     8  H   -0.074823
     9  H   -0.110496
    10  H   -0.228445
    11  H   -0.537434
    12  H    0.042574
    13  H   -0.082202
    14  H    0.071782
    15  H   -0.368160
 Sum of Mulliken charges =  -0.00000

 Dipole moment (field-independent basis, Debye):
    X=              0.2102    Y=             -2.4281    Z=             -0.0094  Tot=              2.4372

 Test job not archived.
 1\1\GINC-SE103\SP\RHF\Aug-CC-pVDZ\C5H8N2\OHZDE\09-Apr-2025\0\\#t hf au
 g-cc-pvdz iop(5/13=1,5/36=2,99/5=2) pseudo=read geom=check guess=(read
 ,tcheck) scf=(maxcycle=1)\\title\\0,1\C,0,-2.54598968,-0.23067338,-0.2
 550934\N,0,-1.16525139,0.12266231,-0.0356064\C,0,-0.07854596,-0.664837
 57,-0.18134075\C,0,1.02809283,0.10071321,0.09812818\C,0,2.4608726,-0.3
 2384753,0.09218812\C,0,0.48177311,1.36284216,0.40252201\N,0,-0.8392411
 4,1.36477481,0.31734037\H,0,-2.93040087,0.25288229,-1.15383408\H,0,-3.
 14473232,0.0783174,0.6003837\H,0,-2.61894966,-1.31086398,-0.37175762\H

 Normal termination of Gaussian 16 at Wed Apr  9 04:05:57 2025.
