 Gaussian 16, Revision C.01,

 ----------------------------------------------------------------------
 #t hf aug-cc-pvdz symm=none int=(grid=ultrafine) guess=(read,tcheck) s
 table=(opt,rrhf)
 ----------------------------------------------------------------------
 -----
 title
 -----
 Symbolic Z-matrix:
 Charge =  0 Multiplicity = 1

 SCF Done:  E(RHF) =  -323.819215439     A.U. after   15 cycles
 Normal termination of Gaussian 16 at Wed Apr  9 03:40:35 2025.
 Gaussian 16:  ES64L-G16RevC.01  3-Jul-2019

 ----------------------------------------------------------------------
 #t hf aug-cc-pvdz iop(5/13=1,5/36=2,99/5=2) pseudo=read geom=check gue
 ss=(read,tcheck) scf=(maxcycle=1)
 ----------------------------------------------------------------------
 -----
 title
 -----
 Structure from the checkpoint file:  "Grambow2020_wb97xd3_007532_forward_mol1.chk"
 Charge =  0 Multiplicity = 1

                         Standard orientation:
 ---------------------------------------------------------------------
 Center     Atomic      Atomic             Coordinates (Angstroms)
 Number     Number       Type             X           Y           Z
 ---------------------------------------------------------------------
      1          6           0       -2.816955   -0.235465    0.062030
      2          8           0       -1.557336    0.211907   -0.373488
      3          6           0       -0.496906   -0.441423    0.275343
      4          6           0        0.777848    0.173267   -0.279865
      5          6           0        1.077488    1.585842    0.154040
      6          6           0        1.960137   -0.829929    0.644952
      7          7           0        2.263557   -0.898593   -0.497903
      8          1           0       -3.569450    0.324377   -0.490550
      9          1           0       -2.955213   -0.057714    1.135792
     10          1           0       -2.949391   -1.306448   -0.135805
     11          1           0       -0.514420   -1.518917    0.071211
     12          1           0       -0.548229   -0.296838    1.361982
     13          1           0        0.717140    0.112954   -1.364738
     14          1           0        2.010645    1.935881   -0.284665
     15          1           0        0.264892    2.224964   -0.197717
     16          1           0        1.148147    1.662881    1.238721
 ---------------------------------------------------------------------

 SCF Done:  E(RHF) =  -323.918348843     A.U. after    2 cycles

 The electronic state is 1-A.
 Alpha  occ. eigenvalues --  -20.58950 -15.66526 -11.32929 -11.30933 -11.29585
 Alpha  occ. eigenvalues --  -11.27215 -11.24575  -1.36106  -1.24619  -1.06884
 Alpha  occ. eigenvalues --   -0.97706  -0.90523  -0.82149  -0.71432  -0.69344
 Alpha  occ. eigenvalues --   -0.67281  -0.64717  -0.59790  -0.59410  -0.58175
 Alpha  occ. eigenvalues --   -0.53986  -0.52045  -0.50665  -0.49705  -0.47014
 Alpha  occ. eigenvalues --   -0.45927  -0.45517
 Alpha virt. eigenvalues --    0.03172   0.04232   0.04623   0.05233   0.06417
 Alpha virt. eigenvalues --    0.06513   0.07187   0.07671   0.08546   0.09801
 Alpha virt. eigenvalues --    0.11480   0.11569   0.13196   0.13956   0.14363

 Mulliken charges:
               1
     1  C    0.715681
     2  O   -0.631005
     3  C    1.046317
     4  C   -0.602257
     5  C    0.621296
     6  C    0.103594
     7  N   -0.406451
     8  H   -0.266683
     9  H   -0.067272
    10  H   -0.058350
    11  H   -0.163411
    12  H   -0.139457
    13  H   -0.102887
    14  H   -0.051884
    15  H    0.038713
    16  H   -0.035944
 Sum of Mulliken charges =  -0.00000

 Dipole moment (field-independent basis, Debye):
    X=             -2.8169    Y=              0.9291    Z=              0.2537  Tot=              2.9770

 Test job not archived.
 1\1\GINC-SE398\SP\RHF\Aug-CC-pVDZ\C5H9N1O1\OHZDE\09-Apr-2025\0\\#t hf
 aug-cc-pvdz iop(5/13=1,5/36=2,99/5=2) pseudo=read geom=check guess=(re
 ad,tcheck) scf=(maxcycle=1)\\title\\0,1\C,0,2.48981903,0.34802093,0.12
 365117\O,0,1.11587534,0.63335621,0.20919834\C,0,0.31972176,-0.52302374
 ,0.17372478\C,0,-1.12117157,-0.04327961,0.24275792\C,0,-1.65309048,0.6
 4063316,-0.99124034\C,0,-1.92222779,-1.6611704,0.22747948\N,0,-2.35882
 355,-1.06476769,1.15299784\H,0,3.02147127,1.29737033,0.15679697\H,0,2.
 73382261,-0.16646778,-0.81413358\H,0,2.81959927,-0.27739589,0.96256746

 Normal termination of Gaussian 16 at Wed Apr  9 03:40:40 2025.
