 Gaussian 16, Revision C.01,

 ----------------------------------------------------------------------
 #t hf aug-cc-pvdz symm=none int=(grid=ultrafine) guess=(read,tcheck) s
 table=(opt,rrhf)
 ----------------------------------------------------------------------
 -----
 title
 -----
 Symbolic Z-matrix:
 Charge =  0 Multiplicity = 1

 SCF Done:  E(RHF) =  -360.862826990     A.U. after   15 cycles
 Normal termination of Gaussian 16 at Wed Apr  9 14:46:00 2025.
 Gaussian 16:  ES64L-G16RevC.01  3-Jul-2019

 ----------------------------------------------------------------------
 #t hf aug-cc-pvdz iop(5/13=1,5/36=2,99/5=2) pseudo=read geom=check gue
 ss=(read,tcheck) scf=(maxcycle=1)
 ----------------------------------------------------------------------
 -----
 title
 -----
 Structure from the checkpoint file:  "Grambow2020_wb97xd3_006605_reverse_mol2.chk"
 Charge =  0 Multiplicity = 1

                         Standard orientation:
 ---------------------------------------------------------------------
 Center     Atomic      Atomic             Coordinates (Angstroms)
 Number     Number       Type             X           Y           Z
 ---------------------------------------------------------------------
      1          6           0        3.375318   -0.874894    0.066681
      2          6           0        0.180716    1.723394   -0.072875
      3          8           0       -0.437397    2.864748    0.055882
      4          6           0       -0.849084    0.645588   -0.005927
      5          7           0       -0.223240   -0.643576   -0.151943
      6          6           0       -0.919034   -1.793741   -0.060752
      7          8           0       -2.111690   -1.857857    0.138442
      8          1           0        2.928034   -1.472039    0.861113
      9          1           0        4.445719   -0.787363    0.245429
     10          1           0        3.215551   -1.362486   -0.895412
     11          1           0        2.928189    0.119696    0.056013
     12          1           0        0.213667    3.573272    0.015474
     13          1           0       -1.387620    0.714982    0.948500
     14          1           0       -1.601985    0.813084   -0.787978
     15          1           0        0.770208   -0.662782   -0.310700
     16          1           0       -0.283881   -2.688540   -0.186196
 ---------------------------------------------------------------------

 SCF Done:  E(RHF) =  -360.980547886     A.U. after    2 cycles

 The electronic state is 1-A.
 Alpha  occ. eigenvalues --  -20.66046 -20.53942 -15.65395 -11.36120 -11.32977
 Alpha  occ. eigenvalues --  -11.28482 -11.22784  -1.43185  -1.35109  -1.21180
 Alpha  occ. eigenvalues --   -1.02282  -0.95049  -0.87691  -0.80908  -0.74746
 Alpha  occ. eigenvalues --   -0.72063  -0.66285  -0.65535  -0.62167  -0.60955
 Alpha  occ. eigenvalues --   -0.59597  -0.55841  -0.55711  -0.55582  -0.54338
 Alpha  occ. eigenvalues --   -0.44771  -0.40073  -0.38322
 Alpha virt. eigenvalues --    0.02662   0.03477   0.04684   0.04987   0.05881
 Alpha virt. eigenvalues --    0.06989   0.07394   0.07661   0.08087   0.09876
 Alpha virt. eigenvalues --    0.11768   0.11989   0.12608   0.14054   0.14549

 Mulliken charges:
               1
     1  C    0.701499
     2  C    0.043918
     3  O   -0.435317
     4  C    0.775468
     5  N   -0.193603
     6  C    0.603613
     7  O   -0.484363
     8  H   -0.158112
     9  H   -0.247474
    10  H   -0.128848
    11  H   -0.146420
    12  H    0.249554
    13  H   -0.123956
    14  H   -0.134189
    15  H   -0.106712
    16  H   -0.215059
 Sum of Mulliken charges =  -0.00000

 Dipole moment (field-independent basis, Debye):
    X=              3.6763    Y=              2.6183    Z=             -0.4645  Tot=              4.5372

 Test job not archived.
 1\1\GINC-SE057\SP\RHF\Aug-CC-pVDZ\C4H9N1O2\OHZDE\09-Apr-2025\0\\#t hf
 aug-cc-pvdz iop(5/13=1,5/36=2,99/5=2) pseudo=read geom=check guess=(re
 ad,tcheck) scf=(maxcycle=1)\\title\\0,1\C,0,-1.46993482,-2.20451014,-1
 .07678771\C,0,-0.84240531,1.67040236,0.17513902\O,0,-1.07225256,2.9517
 9713,0.25595033\C,0,0.59099072,1.44886525,0.52575757\N,0,0.90235092,0.
 04389701,0.46199556\C,0,2.14856743,-0.4251937,0.6674758\O,0,3.10606756
 ,0.26826135,0.92926007\H,0,-0.53205594,-2.23763365,-1.63091128\H,0,-2.
 2383911,-2.72698059,-1.64412374\H,0,-1.34557303,-2.69695936,-0.1119450

 Normal termination of Gaussian 16 at Wed Apr  9 14:46:05 2025.
