 Gaussian 16, Revision C.01,

 ----------------------------------------------------------------------
 #t hf aug-cc-pvdz symm=none int=(grid=ultrafine) guess=(read,tcheck) s
 table=(opt,rrhf)
 ----------------------------------------------------------------------
 -----
 title
 -----
 Symbolic Z-matrix:
 Charge =  0 Multiplicity = 1

 SCF Done:  E(RHF) =  -302.825303130     A.U. after   15 cycles
 Normal termination of Gaussian 16 at Wed Apr  9 15:33:03 2025.
 Gaussian 16:  ES64L-G16RevC.01  3-Jul-2019

 ----------------------------------------------------------------------
 #t hf aug-cc-pvdz iop(5/13=1,5/36=2,99/5=2) pseudo=read geom=check gue
 ss=(read,tcheck) scf=(maxcycle=1)
 ----------------------------------------------------------------------
 -----
 title
 -----
 Structure from the checkpoint file:  "Grambow2020_wb97xd3_006965_reverse_mol2.chk"
 Charge =  0 Multiplicity = 1

                         Standard orientation:
 ---------------------------------------------------------------------
 Center     Atomic      Atomic             Coordinates (Angstroms)
 Number     Number       Type             X           Y           Z
 ---------------------------------------------------------------------
      1          6           0       -2.233685   -0.662008   -0.480070
      2          6           0       -1.161340   -0.068215    0.047112
      3          6           0       -1.079306    1.423159    0.203022
      4          7           0       -0.099030   -0.808596    0.565020
      5          6           0        1.264672   -0.438238    0.535987
      6          6           0        1.795852    0.684165   -0.187397
      7          7           0        2.027259   -0.380082   -0.793102
      8          1           0        1.961786    1.747400   -0.305046
      9          1           0       -3.098198   -0.082893   -0.770472
     10          1           0       -2.280594   -1.736011   -0.615431
     11          1           0       -0.698850    1.695151    1.189495
     12          1           0       -0.427176    1.873330   -0.548473
     13          1           0       -2.067506    1.860655    0.074714
     14          1           0       -0.236940   -1.805303    0.503319
     15          1           0        1.832710   -0.864749    1.356547
 ---------------------------------------------------------------------

 SCF Done:  E(RHF) =  -302.916116239     A.U. after    2 cycles

 The electronic state is 1-A.
 Alpha  occ. eigenvalues --  -15.65697 -15.63402 -11.32497 -11.31040 -11.28827
 Alpha  occ. eigenvalues --  -11.24134 -11.20809  -1.30627  -1.19889  -1.03868
 Alpha  occ. eigenvalues --   -0.94468  -0.86167  -0.80673  -0.76470  -0.69223
 Alpha  occ. eigenvalues --   -0.66990  -0.63745  -0.60643  -0.57211  -0.55623
 Alpha  occ. eigenvalues --   -0.54768  -0.51509  -0.47351  -0.44180  -0.40318
 Alpha  occ. eigenvalues --   -0.30800
 Alpha virt. eigenvalues --    0.03053   0.03693   0.04130   0.05052   0.06275
 Alpha virt. eigenvalues --    0.06479   0.08038   0.08697   0.09768   0.10646
 Alpha virt. eigenvalues --    0.11280   0.12788   0.13374   0.13940   0.14176

 Mulliken charges:
               1
     1  C    1.104988
     2  C   -0.030161
     3  C    0.255068
     4  N   -0.621360
     5  C    1.005905
     6  C    0.377122
     7  N   -0.629166
     8  H   -0.206763
     9  H   -0.369571
    10  H   -0.481258
    11  H    0.035815
    12  H    0.052944
    13  H   -0.173033
    14  H   -0.030331
    15  H   -0.290199
 Sum of Mulliken charges =  -0.00000

 Dipole moment (field-independent basis, Debye):
    X=              0.1881    Y=              1.5682    Z=              1.4684  Tot=              2.1566

 Test job not archived.
 1\1\GINC-SE113\SP\RHF\Aug-CC-pVDZ\C5H8N2\OHZDE\09-Apr-2025\0\\#t hf au
 g-cc-pvdz iop(5/13=1,5/36=2,99/5=2) pseudo=read geom=check guess=(read
 ,tcheck) scf=(maxcycle=1)\\title\\0,1\C,0,-1.56420207,0.98222699,-1.09
 984253\C,0,-0.72831452,0.17009833,-0.45009264\C,0,-1.10182836,-0.46886
 617,0.85659943\N,0,0.50026195,-0.2000379,-0.99643924\C,0,1.68918889,-0
 .45148168,-0.27469161\C,0,1.86761345,-0.19765335,1.12850498\N,0,2.4176
 2517,0.6888011,0.44678932\H,0,1.70702575,-0.45087212,2.16866708\H,0,-2
 .55883344,1.16796162,-0.72129039\H,0,-1.28328993,1.46263007,-2.0295231

 Normal termination of Gaussian 16 at Wed Apr  9 15:33:08 2025.
