 Gaussian 16, Revision C.01,

 ----------------------------------------------------------------------
 #t hf aug-cc-pvdz symm=none int=(grid=ultrafine) guess=(read,tcheck) s
 table=(opt,rrhf)
 ----------------------------------------------------------------------
 -----
 title
 -----
 Symbolic Z-matrix:
 Charge =  0 Multiplicity = 1

 SCF Done:  E(RHF) =  -320.587033031     A.U. after   15 cycles
 Normal termination of Gaussian 16 at Wed Apr  9 14:19:05 2025.
 Gaussian 16:  ES64L-G16RevC.01  3-Jul-2019

 ----------------------------------------------------------------------
 #t hf aug-cc-pvdz iop(5/13=1,5/36=2,99/5=2) pseudo=read geom=check gue
 ss=(read,tcheck) scf=(maxcycle=1)
 ----------------------------------------------------------------------
 -----
 title
 -----
 Structure from the checkpoint file:  "Grambow2020_b97d3_007138_forward_mol1.chk"
 Charge =  0 Multiplicity = 1

                         Standard orientation:
 ---------------------------------------------------------------------
 Center     Atomic      Atomic             Coordinates (Angstroms)
 Number     Number       Type             X           Y           Z
 ---------------------------------------------------------------------
      1          8           0       -2.106442   -0.214588    0.344189
      2          6           0       -1.040689    0.127355   -0.005111
      3          7           0       -0.207359    1.016054   -0.537259
      4          6           0        1.076638    0.970479    0.246741
      5          6           0        1.407690   -0.590328    0.309295
      6          8           0        0.365423   -1.211804   -0.406548
      7          1           0        0.147617   -0.001322   -1.151741
      8          1           0        1.809964    1.561308   -0.310932
      9          1           0        0.929803    1.417039    1.235801
     10          1           0        1.451645   -0.937746    1.353635
     11          1           0        2.378810   -0.785555   -0.172631
 ---------------------------------------------------------------------

 SCF Done:  E(RHF) =  -320.682438561     A.U. after    2 cycles

 The electronic state is 1-A.
 Alpha  occ. eigenvalues --  -20.67533 -20.55016 -15.68836 -11.49204 -11.31041
 Alpha  occ. eigenvalues --  -11.29834  -1.47018  -1.32505  -1.21892  -1.00333
 Alpha  occ. eigenvalues --   -0.85271  -0.79667  -0.74414  -0.71557  -0.68881
 Alpha  occ. eigenvalues --   -0.65036  -0.62157  -0.57835  -0.57146  -0.53183
 Alpha  occ. eigenvalues --   -0.47368  -0.43304  -0.42353
 Alpha virt. eigenvalues --    0.02938   0.04209   0.04946   0.05357   0.07106
 Alpha virt. eigenvalues --    0.09160   0.09532   0.10304   0.10572   0.12235
 Alpha virt. eigenvalues --    0.13791   0.14339   0.14608   0.15297   0.15832

 Mulliken charges:
               1
     1  O   -0.225196
     2  C    0.393929
     3  N   -0.721340
     4  C    0.514661
     5  C    0.774080
     6  O   -0.973290
     7  H    0.883240
     8  H   -0.188791
     9  H   -0.150927
    10  H   -0.152525
    11  H   -0.153839
 Sum of Mulliken charges =  -0.00000

 Dipole moment (field-independent basis, Debye):
    X=              2.3332    Y=              2.5334    Z=              0.8102  Tot=              3.5382

 Test job not archived.
 1\1\GINC-SE168\SP\RHF\Aug-CC-pVDZ\C3H5N1O2\OHZDE\09-Apr-2025\0\\#t hf
 aug-cc-pvdz iop(5/13=1,5/36=2,99/5=2) pseudo=read geom=check guess=(re
 ad,tcheck) scf=(maxcycle=1)\\title\\0,1\O,0,2.52311036,0.24920054,0.93
 412211\C,0,1.5205769,-0.16028035,0.48465855\N,0,0.63458136,-1.12977462
 ,0.27850519\C,0,-0.74066738,-0.53017416,0.39913548\C,0,-0.65281659,0.7
 6712401,-0.52764659\O,0,0.65640108,0.75395572,-1.04799322\H,0,0.718550
 82,-0.67184657,-0.87123424\H,0,-1.44846229,-1.28600823,0.04475174\H,0,
 -0.9580013,-0.2944584,1.44623646\H,0,-0.85198895,1.67853113,0.05796801

 Normal termination of Gaussian 16 at Wed Apr  9 14:19:08 2025.
