 Gaussian 16, Revision C.01,

 ----------------------------------------------------------------------
 #t hf aug-cc-pvdz symm=none int=(grid=ultrafine) guess=(read,tcheck) s
 table=(opt,rrhf)
 ----------------------------------------------------------------------
 -----
 title
 -----
 Symbolic Z-matrix:
 Charge =  0 Multiplicity = 1

 SCF Done:  E(RHF) =  -272.978458779     A.U. after   16 cycles
 Normal termination of Gaussian 16 at Wed Apr  9 16:08:45 2025.
 Gaussian 16:  ES64L-G16RevC.01  3-Jul-2019

 ----------------------------------------------------------------------
 #t hf aug-cc-pvdz iop(5/13=1,5/36=2,99/5=2) pseudo=read geom=check gue
 ss=(read,tcheck) scf=(maxcycle=1)
 ----------------------------------------------------------------------
 -----
 title
 -----
 Structure from the checkpoint file:  "Grambow2020_wb97xd3_007782_forward_mol1.chk"
 Charge =  0 Multiplicity = 1

                         Standard orientation:
 ---------------------------------------------------------------------
 Center     Atomic      Atomic             Coordinates (Angstroms)
 Number     Number       Type             X           Y           Z
 ---------------------------------------------------------------------
      1          6           0       -0.931905    1.759757   -0.092781
      2          6           0       -0.291551    0.441568   -0.366236
      3          6           0       -1.502177   -0.995503   -0.865338
      4          6           0       -1.599141   -0.612420    0.921849
      5          6           0        0.888897    0.123781    0.442594
      6          6           0        2.216135    0.379739   -0.242303
      7          6           0        1.793957   -1.015728    0.062776
      8          1           0       -1.048586    2.034318    0.971704
      9          1           0       -0.265031    2.501635   -0.543866
     10          1           0       -1.902756    1.865831   -0.581924
     11          1           0       -2.279051   -1.737734   -0.610354
     12          1           0       -1.951558   -0.354330   -1.616297
     13          1           0       -0.687286   -1.570735   -1.289179
     14          1           0       -1.132322    0.095574    1.600742
     15          1           0       -2.670900   -0.431223    0.946329
     16          1           0       -1.358995   -1.613519    1.270729
     17          1           0        0.888096    0.372921    1.511472
     18          1           0        2.180900    0.702174   -1.273618
     19          1           0        2.998565    0.826636    0.357047
     20          1           0        2.297984   -1.542777    0.862043
     21          1           0        1.485650   -1.635929   -0.768187
 ---------------------------------------------------------------------

 SCF Done:  E(RHF) =  -273.065056788     A.U. after    2 cycles

 The electronic state is 1-A.
 Alpha  occ. eigenvalues --  -11.26746 -11.25882 -11.23293 -11.23164 -11.23096
 Alpha  occ. eigenvalues --  -11.22901 -11.22080  -1.13770  -1.03808  -0.96554
 Alpha  occ. eigenvalues --   -0.88152  -0.84991  -0.81619  -0.72423  -0.66173
 Alpha  occ. eigenvalues --   -0.62816  -0.61287  -0.59542  -0.55722  -0.55305
 Alpha  occ. eigenvalues --   -0.53798  -0.51620  -0.51042  -0.48999  -0.47464
 Alpha  occ. eigenvalues --   -0.41915  -0.40306  -0.27029
 Alpha virt. eigenvalues --    0.03567   0.04193   0.04316   0.04476   0.06036
 Alpha virt. eigenvalues --    0.06380   0.06439   0.06777   0.06993   0.08477
 Alpha virt. eigenvalues --    0.09054   0.09198   0.09833   0.10306   0.13153

 Mulliken charges:
               1
     1  C    0.460372
     2  C   -1.310645
     3  C    0.841913
     4  C    0.715742
     5  C    0.976392
     6  C    0.838149
     7  C    0.707566
     8  H    0.000378
     9  H   -0.044462
    10  H   -0.130658
    11  H   -0.334650
    12  H   -0.069562
    13  H   -0.129349
    14  H   -0.386973
    15  H   -0.083693
    16  H   -0.095417
    17  H   -0.553086
    18  H   -0.338041
    19  H   -0.361603
    20  H   -0.355978
    21  H   -0.346394
 Sum of Mulliken charges =  -0.00000

 Dipole moment (field-independent basis, Debye):
    X=             -0.5788    Y=             -0.5191    Z=              0.7407  Tot=              1.0738

 Test job not archived.
 1\1\GINC-SE057\SP\RHF\Aug-CC-pVDZ\C7H14\OHZDE\09-Apr-2025\0\\#t hf aug
 -cc-pvdz iop(5/13=1,5/36=2,99/5=2) pseudo=read geom=check guess=(read,
 tcheck) scf=(maxcycle=1)\\title\\0,1\C,0,-0.43946652,1.82275326,0.5420
 5172\C,0,-0.09911004,0.58311801,-0.2128756\C,0,-1.60967822,-0.40279584
 ,-0.93816702\C,0,-1.46420673,-0.61478486,0.87403953\C,0,1.0651012,-0.1
 6285544,0.27373212\C,0,2.34787424,0.09108573,-0.491884\C,0,1.68920601,
 -1.24278563,-0.56657701\H,0,-0.40120711,1.7489758,1.64442212\H,0,0.315
 93226,2.55682827,0.24357082\H,0,-1.41130524,2.23400224,0.2601505\H,0,-

 Normal termination of Gaussian 16 at Wed Apr  9 16:08:55 2025.
