 Gaussian 16, Revision C.01,

 ----------------------------------------------------------------------
 #t hf aug-cc-pvdz symm=none int=(grid=ultrafine) guess=(read,tcheck) s
 table=(opt,rrhf)
 ----------------------------------------------------------------------
 -----
 title
 -----
 Symbolic Z-matrix:
 Charge =  0 Multiplicity = 1

 SCF Done:  E(RHF) =  -358.443001017     A.U. after   15 cycles
 Normal termination of Gaussian 16 at Wed Apr  9 03:28:36 2025.
 Gaussian 16:  ES64L-G16RevC.01  3-Jul-2019

 ----------------------------------------------------------------------
 #t hf aug-cc-pvdz iop(5/13=1,5/36=2,99/5=2) pseudo=read geom=check gue
 ss=(read,tcheck) scf=(maxcycle=1)
 ----------------------------------------------------------------------
 -----
 title
 -----
 Structure from the checkpoint file:  "Grambow2020_wb97xd3_006793_reverse_mol1.chk"
 Charge =  0 Multiplicity = 1

                         Standard orientation:
 ---------------------------------------------------------------------
 Center     Atomic      Atomic             Coordinates (Angstroms)
 Number     Number       Type             X           Y           Z
 ---------------------------------------------------------------------
      1          8           0        2.678402   -0.379190    0.038388
      2          6           0        1.520784   -0.623908   -0.215460
      3          6           0        0.373709    0.026755    0.390995
      4          6           0        0.156840    1.491830    0.258688
      5          7           0       -0.666767    0.529155   -0.489907
      6          6           0       -1.869425    0.056413   -0.302537
      7          8           0       -1.972488   -1.061100    0.310288
      8          1           0        1.260432   -1.460097   -0.903449
      9          1           0       -1.016712   -1.109306    0.741330
     10          1           0        0.813144    2.082263   -0.372089
     11          1           0       -0.360251    2.045677    1.037331
     12          1           0       -2.768006    0.553160   -0.653301
 ---------------------------------------------------------------------

 SCF Done:  E(RHF) =  -358.553874441     A.U. after    2 cycles

 The electronic state is 1-A.
 Alpha  occ. eigenvalues --  -20.67076 -20.53626 -15.69511 -11.44280 -11.31975
 Alpha  occ. eigenvalues --  -11.31813 -11.24084  -1.47247  -1.32886  -1.29660
 Alpha  occ. eigenvalues --   -1.05736  -0.91812  -0.89543  -0.78967  -0.76442
 Alpha  occ. eigenvalues --   -0.72405  -0.70231  -0.65340  -0.64459  -0.62506
 Alpha  occ. eigenvalues --   -0.56047  -0.52613  -0.51101  -0.45385  -0.41630
 Alpha  occ. eigenvalues --   -0.33123
 Alpha virt. eigenvalues --    0.01922   0.03466   0.04489   0.04795   0.06079
 Alpha virt. eigenvalues --    0.07074   0.08975   0.09775   0.10146   0.10412
 Alpha virt. eigenvalues --    0.13200   0.13493   0.13762   0.14668   0.15065

 Mulliken charges:
               1
     1  O   -0.543037
     2  C    0.695735
     3  C   -0.532358
     4  C    0.978861
     5  N   -0.404317
     6  C    0.682786
     7  O   -0.394971
     8  H   -0.130933
     9  H    0.355601
    10  H   -0.249126
    11  H   -0.285419
    12  H   -0.172822
 Sum of Mulliken charges =  -0.00000

 Dipole moment (field-independent basis, Debye):
    X=             -6.3560    Y=              2.1953    Z=             -1.4899  Tot=              6.8875

 Test job not archived.
 1\1\GINC-SE174\SP\RHF\Aug-CC-pVDZ\C4H5N1O2\OHZDE\09-Apr-2025\0\\#t hf
 aug-cc-pvdz iop(5/13=1,5/36=2,99/5=2) pseudo=read geom=check guess=(re
 ad,tcheck) scf=(maxcycle=1)\\title\\0,1\O,0,2.28782702,0.76111291,-1.4
 2102477\C,0,1.47930506,-0.02765265,-0.98680548\C,0,0.51007183,0.253726
 18,0.05643312\C,0,-0.52102769,1.31182662,-0.11160867\N,0,-0.87442364,-
 0.11476637,-0.18516383\C,0,-1.41713613,-0.93940415,0.669479\O,0,-0.628
 78498,-1.6628237,1.36960462\H,0,1.49077261,-1.08863804,-1.32518822\H,0
 ,0.26483539,-1.13134264,1.22608374\H,0,-0.61599966,1.83057626,-1.05981

 Normal termination of Gaussian 16 at Wed Apr  9 03:28:40 2025.
