 Gaussian 16, Revision C.01,

 ----------------------------------------------------------------------
 #t hf aug-cc-pvdz symm=none int=(grid=ultrafine) guess=(read,tcheck) s
 table=(opt,rrhf)
 ----------------------------------------------------------------------
 -----
 title
 -----
 Symbolic Z-matrix:
 Charge =  0 Multiplicity = 1

 SCF Done:  E(RHF) =  -342.459457128     A.U. after   17 cycles
 Normal termination of Gaussian 16 at Wed Apr  9 16:54:12 2025.
 Gaussian 16:  ES64L-G16RevC.01  3-Jul-2019

 ----------------------------------------------------------------------
 #t hf aug-cc-pvdz iop(5/13=1,5/36=2,99/5=2) pseudo=read geom=check gue
 ss=(read,tcheck) scf=(maxcycle=1)
 ----------------------------------------------------------------------
 -----
 title
 -----
 Structure from the checkpoint file:  "Grambow2020_wb97xd3_009060_forward_mol1.chk"
 Charge =  0 Multiplicity = 1

                         Standard orientation:
 ---------------------------------------------------------------------
 Center     Atomic      Atomic             Coordinates (Angstroms)
 Number     Number       Type             X           Y           Z
 ---------------------------------------------------------------------
      1          8           0        2.295729   -0.741318   -0.275685
      2          6           0        1.260764   -0.209276    0.018904
      3          6           0        1.149144    1.281892    0.230008
      4          6           0       -1.247342    1.218041   -0.406714
      5          6           0       -1.263151   -0.153169   -0.017396
      6          8           0       -2.404539   -0.589644   -0.000288
      7          6           0       -0.026614   -0.980627    0.215700
      8          1           0        2.051161    1.799370   -0.091481
      9          1           0        0.926909    1.518882    1.270715
     10          1           0        0.329672    1.675936   -0.444398
     11          1           0       -1.569866    1.908562    0.378122
     12          1           0       -0.041146   -1.876519   -0.405252
     13          1           0       -0.063057   -1.319702    1.257069
 ---------------------------------------------------------------------

 SCF Done:  E(RHF) =  -342.563348814     A.U. after    2 cycles

 The electronic state is 1-A.
 Alpha  occ. eigenvalues --  -20.59243 -20.57425 -11.37614 -11.37157 -11.32179
 Alpha  occ. eigenvalues --  -11.28907 -11.28421  -1.39028  -1.37171  -1.10874
 Alpha  occ. eigenvalues --   -1.01665  -0.98723  -0.80248  -0.76128  -0.69430
 Alpha  occ. eigenvalues --   -0.68684  -0.68285  -0.64705  -0.63501  -0.61596
 Alpha  occ. eigenvalues --   -0.58684  -0.56453  -0.52572  -0.47013  -0.45008
 Alpha  occ. eigenvalues --   -0.39841
 Alpha virt. eigenvalues --    0.02414   0.03691   0.04128   0.04805   0.05774
 Alpha virt. eigenvalues --    0.06623   0.07618   0.08444   0.09556   0.09607
 Alpha virt. eigenvalues --    0.11767   0.12379   0.13482   0.14136   0.14192

 Mulliken charges:
               1
     1  O   -0.474473
     2  C    0.122793
     3  C    0.366479
     4  C   -0.038973
     5  C    0.147487
     6  O   -0.599920
     7  C    0.118613
     8  H   -0.088800
     9  H    0.051890
    10  H    0.196572
    11  H   -0.035687
    12  H    0.048635
    13  H    0.185384
 Sum of Mulliken charges =   0.00000

 Dipole moment (field-independent basis, Debye):
    X=              1.2959    Y=              2.5696    Z=              2.4520  Tot=              3.7809

 Test job not archived.
 1\1\GINC-SE131\SP\RHF\Aug-CC-pVDZ\C5H6O2\OHZDE\09-Apr-2025\0\\#t hf au
 g-cc-pvdz iop(5/13=1,5/36=2,99/5=2) pseudo=read geom=check guess=(read
 ,tcheck) scf=(maxcycle=1)\\title\\0,1\O,0,0.70936177,-2.3622599,0.0469
 4553\C,0,0.30807247,-1.23698282,-0.07019239\C,0,-1.16421688,-0.9026838
 9,-0.10505223\C,0,-0.69631566,1.36424663,0.78642429\C,0,0.6214143,1.24
 703789,0.25549376\O,0,1.21509094,2.31333304,0.31976533\C,0,1.23641201,
 -0.04889465,-0.20317942\H,0,-1.77526775,-1.76139158,0.16699887\H,0,-1.
 46055586,-0.52120645,-1.08243706\H,0,-1.37226983,-0.13005479,0.6958130

 Normal termination of Gaussian 16 at Wed Apr  9 16:54:16 2025.
