 Gaussian 16, Revision C.01,

 ----------------------------------------------------------------------
 #t hf aug-cc-pvdz symm=none int=(grid=ultrafine) guess=(read,tcheck) s
 table=(opt,rrhf)
 ----------------------------------------------------------------------
 -----
 title
 -----
 Symbolic Z-matrix:
 Charge =  0 Multiplicity = 1

 SCF Done:  E(RHF) =  -284.662804127     A.U. after   15 cycles
 Normal termination of Gaussian 16 at Wed Apr  9 03:05:51 2025.
 Gaussian 16:  ES64L-G16RevC.01  3-Jul-2019

 ----------------------------------------------------------------------
 #t hf aug-cc-pvdz iop(5/13=1,5/36=2,99/5=2) pseudo=read geom=check gue
 ss=(read,tcheck) scf=(maxcycle=1)
 ----------------------------------------------------------------------
 -----
 title
 -----
 Structure from the checkpoint file:  "Grambow2020_b97d3_006560_reverse_mol1.chk"
 Charge =  0 Multiplicity = 1

                         Standard orientation:
 ---------------------------------------------------------------------
 Center     Atomic      Atomic             Coordinates (Angstroms)
 Number     Number       Type             X           Y           Z
 ---------------------------------------------------------------------
      1          8           0        1.617674   -0.758206   -0.301344
      2          6           0        1.021351    0.224157    0.333532
      3          6           0        0.067431    1.222462   -0.490511
      4          7           0       -1.183013    0.574686    0.141592
      5          6           0       -1.137109   -0.926570   -0.451745
      6          6           0       -0.357411   -0.152380    0.987175
      7          1           0       -0.058208   -1.387452   -0.480427
      8          1           0        1.624006    0.776928    1.105009
      9          1           0        0.112591    1.130552   -1.579895
     10          1           0        0.072040    2.275516   -0.177874
     11          1           0       -1.271019   -0.714563   -1.517754
     12          1           0       -1.956134   -1.517383   -0.040757
     13          1           0       -0.749145   -0.726755    1.840609
 ---------------------------------------------------------------------

 SCF Done:  E(RHF) =  -284.744728306     A.U. after    2 cycles

 The electronic state is 1-A.
 Alpha  occ. eigenvalues --  -20.45200 -15.70631 -11.38266 -11.31797 -11.30569
 Alpha  occ. eigenvalues --  -11.28495  -1.31803  -1.21257  -1.00184  -0.93176
 Alpha  occ. eigenvalues --   -0.89967  -0.77331  -0.71820  -0.65087  -0.64077
 Alpha  occ. eigenvalues --   -0.58465  -0.57625  -0.53848  -0.52128  -0.51183
 Alpha  occ. eigenvalues --   -0.48673  -0.36414  -0.34906
 Alpha virt. eigenvalues --    0.02510   0.03097   0.03896   0.05807   0.06295
 Alpha virt. eigenvalues --    0.06787   0.07259   0.07794   0.10561   0.11461
 Alpha virt. eigenvalues --    0.12505   0.13071   0.13396   0.13994   0.14691

 Mulliken charges:
               1
     1  O   -0.960089
     2  C    0.898174
     3  C    0.695673
     4  N   -0.857898
     5  C    0.328364
     6  C    0.321422
     7  H    0.411877
     8  H   -0.072869
     9  H   -0.173937
    10  H   -0.244279
    11  H   -0.081247
    12  H   -0.125417
    13  H   -0.139773
 Sum of Mulliken charges =  -0.00000

 Dipole moment (field-independent basis, Debye):
    X=             -4.8976    Y=              1.1937    Z=              1.6661  Tot=              5.3091

 Test job not archived.
 1\1\GINC-SE106\SP\RHF\Aug-CC-pVDZ\C4H7N1O1\OHZDE\09-Apr-2025\0\\#t hf
 aug-cc-pvdz iop(5/13=1,5/36=2,99/5=2) pseudo=read geom=check guess=(re
 ad,tcheck) scf=(maxcycle=1)\\title\\0,1\O,0,-1.51297394,-0.90885732,0.
 8463095\C,0,-1.26999391,0.0073324,-0.06213058\C,0,-0.31291311,1.244266
 07,0.31152063\N,0,0.8209274,0.6474018,-0.54925646\C,0,1.17641198,-0.71
 71715,0.23782439\C,0,-0.06400854,-0.31324197,-1.01755934\H,0,0.2321006
 ,-1.29087851,0.63329625\H,0,-2.13341169,0.33628912,-0.70261754\H,0,-0.
 0599116,1.34511752,1.37126683\H,0,-0.57060934,2.21567825,-0.13191688\H

 Normal termination of Gaussian 16 at Wed Apr  9 03:05:55 2025.
