 Gaussian 16, Revision C.01,

 ----------------------------------------------------------------------
 #t hf aug-cc-pvdz symm=none int=(grid=ultrafine) guess=(read,tcheck) s
 table=(opt,rrhf)
 ----------------------------------------------------------------------
 -----
 title
 -----
 Symbolic Z-matrix:
 Charge =  0 Multiplicity = 1

 SCF Done:  E(RHF) =  -344.868081836     A.U. after   13 cycles

 1\1\GINC-SE455\Stability\RHF\Aug-CC-pVDZ\C5H10O2\OHZDE\09-Apr-2025\0\\
 #t hf aug-cc-pvdz symm=none int=(grid=ultrafine) guess=(read,tcheck) s
 table=(opt,rrhf)\\title\\0,1\O,0,0.75923859,-1.34031387,2.25920081\C,0
 ,1.89160631,0.03819878,-0.83885086\C,0,0.65301585,-0.20898609,-1.23799
 054\C,0,-0.59266855,0.47654557,-0.7742342\C,0,-1.593306,-0.41821079,-0
 .01474005\O,0,-1.38188764,0.31358034,1.20490605\C,0,-0.55472302,1.2810
 2256,0.53240329\H,0,-0.04082045,-0.80918053,2.14580917\H,0,2.72936453,
 -0.51335096,-1.24663166\H,0,2.12374887,0.80058598,-0.10398388\H,0,1.17

 Normal termination of Gaussian 16 at Wed Apr  9 03:40:35 2025.
 Gaussian 16:  ES64L-G16RevC.01  3-Jul-2019

 ----------------------------------------------------------------------
 #t hf aug-cc-pvdz iop(5/13=1,5/36=2,99/5=2) pseudo=read geom=check gue
 ss=(read,tcheck) scf=(maxcycle=1)
 ----------------------------------------------------------------------
 -----
 title
 -----
 Structure from the checkpoint file:  "Grambow2020_wb97xd3_007552_reverse_mol2.chk"
 Charge =  0 Multiplicity = 1

                         Standard orientation:
 ---------------------------------------------------------------------
 Center     Atomic      Atomic             Coordinates (Angstroms)
 Number     Number       Type             X           Y           Z
 ---------------------------------------------------------------------
      1          8           0        0.678818    2.459400   -0.167587
      2          6           0       -2.207125    0.400152    0.292101
      3          6           0       -1.536728   -0.460900   -0.458683
      4          6           0       -0.291240   -1.198770   -0.083103
      5          6           0        0.959621   -0.845256   -0.913205
      6          8           0        1.603976   -0.263609    0.233200
      7          6           0        0.541228   -0.694149    1.103606
      8          1           0        1.208688    1.669419    0.006260
      9          1           0       -3.108029    0.875979   -0.074358
     10          1           0       -1.896949    0.657654    1.298400
     11          1           0       -0.202500    2.123156   -0.345058
     12          1           0       -1.909014   -0.685027   -1.456409
     13          1           0       -0.500251   -2.269686   -0.056314
     14          1           0        0.813919   -0.112079   -1.710915
     15          1           0        1.523124   -1.699253   -1.297118
     16          1           0        0.880869   -1.473497    1.789608
     17          1           0        0.133258    0.140550    1.676716
 ---------------------------------------------------------------------

 SCF Done:  E(RHF) =  -344.977544435     A.U. after    2 cycles

 The electronic state is 1-A.
 Alpha  occ. eigenvalues --  -20.58389 -20.54672 -11.30432 -11.30349 -11.26548
 Alpha  occ. eigenvalues --  -11.26467 -11.25090  -1.36584  -1.28194  -1.09294
 Alpha  occ. eigenvalues --   -0.99595  -0.95546  -0.83566  -0.75267  -0.72330
 Alpha  occ. eigenvalues --   -0.70489  -0.68957  -0.65549  -0.62095  -0.59116
 Alpha  occ. eigenvalues --   -0.58074  -0.56815  -0.53215  -0.50181  -0.49662
 Alpha  occ. eigenvalues --   -0.48099  -0.44703  -0.38737
 Alpha virt. eigenvalues --    0.02769   0.03910   0.04086   0.05013   0.05782
 Alpha virt. eigenvalues --    0.06317   0.07310   0.07825   0.08665   0.09699
 Alpha virt. eigenvalues --    0.11078   0.11358   0.12388   0.13502   0.13980

 Mulliken charges:
               1
     1  O   -0.325078
     2  C    0.497286
     3  C    0.592980
     4  C   -0.103305
     5  C    0.995353
     6  O   -0.819587
     7  C    1.107538
     8  H    0.231290
     9  H   -0.330140
    10  H   -0.339600
    11  H    0.139527
    12  H   -0.394674
    13  H   -0.198678
    14  H   -0.280823
    15  H   -0.266846
    16  H   -0.214744
    17  H   -0.290498
 Sum of Mulliken charges =  -0.00000

 Dipole moment (field-independent basis, Debye):
    X=             -2.4534    Y=             -3.9093    Z=             -0.2901  Tot=              4.6245

 Test job not archived.
 1\1\GINC-SE455\SP\RHF\Aug-CC-pVDZ\C5H10O2\OHZDE\09-Apr-2025\0\\#t hf a
 ug-cc-pvdz iop(5/13=1,5/36=2,99/5=2) pseudo=read geom=check guess=(rea
 d,tcheck) scf=(maxcycle=1)\\title\\0,1\O,0,0.75923859,-1.34031387,2.25
 920081\C,0,1.89160631,0.03819878,-0.83885086\C,0,0.65301585,-0.2089860
 9,-1.23799054\C,0,-0.59266855,0.47654557,-0.7742342\C,0,-1.593306,-0.4
 1821079,-0.01474005\O,0,-1.38188764,0.31358034,1.20490605\C,0,-0.55472
 302,1.28102256,0.53240329\H,0,-0.04082045,-0.80918053,2.14580917\H,0,2
 .72936453,-0.51335096,-1.24663166\H,0,2.12374887,0.80058598,-0.1039838

 Normal termination of Gaussian 16 at Wed Apr  9 03:40:40 2025.
