 Gaussian 16, Revision C.01,

 ----------------------------------------------------------------------
 #t hf aug-cc-pvdz symm=none int=(grid=ultrafine) guess=(read,tcheck) s
 table=(opt,rrhf)
 ----------------------------------------------------------------------
 -----
 title
 -----
 Symbolic Z-matrix:
 Charge =  0 Multiplicity = 1

 SCF Done:  E(RHF) =  -332.552766961     A.U. after   15 cycles
 Normal termination of Gaussian 16 at Wed Apr  9 16:51:53 2025.
 Gaussian 16:  ES64L-G16RevC.01  3-Jul-2019

 ----------------------------------------------------------------------
 #t hf aug-cc-pvdz iop(5/13=1,5/36=2,99/5=2) pseudo=read geom=check gue
 ss=(read,tcheck) scf=(maxcycle=1)
 ----------------------------------------------------------------------
 -----
 title
 -----
 Structure from the checkpoint file:  "Grambow2020_wb97xd3_009009_reverse_mol2.chk"
 Charge =  0 Multiplicity = 1

                         Standard orientation:
 ---------------------------------------------------------------------
 Center     Atomic      Atomic             Coordinates (Angstroms)
 Number     Number       Type             X           Y           Z
 ---------------------------------------------------------------------
      1          7           0       -2.895972   -0.022690    0.000564
      2          6           0       -1.748875   -0.035523   -0.000193
      3          6           0       -0.324001    0.004662   -0.000619
      4          6           0        0.526619    1.119939   -0.000325
      5          7           0        1.772769    0.681276    0.000377
      6          7           0        1.638238   -0.627099    0.000218
      7          7           0        0.420745   -1.098040   -0.000377
      8          1           0        0.289692    2.170440    0.000053
      9          1           0        2.437387   -1.239028    0.001294
 ---------------------------------------------------------------------

 SCF Done:  E(RHF) =  -332.646138514     A.U. after    2 cycles

 The electronic state is 1-A.
 Alpha  occ. eigenvalues --  -15.78874 -15.72825 -15.71597 -15.65882 -11.33688
 Alpha  occ. eigenvalues --  -11.31675 -11.30694  -1.45969  -1.22202  -1.20367
 Alpha  occ. eigenvalues --   -1.14021  -0.93870  -0.89103  -0.79448  -0.73127
 Alpha  occ. eigenvalues --   -0.69474  -0.66362  -0.56795  -0.54844  -0.52669
 Alpha  occ. eigenvalues --   -0.51005  -0.48274  -0.43301  -0.40074
 Alpha virt. eigenvalues --    0.02512   0.03428   0.07212   0.08179   0.09107
 Alpha virt. eigenvalues --    0.10108   0.10360   0.11124   0.12365   0.13777
 Alpha virt. eigenvalues --    0.13800   0.14205   0.15187   0.15240   0.15732

 Mulliken charges:
               1
     1  N   -0.067814
     2  C   -0.860778
     3  C    1.471457
     4  C    0.595036
     5  N   -0.401750
     6  N    0.173056
     7  N   -0.674826
     8  H   -0.266999
     9  H    0.032617
 Sum of Mulliken charges =  -0.00000

 Dipole moment (field-independent basis, Debye):
    X=              4.2433    Y=              0.0881    Z=              0.0005  Tot=              4.2442

 Test job not archived.
 1\1\GINC-SE037\SP\RHF\Aug-CC-pVDZ\C3H2N4\OHZDE\09-Apr-2025\0\\#t hf au
 g-cc-pvdz iop(5/13=1,5/36=2,99/5=2) pseudo=read geom=check guess=(read
 ,tcheck) scf=(maxcycle=1)\\title\\0,1\N,0,3.11746276,0.18800669,0.2788
 2298\C,0,1.9729159,0.1772152,0.2020632\C,0,0.55391145,0.11303538,0.082
 95001\C,0,-0.24013927,-0.90845851,-0.45874479\N,0,-1.50426897,-0.53828
 774,-0.35742113\N,0,-1.4337552,0.64291583,0.21679891\N,0,-0.2424669,1.
 09142888,0.50618386\H,0,0.04723208,-1.85014262,-0.89502\H,0,-2.2605548
 6,1.17782489,0.42505795\\Version=ES64L-G16RevC.01\State=1-A\HF=-332.64

 Normal termination of Gaussian 16 at Wed Apr  9 16:51:56 2025.
