 Gaussian 16, Revision C.01,

 ----------------------------------------------------------------------
 #t hf aug-cc-pvdz symm=none int=(grid=ultrafine) guess=(read,tcheck) s
 table=(opt,rrhf)
 ----------------------------------------------------------------------
 -----
 title
 -----
 Symbolic Z-matrix:
 Charge =  0 Multiplicity = 1

 SCF Done:  E(RHF) =  -295.755446459     A.U. after   15 cycles
 Normal termination of Gaussian 16 at Wed Apr  9 14:07:55 2025.
 Gaussian 16:  ES64L-G16RevC.01  3-Jul-2019

 ----------------------------------------------------------------------
 #t hf aug-cc-pvdz iop(5/13=1,5/36=2,99/5=2) pseudo=read geom=check gue
 ss=(read,tcheck) scf=(maxcycle=1)
 ----------------------------------------------------------------------
 -----
 title
 -----
 Structure from the checkpoint file:  "Grambow2020_b97d3_006784_forward_mol1.chk"
 Charge =  0 Multiplicity = 1

                         Standard orientation:
 ---------------------------------------------------------------------
 Center     Atomic      Atomic             Coordinates (Angstroms)
 Number     Number       Type             X           Y           Z
 ---------------------------------------------------------------------
      1          7           0        1.969636   -0.006271   -0.197795
      2          6           0        0.694987    0.215395    0.124287
      3          7           0        0.100947   -1.018881    0.214952
      4          7           0       -1.223000   -0.766636   -0.152127
      5          6           0       -1.365625    0.597999   -0.065360
      6          7           0       -0.229301    1.247606    0.091727
      7          1           0        2.684186    0.624501    0.168314
      8          1           0        1.299504   -1.323503   -0.178762
      9          1           0       -1.940575   -1.431764    0.127657
     10          1           0       -2.347259    1.059684   -0.168074
 ---------------------------------------------------------------------

 SCF Done:  E(RHF) =  -295.840022262     A.U. after    2 cycles

 The electronic state is 1-A.
 Alpha  occ. eigenvalues --  -15.72104 -15.66335 -15.64249 -15.59974 -11.37064
 Alpha  occ. eigenvalues --  -11.36207  -1.37509  -1.19372  -1.17460  -1.03492
 Alpha  occ. eigenvalues --   -0.87564  -0.79132  -0.77442  -0.67323  -0.65647
 Alpha  occ. eigenvalues --   -0.60629  -0.56045  -0.49835  -0.46425  -0.44554
 Alpha  occ. eigenvalues --   -0.39929  -0.33185
 Alpha virt. eigenvalues --    0.02099   0.04007   0.04704   0.06409   0.07944
 Alpha virt. eigenvalues --    0.09770   0.11063   0.11876   0.12998   0.13993
 Alpha virt. eigenvalues --    0.14352   0.15701   0.16250   0.17462   0.18363

 Mulliken charges:
               1
     1  N   -0.548845
     2  C    0.785015
     3  N   -0.582816
     4  N   -0.182695
     5  C    0.761764
     6  N   -0.597985
     7  H   -0.021507
     8  H    0.462561
     9  H    0.054038
    10  H   -0.129531
 Sum of Mulliken charges =  -0.00000

 Dipole moment (field-independent basis, Debye):
    X=             -3.7672    Y=             -1.1479    Z=              0.5559  Tot=              3.9772

 Test job not archived.
 1\1\GINC-SE054\SP\RHF\Aug-CC-pVDZ\C2H4N4\OHZDE\09-Apr-2025\0\\#t hf au
 g-cc-pvdz iop(5/13=1,5/36=2,99/5=2) pseudo=read geom=check guess=(read
 ,tcheck) scf=(maxcycle=1)\\title\\0,1\N,0,1.97626924,0.0445194,-0.3622
 8957\C,0,0.73577192,0.2783038,0.06679393\N,0,0.13944861,-0.95019727,0.
 20724184\N,0,-1.20831528,-0.68462525,-0.0461642\C,0,-1.32963689,0.6812
 4696,0.05269189\N,0,-0.17774934,1.31954066,0.11297732\H,0,2.72546539,0
 .66788403,-0.05796478\H,0,1.29724151,-1.26611295,-0.28677961\H,0,-1.90
 608419,-1.34299659,0.29332519\H,0,-2.31185598,1.15262123,0.03370998\\V

 Normal termination of Gaussian 16 at Wed Apr  9 14:07:58 2025.
