 Gaussian 16, Revision C.01,

 ----------------------------------------------------------------------
 #t hf aug-cc-pvdz symm=none int=(grid=ultrafine) guess=(read,tcheck) s
 table=(opt,rrhf)
 ----------------------------------------------------------------------
 -----
 title
 -----
 Symbolic Z-matrix:
 Charge =  0 Multiplicity = 1

 SCF Done:  E(RHF) =  -305.706908037     A.U. after   17 cycles
 Normal termination of Gaussian 16 at Wed Apr  9 13:57:01 2025.
 Gaussian 16:  ES64L-G16RevC.01  3-Jul-2019

 ----------------------------------------------------------------------
 #t hf aug-cc-pvdz iop(5/13=1,5/36=2,99/5=2) pseudo=read geom=check gue
 ss=(read,tcheck) scf=(maxcycle=1)
 ----------------------------------------------------------------------
 -----
 title
 -----
 Structure from the checkpoint file:  "Grambow2020_b97d3_006752_forward_mol1.chk"
 Charge =  0 Multiplicity = 1

                         Standard orientation:
 ---------------------------------------------------------------------
 Center     Atomic      Atomic             Coordinates (Angstroms)
 Number     Number       Type             X           Y           Z
 ---------------------------------------------------------------------
      1          6           0       -2.427916   -0.611151    0.212455
      2          6           0       -0.877271    1.381608    0.029741
      3          6           0        0.024872    0.317902   -0.097423
      4          8           0       -0.355069   -0.875944   -0.332632
      5          6           0        1.535972    0.526773   -0.047236
      6          8           0        2.255977   -0.655095    0.236939
      7          1           0       -2.493770   -1.471265   -0.445364
      8          1           0       -3.158588    0.173338    0.035524
      9          1           0       -2.167821   -0.794256    1.249546
     10          1           0       -0.583516    2.325296    0.494062
     11          1           0       -1.622875    1.462030   -0.761191
     12          1           0        1.833082    0.966157   -1.020839
     13          1           0        1.762425    1.276829    0.725384
     14          1           0        1.689849   -1.380613   -0.096795
 ---------------------------------------------------------------------

 SCF Done:  E(RHF) =  -305.803301667     A.U. after    2 cycles

 The electronic state is 1-A.
 Alpha  occ. eigenvalues --  -20.55793 -20.55523 -11.37623 -11.32434 -11.28758
 Alpha  occ. eigenvalues --  -11.20634  -1.33373  -1.29492  -1.00275  -0.98488
 Alpha  occ. eigenvalues --   -0.90507  -0.74684  -0.69053  -0.67195  -0.65385
 Alpha  occ. eigenvalues --   -0.64087  -0.61726  -0.57258  -0.56211  -0.55313
 Alpha  occ. eigenvalues --   -0.49885  -0.45961  -0.42522  -0.30195
 Alpha virt. eigenvalues --    0.00615   0.03719   0.04775   0.04852   0.05636
 Alpha virt. eigenvalues --    0.06395   0.06751   0.07436   0.07852   0.11295
 Alpha virt. eigenvalues --    0.12338   0.13473   0.13853   0.14517   0.15419

 Mulliken charges:
               1
     1  C    0.558503
     2  C    0.534100
     3  C   -0.056755
     4  O   -0.754472
     5  C    0.594870
     6  O   -0.562148
     7  H   -0.018810
     8  H   -0.066434
     9  H    0.025490
    10  H   -0.339697
    11  H   -0.155542
    12  H    0.085910
    13  H   -0.035275
    14  H    0.190262
 Sum of Mulliken charges =  -0.00000

 Dipole moment (field-independent basis, Debye):
    X=             -4.8793    Y=              0.3865    Z=             -0.0341  Tot=              4.8947

 Test job not archived.
 1\1\GINC-SE131\SP\RHF\Aug-CC-pVDZ\C4H8O2\OHZDE\09-Apr-2025\0\\#t hf au
 g-cc-pvdz iop(5/13=1,5/36=2,99/5=2) pseudo=read geom=check guess=(read
 ,tcheck) scf=(maxcycle=1)\\title\\0,1\C,0,-2.04506917,0.90634082,-0.31
 424567\C,0,-0.61702971,-1.15573036,0.02859527\C,0,0.34518897,-0.140180
 58,0.09415461\O,0,0.03426036,1.08738039,0.24031796\C,0,1.84169892,-0.4
 3989228,0.07997617\O,0,2.63321965,0.67503489,-0.27556168\H,0,-2.066464
 32,1.8129482,0.28112429\H,0,-2.82263814,0.18021331,-0.09348689\H,0,-1.
 76422686,1.00058884,-1.35778692\H,0,-0.37502932,-2.14525738,-0.3647298

 Normal termination of Gaussian 16 at Wed Apr  9 13:57:04 2025.
