 Gaussian 16, Revision C.01,

 ----------------------------------------------------------------------
 #t hf aug-cc-pvdz symm=none int=(grid=ultrafine) guess=(read,tcheck) s
 table=(opt,rrhf)
 ----------------------------------------------------------------------
 -----
 title
 -----
 Symbolic Z-matrix:
 Charge =  0 Multiplicity = 1

 SCF Done:  E(RHF) =  -234.065040445     A.U. after   15 cycles
 Normal termination of Gaussian 16 at Wed Apr  9 14:09:25 2025.
 Gaussian 16:  ES64L-G16RevC.01  3-Jul-2019

 ----------------------------------------------------------------------
 #t hf aug-cc-pvdz iop(5/13=1,5/36=2,99/5=2) pseudo=read geom=check gue
 ss=(read,tcheck) scf=(maxcycle=1)
 ----------------------------------------------------------------------
 -----
 title
 -----
 Structure from the checkpoint file:  "Grambow2020_b97d3_006792_forward_mol1.chk"
 Charge =  0 Multiplicity = 1

                         Standard orientation:
 ---------------------------------------------------------------------
 Center     Atomic      Atomic             Coordinates (Angstroms)
 Number     Number       Type             X           Y           Z
 ---------------------------------------------------------------------
      1          6           0        2.607519   -0.183599   -0.279883
      2          6           0        1.260442    0.201731    0.311173
      3          6           0       -0.654224    1.372093   -0.334346
      4          6           0       -1.119859    0.090720    0.373179
      5          6           0       -2.411161   -0.437467   -0.270790
      6          6           0        0.114589   -0.807843    0.158676
      7          1           0        2.518025   -0.414590   -1.350187
      8          1           0        2.973399   -1.091141    0.228648
      9          1           0        3.361724    0.604167   -0.150796
     10          1           0        1.346066    0.564682    1.343584
     11          1           0        0.830974    1.094064   -0.361686
     12          1           0       -0.624919    2.194659    0.419781
     13          1           0       -1.278953    0.196751    1.463538
     14          1           0       -2.708974   -1.391241    0.189301
     15          1           0       -3.240960    0.272549   -0.144058
     16          1           0       -2.255855   -0.591020   -1.347087
     17          1           0        0.182701   -1.670189    0.837373
     18          1           0        0.112924   -1.182497   -0.876468
 ---------------------------------------------------------------------

 SCF Done:  E(RHF) =  -234.135469526     A.U. after    2 cycles

 The electronic state is 1-A.
 Alpha  occ. eigenvalues --  -11.26411 -11.26285 -11.24049 -11.23871 -11.23853
 Alpha  occ. eigenvalues --  -11.22522  -1.10845  -1.01940  -0.93207  -0.88218
 Alpha  occ. eigenvalues --   -0.81811  -0.73211  -0.65434  -0.60911  -0.60236
 Alpha  occ. eigenvalues --   -0.58110  -0.56018  -0.53858  -0.50605  -0.49570
 Alpha  occ. eigenvalues --   -0.48708  -0.45914  -0.44466  -0.33619
 Alpha virt. eigenvalues --    0.03245   0.04119   0.04405   0.04842   0.06233
 Alpha virt. eigenvalues --    0.06451   0.06668   0.06928   0.07916   0.08788
 Alpha virt. eigenvalues --    0.08994   0.09669   0.10678   0.13013   0.13189

 Mulliken charges:
               1
     1  C    0.435916
     2  C   -0.221252
     3  C   -0.031419
     4  C   -0.591735
     5  C    0.662409
     6  C    0.438218
     7  H   -0.015896
     8  H    0.000354
     9  H   -0.048307
    10  H   -0.239422
    11  H    0.193372
    12  H   -0.017054
    13  H   -0.229939
    14  H   -0.011403
    15  H   -0.037984
    16  H    0.014684
    17  H   -0.143187
    18  H   -0.157356
 Sum of Mulliken charges =  -0.00000

 Dipole moment (field-independent basis, Debye):
    X=              0.8995    Y=             -1.0626    Z=              1.7870  Tot=              2.2653

 Test job not archived.
 1\1\GINC-SE120\SP\RHF\Aug-CC-pVDZ\C6H12\OHZDE\09-Apr-2025\0\\#t hf aug
 -cc-pvdz iop(5/13=1,5/36=2,99/5=2) pseudo=read geom=check guess=(read,
 tcheck) scf=(maxcycle=1)\\title\\0,1\C,0,-2.55282252,0.0437129,0.38903
 424\C,0,-1.20716415,0.34259254,-0.25308529\C,0,0.80621506,1.37582774,0
 .32234282\C,0,1.15588274,0.0721732,-0.41082915\C,0,2.43294091,-0.54725
 964,0.17786779\C,0,-0.12704658,-0.74308848,-0.15250645\H,0,-2.43696794
 ,-0.20200145,1.45351489\H,0,-2.99899575,-0.83272543,-0.10985183\H,0,-3
 .25656258,0.88153709,0.29487713\H,0,-1.3087447,0.7193752,-1.27907383\H

 Normal termination of Gaussian 16 at Wed Apr  9 14:09:31 2025.
