 Gaussian 16, Revision C.01,

 ----------------------------------------------------------------------
 #t hf aug-cc-pvdz symm=none int=(grid=ultrafine) guess=(read,tcheck) s
 table=(opt,rrhf)
 ----------------------------------------------------------------------
 -----
 title
 -----
 Symbolic Z-matrix:
 Charge =  0 Multiplicity = 1

 SCF Done:  E(RHF) =  -318.890291934     A.U. after   15 cycles
 Normal termination of Gaussian 16 at Wed Apr  9 03:46:30 2025.
 Gaussian 16:  ES64L-G16RevC.01  3-Jul-2019

 ----------------------------------------------------------------------
 #t hf aug-cc-pvdz iop(5/13=1,5/36=2,99/5=2) pseudo=read geom=check gue
 ss=(read,tcheck) scf=(maxcycle=1)
 ----------------------------------------------------------------------
 -----
 title
 -----
 Structure from the checkpoint file:  "Grambow2020_wb97xd3_007955_forward_mol2.chk"
 Charge =  0 Multiplicity = 1

                         Standard orientation:
 ---------------------------------------------------------------------
 Center     Atomic      Atomic             Coordinates (Angstroms)
 Number     Number       Type             X           Y           Z
 ---------------------------------------------------------------------
      1          6           0       -2.492985   -0.238229    0.541168
      2          6           0       -1.595184    0.355244   -0.543085
      3          6           0       -0.141587    0.177275   -0.251545
      4          6           0        0.816636    1.097782    0.072839
      5          7           0        1.934662    0.361929    0.240869
      6          7           0        1.700344   -0.929759    0.036940
      7          7           0        0.451191   -1.048788   -0.259350
      8          1           0       -3.546218   -0.127850    0.276708
      9          1           0       -2.281865   -1.299812    0.673283
     10          1           0       -2.330494    0.259583    1.499352
     11          1           0       -1.816428   -0.119716   -1.501937
     12          1           0       -1.805708    1.420623   -0.663709
     13          1           0        0.793855    2.167943    0.189109
     14          1           0        2.862194    0.663123    0.481719
 ---------------------------------------------------------------------

 SCF Done:  E(RHF) =  -318.983576340     A.U. after    2 cycles

 The electronic state is 1-A.
 Alpha  occ. eigenvalues --  -15.72171 -15.70447 -15.65460 -11.28902 -11.26570
 Alpha  occ. eigenvalues --  -11.24324 -11.22500  -1.40349  -1.17029  -1.09461
 Alpha  occ. eigenvalues --   -1.01254  -0.87799  -0.85612  -0.80314  -0.74179
 Alpha  occ. eigenvalues --   -0.64749  -0.64479  -0.61015  -0.59706  -0.53692
 Alpha  occ. eigenvalues --   -0.52103  -0.49808  -0.49425  -0.42516  -0.40934
 Alpha  occ. eigenvalues --   -0.34877
 Alpha virt. eigenvalues --    0.02362   0.03604   0.04783   0.05059   0.06497
 Alpha virt. eigenvalues --    0.07181   0.08013   0.09867   0.11038   0.12003
 Alpha virt. eigenvalues --    0.13139   0.13909   0.14558   0.14689   0.14918

 Mulliken charges:
               1
     1  C    0.319658
     2  C    0.040452
     3  C    0.522482
     4  C    0.765925
     5  N   -0.149864
     6  N   -0.264948
     7  N   -0.669800
     8  H   -0.089456
     9  H   -0.032053
    10  H   -0.072071
    11  H    0.011591
    12  H   -0.027741
    13  H   -0.309785
    14  H   -0.044389
 Sum of Mulliken charges =  -0.00000

 Dipole moment (field-independent basis, Debye):
    X=              0.5703    Y=              4.1155    Z=              0.6483  Tot=              4.2051

 Test job not archived.
 1\1\GINC-SE338\SP\RHF\Aug-CC-pVDZ\C4H7N3\OHZDE\09-Apr-2025\0\\#t hf au
 g-cc-pvdz iop(5/13=1,5/36=2,99/5=2) pseudo=read geom=check guess=(read
 ,tcheck) scf=(maxcycle=1)\\title\\0,1\C,0,-1.92932028,0.72733471,0.127
 43226\C,0,-1.1023129,-0.52770314,-0.14606209\C,0,0.35384198,-0.3296420
 2,0.11850873\C,0,1.41348499,-0.2837103,-0.7450862\N,0,2.47799477,-0.06
 29415,0.05352225\N,0,2.11754181,0.02377859,1.32925883\N,0,0.83890583,-
 0.13508044,1.37610023\H,0,-2.99144847,0.53576055,-0.03567832\H,0,-1.79
 444241,1.05671369,1.15811283\H,0,-1.62792233,1.54537622,-0.53006545\H,

 Normal termination of Gaussian 16 at Wed Apr  9 03:46:35 2025.
