 Gaussian 16, Revision C.01,

 ----------------------------------------------------------------------
 #t hf aug-cc-pvdz symm=none int=(grid=ultrafine) guess=(read,tcheck) s
 table=(opt,rrhf)
 ----------------------------------------------------------------------
 -----
 title
 -----
 Symbolic Z-matrix:
 Charge =  0 Multiplicity = 1

 SCF Done:  E(RHF) =  -234.193582364     A.U. after   12 cycles
 Normal termination of Gaussian 16 at Wed Apr  9 14:13:27 2025.
 Gaussian 16:  ES64L-G16RevC.01  3-Jul-2019

 ----------------------------------------------------------------------
 #t hf aug-cc-pvdz iop(5/13=1,5/36=2,99/5=2) pseudo=read geom=check gue
 ss=(read,tcheck) scf=(maxcycle=1)
 ----------------------------------------------------------------------
 -----
 title
 -----
 Structure from the checkpoint file:  "Grambow2020_b97d3_006826_forward_mol2.chk"
 Charge =  0 Multiplicity = 1

                         Standard orientation:
 ---------------------------------------------------------------------
 Center     Atomic      Atomic             Coordinates (Angstroms)
 Number     Number       Type             X           Y           Z
 ---------------------------------------------------------------------
      1          6           0        1.576987   -1.007680    0.001456
      2          6           0        0.416909   -0.013229    0.000301
      3          6           0        0.933669    1.430702   -0.001987
      4          6           0       -0.687489   -0.235239   -1.086422
      5          6           0       -1.773132    0.001681   -0.000276
      6          6           0       -0.688031   -0.230635    1.087260
      7          1           0        2.217507   -0.865795    0.885864
      8          1           0        1.209112   -2.044180    0.011839
      9          1           0        2.205062   -0.878974   -0.893580
     10          1           0        1.544491    1.626249    0.892390
     11          1           0        0.105510    2.154258   -0.010294
     12          1           0        1.556741    1.620231   -0.889182
     13          1           0       -0.674056    0.442787   -1.951229
     14          1           0       -0.691812   -1.272204   -1.450695
     15          1           0       -2.636632   -0.675744    0.000621
     16          1           0       -2.142299    1.035482   -0.002544
     17          1           0       -0.691781   -1.266206    1.455124
     18          1           0       -0.675323    0.450497    1.949689
 ---------------------------------------------------------------------

 SCF Done:  E(RHF) =  -234.265661300     A.U. after    2 cycles

 The electronic state is 1-A.
 Alpha  occ. eigenvalues --  -11.23786 -11.22605 -11.22313 -11.22306 -11.22214
 Alpha  occ. eigenvalues --  -11.22049  -1.12323  -0.98886  -0.92277  -0.88879
 Alpha  occ. eigenvalues --   -0.82085  -0.71003  -0.63880  -0.62625  -0.59347
 Alpha  occ. eigenvalues --   -0.56567  -0.55217  -0.53608  -0.51320  -0.49241
 Alpha  occ. eigenvalues --   -0.46206  -0.44474  -0.41989  -0.41785
 Alpha virt. eigenvalues --    0.03634   0.04488   0.04668   0.04783   0.06379
 Alpha virt. eigenvalues --    0.06653   0.06795   0.06948   0.07044   0.09396
 Alpha virt. eigenvalues --    0.09499   0.09543   0.12390   0.13300   0.13946

 Mulliken charges:
               1
     1  C    0.785581
     2  C   -2.140470
     3  C    0.628648
     4  C    0.781535
     5  C    0.398272
     6  C    0.783282
     7  H    0.037837
     8  H   -0.092301
     9  H    0.038902
    10  H   -0.012725
    11  H   -0.046019
    12  H   -0.010337
    13  H   -0.180585
    14  H   -0.190485
    15  H   -0.213107
    16  H   -0.196952
    17  H   -0.189714
    18  H   -0.181363
 Sum of Mulliken charges =  -0.00000

 Dipole moment (field-independent basis, Debye):
    X=              0.0273    Y=             -0.0033    Z=             -0.0003  Tot=              0.0275

 Test job not archived.
 1\1\GINC-SE131\SP\RHF\Aug-CC-pVDZ\C6H12\OHZDE\09-Apr-2025\0\\#t hf aug
 -cc-pvdz iop(5/13=1,5/36=2,99/5=2) pseudo=read geom=check guess=(read,
 tcheck) scf=(maxcycle=1)\\title\\0,1\C,0,-1.44570987,-1.0011693,0.5006
 5105\C,0,-0.35284375,-0.04848227,0.01821525\C,0,-0.9622149,1.19062297,
 -0.64906844\C,0,0.74423068,0.33782947,1.06566025\C,0,1.83125544,0.1086
 6423,-0.02076796\C,0,0.7829444,-0.6769746,-0.85621035\H,0,-2.07833658,
 -1.3327828,-0.33743714\H,0,-1.01119349,-1.89493824,0.97197458\H,0,-2.0
 9655856,-0.50947548,1.24008776\H,0,-1.56851877,0.90355734,-1.52155952\

 Normal termination of Gaussian 16 at Wed Apr  9 14:13:33 2025.
