 Gaussian 16, Revision C.01,

 ----------------------------------------------------------------------
 #t hf aug-cc-pvdz symm=none int=(grid=ultrafine) guess=(read,tcheck) s
 table=(opt,rrhf)
 ----------------------------------------------------------------------
 -----
 title
 -----
 Symbolic Z-matrix:
 Charge =  0 Multiplicity = 1

 SCF Done:  E(RHF) =  -245.651691727     A.U. after   15 cycles
 Normal termination of Gaussian 16 at Wed Apr  9 14:20:01 2025.
 Gaussian 16:  ES64L-G16RevC.01  3-Jul-2019

 ----------------------------------------------------------------------
 #t hf aug-cc-pvdz iop(5/13=1,5/36=2,99/5=2) pseudo=read geom=check gue
 ss=(read,tcheck) scf=(maxcycle=1)
 ----------------------------------------------------------------------
 -----
 title
 -----
 Structure from the checkpoint file:  "Grambow2020_b97d3_007203_forward_mol1.chk"
 Charge =  0 Multiplicity = 1

                         Standard orientation:
 ---------------------------------------------------------------------
 Center     Atomic      Atomic             Coordinates (Angstroms)
 Number     Number       Type             X           Y           Z
 ---------------------------------------------------------------------
      1          8           0       -1.589141   -0.558451    0.081505
      2          6           0       -1.057261    0.674104    0.029014
      3          6           0        0.388800    0.719553   -0.250696
      4          6           0        1.239689   -0.110095    0.690856
      5          7           0        1.068900   -0.520751   -0.688655
      6          1           0       -2.277050    0.372982    0.269134
      7          1           0        0.798257    1.655970   -0.627985
      8          1           0        2.221304    0.287629    0.953503
      9          1           0        0.717472   -0.651982    1.482813
     10          1           0        0.343484   -1.253105   -0.723969
 ---------------------------------------------------------------------

 SCF Done:  E(RHF) =  -245.724007465     A.U. after    2 cycles

 The electronic state is 1-A.
 Alpha  occ. eigenvalues --  -20.62067 -15.64821 -11.34672 -11.29837 -11.28922
 Alpha  occ. eigenvalues --   -1.38410  -1.25424  -0.94507  -0.88253  -0.78206
 Alpha  occ. eigenvalues --   -0.76240  -0.66832  -0.63701  -0.57212  -0.56731
 Alpha  occ. eigenvalues --   -0.51855  -0.49082  -0.40954  -0.38018
 Alpha virt. eigenvalues --    0.03498   0.04195   0.04418   0.05821   0.06720
 Alpha virt. eigenvalues --    0.08013   0.10422   0.10638   0.12107   0.13097
 Alpha virt. eigenvalues --    0.14049   0.14602   0.15720   0.16071   0.17987

 Mulliken charges:
               1
     1  O   -0.642156
     2  C   -0.090703
     3  C    0.783099
     4  C    0.823750
     5  N   -0.648977
     6  H    0.386159
     7  H   -0.261182
     8  H   -0.229421
     9  H   -0.218024
    10  H    0.097454
 Sum of Mulliken charges =  -0.00000

 Dipole moment (field-independent basis, Debye):
    X=              0.1735    Y=              0.9130    Z=              1.2612  Tot=              1.5666

 Test job not archived.
 1\1\GINC-SE037\SP\RHF\Aug-CC-pVDZ\C3H5N1O1\OHZDE\09-Apr-2025\0\\#t hf
 aug-cc-pvdz iop(5/13=1,5/36=2,99/5=2) pseudo=read geom=check guess=(re
 ad,tcheck) scf=(maxcycle=1)\\title\\0,1\O,0,1.24714363,-0.349842,1.375
 17629\C,0,1.32306547,-0.41053466,0.03525261\C,0,0.22805092,0.26388823,
 -0.68411689\C,0,-1.16263173,-0.18529062,-0.28027466\N,0,-0.6925955,1.1
 3819905,0.0779122\H,0,2.13787722,-0.92673269,0.87539511\H,0,0.4021616,
 0.53366693,-1.72516651\H,0,-1.91825468,-0.22802863,-1.06636839\H,0,-1.
 22952848,-0.95934861,0.48777967\H,0,-0.37022745,1.11627799,1.05740956\

 Normal termination of Gaussian 16 at Wed Apr  9 14:20:03 2025.
