 Gaussian 16, Revision C.01,

 ----------------------------------------------------------------------
 #t hf aug-cc-pvdz symm=none int=(grid=ultrafine) guess=(read,tcheck) s
 table=(opt,rrhf)
 ----------------------------------------------------------------------
 -----
 title
 -----
 Symbolic Z-matrix:
 Charge =  0 Multiplicity = 1

 SCF Done:  E(RHF) =  -307.732349471     A.U. after   14 cycles

 1\1\GINC-SE037\Stability\RHF\Aug-CC-pVDZ\C6H10O1\OHZDE\09-Apr-2025\0\\
 #t hf aug-cc-pvdz symm=none int=(grid=ultrafine) guess=(read,tcheck) s
 table=(opt,rrhf)\\title\\0,1\C,0,1.89396426,-0.25744208,-0.04099477\C,
 0,0.74683848,0.28075411,0.53382303\C,0,-0.05619104,-0.66268583,1.18677
 656\C,0,-1.01153615,-0.99409108,0.22591885\C,0,-1.33182786,0.22994341,
 -0.61709941\C,0,-0.1453768,1.17375349,-0.31170785\O,0,-0.53050317,2.35
 857804,0.35571751\H,0,2.46482699,0.30321731,-0.77433865\H,0,1.02339022
 ,-1.19092417,-0.83958878\H,0,2.46078578,-1.0089365,0.50403147\H,0,0.33

 Normal termination of Gaussian 16 at Wed Apr  9 16:06:18 2025.
 Gaussian 16:  ES64L-G16RevC.01  3-Jul-2019

 ----------------------------------------------------------------------
 #t hf aug-cc-pvdz iop(5/13=1,5/36=2,99/5=2) pseudo=read geom=check gue
 ss=(read,tcheck) scf=(maxcycle=1)
 ----------------------------------------------------------------------
 -----
 title
 -----
 Structure from the checkpoint file:  "Grambow2020_wb97xd3_007744_forward_mol1.chk"
 Charge =  0 Multiplicity = 1

                         Standard orientation:
 ---------------------------------------------------------------------
 Center     Atomic      Atomic             Coordinates (Angstroms)
 Number     Number       Type             X           Y           Z
 ---------------------------------------------------------------------
      1          6           0        1.541145   -1.271864    0.374459
      2          6           0        0.507413   -0.664460   -0.331536
      3          6           0        0.881094    0.521796   -0.975307
      4          6           0        0.495155    1.513935   -0.073935
      5          6           0       -0.773145    1.083104    0.645320
      6          6           0       -0.822003   -0.437591    0.368179
      7          8           0       -1.931196   -0.827958   -0.415972
      8          1           0        1.335331   -2.045001    1.107886
      9          1           0        1.709662   -0.002735    1.166895
     10          1           0        2.535850   -1.309193   -0.064008
     11          1           0        1.765699    0.607671   -1.594916
     12          1           0        0.734040    2.566592   -0.187767
     13          1           0        1.474545    0.984535    0.960920
     14          1           0       -0.758283    1.323466    1.708180
     15          1           0       -1.651047    1.567005    0.212256
     16          1           0       -0.897849   -1.016494    1.288593
     17          1           0       -1.776342   -0.521710   -1.313350
 ---------------------------------------------------------------------

 SCF Done:  E(RHF) =  -307.827029906     A.U. after    2 cycles

 The electronic state is 1-A.
 Alpha  occ. eigenvalues --  -20.56858 -11.29428 -11.27457 -11.26611 -11.24948
 Alpha  occ. eigenvalues --  -11.24336 -11.24085  -1.32654  -1.16283  -1.02070
 Alpha  occ. eigenvalues --   -0.96769  -0.88895  -0.79735  -0.75416  -0.68448
 Alpha  occ. eigenvalues --   -0.66654  -0.65729  -0.61062  -0.59848  -0.57698
 Alpha  occ. eigenvalues --   -0.54423  -0.52743  -0.51816  -0.48874  -0.44295
 Alpha  occ. eigenvalues --   -0.36862  -0.32495
 Alpha virt. eigenvalues --    0.03342   0.04112   0.04407   0.05036   0.06200
 Alpha virt. eigenvalues --    0.06268   0.07192   0.07790   0.08285   0.09303
 Alpha virt. eigenvalues --    0.09952   0.11259   0.12194   0.13443   0.13908

 Mulliken charges:
               1
     1  C    0.474450
     2  C   -0.427148
     3  C    0.508711
     4  C   -0.237962
     5  C    0.399773
     6  C    0.597397
     7  O   -0.563096
     8  H   -0.251723
     9  H    0.210806
    10  H   -0.211674
    11  H   -0.332428
    12  H   -0.290225
    13  H    0.339346
    14  H   -0.070943
    15  H   -0.091510
    16  H   -0.212319
    17  H    0.158546
 Sum of Mulliken charges =   0.00000

 Dipole moment (field-independent basis, Debye):
    X=              1.6796    Y=              1.2360    Z=             -0.0741  Tot=              2.0866

 Test job not archived.
 1\1\GINC-SE037\SP\RHF\Aug-CC-pVDZ\C6H10O1\OHZDE\09-Apr-2025\0\\#t hf a
 ug-cc-pvdz iop(5/13=1,5/36=2,99/5=2) pseudo=read geom=check guess=(rea
 d,tcheck) scf=(maxcycle=1)\\title\\0,1\C,0,1.89396426,-0.25744208,-0.0
 4099477\C,0,0.74683848,0.28075411,0.53382303\C,0,-0.05619104,-0.662685
 83,1.18677656\C,0,-1.01153615,-0.99409108,0.22591885\C,0,-1.33182786,0
 .22994341,-0.61709941\C,0,-0.1453768,1.17375349,-0.31170785\O,0,-0.530
 50317,2.35857804,0.35571751\H,0,2.46482699,0.30321731,-0.77433865\H,0,
 1.02339022,-1.19092417,-0.83958878\H,0,2.46078578,-1.0089365,0.5040314

 Normal termination of Gaussian 16 at Wed Apr  9 16:06:26 2025.
