 Gaussian 16, Revision C.01,

 ----------------------------------------------------------------------
 #t hf aug-cc-pvdz symm=none int=(grid=ultrafine) guess=(read,tcheck) s
 table=(opt,rrhf)
 ----------------------------------------------------------------------
 -----
 title
 -----
 Symbolic Z-matrix:
 Charge =  0 Multiplicity = 1

 SCF Done:  E(RHF) =  -305.443522470     A.U. after   15 cycles
 Normal termination of Gaussian 16 at Wed Apr  9 03:52:33 2025.
 Gaussian 16:  ES64L-G16RevC.01  3-Jul-2019

 ----------------------------------------------------------------------
 #t hf aug-cc-pvdz iop(5/13=1,5/36=2,99/5=2) pseudo=read geom=check gue
 ss=(read,tcheck) scf=(maxcycle=1)
 ----------------------------------------------------------------------
 -----
 title
 -----
 Structure from the checkpoint file:  "Grambow2020_wb97xd3_008342_reverse_mol2.chk"
 Charge =  0 Multiplicity = 1

                         Standard orientation:
 ---------------------------------------------------------------------
 Center     Atomic      Atomic             Coordinates (Angstroms)
 Number     Number       Type             X           Y           Z
 ---------------------------------------------------------------------
      1          8           0        0.968060    1.762388    0.232407
      2          6           0        1.161058    0.666876    0.686658
      3          6           0       -1.781353   -1.103504    0.898895
      4          6           0       -1.881636   -0.252487   -0.080287
      5          6           0       -1.963247    0.603095   -1.053087
      6          6           0        1.694829   -0.437726   -0.091436
      7          6           0        2.143129   -1.366711   -0.700539
      8          1           0       -1.236062    1.402518   -1.146335
      9          1           0        0.948732    0.429376    1.742267
     10          1           0       -2.277930   -0.926788    1.845795
     11          1           0       -1.205066   -2.014620    0.786287
     12          1           0       -2.753793    0.535151   -1.790758
     13          1           0        2.542960   -2.182007   -1.257739
 ---------------------------------------------------------------------

 SCF Done:  E(RHF) =  -305.543325398     A.U. after    2 cycles

 The electronic state is 1-A.
 Alpha  occ. eigenvalues --  -20.59365 -11.37911 -11.28074 -11.27259 -11.26990
 Alpha  occ. eigenvalues --  -11.24858 -11.24469  -1.38367  -1.07127  -1.06454
 Alpha  occ. eigenvalues --   -0.95909  -0.91400  -0.76108  -0.72058  -0.71643
 Alpha  occ. eigenvalues --   -0.68210  -0.63255  -0.61657  -0.61429  -0.57269
 Alpha  occ. eigenvalues --   -0.47756  -0.43438  -0.43180  -0.38347  -0.38126
 Alpha virt. eigenvalues --    0.02969   0.03866   0.04513   0.05131   0.05601
 Alpha virt. eigenvalues --    0.06652   0.07551   0.09263   0.09819   0.10094
 Alpha virt. eigenvalues --    0.10879   0.11884   0.12635   0.12989   0.13816

 Mulliken charges:
               1
     1  O   -0.483830
     2  C    0.601940
     3  C    0.749151
     4  C   -0.805408
     5  C    0.931018
     6  C   -0.662371
     7  C    1.125125
     8  H   -0.193190
     9  H   -0.097083
    10  H   -0.228943
    11  H   -0.228722
    12  H   -0.233126
    13  H   -0.474562
 Sum of Mulliken charges =  -0.00000

 Dipole moment (field-independent basis, Debye):
    X=              0.6105    Y=             -3.0637    Z=              0.5411  Tot=              3.1705

 Test job not archived.
 1\1\GINC-SE016\SP\RHF\Aug-CC-pVDZ\C6H6O1\OHZDE\09-Apr-2025\0\\#t hf au
 g-cc-pvdz iop(5/13=1,5/36=2,99/5=2) pseudo=read geom=check guess=(read
 ,tcheck) scf=(maxcycle=1)\\title\\0,1\O,0,0.18969455,-0.21145029,2.331
 80125\C,0,0.79994811,-0.75282267,1.44961902\C,0,-1.03860263,-0.7987556
 6,-1.45807693\C,0,-1.39678974,0.23915574,-0.75984718\C,0,-1.74120556,1
 .26924587,-0.04899264\C,0,1.85774912,-0.1032558,0.69489505\C,0,2.74163
 702,0.3981168,0.06057814\H,0,-1.44444478,1.34482288,0.99157903\H,0,0.5
 971247,-1.79662671,1.15783804\H,0,-1.66667496,-1.68032025,-1.51104364\

 Normal termination of Gaussian 16 at Wed Apr  9 03:52:37 2025.
