 Gaussian 16, Revision C.01,

 ----------------------------------------------------------------------
 #t hf aug-cc-pvdz symm=none int=(grid=ultrafine) guess=(read,tcheck) s
 table=(opt,rrhf)
 ----------------------------------------------------------------------
 -----
 title
 -----
 Symbolic Z-matrix:
 Charge =  0 Multiplicity = 1

 SCF Done:  E(RHF) =  -304.456172617     A.U. after   17 cycles
 Normal termination of Gaussian 16 at Wed Apr  9 14:17:06 2025.
 Gaussian 16:  ES64L-G16RevC.01  3-Jul-2019

 ----------------------------------------------------------------------
 #t hf aug-cc-pvdz iop(5/13=1,5/36=2,99/5=2) pseudo=read geom=check gue
 ss=(read,tcheck) scf=(maxcycle=1)
 ----------------------------------------------------------------------
 -----
 title
 -----
 Structure from the checkpoint file:  "Grambow2020_b97d3_006932_reverse_mol1.chk"
 Charge =  0 Multiplicity = 1

                         Standard orientation:
 ---------------------------------------------------------------------
 Center     Atomic      Atomic             Coordinates (Angstroms)
 Number     Number       Type             X           Y           Z
 ---------------------------------------------------------------------
      1          8           0        1.851936   -0.108731    0.100798
      2          6           0        0.590115    0.037199   -0.151691
      3          6           0       -0.136996    1.389411   -0.424872
      4          6           0       -0.672190    0.584307    0.681831
      5          8           0       -1.502288   -0.505987    0.079147
      6          6           0       -0.374080   -1.060532   -0.415887
      7          1           0        1.486471   -1.480216    0.630909
      8          1           0        0.490468    2.228896   -0.122827
      9          1           0       -0.712158    1.538176   -1.342204
     10          1           0       -0.805042    0.793394    1.737154
     11          1           0       -0.468136   -1.884902   -1.127402
     12          1           0        0.770114   -1.979915    0.648518
 ---------------------------------------------------------------------

 SCF Done:  E(RHF) =  -304.550396972     A.U. after    2 cycles

 The electronic state is 1-A.
 Alpha  occ. eigenvalues --  -20.66712 -20.50830 -11.42298 -11.33628 -11.33050
 Alpha  occ. eigenvalues --  -11.29169  -1.44893  -1.28133  -1.12165  -0.98249
 Alpha  occ. eigenvalues --   -0.87691  -0.78909  -0.72809  -0.70217  -0.69432
 Alpha  occ. eigenvalues --   -0.63239  -0.60873  -0.58184  -0.56281  -0.51395
 Alpha  occ. eigenvalues --   -0.46963  -0.39847  -0.34490
 Alpha virt. eigenvalues --    0.02439   0.03668   0.04213   0.04533   0.05826
 Alpha virt. eigenvalues --    0.07446   0.07768   0.09270   0.10134   0.11248
 Alpha virt. eigenvalues --    0.13045   0.13775   0.14165   0.14612   0.15134

 Mulliken charges:
               1
     1  O   -0.834788
     2  C    0.380652
     3  C    0.667910
     4  C    0.793874
     5  O   -0.661273
     6  C    0.360495
     7  H    0.191691
     8  H   -0.163396
     9  H   -0.249044
    10  H   -0.321403
    11  H   -0.190670
    12  H    0.025952
 Sum of Mulliken charges =  -0.00000

 Dipole moment (field-independent basis, Debye):
    X=             -3.6898    Y=              0.4372    Z=             -0.9753  Tot=              3.8415

 Test job not archived.
 1\1\GINC-SE043\SP\RHF\Aug-CC-pVDZ\C4H6O2\OHZDE\09-Apr-2025\0\\#t hf au
 g-cc-pvdz iop(5/13=1,5/36=2,99/5=2) pseudo=read geom=check guess=(read
 ,tcheck) scf=(maxcycle=1)\\title\\0,1\O,0,-0.07450915,-1.59940365,-0.8
 342173\C,0,-0.10677485,-0.55201703,-0.07317897\C,0,-1.38623124,0.08741
 354,0.54804133\C,0,-0.55861248,0.97826356,-0.27709482\O,0,0.60989962,1
 .40117195,0.55762585\C,0,1.0744407,0.13337367,0.50944546\H,0,1.3133220
 3,-1.14329172,-1.23601299\H,0,-2.28195625,-0.29538591,0.05730821\H,0,-
 1.46810216,0.23509598,1.62782328\H,0,-0.77489565,1.5546723,-1.1693109\

 Normal termination of Gaussian 16 at Wed Apr  9 14:17:10 2025.
