 Gaussian 16, Revision C.01,

 ----------------------------------------------------------------------
 #t hf aug-cc-pvdz symm=none int=(grid=ultrafine) guess=(read,tcheck) s
 table=(opt,rrhf)
 ----------------------------------------------------------------------
 -----
 title
 -----
 Symbolic Z-matrix:
 Charge =  0 Multiplicity = 1

 SCF Done:  E(RHF) =  -266.825239263     A.U. after   13 cycles
 Normal termination of Gaussian 16 at Wed Apr  9 13:46:36 2025.
 Gaussian 16:  ES64L-G16RevC.01  3-Jul-2019

 ----------------------------------------------------------------------
 #t hf aug-cc-pvdz iop(5/13=1,5/36=2,99/5=2) pseudo=read geom=check gue
 ss=(read,tcheck) scf=(maxcycle=1)
 ----------------------------------------------------------------------
 -----
 title
 -----
 Structure from the checkpoint file:  "Grambow2020_b97d3_006691_reverse_mol2.chk"
 Charge =  0 Multiplicity = 1

                         Standard orientation:
 ---------------------------------------------------------------------
 Center     Atomic      Atomic             Coordinates (Angstroms)
 Number     Number       Type             X           Y           Z
 ---------------------------------------------------------------------
      1          6           0        1.618388   -0.392897   -0.035192
      2          6           0        1.471539    1.105244    0.036094
      3          8           0       -2.005701    0.779842   -0.068650
      4          6           0       -1.908025   -0.425840    0.054616
      5          8           0        0.704316   -1.201773   -0.005284
      6          1           0        2.674051   -0.751380   -0.122777
      7          1           0        1.912517    1.554092   -0.868670
      8          1           0        2.059076    1.486962    0.886571
      9          1           0        0.425184    1.408604    0.131647
     10          1           0       -1.811663   -0.921534    1.047167
     11          1           0       -1.939506   -1.120335   -0.815575
 ---------------------------------------------------------------------

 SCF Done:  E(RHF) =  -266.912139186     A.U. after    2 cycles

 The electronic state is 1-A.
 Alpha  occ. eigenvalues --  -20.58558 -20.57176 -11.36266 -11.34372 -11.25488
 Alpha  occ. eigenvalues --   -1.36356  -1.34707  -1.01743  -0.85115  -0.80898
 Alpha  occ. eigenvalues --   -0.69083  -0.67870  -0.64995  -0.64048  -0.60896
 Alpha  occ. eigenvalues --   -0.56870  -0.53047  -0.52365  -0.44807  -0.43682
 Alpha virt. eigenvalues --    0.03111   0.04716   0.04974   0.05162   0.06532
 Alpha virt. eigenvalues --    0.08306   0.09365   0.09487   0.11170   0.12720
 Alpha virt. eigenvalues --    0.13023   0.14529   0.15057   0.15971   0.16349

 Mulliken charges:
               1
     1  C    0.414612
     2  C    0.225024
     3  O   -0.453339
     4  C    0.651607
     5  O   -0.409492
     6  H   -0.184809
     7  H    0.030303
     8  H    0.048214
     9  H   -0.126073
    10  H   -0.101200
    11  H   -0.094847
 Sum of Mulliken charges =  -0.00000

 Dipole moment (field-independent basis, Debye):
    X=              2.8313    Y=             -0.4510    Z=              0.2592  Tot=              2.8787

 Test job not archived.
 1\1\GINC-SE054\SP\RHF\Aug-CC-pVDZ\C3H6O2\OHZDE\09-Apr-2025\0\\#t hf au
 g-cc-pvdz iop(5/13=1,5/36=2,99/5=2) pseudo=read geom=check guess=(read
 ,tcheck) scf=(maxcycle=1)\\title\\0,1\C,0,0.48691929,1.33733263,0.1269
 0298\C,0,1.50593468,0.22719928,0.1100821\O,0,-1.05965288,-2.139559,-0.
 04570962\C,0,-1.87905596,-1.25707178,-0.2136377\O,0,-0.71943649,1.2007
 0907,-0.00249239\H,0,0.91717603,2.35910022,0.27345158\H,0,2.06069854,0
 .23270427,1.06230627\H,0,2.24789931,0.42819993,-0.67941544\H,0,1.04162
 529,-0.75057102,-0.04612517\H,0,-2.10371256,-0.83012406,-1.21733103\H,

 Normal termination of Gaussian 16 at Wed Apr  9 13:46:39 2025.
