 Gaussian 16, Revision C.01,

 ----------------------------------------------------------------------
 #t hf aug-cc-pvdz symm=none int=(grid=ultrafine) guess=(read,tcheck) s
 table=(opt,rrhf)
 ----------------------------------------------------------------------
 -----
 title
 -----
 Symbolic Z-matrix:
 Charge =  0 Multiplicity = 1

 SCF Done:  E(RHF) =  -373.261012494     A.U. after   19 cycles
 Normal termination of Gaussian 16 at Wed Apr  9 04:04:28 2025.
 Gaussian 16:  ES64L-G16RevC.01  3-Jul-2019

 ----------------------------------------------------------------------
 #t hf aug-cc-pvdz iop(5/13=1,5/36=2,99/5=2) pseudo=read geom=check gue
 ss=(read,tcheck) scf=(maxcycle=1)
 ----------------------------------------------------------------------
 -----
 title
 -----
 Structure from the checkpoint file:  "Grambow2020_wb97xd3_009228_forward_mol1.chk"
 Charge =  0 Multiplicity = 1

                         Standard orientation:
 ---------------------------------------------------------------------
 Center     Atomic      Atomic             Coordinates (Angstroms)
 Number     Number       Type             X           Y           Z
 ---------------------------------------------------------------------
      1          7           0        1.412050    1.170354    0.028415
      2          6           0        0.404484    0.412553    0.433207
      3          8           0       -0.777602    0.540723   -0.164978
      4          6           0       -1.754376   -0.373725    0.231876
      5          8           0       -2.829554   -0.333614   -0.241415
      6          6           0        1.722133   -0.341695    0.078404
      7          7           0        2.403159   -1.240005   -0.223407
      8          1           0        1.291895    1.721130   -0.833005
      9          1           0       -1.374553   -1.073247    0.988166
 ---------------------------------------------------------------------

 SCF Done:  E(RHF) =  -373.375546155     A.U. after    2 cycles

 The electronic state is 1-A.
 Alpha  occ. eigenvalues --  -20.70339 -20.62830 -15.74868 -15.64380 -11.45008
 Alpha  occ. eigenvalues --  -11.42786 -11.36329  -1.50533  -1.42437  -1.33246
 Alpha  occ. eigenvalues --   -1.18666  -0.96794  -0.91738  -0.85776  -0.75345
 Alpha  occ. eigenvalues --   -0.74115  -0.69404  -0.67568  -0.62478  -0.58091
 Alpha  occ. eigenvalues --   -0.56398  -0.54499  -0.52932  -0.45502  -0.37534
 Alpha virt. eigenvalues --    0.02243   0.02831   0.04175   0.06195   0.07403
 Alpha virt. eigenvalues --    0.08378   0.09443   0.10516   0.11549   0.12123
 Alpha virt. eigenvalues --    0.12911   0.13168   0.14403   0.15939   0.16494

 Mulliken charges:
               1
     1  N   -0.285715
     2  C    0.612632
     3  O   -0.598658
     4  C    0.817024
     5  O   -0.331136
     6  C    0.014556
     7  N   -0.207959
     8  H    0.050801
     9  H   -0.071546
 Sum of Mulliken charges =  -0.00000

 Dipole moment (field-independent basis, Debye):
    X=             -0.7177    Y=              2.6388    Z=              0.8332  Tot=              2.8588

 Test job not archived.
 1\1\GINC-SE250\SP\RHF\Aug-CC-pVDZ\C3H2N2O2\OHZDE\09-Apr-2025\0\\#t hf
 aug-cc-pvdz iop(5/13=1,5/36=2,99/5=2) pseudo=read geom=check guess=(re
 ad,tcheck) scf=(maxcycle=1)\\title\\0,1\N,0,-1.53075125,-0.81577023,0.
 27449183\C,0,-0.34413658,-0.26009135,0.4654738\O,0,0.67218,-0.63108183
 ,-0.30979775\C,0,1.85720485,0.08400604,-0.13046059\O,0,2.8081652,-0.17
 677301,-0.77021823\C,0,-1.53683302,0.72847675,0.28889287\N,0,-2.077677
 88,1.7351131,0.05221106\H,0,-1.66612886,-1.39980315,-0.56241493\H,0,1.
 75152253,0.8621207,0.63696393\\Version=ES64L-G16RevC.01\State=1-A\HF=-

 Normal termination of Gaussian 16 at Wed Apr  9 04:04:31 2025.
