 Gaussian 16, Revision C.01,

 ----------------------------------------------------------------------
 #t hf aug-cc-pvdz symm=none int=(grid=ultrafine) guess=(read,tcheck) s
 table=(opt,rrhf)
 ----------------------------------------------------------------------
 -----
 title
 -----
 Symbolic Z-matrix:
 Charge =  0 Multiplicity = 1

 SCF Done:  E(RHF) =  -339.195043858     A.U. after   19 cycles
 Normal termination of Gaussian 16 at Wed Apr  9 14:11:55 2025.
 Gaussian 16:  ES64L-G16RevC.01  3-Jul-2019

 ----------------------------------------------------------------------
 #t hf aug-cc-pvdz iop(5/13=1,5/36=2,99/5=2) pseudo=read geom=check gue
 ss=(read,tcheck) scf=(maxcycle=1)
 ----------------------------------------------------------------------
 -----
 title
 -----
 Structure from the checkpoint file:  "Grambow2020_b97d3_006812_reverse_mol1.chk"
 Charge =  0 Multiplicity = 1

                         Standard orientation:
 ---------------------------------------------------------------------
 Center     Atomic      Atomic             Coordinates (Angstroms)
 Number     Number       Type             X           Y           Z
 ---------------------------------------------------------------------
      1          8           0       -1.992791   -0.760073   -0.332431
      2          6           0       -0.990985   -0.352178    0.406855
      3          6           0        0.084331    0.592234    0.023402
      4          8           0       -0.158527    1.801611   -0.006412
      5          6           0        1.483875    0.007159   -0.079353
      6          8           0        1.680239   -1.193021    0.008435
      7          1           0       -1.979559   -1.023992    0.829271
      8          1           0        2.284860    0.752566   -0.291427
 ---------------------------------------------------------------------

 SCF Done:  E(RHF) =  -339.298595702     A.U. after    2 cycles

 The electronic state is 1-A.
 Alpha  occ. eigenvalues --  -20.66024 -20.63914 -20.63250 -11.40213 -11.40068
 Alpha  occ. eigenvalues --  -11.38218  -1.42831  -1.41167  -1.39295  -1.01751
 Alpha  occ. eigenvalues --   -0.91173  -0.79969  -0.76029  -0.73401  -0.70559
 Alpha  occ. eigenvalues --   -0.67902  -0.61664  -0.59962  -0.56474  -0.55391
 Alpha  occ. eigenvalues --   -0.49104  -0.39364
 Alpha virt. eigenvalues --    0.00029   0.03540   0.03905   0.05858   0.08694
 Alpha virt. eigenvalues --    0.09052   0.10057   0.10272   0.11749   0.12436
 Alpha virt. eigenvalues --    0.13509   0.13797   0.14189   0.15421   0.18178

 Mulliken charges:
               1
     1  O   -0.538310
     2  C    0.159161
     3  C    0.226002
     4  O   -0.485093
     5  C    0.658377
     6  O   -0.395953
     7  H    0.436858
     8  H   -0.061042
 Sum of Mulliken charges =  -0.00000

 Dipole moment (field-independent basis, Debye):
    X=              0.8779    Y=              0.0029    Z=              0.7479  Tot=              1.1533

 Test job not archived.
 1\1\GINC-SE043\SP\RHF\Aug-CC-pVDZ\C3H2O3\OHZDE\09-Apr-2025\0\\#t hf au
 g-cc-pvdz iop(5/13=1,5/36=2,99/5=2) pseudo=read geom=check guess=(read
 ,tcheck) scf=(maxcycle=1)\\title\\0,1\O,0,-1.91081478,0.31386385,1.072
 47896\C,0,-0.62225255,0.42685983,0.86420784\C,0,0.08377252,0.40890265,
 -0.43827528\O,0,0.05711401,1.4152143,-1.15177876\C,0,0.99144312,-0.784
 29334,-0.69128147\O,0,1.02126335,-1.73470768,0.07194839\H,0,-1.1981505
 9,0.61930239,1.9770215\H,0,1.57037291,-0.73449399,-1.64235717\\Version
 =ES64L-G16RevC.01\State=1-A\HF=-339.2985957\RMSD=4.245e-03\Dipole=0.44

 Normal termination of Gaussian 16 at Wed Apr  9 14:11:58 2025.
