 Gaussian 16, Revision C.01,

 ----------------------------------------------------------------------
 #t hf aug-cc-pvdz symm=none int=(grid=ultrafine) guess=(read,tcheck) s
 table=(opt,rrhf)
 ----------------------------------------------------------------------
 -----
 title
 -----
 Symbolic Z-matrix:
 Charge =  0 Multiplicity = 1

 SCF Done:  E(RHF) =  -307.652748629     A.U. after   15 cycles

 1\1\GINC-SE131\Stability\RHF\Aug-CC-pVDZ\C6H10O1\OHZDE\09-Apr-2025\0\\
 #t hf aug-cc-pvdz symm=none int=(grid=ultrafine) guess=(read,tcheck) s
 table=(opt,rrhf)\\title\\0,1\C,0,-2.10779587,0.16974901,-0.03430456\C,
 0,-0.61436958,0.17456321,-0.02714725\C,0,0.37248709,0.35187258,-1.2058
 2346\C,0,1.36317662,0.0207364,-0.04075869\O,0,2.58631295,-0.35520649,-
 0.05304155\C,0,0.35058731,-0.83507012,0.54881881\C,0,0.31162967,1.0352
 6723,0.84477716\H,0,-2.48751629,-0.63462463,-0.66578942\H,0,-2.5059266
 8,0.03123416,0.97255354\H,0,-2.49097663,1.11431582,-0.4231965\H,0,0.42

 Normal termination of Gaussian 16 at Wed Apr  9 16:17:05 2025.
 Gaussian 16:  ES64L-G16RevC.01  3-Jul-2019

 ----------------------------------------------------------------------
 #t hf aug-cc-pvdz iop(5/13=1,5/36=2,99/5=2) pseudo=read geom=check gue
 ss=(read,tcheck) scf=(maxcycle=1)
 ----------------------------------------------------------------------
 -----
 title
 -----
 Structure from the checkpoint file:  "Grambow2020_wb97xd3_008047_reverse_mol1.chk"
 Charge =  0 Multiplicity = 1

                         Standard orientation:
 ---------------------------------------------------------------------
 Center     Atomic      Atomic             Coordinates (Angstroms)
 Number     Number       Type             X           Y           Z
 ---------------------------------------------------------------------
      1          6           0       -2.397771    0.049958   -0.298343
      2          6           0       -0.928752    0.038475   -0.029555
      3          6           0        0.029143    1.223370    0.240752
      4          6           0        1.044999    0.035445    0.167508
      5          8           0        2.315235    0.018390    0.013373
      6          6           0        0.189970   -0.607625   -0.812660
      7          6           0       -0.181788   -0.775984    1.036860
      8          1           0       -2.620557    0.626644   -1.197108
      9          1           0       -2.780426   -0.962724   -0.438012
     10          1           0       -2.935222    0.503186    0.535925
     11          1           0       -0.088955    1.734579    1.197631
     12          1           0        0.146762    1.923861   -0.586625
     13          1           0        2.082443    0.054827   -1.356040
     14          1           0        0.218435   -1.618129   -1.209991
     15          1           0        1.347495   -0.004678   -1.962148
     16          1           0       -0.275942   -1.859658    1.056298
     17          1           0       -0.150714   -0.326869    2.025711
 ---------------------------------------------------------------------

 SCF Done:  E(RHF) =  -307.747140742     A.U. after    2 cycles

 The electronic state is 1-A.
 Alpha  occ. eigenvalues --  -20.52355 -11.32865 -11.31819 -11.29551 -11.28581
 Alpha  occ. eigenvalues --  -11.25618 -11.25281  -1.31554  -1.22732  -1.01226
 Alpha  occ. eigenvalues --   -0.94757  -0.91572  -0.80440  -0.75994  -0.67466
 Alpha  occ. eigenvalues --   -0.65473  -0.64613  -0.61648  -0.60922  -0.58195
 Alpha  occ. eigenvalues --   -0.55389  -0.52067  -0.49136  -0.48824  -0.41858
 Alpha  occ. eigenvalues --   -0.39066  -0.38724
 Alpha virt. eigenvalues --    0.02394   0.03712   0.03865   0.04871   0.06100
 Alpha virt. eigenvalues --    0.06431   0.06725   0.07043   0.07688   0.09128
 Alpha virt. eigenvalues --    0.09524   0.10789   0.12118   0.12445   0.13309

 Mulliken charges:
               1
     1  C    0.643540
     2  C   -0.554125
     3  C    0.451199
     4  C    0.679709
     5  O   -0.871576
     6  C   -0.029282
     7  C    0.480650
     8  H    0.076946
     9  H    0.063689
    10  H    0.046299
    11  H   -0.175671
    12  H   -0.155254
    13  H    0.202290
    14  H   -0.393437
    15  H    0.032159
    16  H   -0.327721
    17  H   -0.169416
 Sum of Mulliken charges =  -0.00000

 Dipole moment (field-independent basis, Debye):
    X=             -5.5366    Y=             -1.0115    Z=              0.4003  Tot=              5.6425

 Test job not archived.
 1\1\GINC-SE131\SP\RHF\Aug-CC-pVDZ\C6H10O1\OHZDE\09-Apr-2025\0\\#t hf a
 ug-cc-pvdz iop(5/13=1,5/36=2,99/5=2) pseudo=read geom=check guess=(rea
 d,tcheck) scf=(maxcycle=1)\\title\\0,1\C,0,-2.10779587,0.16974901,-0.0
 3430456\C,0,-0.61436958,0.17456321,-0.02714725\C,0,0.37248709,0.351872
 58,-1.20582346\C,0,1.36317662,0.0207364,-0.04075869\O,0,2.58631295,-0.
 35520649,-0.05304155\C,0,0.35058731,-0.83507012,0.54881881\C,0,0.31162
 967,1.03526723,0.84477716\H,0,-2.48751629,-0.63462463,-0.66578942\H,0,
 -2.50592668,0.03123416,0.97255354\H,0,-2.49097663,1.11431582,-0.423196

 Normal termination of Gaussian 16 at Wed Apr  9 16:17:12 2025.
