 Gaussian 16, Revision C.01,

 ----------------------------------------------------------------------
 #t hf aug-cc-pvdz symm=none int=(grid=ultrafine) guess=(read,tcheck) s
 table=(opt,rrhf)
 ----------------------------------------------------------------------
 -----
 title
 -----
 Symbolic Z-matrix:
 Charge =  0 Multiplicity = 1

 SCF Done:  E(RHF) =  -307.673950469     A.U. after   17 cycles

 1\1\GINC-SE173\Stability\RHF\Aug-CC-pVDZ\C6H10O1\OHZDE\09-Apr-2025\0\\
 #t hf aug-cc-pvdz symm=none int=(grid=ultrafine) guess=(read,tcheck) s
 table=(opt,rrhf)\\title\\0,1\C,0,1.76218589,-0.59009716,0.15279824\C,0
 ,0.48879431,-0.01838818,0.47687963\C,0,0.02272161,1.05070353,-0.463091
 07\C,0,-1.4051519,1.10592792,-0.36747561\C,0,-1.88255262,0.02792551,0.
 29682197\C,0,-0.78232983,-0.97038425,0.46736464\O,0,-0.71996501,-1.905
 94107,-0.59208921\H,0,1.92654771,-1.00610502,-0.8331245\H,0,2.28535828
 ,1.11993297,0.01174966\H,0,2.46155206,-0.87818468,0.9263805\H,0,0.4949

 Normal termination of Gaussian 16 at Wed Apr  9 16:09:22 2025.
 Gaussian 16:  ES64L-G16RevC.01  3-Jul-2019

 ----------------------------------------------------------------------
 #t hf aug-cc-pvdz iop(5/13=1,5/36=2,99/5=2) pseudo=read geom=check gue
 ss=(read,tcheck) scf=(maxcycle=1)
 ----------------------------------------------------------------------
 -----
 title
 -----
 Structure from the checkpoint file:  "Grambow2020_wb97xd3_007818_forward_mol1.chk"
 Charge =  0 Multiplicity = 1

                         Standard orientation:
 ---------------------------------------------------------------------
 Center     Atomic      Atomic             Coordinates (Angstroms)
 Number     Number       Type             X           Y           Z
 ---------------------------------------------------------------------
      1          6           0       -2.041143    0.320147    0.035614
      2          6           0       -0.767380   -0.176265    0.465161
      3          6           0       -0.201383   -1.272351   -0.384526
      4          6           0        1.219089   -1.258888   -0.202611
      5          6           0        1.610422   -0.126745    0.426994
      6          6           0        0.461712    0.829391    0.476658
      7          8           0        0.425472    1.703230   -0.635408
      8          1           0       -2.162197    0.675097   -0.980003
      9          1           0       -2.483948   -1.416533   -0.039708
     10          1           0       -2.797540    0.617853    0.749597
     11          1           0       -0.817740   -0.540263    1.495245
     12          1           0       -0.644168   -1.571202   -1.325831
     13          1           0       -1.957610   -2.053237   -0.012271
     14          1           0        1.878595   -2.057173   -0.520210
     15          1           0        2.595399    0.092670    0.818848
     16          1           0        0.425702    1.467500    1.360120
     17          1           0        0.871833    1.267711   -1.366261
 ---------------------------------------------------------------------

 SCF Done:  E(RHF) =  -307.769008348     A.U. after    2 cycles

 The electronic state is 1-A.
 Alpha  occ. eigenvalues --  -20.57673 -11.31853 -11.27035 -11.25750 -11.25605
 Alpha  occ. eigenvalues --  -11.24832 -11.24719  -1.33592  -1.14739  -1.03265
 Alpha  occ. eigenvalues --   -0.95035  -0.88616  -0.79198  -0.75640  -0.71284
 Alpha  occ. eigenvalues --   -0.67578  -0.64293  -0.62429  -0.59177  -0.57485
 Alpha  occ. eigenvalues --   -0.56516  -0.52000  -0.50941  -0.50087  -0.43953
 Alpha  occ. eigenvalues --   -0.40237  -0.24323
 Alpha virt. eigenvalues --    0.01499   0.03465   0.04268   0.04454   0.05039
 Alpha virt. eigenvalues --    0.06085   0.06286   0.06600   0.07392   0.08492
 Alpha virt. eigenvalues --    0.09671   0.11858   0.12283   0.13621   0.14196

 Mulliken charges:
               1
     1  C    0.820322
     2  C   -0.451811
     3  C    0.479842
     4  C    0.114615
     5  C    0.500645
     6  C    0.659880
     7  O   -0.653655
     8  H   -0.217830
     9  H    0.023238
    10  H   -0.297556
    11  H   -0.129093
    12  H   -0.505766
    13  H    0.266720
    14  H   -0.277058
    15  H   -0.315297
    16  H   -0.214886
    17  H    0.197689
 Sum of Mulliken charges =  -0.00000

 Dipole moment (field-independent basis, Debye):
    X=              0.9509    Y=             -0.4200    Z=              0.0192  Tot=              1.0397

 Test job not archived.
 1\1\GINC-SE173\SP\RHF\Aug-CC-pVDZ\C6H10O1\OHZDE\09-Apr-2025\0\\#t hf a
 ug-cc-pvdz iop(5/13=1,5/36=2,99/5=2) pseudo=read geom=check guess=(rea
 d,tcheck) scf=(maxcycle=1)\\title\\0,1\C,0,1.76218589,-0.59009716,0.15
 279824\C,0,0.48879431,-0.01838818,0.47687963\C,0,0.02272161,1.05070353
 ,-0.46309107\C,0,-1.4051519,1.10592792,-0.36747561\C,0,-1.88255262,0.0
 2792551,0.29682197\C,0,-0.78232983,-0.97038425,0.46736464\O,0,-0.71996
 501,-1.90594107,-0.59208921\H,0,1.92654771,-1.00610502,-0.8331245\H,0,
 2.28535828,1.11993297,0.01174966\H,0,2.46155206,-0.87818468,0.9263805\

 Normal termination of Gaussian 16 at Wed Apr  9 16:09:29 2025.
