 Gaussian 16, Revision C.01,

 ----------------------------------------------------------------------
 #t hf aug-cc-pvdz symm=none int=(grid=ultrafine) guess=(read,tcheck) s
 table=(opt,rrhf)
 ----------------------------------------------------------------------
 -----
 title
 -----
 Symbolic Z-matrix:
 Charge =  0 Multiplicity = 1

 SCF Done:  E(RHF) =  -322.569206093     A.U. after   15 cycles
 Normal termination of Gaussian 16 at Wed Apr  9 15:32:00 2025.
 Gaussian 16:  ES64L-G16RevC.01  3-Jul-2019

 ----------------------------------------------------------------------
 #t hf aug-cc-pvdz iop(5/13=1,5/36=2,99/5=2) pseudo=read geom=check gue
 ss=(read,tcheck) scf=(maxcycle=1)
 ----------------------------------------------------------------------
 -----
 title
 -----
 Structure from the checkpoint file:  "Grambow2020_wb97xd3_006945_forward_mol1.chk"
 Charge =  0 Multiplicity = 1

                         Standard orientation:
 ---------------------------------------------------------------------
 Center     Atomic      Atomic             Coordinates (Angstroms)
 Number     Number       Type             X           Y           Z
 ---------------------------------------------------------------------
      1          8           0       -1.904662   -0.556844   -0.664369
      2          6           0       -1.443509   -0.024307    0.302800
      3          7           0       -0.010986   -0.396550    0.734904
      4          6           0        0.890073   -1.210542   -0.139043
      5          6           0        1.844815   -0.007543   -0.319106
      6          6           0        0.687516    0.844228    0.184656
      7          6           0       -0.200548    1.769232   -0.084209
      8          1           0       -1.994409    0.396727    1.144853
      9          1           0        0.082188   -0.584158    1.729626
     10          1           0        0.335456   -1.472891   -1.038206
     11          1           0        1.269606   -2.100100    0.359447
     12          1           0        2.705432   -0.053513    0.352055
     13          1           0        2.179933    0.202242   -1.332480
     14          1           0        0.065906    2.615887   -0.715254
 ---------------------------------------------------------------------

 SCF Done:  E(RHF) =  -322.666419512     A.U. after    2 cycles

 The electronic state is 1-A.
 Alpha  occ. eigenvalues --  -20.56088 -15.72125 -11.39990 -11.31034 -11.26492
 Alpha  occ. eigenvalues --  -11.26437 -11.18477  -1.37633  -1.28322  -1.04575
 Alpha  occ. eigenvalues --   -0.99800  -0.87054  -0.84580  -0.78379  -0.73089
 Alpha  occ. eigenvalues --   -0.67240  -0.64909  -0.62353  -0.59430  -0.56787
 Alpha  occ. eigenvalues --   -0.54689  -0.53520  -0.50302  -0.45621  -0.34849
 Alpha  occ. eigenvalues --   -0.30898
 Alpha virt. eigenvalues --    0.01989   0.03619   0.04285   0.04874   0.06459
 Alpha virt. eigenvalues --    0.06585   0.07479   0.09346   0.10485   0.10842
 Alpha virt. eigenvalues --    0.12277   0.12921   0.13106   0.14004   0.14585

 Mulliken charges:
               1
     1  O   -0.548592
     2  C    1.021560
     3  N   -0.615470
     4  C    0.898561
     5  C    0.311711
     6  C    0.404027
     7  C   -0.257406
     8  H   -0.168305
     9  H   -0.020805
    10  H   -0.246653
    11  H   -0.223635
    12  H   -0.116378
    13  H   -0.115165
    14  H   -0.323448
 Sum of Mulliken charges =  -0.00000

 Dipole moment (field-independent basis, Debye):
    X=              3.4765    Y=             -3.0399    Z=              2.9045  Tot=              5.4556

 Test job not archived.
 1\1\GINC-SE057\SP\RHF\Aug-CC-pVDZ\C5H7N1O1\OHZDE\09-Apr-2025\0\\#t hf
 aug-cc-pvdz iop(5/13=1,5/36=2,99/5=2) pseudo=read geom=check guess=(re
 ad,tcheck) scf=(maxcycle=1)\\title\\0,1\O,0,-2.09704201,0.93105127,-0.
 41846857\C,0,-1.1576519,1.35448827,0.18974399\N,0,-0.28385229,0.359812
 97,0.97999598\C,0,-0.43158203,-1.1202678,0.81933919\C,0,0.9808913,-1.2
 1974795,0.19790042\C,0,0.87293956,0.28439019,-0.01315745\C,0,0.7895516
 4,1.27584769,-0.8655875\H,0,-1.03352667,2.36326635,0.58569003\H,0,-0.0
 6976107,0.66318262,1.92629472\H,0,-1.23916037,-1.30045564,0.11204147\H

 Normal termination of Gaussian 16 at Wed Apr  9 15:32:05 2025.
