 Gaussian 16, Revision C.01,

 ----------------------------------------------------------------------
 #t hf aug-cc-pvdz symm=none int=(grid=ultrafine) guess=(read,tcheck) s
 table=(opt,rrhf)
 ----------------------------------------------------------------------
 -----
 title
 -----
 Symbolic Z-matrix:
 Charge =  0 Multiplicity = 1

 SCF Done:  E(RHF) =  -271.084908298     A.U. after   15 cycles

 1\1\GINC-SE054\Stability\RHF\Aug-CC-pVDZ\C5H12O1\OHZDE\09-Apr-2025\0\\
 #t hf aug-cc-pvdz symm=none int=(grid=ultrafine) guess=(read,tcheck) s
 table=(opt,rrhf)\\title\\0,1\C,0,-2.50280866,-0.11025172,0.19405021\C,
 0,-1.24470419,0.16121382,-0.63880823\C,0,0.0415453,0.34001597,0.121385
 5\O,0,0.16386864,-1.26471029,1.30223212\C,0,1.29594368,0.00913216,-0.4
 768063\C,0,2.58251558,0.6920894,-0.05337029\H,0,-3.40119229,-0.0630106
 2,-0.43697665\H,0,-2.4636812,-1.10648072,0.65404677\H,0,-2.61280949,0.
 62398414,1.00316879\H,0,-1.10885279,-0.62632476,-1.39761445\H,0,-1.381

 Normal termination of Gaussian 16 at Wed Apr  9 14:11:28 2025.
 Gaussian 16:  ES64L-G16RevC.01  3-Jul-2019

 ----------------------------------------------------------------------
 #t hf aug-cc-pvdz iop(5/13=1,5/36=2,99/5=2) pseudo=read geom=check gue
 ss=(read,tcheck) scf=(maxcycle=1)
 ----------------------------------------------------------------------
 -----
 title
 -----
 Structure from the checkpoint file:  "Grambow2020_b97d3_006802_reverse_mol1.chk"
 Charge =  0 Multiplicity = 1

                         Standard orientation:
 ---------------------------------------------------------------------
 Center     Atomic      Atomic             Coordinates (Angstroms)
 Number     Number       Type             X           Y           Z
 ---------------------------------------------------------------------
      1          6           0        2.526979   -0.201836    0.221308
      2          6           0        1.215602   -0.837804   -0.254094
      3          6           0       -0.055790   -0.261554    0.307866
      4          8           0        0.079967    1.700969   -0.030629
      5          6           0       -1.274322   -0.316708   -0.435754
      6          6           0       -2.625552   -0.327829    0.253485
      7          1           0        3.388356   -0.794151   -0.117385
      8          1           0        2.638218    0.815812   -0.175704
      9          1           0        2.565294   -0.135924    1.316782
     10          1           0        1.160606   -0.827978   -1.354702
     11          1           0        1.205423   -1.906269    0.030073
     12          1           0       -0.078865   -0.103347    1.386716
     13          1           0        0.782177    1.862597   -0.699161
     14          1           0       -0.860491    0.975715   -0.609097
     15          1           0       -1.208016   -0.862075   -1.384711
     16          1           0       -3.417334   -0.023210   -0.445685
     17          1           0       -2.898545   -1.319584    0.650344
     18          1           0       -2.638058    0.385044    1.090699
 ---------------------------------------------------------------------

 SCF Done:  E(RHF) =  -271.169796415     A.U. after    2 cycles

 The electronic state is 1-A.
 Alpha  occ. eigenvalues --  -20.51738 -11.33384 -11.26405 -11.24258 -11.22725
 Alpha  occ. eigenvalues --  -11.21164  -1.22468  -1.09205  -1.02292  -0.93272
 Alpha  occ. eigenvalues --   -0.84762  -0.78026  -0.66216  -0.64378  -0.61793
 Alpha  occ. eigenvalues --   -0.59506  -0.57158  -0.55536  -0.53770  -0.51448
 Alpha  occ. eigenvalues --   -0.51022  -0.49527  -0.49049  -0.45045  -0.33516
 Alpha virt. eigenvalues --    0.03127   0.04088   0.04333   0.04896   0.05990
 Alpha virt. eigenvalues --    0.06331   0.06791   0.07189   0.08435   0.08965
 Alpha virt. eigenvalues --    0.09317   0.10440   0.11734   0.13582   0.14068

 Mulliken charges:
               1
     1  C    0.461303
     2  C    0.008469
     3  C    0.299274
     4  O   -0.749255
     5  C   -0.159216
     6  C    0.446912
     7  H   -0.025606
     8  H   -0.100644
     9  H   -0.059381
    10  H   -0.068578
    11  H    0.020468
    12  H   -0.440732
    13  H    0.159654
    14  H    0.731204
    15  H   -0.381084
    16  H   -0.030954
    17  H   -0.018858
    18  H   -0.092974
 Sum of Mulliken charges =  -0.00000

 Dipole moment (field-independent basis, Debye):
    X=              1.4518    Y=             -3.0169    Z=             -0.4663  Tot=              3.3804

 Test job not archived.
 1\1\GINC-SE054\SP\RHF\Aug-CC-pVDZ\C5H12O1\OHZDE\09-Apr-2025\0\\#t hf a
 ug-cc-pvdz iop(5/13=1,5/36=2,99/5=2) pseudo=read geom=check guess=(rea
 d,tcheck) scf=(maxcycle=1)\\title\\0,1\C,0,-2.50280866,-0.11025172,0.1
 9405021\C,0,-1.24470419,0.16121382,-0.63880823\C,0,0.0415453,0.3400159
 7,0.1213855\O,0,0.16386864,-1.26471029,1.30223212\C,0,1.29594368,0.009
 13216,-0.4768063\C,0,2.58251558,0.6920894,-0.05337029\H,0,-3.40119229,
 -0.06301062,-0.43697665\H,0,-2.4636812,-1.10648072,0.65404677\H,0,-2.6
 1280949,0.62398414,1.00316879\H,0,-1.10885279,-0.62632476,-1.39761445\

 Normal termination of Gaussian 16 at Wed Apr  9 14:11:34 2025.
