 Gaussian 16, Revision C.01,

 ----------------------------------------------------------------------
 #t hf aug-cc-pvdz symm=none int=(grid=ultrafine) guess=(read,tcheck) s
 table=(opt,rrhf)
 ----------------------------------------------------------------------
 -----
 title
 -----
 Symbolic Z-matrix:
 Charge =  0 Multiplicity = 1

 SCF Done:  E(RHF) =  -301.940391432     A.U. after   15 cycles
 Normal termination of Gaussian 16 at Wed Apr  9 03:15:33 2025.
 Gaussian 16:  ES64L-G16RevC.01  3-Jul-2019

 ----------------------------------------------------------------------
 #t hf aug-cc-pvdz iop(5/13=1,5/36=2,99/5=2) pseudo=read geom=check gue
 ss=(read,tcheck) scf=(maxcycle=1)
 ----------------------------------------------------------------------
 -----
 title
 -----
 Structure from the checkpoint file:  "Grambow2020_b97d3_007040_forward_mol1.chk"
 Charge =  0 Multiplicity = 1

                         Standard orientation:
 ---------------------------------------------------------------------
 Center     Atomic      Atomic             Coordinates (Angstroms)
 Number     Number       Type             X           Y           Z
 ---------------------------------------------------------------------
      1          6           0        1.406334    1.464311   -0.010829
      2          7           0        0.180457    0.710327   -0.002720
      3          6           0       -1.962398    0.742548    0.017262
      4          6           0        0.097853   -0.597722   -0.014754
      5          8           0       -1.078818   -1.106850   -0.020182
      6          7           0        1.199910   -1.440055   -0.067110
      7          1           0        2.112188    1.151778    0.787489
      8          1           0        1.944315    1.411307   -0.975544
      9          1           0        1.174489    2.522128    0.181573
     10          1           0       -2.752982    0.145833   -0.431975
     11          1           0       -2.037975    0.843367    1.097527
     12          1           0       -1.797944    1.685379   -0.498924
     13          1           0        1.008285   -2.389401    0.235532
     14          1           0        2.066868   -1.062322    0.304521
 ---------------------------------------------------------------------

 SCF Done:  E(RHF) =  -302.036532246     A.U. after    2 cycles

 The electronic state is 1-A.
 Alpha  occ. eigenvalues --  -20.52590 -15.63480 -15.57891 -11.35847 -11.34910
 Alpha  occ. eigenvalues --  -11.25799  -1.32520  -1.16909  -1.11773  -0.95360
 Alpha  occ. eigenvalues --   -0.91729  -0.75044  -0.69904  -0.66801  -0.63063
 Alpha  occ. eigenvalues --   -0.62898  -0.59190  -0.57397  -0.55485  -0.54341
 Alpha  occ. eigenvalues --   -0.45181  -0.42435  -0.37831  -0.34095
 Alpha virt. eigenvalues --    0.02972   0.03574   0.04549   0.05030   0.06556
 Alpha virt. eigenvalues --    0.07217   0.07414   0.08714   0.09230   0.11899
 Alpha virt. eigenvalues --    0.12823   0.14061   0.14476   0.15047   0.15399

 Mulliken charges:
               1
     1  C    0.766382
     2  N   -0.543890
     3  C    0.717481
     4  C    0.552736
     5  O   -0.643706
     6  N   -0.243371
     7  H   -0.144502
     8  H   -0.085899
     9  H   -0.264396
    10  H   -0.068570
    11  H   -0.006119
    12  H   -0.061364
    13  H    0.005903
    14  H    0.019315
 Sum of Mulliken charges =   0.00000

 Dipole moment (field-independent basis, Debye):
    X=              0.5408    Y=              1.8994    Z=              1.0920  Tot=              2.2567

 Test job not archived.
 1\1\GINC-SE120\SP\RHF\Aug-CC-pVDZ\C3H8N2O1\OHZDE\09-Apr-2025\0\\#t hf
 aug-cc-pvdz iop(5/13=1,5/36=2,99/5=2) pseudo=read geom=check guess=(re
 ad,tcheck) scf=(maxcycle=1)\\title\\0,1\C,0,-0.882254,-0.96525516,1.20
 457821\N,0,-0.39213744,-0.09456165,0.1687152\C,0,-0.85555965,1.3057882
 7,-1.38612418\C,0,0.87061729,0.08271392,-0.13457054\O,0,1.13215656,0.9
 0965207,-1.07879868\N,0,1.91882557,-0.53439465,0.53418397\H,0,-0.48643
 218,-1.99968551,1.12396775\H,0,-0.66006962,-0.59825845,2.2238208\H,0,-
 1.97524836,-1.04701823,1.11278731\H,0,-0.40217416,2.21533691,-1.773511

 Normal termination of Gaussian 16 at Wed Apr  9 03:15:37 2025.
