 Gaussian 16, Revision C.01,

 ----------------------------------------------------------------------
 #t hf aug-cc-pvdz symm=none int=(grid=ultrafine) guess=(read,tcheck) s
 table=(opt,rrhf)
 ----------------------------------------------------------------------
 -----
 title
 -----
 Symbolic Z-matrix:
 Charge =  0 Multiplicity = 1

 SCF Done:  E(RHF) =  -359.707700015     A.U. after   15 cycles
 Normal termination of Gaussian 16 at Wed Apr  9 17:10:23 2025.
 Gaussian 16:  ES64L-G16RevC.01  3-Jul-2019

 ----------------------------------------------------------------------
 #t hf aug-cc-pvdz iop(5/13=1,5/36=2,99/5=2) pseudo=read geom=check gue
 ss=(read,tcheck) scf=(maxcycle=1)
 ----------------------------------------------------------------------
 -----
 title
 -----
 Structure from the checkpoint file:  "Grambow2020_wb97xd3_009388_forward_mol1.chk"
 Charge =  0 Multiplicity = 1

                         Standard orientation:
 ---------------------------------------------------------------------
 Center     Atomic      Atomic             Coordinates (Angstroms)
 Number     Number       Type             X           Y           Z
 ---------------------------------------------------------------------
      1          6           0        0.779002    1.975360    0.004835
      2          7           0        0.140163    0.692747    0.070095
      3          6           0       -1.437484   -0.131476    0.342867
      4          8           0       -2.306761   -0.000059   -0.452243
      5          6           0        0.621359   -0.495467    0.008598
      6          8           0       -0.355372   -1.338958    0.130212
      7          6           0        2.020635   -0.968359   -0.148500
      8          1           0        0.284589    2.591501   -0.747459
      9          1           0        0.708950    2.488998    0.966031
     10          1           0        1.835318    1.887541   -0.262158
     11          1           0       -1.512111   -0.066839    1.434906
     12          1           0        2.713916   -0.144727   -0.305147
     13          1           0        2.072663   -1.654292   -0.993682
     14          1           0        2.311532   -1.519628    0.746284
 ---------------------------------------------------------------------

 SCF Done:  E(RHF) =  -359.823036340     A.U. after    2 cycles

 The electronic state is 1-A.
 Alpha  occ. eigenvalues --  -20.59614 -20.53481 -15.64704 -11.40743 -11.38434
 Alpha  occ. eigenvalues --  -11.28930 -11.27381  -1.41810  -1.34113  -1.20097
 Alpha  occ. eigenvalues --   -1.04022  -0.97499  -0.85710  -0.75084  -0.71752
 Alpha  occ. eigenvalues --   -0.70924  -0.67638  -0.63595  -0.60841  -0.60683
 Alpha  occ. eigenvalues --   -0.59179  -0.57576  -0.56221  -0.55651  -0.44609
 Alpha  occ. eigenvalues --   -0.40981  -0.40265
 Alpha virt. eigenvalues --    0.02384   0.03777   0.04068   0.05504   0.06309
 Alpha virt. eigenvalues --    0.06610   0.07566   0.09748   0.10967   0.11932
 Alpha virt. eigenvalues --    0.12449   0.13184   0.13579   0.14223   0.14930

 Mulliken charges:
               1
     1  C    0.748019
     2  N   -0.541505
     3  C    1.132286
     4  O   -0.504827
     5  C    0.094107
     6  O   -0.725202
     7  C    0.361014
     8  H   -0.120170
     9  H   -0.116670
    10  H   -0.236358
    11  H   -0.097809
    12  H   -0.106220
    13  H    0.049575
    14  H    0.063760
 Sum of Mulliken charges =  -0.00000

 Dipole moment (field-independent basis, Debye):
    X=              5.9076    Y=              1.7288    Z=              1.8922  Tot=              6.4396

 Test job not archived.
 1\1\GINC-SE454\SP\RHF\Aug-CC-pVDZ\C4H7N1O2\OHZDE\09-Apr-2025\0\\#t hf
 aug-cc-pvdz iop(5/13=1,5/36=2,99/5=2) pseudo=read geom=check guess=(re
 ad,tcheck) scf=(maxcycle=1)\\title\\0,1\C,0,-1.43537277,-0.10835195,-0
 .9995168\N,0,-0.59907654,0.02522789,0.15816858\C,0,-0.60914723,0.37960
 804,1.92367979\O,0,-1.11607212,-0.391116,2.66807447\C,0,0.6774125,-0.0
 0775433,0.28728893\O,0,0.96684658,0.17680951,1.53726308\C,0,1.75010675
 ,-0.19265291,-0.72336338\H,0,-2.19741962,-0.86650542,-0.81375393\H,0,-
 1.93948851,0.83488805,-1.22041069\H,0,-0.86113168,-0.40614056,-1.88063

 Normal termination of Gaussian 16 at Wed Apr  9 17:10:27 2025.
