 Gaussian 16, Revision C.01,

 ----------------------------------------------------------------------
 #t hf aug-cc-pvdz symm=none int=(grid=ultrafine) guess=(read,tcheck) s
 table=(opt,rrhf)
 ----------------------------------------------------------------------
 -----
 title
 -----
 Symbolic Z-matrix:
 Charge =  0 Multiplicity = 1

 SCF Done:  E(RHF) =  -310.064532002     A.U. after   15 cycles

 1\1\GINC-SE232\Stability\RHF\Aug-CC-pVDZ\C6H14O1\OHZDE\09-Apr-2025\0\\
 #t hf aug-cc-pvdz symm=none int=(grid=ultrafine) guess=(read,tcheck) s
 table=(opt,rrhf)\\title\\0,1\C,0,2.42715231,-1.40575605,-0.73007756\O,
 0,1.16804721,-1.08946058,-0.5056211\C,0,0.77950752,-0.01659151,0.10578
 632\C,0,-0.69702924,0.23487027,0.22789589\C,0,-0.89654524,1.73677681,0
 .45053088\C,0,-1.42915829,-0.20562184,-1.04057513\C,0,-1.24914787,-0.5
 3659063,1.43972857\H,0,2.50230513,0.36621705,-1.48958901\H,0,2.5405457
 2,-2.3247139,-1.28441282\H,0,3.16393163,-1.10362199,0.00481089\H,0,1.9

 Normal termination of Gaussian 16 at Wed Apr  9 16:36:45 2025.
 Gaussian 16:  ES64L-G16RevC.01  3-Jul-2019

 ----------------------------------------------------------------------
 #t hf aug-cc-pvdz iop(5/13=1,5/36=2,99/5=2) pseudo=read geom=check gue
 ss=(read,tcheck) scf=(maxcycle=1)
 ----------------------------------------------------------------------
 -----
 title
 -----
 Structure from the checkpoint file:  "Grambow2020_wb97xd3_008659_reverse_mol1.chk"
 Charge =  0 Multiplicity = 1

                         Standard orientation:
 ---------------------------------------------------------------------
 Center     Atomic      Atomic             Coordinates (Angstroms)
 Number     Number       Type             X           Y           Z
 ---------------------------------------------------------------------
      1          6           0       -2.779991   -0.071887   -0.106049
      2          8           0       -1.503434   -0.322249    0.102492
      3          6           0       -0.529845    0.376290   -0.387406
      4          6           0        0.874352    0.001798   -0.004927
      5          6           0        1.758552    1.234222   -0.215677
      6          6           0        0.938455   -0.441562    1.457396
      7          6           0        1.365855   -1.138222   -0.914490
      8          1           0       -2.300157    1.696985    0.496652
      9          1           0       -3.435639   -0.750289    0.417903
     10          1           0       -3.063601    0.349592   -1.063186
     11          1           0       -1.531760    1.917187    0.430552
     12          1           0       -0.717518    0.906830   -1.318352
     13          1           0        1.699791    1.593231   -1.246351
     14          1           0        2.802942    0.991283   -0.007841
     15          1           0        1.456008    2.048929    0.444587
     16          1           0        0.330353   -1.330289    1.631336
     17          1           0        0.577756    0.347325    2.119991
     18          1           0        1.969006   -0.678300    1.731281
     19          1           0        0.746568   -2.028724   -0.789108
     20          1           0        2.398586   -1.404539   -0.674098
     21          1           0        1.330872   -0.845059   -1.966391
 ---------------------------------------------------------------------

 SCF Done:  E(RHF) =  -310.168298417     A.U. after    2 cycles

 The electronic state is 1-A.
 Alpha  occ. eigenvalues --  -20.67972 -11.31221 -11.27540 -11.25904 -11.23148
 Alpha  occ. eigenvalues --  -11.23004 -11.22458  -1.45167  -1.11428  -1.00327
 Alpha  occ. eigenvalues --   -0.93813  -0.93657  -0.84863  -0.78728  -0.71283
 Alpha  occ. eigenvalues --   -0.68970  -0.68578  -0.61465  -0.60367  -0.59779
 Alpha  occ. eigenvalues --   -0.55100  -0.54465  -0.54282  -0.52176  -0.50891
 Alpha  occ. eigenvalues --   -0.48459  -0.47825  -0.47430  -0.25648
 Alpha virt. eigenvalues --    0.03305   0.04164   0.04451   0.04860   0.06017
 Alpha virt. eigenvalues --    0.06254   0.06741   0.06915   0.07460   0.08240
 Alpha virt. eigenvalues --    0.08571   0.09270   0.09465   0.09624   0.11602

 Mulliken charges:
               1
     1  C    0.750610
     2  O   -0.176302
     3  C    0.737709
     4  C   -3.682366
     5  C    1.209451
     6  C    1.261990
     7  C    1.124937
     8  H   -0.033224
     9  H   -0.426196
    10  H   -0.266679
    11  H    0.222466
    12  H   -0.530782
    13  H   -0.037530
    14  H   -0.012499
    15  H    0.005575
    16  H   -0.036286
    17  H   -0.009966
    18  H   -0.003162
    19  H   -0.040918
    20  H   -0.037967
    21  H   -0.018861
 Sum of Mulliken charges =  -0.00000

 Dipole moment (field-independent basis, Debye):
    X=              1.4937    Y=             -0.5436    Z=             -1.2139  Tot=              2.0000

 Test job not archived.
 1\1\GINC-SE232\SP\RHF\Aug-CC-pVDZ\C6H14O1\OHZDE\09-Apr-2025\0\\#t hf a
 ug-cc-pvdz iop(5/13=1,5/36=2,99/5=2) pseudo=read geom=check guess=(rea
 d,tcheck) scf=(maxcycle=1)\\title\\0,1\C,0,2.42715231,-1.40575605,-0.7
 3007756\O,0,1.16804721,-1.08946058,-0.5056211\C,0,0.77950752,-0.016591
 51,0.10578632\C,0,-0.69702924,0.23487027,0.22789589\C,0,-0.89654524,1.
 73677681,0.45053088\C,0,-1.42915829,-0.20562184,-1.04057513\C,0,-1.249
 14787,-0.53659063,1.43972857\H,0,2.50230513,0.36621705,-1.48958901\H,0
 ,2.54054572,-2.3247139,-1.28441282\H,0,3.16393163,-1.10362199,0.004810

 Normal termination of Gaussian 16 at Wed Apr  9 16:36:54 2025.
