 Gaussian 16, Revision C.01,

 ----------------------------------------------------------------------
 #t hf aug-cc-pvdz symm=none int=(grid=ultrafine) guess=(read,tcheck) s
 table=(opt,rrhf)
 ----------------------------------------------------------------------
 -----
 title
 -----
 Symbolic Z-matrix:
 Charge =  0 Multiplicity = 1

 SCF Done:  E(RHF) =  -301.628309296     A.U. after   14 cycles
 Normal termination of Gaussian 16 at Wed Apr  9 16:46:04 2025.
 Gaussian 16:  ES64L-G16RevC.01  3-Jul-2019

 ----------------------------------------------------------------------
 #t hf aug-cc-pvdz iop(5/13=1,5/36=2,99/5=2) pseudo=read geom=check gue
 ss=(read,tcheck) scf=(maxcycle=1)
 ----------------------------------------------------------------------
 -----
 title
 -----
 Structure from the checkpoint file:  "Grambow2020_wb97xd3_008855_reverse_mol2.chk"
 Charge =  0 Multiplicity = 1

                         Standard orientation:
 ---------------------------------------------------------------------
 Center     Atomic      Atomic             Coordinates (Angstroms)
 Number     Number       Type             X           Y           Z
 ---------------------------------------------------------------------
      1          7           0       -2.252468   -0.020288   -0.200279
      2          6           0       -1.005698    0.013206   -0.048543
      3          6           0       -0.013709    1.098525   -0.267208
      4          6           0        0.796422    0.550901    0.860043
      5          6           0        0.071925   -0.824114    0.629061
      6          6           0        1.073923   -0.998279   -0.514179
      7          7           0        1.319622    0.475301   -0.500898
      8          1           0       -0.157338    2.117501   -0.590474
      9          1           0        1.261519    1.038188    1.703968
     10          1           0       -0.176537   -1.596152    1.350747
     11          1           0       -2.640707   -0.886127    0.168715
     12          1           0        1.996660   -1.496379   -0.218385
     13          1           0        0.709145   -1.403553   -1.461369
 ---------------------------------------------------------------------

 SCF Done:  E(RHF) =  -301.712945851     A.U. after    2 cycles

 The electronic state is 1-A.
 Alpha  occ. eigenvalues --  -15.64861 -15.61255 -11.30976 -11.29598 -11.28448
 Alpha  occ. eigenvalues --  -11.28392 -11.27234  -1.33204  -1.17931  -1.01272
 Alpha  occ. eigenvalues --   -0.99319  -0.87606  -0.78031  -0.74356  -0.70416
 Alpha  occ. eigenvalues --   -0.65949  -0.61916  -0.60599  -0.56531  -0.52910
 Alpha  occ. eigenvalues --   -0.47320  -0.45125  -0.43762  -0.40435  -0.37390
 Alpha virt. eigenvalues --    0.02678   0.03657   0.04454   0.04566   0.06271
 Alpha virt. eigenvalues --    0.06953   0.09642   0.09901   0.11604   0.12215
 Alpha virt. eigenvalues --    0.12882   0.13564   0.13623   0.14300   0.14841

 Mulliken charges:
               1
     1  N   -0.353343
     2  C   -0.055579
     3  C    0.960128
     4  C    0.477440
     5  C    0.614359
     6  C    0.853561
     7  N   -0.968253
     8  H   -0.305293
     9  H   -0.376787
    10  H   -0.380701
    11  H   -0.015827
    12  H   -0.235726
    13  H   -0.213978
 Sum of Mulliken charges =  -0.00000

 Dipole moment (field-independent basis, Debye):
    X=              1.1904    Y=             -1.9355    Z=              1.9622  Tot=              3.0023

 Test job not archived.
 1\1\GINC-SE118\SP\RHF\Aug-CC-pVDZ\C5H6N2\OHZDE\09-Apr-2025\0\\#t hf au
 g-cc-pvdz iop(5/13=1,5/36=2,99/5=2) pseudo=read geom=check guess=(read
 ,tcheck) scf=(maxcycle=1)\\title\\0,1\N,0,1.68722865,-0.85657083,1.400
 22707\C,0,0.86015426,-0.38797654,0.57867504\C,0,1.04508711,0.41236644,
 -0.66028595\C,0,-0.16198755,-0.24856173,-1.23738365\C,0,-0.61319092,-0
 .56637146,0.23378124\C,0,-1.09815152,0.88482146,0.2473682\N,0,-0.20898
 008,1.17520515,-0.91754897\H,0,1.94917155,0.75219344,-1.1404864\H,0,-0
 .33259753,-0.69871354,-2.20393954\H,0,-1.18728316,-1.40914762,0.606276

 Normal termination of Gaussian 16 at Wed Apr  9 16:46:08 2025.
