 Gaussian 16, Revision C.01,

 ----------------------------------------------------------------------
 #t hf aug-cc-pvdz symm=none int=(grid=ultrafine) guess=(read,tcheck) s
 table=(opt,rrhf)
 ----------------------------------------------------------------------
 -----
 title
 -----
 Symbolic Z-matrix:
 Charge =  0 Multiplicity = 1

 SCF Done:  E(RHF) =  -232.939114606     A.U. after   14 cycles
 Normal termination of Gaussian 16 at Wed Apr  9 03:07:01 2025.
 Gaussian 16:  ES64L-G16RevC.01  3-Jul-2019

 ----------------------------------------------------------------------
 #t hf aug-cc-pvdz iop(5/13=1,5/36=2,99/5=2) pseudo=read geom=check gue
 ss=(read,tcheck) scf=(maxcycle=1)
 ----------------------------------------------------------------------
 -----
 title
 -----
 Structure from the checkpoint file:  "Grambow2020_b97d3_006594_reverse_mol2.chk"
 Charge =  0 Multiplicity = 1

                         Standard orientation:
 ---------------------------------------------------------------------
 Center     Atomic      Atomic             Coordinates (Angstroms)
 Number     Number       Type             X           Y           Z
 ---------------------------------------------------------------------
      1          6           0        1.347830   -0.732293    0.052950
      2          6           0        2.441818   -0.007103   -0.266631
      3          6           0       -0.031187   -0.275547   -0.052079
      4          6           0       -0.644623    0.837353   -0.527748
      5          6           0       -2.033750    0.384486   -0.141378
      6          6           0       -1.333296   -0.914319    0.404343
      7          1           0        1.617837    2.369718    1.776702
      8          1           0        1.489706   -1.746885    0.436899
      9          1           0        3.446474   -0.415298   -0.157990
     10          1           0        2.364673    1.014506   -0.642320
     11          1           0       -0.275184    1.746508   -1.006607
     12          1           0        1.179220    2.972128    1.748516
     13          1           0       -2.735323    0.220926   -0.973149
     14          1           0       -2.533245    0.993397    0.627412
     15          1           0       -1.609759   -1.842839   -0.115584
     16          1           0       -1.425152   -1.067625    1.489377
 ---------------------------------------------------------------------

 SCF Done:  E(RHF) =  -233.013364931     A.U. after    2 cycles

 The electronic state is 1-A.
 Alpha  occ. eigenvalues --  -11.25163 -11.24511 -11.24370 -11.23860 -11.23836
 Alpha  occ. eigenvalues --  -11.23786  -1.14191  -1.03783  -0.89232  -0.88478
 Alpha  occ. eigenvalues --   -0.79706  -0.69233  -0.67090  -0.62596  -0.61871
 Alpha  occ. eigenvalues --   -0.58633  -0.55380  -0.50935  -0.50579  -0.46523
 Alpha  occ. eigenvalues --   -0.46080  -0.42496  -0.31065
 Alpha virt. eigenvalues --    0.03818   0.04080   0.04497   0.05381   0.06075
 Alpha virt. eigenvalues --    0.06262   0.06962   0.07968   0.08460   0.08560
 Alpha virt. eigenvalues --    0.09320   0.10742   0.12290   0.14048   0.14267

 Mulliken charges:
               1
     1  C    0.659835
     2  C    0.660639
     3  C    0.002836
     4  C   -0.183262
     5  C    0.670462
     6  C   -0.122844
     7  H    0.002723
     8  H   -0.432818
     9  H   -0.342501
    10  H   -0.318221
    11  H   -0.344451
    12  H    0.010072
    13  H   -0.068955
    14  H   -0.066240
    15  H   -0.054861
    16  H   -0.072412
 Sum of Mulliken charges =   0.00000

 Dipole moment (field-independent basis, Debye):
    X=             -0.0787    Y=             -0.0266    Z=              0.0349  Tot=              0.0901

 Test job not archived.
 1\1\GINC-SE126\SP\RHF\Aug-CC-pVDZ\C6H10\OHZDE\09-Apr-2025\0\\#t hf aug
 -cc-pvdz iop(5/13=1,5/36=2,99/5=2) pseudo=read geom=check guess=(read,
 tcheck) scf=(maxcycle=1)\\title\\0,1\C,0,-1.32341924,0.68711837,-0.533
 7857\C,0,-2.29881241,-0.23429532,-0.69014563\C,0,0.09230489,0.39863148
 ,-0.34983686\C,0,0.85755027,-0.72178848,-0.36284199\C,0,2.13969153,0.0
 0329106,-0.02458468\C,0,1.2630978,1.30976092,-0.01678289\H,0,-1.541242
 44,-1.69380391,2.10258684\H,0,-1.60239882,1.74499164,-0.52968513\H,0,-
 3.34099922,0.05702742,-0.81952375\H,0,-2.08422057,-1.30421493,-0.69015

 Normal termination of Gaussian 16 at Wed Apr  9 03:07:06 2025.
