 Gaussian 16, Revision C.01,

 ----------------------------------------------------------------------
 #t hf aug-cc-pvdz symm=none int=(grid=ultrafine) guess=(read,tcheck) s
 table=(opt,rrhf)
 ----------------------------------------------------------------------
 -----
 title
 -----
 Symbolic Z-matrix:
 Charge =  0 Multiplicity = 1

 SCF Done:  E(RHF) =  -286.869115456     A.U. after   14 cycles
 Normal termination of Gaussian 16 at Wed Apr  9 15:58:09 2025.
 Gaussian 16:  ES64L-G16RevC.01  3-Jul-2019

 ----------------------------------------------------------------------
 #t hf aug-cc-pvdz iop(5/13=1,5/36=2,99/5=2) pseudo=read geom=check gue
 ss=(read,tcheck) scf=(maxcycle=1)
 ----------------------------------------------------------------------
 -----
 title
 -----
 Structure from the checkpoint file:  "Grambow2020_wb97xd3_007625_reverse_mol2.chk"
 Charge =  0 Multiplicity = 1

                         Standard orientation:
 ---------------------------------------------------------------------
 Center     Atomic      Atomic             Coordinates (Angstroms)
 Number     Number       Type             X           Y           Z
 ---------------------------------------------------------------------
      1          6           0       -2.465393   -0.041619    0.209123
      2          6           0       -0.999585   -0.075958   -0.061812
      3          6           0       -0.188745    1.200340   -0.163593
      4          6           0        1.236128    0.707663   -0.310562
      5          6           0        1.201457   -0.771326   -0.347286
      6          7           0        1.719118   -0.060788    0.839459
      7          6           0       -0.228842   -1.152100   -0.201883
      8          1           0       -2.894955   -1.043484    0.211166
      9          1           0       -2.988288    0.559069   -0.540565
     10          1           0       -2.666228    0.417611    1.181039
     11          1           0       -0.500050    1.795657   -1.028395
     12          1           0       -0.312118    1.825277    0.725790
     13          1           0        1.951060    1.276568   -0.891923
     14          1           0        1.890008   -1.357223   -0.943518
     15          1           0        2.733303   -0.073304    0.824788
     16          1           0       -0.576679   -2.176658   -0.158520
 ---------------------------------------------------------------------

 SCF Done:  E(RHF) =  -286.953625962     A.U. after    2 cycles

 The electronic state is 1-A.
 Alpha  occ. eigenvalues --  -15.61659 -11.26314 -11.26165 -11.23820 -11.23270
 Alpha  occ. eigenvalues --  -11.22980 -11.22092  -1.24744  -1.08604  -0.96537
 Alpha  occ. eigenvalues --   -0.95601  -0.84767  -0.77940  -0.72729  -0.70043
 Alpha  occ. eigenvalues --   -0.62560  -0.59162  -0.58353  -0.55389  -0.53091
 Alpha  occ. eigenvalues --   -0.52041  -0.49698  -0.47438  -0.45906  -0.37387
 Alpha  occ. eigenvalues --   -0.33137
 Alpha virt. eigenvalues --    0.03280   0.03952   0.04259   0.04972   0.05992
 Alpha virt. eigenvalues --    0.06349   0.06735   0.08170   0.08772   0.10696
 Alpha virt. eigenvalues --    0.12003   0.12839   0.13626   0.14193   0.14417

 Mulliken charges:
               1
     1  C    0.534193
     2  C   -0.941489
     3  C    0.132536
     4  C    0.804088
     5  C    0.416930
     6  N   -0.686149
     7  C    0.724995
     8  H   -0.122520
     9  H    0.035235
    10  H    0.059157
    11  H    0.022462
    12  H    0.057345
    13  H   -0.314144
    14  H   -0.322380
    15  H   -0.021296
    16  H   -0.378964
 Sum of Mulliken charges =  -0.00000

 Dipole moment (field-independent basis, Debye):
    X=              0.3856    Y=              0.3715    Z=             -1.4215  Tot=              1.5190

 Test job not archived.
 1\1\GINC-SE163\SP\RHF\Aug-CC-pVDZ\C6H9N1\OHZDE\09-Apr-2025\0\\#t hf au
 g-cc-pvdz iop(5/13=1,5/36=2,99/5=2) pseudo=read geom=check guess=(read
 ,tcheck) scf=(maxcycle=1)\\title\\0,1\C,0,1.85759946,-1.04361982,0.830
 26059\C,0,0.59795161,-0.35287818,0.43108529\C,0,0.60381683,0.76127297,
 -0.59623655\C,0,-0.86511907,1.07634133,-0.79002505\C,0,-1.63766395,0.2
 1510455,0.13269249\N,0,-1.64635303,-0.04333516,-1.32138324\C,0,-0.6369
 0934,-0.61789976,0.85135744\H,0,1.67640118,-1.78909131,1.60466413\H,0,
 2.5956456,-0.32768344,1.20308828\H,0,2.30902293,-1.54723467,-0.0290632

 Normal termination of Gaussian 16 at Wed Apr  9 15:58:14 2025.
