 Gaussian 16, Revision C.01,

 ----------------------------------------------------------------------
 #t hf aug-cc-pvdz symm=none int=(grid=ultrafine) guess=(read,tcheck) s
 table=(opt,rrhf)
 ----------------------------------------------------------------------
 -----
 title
 -----
 Symbolic Z-matrix:
 Charge =  0 Multiplicity = 1

 SCF Done:  E(RHF) =  -358.477954705     A.U. after   15 cycles
 Normal termination of Gaussian 16 at Wed Apr  9 03:28:05 2025.
 Gaussian 16:  ES64L-G16RevC.01  3-Jul-2019

 ----------------------------------------------------------------------
 #t hf aug-cc-pvdz iop(5/13=1,5/36=2,99/5=2) pseudo=read geom=check gue
 ss=(read,tcheck) scf=(maxcycle=1)
 ----------------------------------------------------------------------
 -----
 title
 -----
 Structure from the checkpoint file:  "Grambow2020_wb97xd3_006779_reverse_mol2.chk"
 Charge =  0 Multiplicity = 1

                         Standard orientation:
 ---------------------------------------------------------------------
 Center     Atomic      Atomic             Coordinates (Angstroms)
 Number     Number       Type             X           Y           Z
 ---------------------------------------------------------------------
      1          8           0        3.445760   -0.229211    0.191018
      2          6           0        2.452410   -0.501101   -0.257746
      3          6           0        0.085647    0.861142    0.805733
      4          6           0       -0.437857    1.219020   -0.521557
      5          7           0       -0.538927   -0.234180   -0.258378
      6          6           0       -1.777450   -0.854431   -0.029078
      7          8           0       -2.795196   -0.268854    0.177577
      8          1           0        0.213891   -0.819334   -0.602622
      9          1           0       -0.736523    0.963407    1.524931
     10          1           0        0.267280    1.422629   -1.325654
     11          1           0       -1.419332    1.662509   -0.677244
     12          1           0       -1.693839   -1.953216   -0.043637
 ---------------------------------------------------------------------

 SCF Done:  E(RHF) =  -358.589413935     A.U. after    2 cycles

 The electronic state is 1-A.
 Alpha  occ. eigenvalues --  -20.67416 -20.59683 -15.71816 -11.40653 -11.36932
 Alpha  occ. eigenvalues --  -11.29433 -11.23893  -1.48545  -1.40890  -1.27721
 Alpha  occ. eigenvalues --   -1.02325  -0.84749  -0.82218  -0.81005  -0.78593
 Alpha  occ. eigenvalues --   -0.69958  -0.65353  -0.65104  -0.64686  -0.61034
 Alpha  occ. eigenvalues --   -0.59326  -0.55948  -0.51817  -0.49287  -0.46259
 Alpha  occ. eigenvalues --   -0.33381
 Alpha virt. eigenvalues --    0.02702   0.03778   0.04934   0.05756   0.06895
 Alpha virt. eigenvalues --    0.07983   0.08872   0.09523   0.10187   0.11088
 Alpha virt. eigenvalues --    0.12169   0.13195   0.13938   0.14540   0.14795

 Mulliken charges:
               1
     1  O   -0.246758
     2  C    0.229200
     3  C    0.040218
     4  C    0.983025
     5  N   -0.372196
     6  C    0.657900
     7  O   -0.390224
     8  H   -0.009815
     9  H   -0.174987
    10  H   -0.294205
    11  H   -0.237453
    12  H   -0.184704
 Sum of Mulliken charges =  -0.00000

 Dipole moment (field-independent basis, Debye):
    X=              0.0348    Y=             -2.2271    Z=             -2.8990  Tot=              3.6559

 Test job not archived.
 1\1\GINC-SE072\SP\RHF\Aug-CC-pVDZ\C4H5N1O2\OHZDE\09-Apr-2025\0\\#t hf
 aug-cc-pvdz iop(5/13=1,5/36=2,99/5=2) pseudo=read geom=check guess=(re
 ad,tcheck) scf=(maxcycle=1)\\title\\0,1\O,0,3.58351356,-0.03925352,-0.
 85255481\C,0,2.5119335,-0.32208313,-1.03635068\C,0,0.52760896,0.619864
 64,0.90361082\C,0,-0.38535476,1.14546437,-0.12306981\N,0,-0.34769039,-
 0.33434351,-0.11888284\C,0,-1.43496194,-1.09518956,0.33957483\O,0,-2.3
 6395171,-0.6483561,0.93851554\H,0,0.28736816,-0.78201544,-0.7699861\H,
 0,-0.04216852,0.52436681,1.83629574\H,0,0.0358392,1.54469263,-1.044189

 Normal termination of Gaussian 16 at Wed Apr  9 03:28:10 2025.
