 Gaussian 16, Revision C.01,

 ----------------------------------------------------------------------
 #t hf aug-cc-pvdz symm=none int=(grid=ultrafine) guess=(read,tcheck) s
 table=(opt,rrhf)
 ----------------------------------------------------------------------
 -----
 title
 -----
 Symbolic Z-matrix:
 Charge =  0 Multiplicity = 1

 SCF Done:  E(RHF) =  -304.558879505     A.U. after   16 cycles
 Normal termination of Gaussian 16 at Wed Apr  9 03:14:50 2025.
 Gaussian 16:  ES64L-G16RevC.01  3-Jul-2019

 ----------------------------------------------------------------------
 #t hf aug-cc-pvdz iop(5/13=1,5/36=2,99/5=2) pseudo=read geom=check gue
 ss=(read,tcheck) scf=(maxcycle=1)
 ----------------------------------------------------------------------
 -----
 title
 -----
 Structure from the checkpoint file:  "Grambow2020_b97d3_007027_reverse_mol2.chk"
 Charge =  0 Multiplicity = 1

                         Standard orientation:
 ---------------------------------------------------------------------
 Center     Atomic      Atomic             Coordinates (Angstroms)
 Number     Number       Type             X           Y           Z
 ---------------------------------------------------------------------
      1          8           0       -1.522276   -1.383450    0.133031
      2          6           0       -1.163475    0.490716   -0.688613
      3          6           0       -0.799071    1.316540    0.494392
      4          6           0        0.318647    0.763840   -0.370670
      5          6           0        1.212746   -0.218080    0.288676
      6          8           0        2.343896   -0.496799   -0.078196
      7          1           0       -2.454278   -1.192499   -0.093847
      8          1           0       -1.179281   -1.803158   -0.682073
      9          1           0       -1.075329    2.373618    0.453027
     10          1           0       -0.837749    0.886243    1.499554
     11          1           0        0.808786    1.360656   -1.143002
     12          1           0        0.751813   -0.700969    1.184947
 ---------------------------------------------------------------------

 SCF Done:  E(RHF) =  -304.650808324     A.U. after    2 cycles

 The electronic state is 1-A.
 Alpha  occ. eigenvalues --  -20.63634 -20.56990 -11.35225 -11.31083 -11.26772
 Alpha  occ. eigenvalues --  -11.26442  -1.36411  -1.34740  -1.15842  -0.91435
 Alpha  occ. eigenvalues --   -0.81382  -0.77214  -0.75723  -0.67655  -0.65666
 Alpha  occ. eigenvalues --   -0.65195  -0.60845  -0.57728  -0.55198  -0.51888
 Alpha  occ. eigenvalues --   -0.45283  -0.43503  -0.36713
 Alpha virt. eigenvalues --    0.02890   0.03934   0.04663   0.05233   0.06537
 Alpha virt. eigenvalues --    0.07397   0.07752   0.09941   0.10957   0.11274
 Alpha virt. eigenvalues --    0.12496   0.13473   0.15093   0.15424   0.15775

 Mulliken charges:
               1
     1  O   -0.445696
     2  C   -0.190629
     3  C    0.757741
     4  C    0.449228
     5  C    0.367837
     6  O   -0.484621
     7  H    0.269592
     8  H    0.275213
     9  H   -0.298547
    10  H   -0.247158
    11  H   -0.363625
    12  H   -0.089334
 Sum of Mulliken charges =  -0.00000

 Dipole moment (field-independent basis, Debye):
    X=             -3.9453    Y=              0.3069    Z=              0.8417  Tot=              4.0458

 Test job not archived.
 1\1\GINC-SE080\SP\RHF\Aug-CC-pVDZ\C4H6O2\OHZDE\09-Apr-2025\0\\#t hf au
 g-cc-pvdz iop(5/13=1,5/36=2,99/5=2) pseudo=read geom=check guess=(read
 ,tcheck) scf=(maxcycle=1)\\title\\0,1\O,0,-1.74035837,0.73341342,0.449
 91093\C,0,-0.71054982,-0.62436634,-0.73847676\C,0,0.41626351,0.1832153
 9,-1.27919744\C,0,0.68157803,-0.71599222,-0.08582532\C,0,1.04789731,-0
 .02026907,1.17119351\O,0,1.63988905,-0.52947396,2.11036159\H,0,-2.4257
 0084,0.6669721,-0.24467914\H,0,-1.97936045,0.00982762,1.06431783\H,0,0
 .77080408,-0.08465087,-2.27819279\H,0,0.48542898,1.25182551,-1.0549441

 Normal termination of Gaussian 16 at Wed Apr  9 03:14:54 2025.
