 Gaussian 16, Revision C.01,

 ----------------------------------------------------------------------
 #t hf aug-cc-pvdz symm=none int=(grid=ultrafine) guess=(read,tcheck) s
 table=(opt,rrhf)
 ----------------------------------------------------------------------
 -----
 title
 -----
 Symbolic Z-matrix:
 Charge =  0 Multiplicity = 1

 SCF Done:  E(RHF) =  -337.497029005     A.U. after   16 cycles
 Normal termination of Gaussian 16 at Wed Apr  9 16:44:51 2025.
 Gaussian 16:  ES64L-G16RevC.01  3-Jul-2019

 ----------------------------------------------------------------------
 #t hf aug-cc-pvdz iop(5/13=1,5/36=2,99/5=2) pseudo=read geom=check gue
 ss=(read,tcheck) scf=(maxcycle=1)
 ----------------------------------------------------------------------
 -----
 title
 -----
 Structure from the checkpoint file:  "Grambow2020_wb97xd3_008699_reverse_mol2.chk"
 Charge =  0 Multiplicity = 1

                         Standard orientation:
 ---------------------------------------------------------------------
 Center     Atomic      Atomic             Coordinates (Angstroms)
 Number     Number       Type             X           Y           Z
 ---------------------------------------------------------------------
      1          8           0       -2.655516   -0.128097    0.080103
      2          6           0       -1.582912   -0.647218   -0.044957
      3          6           0       -0.298777    0.160059   -0.091229
      4          6           0        0.970181   -0.583794   -0.271694
      5          7           0        2.074285   -0.345603    0.761140
      6          6           0        2.222233    0.135853   -0.371779
      7          7           0       -0.312277    1.417358    0.034275
      8          1           0       -1.483088   -1.746517   -0.127569
      9          1           0        0.892465   -1.603167   -0.639321
     10          1           0        2.910465    0.747008   -0.936507
     11          1           0       -1.274122    1.735765    0.172623
 ---------------------------------------------------------------------

 SCF Done:  E(RHF) =  -337.595394156     A.U. after    2 cycles

 The electronic state is 1-A.
 Alpha  occ. eigenvalues --  -20.60592 -15.67970 -15.64614 -11.37084 -11.32707
 Alpha  occ. eigenvalues --  -11.31643 -11.30795  -1.39692  -1.31683  -1.20846
 Alpha  occ. eigenvalues --   -0.98249  -0.88003  -0.81673  -0.77069  -0.74194
 Alpha  occ. eigenvalues --   -0.70215  -0.65840  -0.63512  -0.59230  -0.56368
 Alpha  occ. eigenvalues --   -0.50565  -0.48489  -0.46050  -0.42881  -0.40054
 Alpha virt. eigenvalues --    0.02749   0.03368   0.03913   0.04886   0.06389
 Alpha virt. eigenvalues --    0.08012   0.09356   0.10599   0.11154   0.11335
 Alpha virt. eigenvalues --    0.12908   0.13294   0.13944   0.14524   0.15551

 Mulliken charges:
               1
     1  O   -0.447649
     2  C    0.815866
     3  C   -0.080260
     4  C    0.784018
     5  N   -0.549124
     6  C    0.582588
     7  N   -0.447864
     8  H   -0.178843
     9  H   -0.374678
    10  H   -0.159696
    11  H    0.055642
 Sum of Mulliken charges =   0.00000

 Dipole moment (field-independent basis, Debye):
    X=              1.7674    Y=             -1.6757    Z=             -2.4008  Tot=              3.4199

 Test job not archived.
 1\1\GINC-SE114\SP\RHF\Aug-CC-pVDZ\C4H4N2O1\OHZDE\09-Apr-2025\0\\#t hf
 aug-cc-pvdz iop(5/13=1,5/36=2,99/5=2) pseudo=read geom=check guess=(re
 ad,tcheck) scf=(maxcycle=1)\\title\\0,1\O,0,-2.50441913,-1.24086642,-0
 .06840109\C,0,-1.7856259,-0.28283694,-0.0348961\C,0,-0.27400454,-0.411
 87055,-0.00038151\C,0,0.51761701,0.83932152,0.06280163\N,0,1.59290588,
 1.04223303,-1.00729584\C,0,1.96148592,0.7779858,0.14661769\N,0,0.28640
 287,-1.54376709,-0.03894852\H,0,-2.19772803,0.74449713,-0.03276485\H,0
 ,-0.01159526,1.73920186,0.36356753\H,0,2.86130593,0.59607709,0.7152339

 Normal termination of Gaussian 16 at Wed Apr  9 16:44:55 2025.
