 Gaussian 16, Revision C.01,

 ----------------------------------------------------------------------
 #t hf aug-cc-pvdz symm=none int=(grid=ultrafine) guess=(read,tcheck) s
 table=(opt,rrhf)
 ----------------------------------------------------------------------
 -----
 title
 -----
 Symbolic Z-matrix:
 Charge =  0 Multiplicity = 1

 SCF Done:  E(RHF) =  -322.628206582     A.U. after   16 cycles
 Normal termination of Gaussian 16 at Wed Apr  9 16:06:05 2025.
 Gaussian 16:  ES64L-G16RevC.01  3-Jul-2019

 ----------------------------------------------------------------------
 #t hf aug-cc-pvdz iop(5/13=1,5/36=2,99/5=2) pseudo=read geom=check gue
 ss=(read,tcheck) scf=(maxcycle=1)
 ----------------------------------------------------------------------
 -----
 title
 -----
 Structure from the checkpoint file:  "Grambow2020_wb97xd3_007760_forward_mol1.chk"
 Charge =  0 Multiplicity = 1

                         Standard orientation:
 ---------------------------------------------------------------------
 Center     Atomic      Atomic             Coordinates (Angstroms)
 Number     Number       Type             X           Y           Z
 ---------------------------------------------------------------------
      1          6           0       -2.484971   -0.423896   -0.173002
      2          6           0       -1.053567   -0.102591    0.174340
      3          6           0        0.040338   -1.022223    0.092643
      4          6           0        1.253111   -0.335985   -0.018449
      5          7           0        2.481125   -0.598464   -0.061098
      6          8           0        0.806216    1.145002   -0.046596
      7          6           0       -0.469268    1.196356   -0.009162
      8          1           0       -3.156348    0.404890    0.057003
      9          1           0       -2.555297   -0.649941   -1.236599
     10          1           0       -2.818879   -1.299913    0.381654
     11          1           0       -0.032153   -2.092754    0.165746
     12          1           0        3.078321    0.204697   -0.194415
     13          1           0       -1.076486    0.434732    1.253965
     14          1           0       -0.970617    2.157543   -0.025118
 ---------------------------------------------------------------------

 SCF Done:  E(RHF) =  -322.727044218     A.U. after    2 cycles

 The electronic state is 1-A.
 Alpha  occ. eigenvalues --  -20.66063 -15.55865 -11.40368 -11.34425 -11.30616
 Alpha  occ. eigenvalues --  -11.26911 -11.19630  -1.44921  -1.15564  -1.13747
 Alpha  occ. eigenvalues --   -0.98882  -0.96615  -0.82892  -0.77243  -0.74782
 Alpha  occ. eigenvalues --   -0.69829  -0.66006  -0.61812  -0.61049  -0.57214
 Alpha  occ. eigenvalues --   -0.56794  -0.54609  -0.50205  -0.45816  -0.40439
 Alpha  occ. eigenvalues --   -0.25931
 Alpha virt. eigenvalues --    0.01860   0.03521   0.04159   0.04765   0.06042
 Alpha virt. eigenvalues --    0.06194   0.07109   0.07387   0.10577   0.10962
 Alpha virt. eigenvalues --    0.12041   0.13057   0.13838   0.14005   0.14794

 Mulliken charges:
               1
     1  C    0.660764
     2  C   -1.031120
     3  C    1.050125
     4  C    0.282934
     5  N   -0.457623
     6  O   -0.561265
     7  C    0.402001
     8  H   -0.029819
     9  H    0.073867
    10  H    0.055912
    11  H   -0.421019
    12  H   -0.054230
    13  H    0.364877
    14  H   -0.335404
 Sum of Mulliken charges =  -0.00000

 Dipole moment (field-independent basis, Debye):
    X=             -5.8657    Y=              3.5186    Z=              0.1862  Tot=              6.8427

 Test job not archived.
 1\1\GINC-SE174\SP\RHF\Aug-CC-pVDZ\C5H7N1O1\OHZDE\09-Apr-2025\0\\#t hf
 aug-cc-pvdz iop(5/13=1,5/36=2,99/5=2) pseudo=read geom=check guess=(re
 ad,tcheck) scf=(maxcycle=1)\\title\\0,1\C,0,-1.97353154,-0.0658442,-0.
 47341231\C,0,-0.57206567,-0.03548641,0.08136061\C,0,0.46952881,-0.9558
 0457,-0.2608669\C,0,1.72465529,-0.39602683,-0.00515482\N,0,2.93292094,
 -0.73794047,-0.04900617\O,0,1.36937533,1.02192692,0.50180987\C,0,0.102
 41875,1.17567296,0.45620363\H,0,-2.61707488,0.6750553,0.00350949\H,0,-
 1.94113977,0.13235666,-1.54436918\H,0,-2.41538251,-1.05036136,-0.32496

 Normal termination of Gaussian 16 at Wed Apr  9 16:06:11 2025.
