 Gaussian 16, Revision C.01,

 ----------------------------------------------------------------------
 #t hf aug-cc-pvdz symm=none int=(grid=ultrafine) guess=(read,tcheck) s
 table=(opt,rrhf)
 ----------------------------------------------------------------------
 -----
 title
 -----
 Symbolic Z-matrix:
 Charge =  0 Multiplicity = 1

 SCF Done:  E(RHF) =  -268.679385514     A.U. after   18 cycles
 Normal termination of Gaussian 16 at Wed Apr  9 14:18:21 2025.
 Gaussian 16:  ES64L-G16RevC.01  3-Jul-2019

 ----------------------------------------------------------------------
 #t hf aug-cc-pvdz iop(5/13=1,5/36=2,99/5=2) pseudo=read geom=check gue
 ss=(read,tcheck) scf=(maxcycle=1)
 ----------------------------------------------------------------------
 -----
 title
 -----
 Structure from the checkpoint file:  "Grambow2020_b97d3_007088_forward_mol1.chk"
 Charge =  0 Multiplicity = 1

                         Standard orientation:
 ---------------------------------------------------------------------
 Center     Atomic      Atomic             Coordinates (Angstroms)
 Number     Number       Type             X           Y           Z
 ---------------------------------------------------------------------
      1          6           0        1.974580   -0.841955   -0.278324
      2          6           0        0.858425   -0.354468    0.646537
      3          6           0       -1.155281   -0.171112   -0.595034
      4          8           0       -2.110027   -0.672398    0.208145
      5          6           0       -0.121515    0.691481   -0.098865
      6          6           0        0.207718    1.997970   -0.102995
      7          1           0        1.578268   -1.426977   -1.119525
      8          1           0        2.676300   -1.481149    0.279578
      9          1           0        2.532187    0.010286   -0.687064
     10          1           0        1.277139    0.183832    1.503795
     11          1           0        0.299549   -1.212141    1.052361
     12          1           0       -1.075508   -0.764752   -1.507970
     13          1           0       -2.162842   -0.080652    0.992684
     14          1           0        1.171560    2.219236    0.393058
 ---------------------------------------------------------------------

 SCF Done:  E(RHF) =  -268.761126715     A.U. after    2 cycles

 The electronic state is 1-A.
 Alpha  occ. eigenvalues --  -20.70527 -11.44857 -11.26188 -11.23562 -11.22524
 Alpha  occ. eigenvalues --  -11.18216  -1.45954  -1.09113  -1.00057  -0.93972
 Alpha  occ. eigenvalues --   -0.84338  -0.82552  -0.74997  -0.68410  -0.65393
 Alpha  occ. eigenvalues --   -0.61425  -0.59594  -0.54077  -0.53570  -0.50646
 Alpha  occ. eigenvalues --   -0.49044  -0.34058  -0.27572
 Alpha virt. eigenvalues --    0.01684   0.02673   0.03507   0.04265   0.05452
 Alpha virt. eigenvalues --    0.06059   0.07220   0.07585   0.08591   0.10028
 Alpha virt. eigenvalues --    0.11626   0.12942   0.13071   0.13704   0.13838

 Mulliken charges:
               1
     1  C    0.279463
     2  C    0.054551
     3  C    1.054332
     4  O   -0.503341
     5  C    0.054180
     6  C   -0.271295
     7  H   -0.108448
     8  H   -0.045864
     9  H   -0.035226
    10  H   -0.084349
    11  H   -0.166296
    12  H   -0.213214
    13  H    0.272126
    14  H   -0.286620
 Sum of Mulliken charges =   0.00000

 Dipole moment (field-independent basis, Debye):
    X=             -1.3328    Y=             -5.2138    Z=              0.6690  Tot=              5.4229

 Test job not archived.
 1\1\GINC-SE054\SP\RHF\Aug-CC-pVDZ\C5H8O1\OHZDE\09-Apr-2025\0\\#t hf au
 g-cc-pvdz iop(5/13=1,5/36=2,99/5=2) pseudo=read geom=check guess=(read
 ,tcheck) scf=(maxcycle=1)\\title\\0,1\C,0,-1.29954967,1.09609952,-0.43
 957474\C,0,-0.56605605,-0.23989782,-0.56570849\C,0,0.98863772,-0.44422
 034,1.21510876\O,0,0.87606068,-1.71645043,1.63544358\C,0,0.99640959,-0
 .10294268,-0.1785885\C,0,1.87067581,0.26845922,-1.13412208\H,0,-1.3298
 8695,1.44586159,0.60142461\H,0,-2.33687003,0.99331967,-0.79402876\H,0,
 -0.80131993,1.86455649,-1.04418175\H,0,-0.58947128,-0.59499398,-1.6017

 Normal termination of Gaussian 16 at Wed Apr  9 14:18:26 2025.
