 Gaussian 16, Revision C.01,

 ----------------------------------------------------------------------
 #t hf aug-cc-pvdz symm=none int=(grid=ultrafine) guess=(read,tcheck) s
 table=(opt,rrhf)
 ----------------------------------------------------------------------
 -----
 title
 -----
 Symbolic Z-matrix:
 Charge =  0 Multiplicity = 1

 SCF Done:  E(RHF) =  -306.672389063     A.U. after   15 cycles
 Normal termination of Gaussian 16 at Wed Apr  9 16:23:08 2025.
 Gaussian 16:  ES64L-G16RevC.01  3-Jul-2019

 ----------------------------------------------------------------------
 #t hf aug-cc-pvdz iop(5/13=1,5/36=2,99/5=2) pseudo=read geom=check gue
 ss=(read,tcheck) scf=(maxcycle=1)
 ----------------------------------------------------------------------
 -----
 title
 -----
 Structure from the checkpoint file:  "Grambow2020_wb97xd3_008167_reverse_mol2.chk"
 Charge =  0 Multiplicity = 1

                         Standard orientation:
 ---------------------------------------------------------------------
 Center     Atomic      Atomic             Coordinates (Angstroms)
 Number     Number       Type             X           Y           Z
 ---------------------------------------------------------------------
      1          8           0       -2.148647   -0.918990   -0.393182
      2          6           0       -1.228742   -0.240839   -0.038733
      3          6           0        1.840535   -1.101304   -0.284899
      4          6           0        1.191329    0.103027    0.368032
      5          6           0        0.669129    1.246116   -0.542537
      6          6           0       -0.738060    1.122719    0.030077
      7          6           0       -0.197658   -0.102232    0.972794
      8          1           0        1.196424   -1.518932   -1.062392
      9          1           0        2.793519   -0.829425   -0.744281
     10          1           0        2.032503   -1.888836    0.446919
     11          1           0        1.856798    0.521235    1.124761
     12          1           0        1.133389    2.202577   -0.308624
     13          1           0        0.741949    1.079266   -1.619116
     14          1           0       -1.392668    1.953859    0.265232
     15          1           0       -0.391934   -0.332749    2.014553
 ---------------------------------------------------------------------

 SCF Done:  E(RHF) =  -306.766034711     A.U. after    2 cycles

 The electronic state is 1-A.
 Alpha  occ. eigenvalues --  -20.56663 -11.34840 -11.26945 -11.26674 -11.26409
 Alpha  occ. eigenvalues --  -11.25674 -11.23473  -1.35781  -1.19827  -1.02908
 Alpha  occ. eigenvalues --   -0.95676  -0.88217  -0.76731  -0.73921  -0.70236
 Alpha  occ. eigenvalues --   -0.64992  -0.62716  -0.61254  -0.59203  -0.56918
 Alpha  occ. eigenvalues --   -0.54135  -0.51120  -0.48800  -0.47678  -0.39956
 Alpha  occ. eigenvalues --   -0.38978
 Alpha virt. eigenvalues --    0.02758   0.03967   0.04088   0.04871   0.06054
 Alpha virt. eigenvalues --    0.06635   0.06913   0.07530   0.09498   0.10970
 Alpha virt. eigenvalues --    0.11795   0.12903   0.13460   0.13873   0.14676

 Mulliken charges:
               1
     1  O   -0.432378
     2  C   -0.171154
     3  C    0.511525
     4  C   -0.618229
     5  C    0.750179
     6  C    0.442120
     7  C    0.714744
     8  H   -0.012143
     9  H   -0.022916
    10  H   -0.032252
    11  H   -0.168570
    12  H   -0.140912
    13  H   -0.157222
    14  H   -0.326357
    15  H   -0.336434
 Sum of Mulliken charges =  -0.00000

 Dipole moment (field-independent basis, Debye):
    X=              3.4494    Y=              2.3585    Z=              1.3058  Tot=              4.3779

 Test job not archived.
 1\1\GINC-SE125\SP\RHF\Aug-CC-pVDZ\C6H8O1\OHZDE\09-Apr-2025\0\\#t hf au
 g-cc-pvdz iop(5/13=1,5/36=2,99/5=2) pseudo=read geom=check guess=(read
 ,tcheck) scf=(maxcycle=1)\\title\\0,1\O,0,1.80158431,2.12819283,-0.584
 34604\C,0,0.81506453,1.45414611,-0.51963763\C,0,0.77621475,-1.58844828
 ,0.46147184\C,0,-0.31651468,-0.71411201,-0.12134967\C,0,-0.96497545,0.
 36367599,0.78768859\C,0,-0.597217,1.47523911,-0.18826095\C,0,0.1122709
 7,0.34492847,-1.13709121\H,0,1.5584293,-0.98092253,0.92281901\H,0,0.37
 392739,-2.25900553,1.22412919\H,0,1.24348884,-2.2011222,-0.31241465\H,

 Normal termination of Gaussian 16 at Wed Apr  9 16:23:13 2025.
