 Gaussian 16, Revision C.01,

 ----------------------------------------------------------------------
 #t hf aug-cc-pvdz symm=none int=(grid=ultrafine) guess=(read,tcheck) s
 table=(opt,rrhf)
 ----------------------------------------------------------------------
 -----
 title
 -----
 Symbolic Z-matrix:
 Charge =  0 Multiplicity = 1

 SCF Done:  E(RHF) =  -302.725437909     A.U. after   18 cycles
 Normal termination of Gaussian 16 at Wed Apr  9 15:33:07 2025.
 Gaussian 16:  ES64L-G16RevC.01  3-Jul-2019

 ----------------------------------------------------------------------
 #t hf aug-cc-pvdz iop(5/13=1,5/36=2,99/5=2) pseudo=read geom=check gue
 ss=(read,tcheck) scf=(maxcycle=1)
 ----------------------------------------------------------------------
 -----
 title
 -----
 Structure from the checkpoint file:  "Grambow2020_wb97xd3_006966_forward_mol1.chk"
 Charge =  0 Multiplicity = 1

                         Standard orientation:
 ---------------------------------------------------------------------
 Center     Atomic      Atomic             Coordinates (Angstroms)
 Number     Number       Type             X           Y           Z
 ---------------------------------------------------------------------
      1          6           0        1.645681   -1.167518    0.150632
      2          6           0        0.701200    0.022711    0.064466
      3          6           0        1.435555    1.324678   -0.214644
      4          7           0       -0.374750   -0.191638   -0.932013
      5          6           0       -0.322137    0.007344    1.184526
      6          6           0       -1.531310   -0.142930   -0.131538
      7          7           0       -2.673917    0.084977    0.035772
      8          1           0        2.389837   -1.007656    0.931933
      9          1           0        2.176841   -1.294581   -0.797454
     10          1           0        1.096180   -2.079640    0.385308
     11          1           0        2.053366    1.251891   -1.112124
     12          1           0        0.726960    2.142389   -0.350885
     13          1           0        2.087409    1.569343    0.627172
     14          1           0       -0.321721   -1.088110   -1.405972
     15          1           0       -0.442141    0.987286    1.675056
 ---------------------------------------------------------------------

 SCF Done:  E(RHF) =  -302.812839289     A.U. after    2 cycles

 The electronic state is 1-A.
 Alpha  occ. eigenvalues --  -15.69287 -15.65284 -11.32982 -11.30537 -11.29065
 Alpha  occ. eigenvalues --  -11.25202 -11.24371  -1.28274  -1.17817  -1.05739
 Alpha  occ. eigenvalues --   -0.96232  -0.93496  -0.79498  -0.73903  -0.66657
 Alpha  occ. eigenvalues --   -0.65301  -0.61916  -0.56988  -0.56565  -0.55999
 Alpha  occ. eigenvalues --   -0.54481  -0.51156  -0.49870  -0.46708  -0.42321
 Alpha  occ. eigenvalues --   -0.33811
 Alpha virt. eigenvalues --    0.01025   0.02671   0.03912   0.04706   0.05119
 Alpha virt. eigenvalues --    0.06711   0.06810   0.07383   0.07773   0.09700
 Alpha virt. eigenvalues --    0.11645   0.12050   0.13024   0.13348   0.13944

 Mulliken charges:
               1
     1  C    0.891272
     2  C   -1.229326
     3  C    0.726395
     4  N   -0.342451
     5  C    0.174298
     6  C   -0.007168
     7  N   -0.254774
     8  H   -0.001053
     9  H    0.035068
    10  H   -0.018030
    11  H    0.018069
    12  H   -0.023589
    13  H    0.062688
    14  H    0.088195
    15  H   -0.119593
 Sum of Mulliken charges =   0.00000

 Dipole moment (field-independent basis, Debye):
    X=              4.4076    Y=             -0.4772    Z=             -1.0777  Tot=              4.5625

 Test job not archived.
 1\1\GINC-SE114\SP\RHF\Aug-CC-pVDZ\C5H8N2\OHZDE\09-Apr-2025\0\\#t hf au
 g-cc-pvdz iop(5/13=1,5/36=2,99/5=2) pseudo=read geom=check guess=(read
 ,tcheck) scf=(maxcycle=1)\\title\\0,1\C,0,-0.83508285,1.3982968,0.1160
 3873\C,0,-0.10894616,0.06083653,0.10993313\C,0,-1.04557934,-1.10694246
 ,0.37697271\N,0,0.64777292,-0.15584516,-1.14585708\C,0,1.1902057,0.125
 78934,0.89094088\C,0,1.97243085,-0.24729839,-0.67929333\N,0,3.07757762
 ,-0.64587905,-0.75188882\H,0,-1.33303112,1.55715541,1.07341363\H,0,-1.
 59979283,1.41377818,-0.66634297\H,0,-0.13426102,2.21830398,-0.04342508

 Normal termination of Gaussian 16 at Wed Apr  9 15:33:13 2025.
