 Gaussian 16, Revision C.01,

 ----------------------------------------------------------------------
 #t hf aug-cc-pvdz symm=none int=(grid=ultrafine) guess=(read,tcheck) s
 table=(opt,rrhf)
 ----------------------------------------------------------------------
 -----
 title
 -----
 Symbolic Z-matrix:
 Charge =  0 Multiplicity = 1

 SCF Done:  E(RHF) =  -322.570872350     A.U. after   17 cycles
 Normal termination of Gaussian 16 at Wed Apr  9 14:49:51 2025.
 Gaussian 16:  ES64L-G16RevC.01  3-Jul-2019

 ----------------------------------------------------------------------
 #t hf aug-cc-pvdz iop(5/13=1,5/36=2,99/5=2) pseudo=read geom=check gue
 ss=(read,tcheck) scf=(maxcycle=1)
 ----------------------------------------------------------------------
 -----
 title
 -----
 Structure from the checkpoint file:  "Grambow2020_wb97xd3_006622_forward_mol1.chk"
 Charge =  0 Multiplicity = 1

                         Standard orientation:
 ---------------------------------------------------------------------
 Center     Atomic      Atomic             Coordinates (Angstroms)
 Number     Number       Type             X           Y           Z
 ---------------------------------------------------------------------
      1          8           0        1.499465    0.744769   -0.570080
      2          6           0        1.505083   -0.452202   -0.280668
      3          6           0        0.395233   -0.719874    0.717792
      4          6           0        0.032408    0.767719    0.816774
      5          6           0       -1.170640    1.022551    0.029349
      6          6           0       -1.350514   -0.326625   -0.710699
      7          7           0       -0.764036   -1.297458    0.164737
      8          1           0        2.146088   -1.162614   -0.815578
      9          1           0        0.732458   -1.223359    1.629887
     10          1           0        0.391688    1.456226    1.577703
     11          1           0       -1.088826    1.951129   -0.546393
     12          1           0       -2.013425    1.144774    0.718626
     13          1           0       -0.882609   -0.228678   -1.708190
     14          1           0       -2.402264   -0.562840   -0.883858
 ---------------------------------------------------------------------

 SCF Done:  E(RHF) =  -322.665425373     A.U. after    2 cycles

 The electronic state is 1-A.
 Alpha  occ. eigenvalues --  -20.62467 -15.52423 -11.37854 -11.36907 -11.28678
 Alpha  occ. eigenvalues --  -11.25613 -11.23686  -1.41069  -1.18773  -1.03192
 Alpha  occ. eigenvalues --   -0.99411  -0.87928  -0.80126  -0.77518  -0.72848
 Alpha  occ. eigenvalues --   -0.68614  -0.67528  -0.62441  -0.58374  -0.55747
 Alpha  occ. eigenvalues --   -0.53462  -0.51084  -0.50172  -0.47411  -0.34774
 Alpha  occ. eigenvalues --   -0.26831
 Alpha virt. eigenvalues --    0.02440   0.03775   0.04174   0.05038   0.05254
 Alpha virt. eigenvalues --    0.06199   0.06478   0.07529   0.08420   0.10051
 Alpha virt. eigenvalues --    0.11811   0.12506   0.12723   0.13188   0.13928

 Mulliken charges:
               1
     1  O   -0.558846
     2  C    0.634332
     3  C    0.662996
     4  C    0.386225
     5  C    0.085847
     6  C    0.806783
     7  N   -1.023513
     8  H   -0.204199
     9  H   -0.175504
    10  H   -0.304935
    11  H   -0.038325
    12  H    0.069271
    13  H   -0.120219
    14  H   -0.219911
 Sum of Mulliken charges =  -0.00000

 Dipole moment (field-independent basis, Debye):
    X=              2.0174    Y=              3.2238    Z=              1.7937  Tot=              4.2048

 Test job not archived.
 1\1\GINC-SE113\SP\RHF\Aug-CC-pVDZ\C5H7N1O1\OHZDE\09-Apr-2025\0\\#t hf
 aug-cc-pvdz iop(5/13=1,5/36=2,99/5=2) pseudo=read geom=check guess=(re
 ad,tcheck) scf=(maxcycle=1)\\title\\0,1\O,0,1.79025595,0.2944029,0.644
 76377\C,0,1.25862674,1.30585706,0.18556716\C,0,0.19922327,0.89015008,-
 0.81702365\C,0,0.56636093,-0.59445938,-0.69245338\C,0,-0.42086625,-1.2
 6483856,0.14913946\C,0,-1.23623597,-0.06379172,0.69039634\N,0,-1.12077
 787,0.9370236,-0.32837667\H,0,1.47469482,2.29809427,0.59846172\H,0,0.3
 1034903,1.36131306,-1.79926212\H,0,1.23797956,-1.13666381,-1.35357395\

 Normal termination of Gaussian 16 at Wed Apr  9 14:49:56 2025.
