 Gaussian 16, Revision C.01,

 ----------------------------------------------------------------------
 #t hf aug-cc-pvdz symm=none int=(grid=ultrafine) guess=(read,tcheck) s
 table=(opt,rrhf)
 ----------------------------------------------------------------------
 -----
 title
 -----
 Symbolic Z-matrix:
 Charge =  0 Multiplicity = 1

 SCF Done:  E(RHF) =  -359.596623959     A.U. after   16 cycles
 Normal termination of Gaussian 16 at Wed Apr  9 17:14:30 2025.
 Gaussian 16:  ES64L-G16RevC.01  3-Jul-2019

 ----------------------------------------------------------------------
 #t hf aug-cc-pvdz iop(5/13=1,5/36=2,99/5=2) pseudo=read geom=check gue
 ss=(read,tcheck) scf=(maxcycle=1)
 ----------------------------------------------------------------------
 -----
 title
 -----
 Structure from the checkpoint file:  "Grambow2020_wb97xd3_009405_forward_mol1.chk"
 Charge =  0 Multiplicity = 1

                         Standard orientation:
 ---------------------------------------------------------------------
 Center     Atomic      Atomic             Coordinates (Angstroms)
 Number     Number       Type             X           Y           Z
 ---------------------------------------------------------------------
      1          8           0       -1.736583   -0.085496   -0.855755
      2          6           0       -1.090480    0.144842    0.393489
      3          6           0       -0.265278   -1.104835    0.688201
      4          8           0        0.837443   -1.219262   -0.220865
      5          6           0        1.566947   -0.117385   -0.374046
      6          7           0        1.196696    1.041434    0.034713
      7          6           0       -0.186156    1.329450    0.376290
      8          1           0       -1.800435    0.770449   -1.285310
      9          1           0       -1.846393    0.252321    1.181990
     10          1           0        0.116738   -1.067127    1.712597
     11          1           0       -0.845848   -2.013640    0.546866
     12          1           0        2.503039   -0.269078   -0.894219
     13          1           0       -0.241883    2.064957    1.169119
     14          1           0        0.780834    1.897715   -0.564677
 ---------------------------------------------------------------------

 SCF Done:  E(RHF) =  -359.707635140     A.U. after    2 cycles

 The electronic state is 1-A.
 Alpha  occ. eigenvalues --  -20.62666 -20.56104 -15.66960 -11.36854 -11.30383
 Alpha  occ. eigenvalues --  -11.29316 -11.23800  -1.41482  -1.31679  -1.23687
 Alpha  occ. eigenvalues --   -1.05273  -0.93314  -0.91182  -0.76610  -0.75757
 Alpha  occ. eigenvalues --   -0.72199  -0.68001  -0.65332  -0.63367  -0.60019
 Alpha  occ. eigenvalues --   -0.58629  -0.54866  -0.53128  -0.51252  -0.44969
 Alpha  occ. eigenvalues --   -0.44083  -0.27502
 Alpha virt. eigenvalues --    0.03358   0.03981   0.04523   0.05063   0.06361
 Alpha virt. eigenvalues --    0.06888   0.07300   0.09426   0.10723   0.11675
 Alpha virt. eigenvalues --    0.12459   0.13317   0.14404   0.14859   0.15458

 Mulliken charges:
               1
     1  O   -0.650270
     2  C    0.549842
     3  C    0.719690
     4  O   -0.506501
     5  C    0.650754
     6  N   -0.464313
     7  C    0.297155
     8  H    0.170960
     9  H   -0.119491
    10  H   -0.100193
    11  H   -0.149813
    12  H   -0.329026
    13  H   -0.402356
    14  H    0.333562
 Sum of Mulliken charges =  -0.00000

 Dipole moment (field-independent basis, Debye):
    X=              1.4502    Y=              0.5831    Z=              0.9147  Tot=              1.8110

 Test job not archived.
 1\1\GINC-SE051\SP\RHF\Aug-CC-pVDZ\C4H7N1O2\OHZDE\09-Apr-2025\0\\#t hf
 aug-cc-pvdz iop(5/13=1,5/36=2,99/5=2) pseudo=read geom=check guess=(re
 ad,tcheck) scf=(maxcycle=1)\\title\\0,1\O,0,-1.19658178,-0.35624746,1.
 49273351\C,0,-1.02870175,0.10876901,0.15606185\C,0,-0.11401959,1.32797
 004,0.23612703\O,0,1.21766972,0.94840413,0.60764046\C,0,1.7341468,-0.0
 6661136,-0.07994116\N,0,1.04090711,-0.83634684,-0.83754058\C,0,-0.4076
 973,-0.90434392,-0.74357599\H,0,-1.28542791,-1.31016411,1.43454105\H,0
 ,-1.99866968,0.4315157,-0.24354669\H,0,-0.08506942,1.837336,-0.7315779

 Normal termination of Gaussian 16 at Wed Apr  9 17:14:35 2025.
