 Gaussian 16, Revision C.01,

 ----------------------------------------------------------------------
 #t hf aug-cc-pvdz symm=none int=(grid=ultrafine) guess=(read,tcheck) s
 table=(opt,rrhf)
 ----------------------------------------------------------------------
 -----
 title
 -----
 Symbolic Z-matrix:
 Charge =  0 Multiplicity = 1

 SCF Done:  E(RHF) =  -339.099410580     A.U. after   17 cycles
 Normal termination of Gaussian 16 at Wed Apr  9 14:11:55 2025.
 Gaussian 16:  ES64L-G16RevC.01  3-Jul-2019

 ----------------------------------------------------------------------
 #t hf aug-cc-pvdz iop(5/13=1,5/36=2,99/5=2) pseudo=read geom=check gue
 ss=(read,tcheck) scf=(maxcycle=1)
 ----------------------------------------------------------------------
 -----
 title
 -----
 Structure from the checkpoint file:  "Grambow2020_b97d3_006816_reverse_mol2.chk"
 Charge =  0 Multiplicity = 1

                         Standard orientation:
 ---------------------------------------------------------------------
 Center     Atomic      Atomic             Coordinates (Angstroms)
 Number     Number       Type             X           Y           Z
 ---------------------------------------------------------------------
      1          8           0        0.709715    1.381286    0.000541
      2          6           0       -2.355843    0.247232   -0.000303
      3          6           0       -1.175319   -0.089219   -0.000195
      4          8           0       -0.249635   -1.075156    0.000851
      5          6           0        1.049552   -0.845650   -0.000510
      6          8           0        1.591006    0.312692   -0.000448
      7          1           0       -3.208219    0.895521   -0.000904
      8          1           0        1.689180   -1.720275   -0.000599
 ---------------------------------------------------------------------

 SCF Done:  E(RHF) =  -339.209643611     A.U. after    2 cycles

 The electronic state is 1-A.
 Alpha  occ. eigenvalues --  -20.73831 -20.72425 -20.55280 -11.49488 -11.34731
 Alpha  occ. eigenvalues --  -11.26310  -1.53987  -1.46598  -1.17918  -1.06834
 Alpha  occ. eigenvalues --   -0.96469  -0.83741  -0.81804  -0.75802  -0.71350
 Alpha  occ. eigenvalues --   -0.69373  -0.65395  -0.62718  -0.48216  -0.44150
 Alpha  occ. eigenvalues --   -0.39459  -0.38661
 Alpha virt. eigenvalues --    0.02049   0.03763   0.04231   0.07260   0.09395
 Alpha virt. eigenvalues --    0.09488   0.09979   0.11623   0.12459   0.14224
 Alpha virt. eigenvalues --    0.14780   0.16196   0.16864   0.17475   0.19176

 Mulliken charges:
               1
     1  O   -0.540596
     2  C    0.718568
     3  C   -0.162811
     4  O   -0.356927
     5  C    1.015611
     6  O   -0.156834
     7  H   -0.336557
     8  H   -0.180454
 Sum of Mulliken charges =  -0.00000

 Dipole moment (field-independent basis, Debye):
    X=              0.3537    Y=             -4.7647    Z=             -0.0032  Tot=              4.7778

 Test job not archived.
 1\1\GINC-SE141\SP\RHF\Aug-CC-pVDZ\C3H2O3\OHZDE\09-Apr-2025\0\\#t hf au
 g-cc-pvdz iop(5/13=1,5/36=2,99/5=2) pseudo=read geom=check guess=(read
 ,tcheck) scf=(maxcycle=1)\\title\\0,1\O,0,0.18158888,-1.12381498,1.367
 29405\C,0,-1.39042876,1.5807126,0.41965633\C,0,-0.58373317,0.72731598,
 0.06217471\O,0,0.23597777,0.23316674,-0.89325904\C,0,0.96882008,-0.851
 00305,-0.72568763\O,0,0.99728371,-1.56156298,0.33696056\H,0,-2.0779619
 ,2.09863298,1.05674372\H,0,1.58614038,-1.14498328,-1.56627369\\Version
 =ES64L-G16RevC.01\State=1-A\HF=-339.2096436\RMSD=5.030e-03\Dipole=0.57

 Normal termination of Gaussian 16 at Wed Apr  9 14:11:57 2025.
