 Gaussian 16, Revision C.01,

 ----------------------------------------------------------------------
 #t hf aug-cc-pvdz symm=none int=(grid=ultrafine) guess=(read,tcheck) s
 table=(opt,rrhf)
 ----------------------------------------------------------------------
 -----
 title
 -----
 Symbolic Z-matrix:
 Charge =  0 Multiplicity = 1

 SCF Done:  E(RHF) =  -359.608445379     A.U. after   16 cycles
 Normal termination of Gaussian 16 at Wed Apr  9 03:52:33 2025.
 Gaussian 16:  ES64L-G16RevC.01  3-Jul-2019

 ----------------------------------------------------------------------
 #t hf aug-cc-pvdz iop(5/13=1,5/36=2,99/5=2) pseudo=read geom=check gue
 ss=(read,tcheck) scf=(maxcycle=1)
 ----------------------------------------------------------------------
 -----
 title
 -----
 Structure from the checkpoint file:  "Grambow2020_wb97xd3_008365_reverse_mol2.chk"
 Charge =  0 Multiplicity = 1

                         Standard orientation:
 ---------------------------------------------------------------------
 Center     Atomic      Atomic             Coordinates (Angstroms)
 Number     Number       Type             X           Y           Z
 ---------------------------------------------------------------------
      1          8           0       -2.794911    0.221047   -0.463646
      2          6           0       -2.258166   -0.133972    0.665419
      3          6           0        0.671200   -1.238255   -0.537907
      4          7           0        1.990777   -1.028665    0.009789
      5          6           0        0.867761   -0.364537    0.655061
      6          6           0        0.719129    1.101083    0.430027
      7          8           0        1.276054    1.672980   -0.473228
      8          1           0       -3.195805   -0.496963   -0.978368
      9          1           0       -2.395110   -1.239964    0.771917
     10          1           0        0.412564   -0.739797   -1.466604
     11          1           0        0.261477   -2.232387   -0.399991
     12          1           0        2.479664   -0.333342   -0.548728
     13          1           0        0.588717   -0.731144    1.635641
     14          1           0        0.064373    1.636112    1.136999
 ---------------------------------------------------------------------

 SCF Done:  E(RHF) =  -359.719437558     A.U. after    2 cycles

 The electronic state is 1-A.
 Alpha  occ. eigenvalues --  -20.66931 -20.57201 -15.63469 -11.34345 -11.33474
 Alpha  occ. eigenvalues --  -11.28497 -11.28075  -1.43360  -1.36526  -1.25579
 Alpha  occ. eigenvalues --   -0.94500  -0.91800  -0.88248  -0.78418  -0.77572
 Alpha  occ. eigenvalues --   -0.73198  -0.67937  -0.64081  -0.62759  -0.62062
 Alpha  occ. eigenvalues --   -0.58158  -0.55410  -0.50773  -0.48725  -0.43986
 Alpha  occ. eigenvalues --   -0.40169  -0.38621
 Alpha virt. eigenvalues --    0.01871   0.03955   0.04600   0.05169   0.06174
 Alpha virt. eigenvalues --    0.06754   0.07289   0.08446   0.10050   0.11229
 Alpha virt. eigenvalues --    0.11942   0.12828   0.13030   0.13801   0.14633

 Mulliken charges:
               1
     1  O   -0.298422
     2  C    0.277902
     3  C    0.905068
     4  N   -0.679382
     5  C    0.914398
     6  C    0.493850
     7  O   -0.527543
     8  H    0.160924
     9  H   -0.150952
    10  H   -0.271994
    11  H   -0.332290
    12  H    0.087547
    13  H   -0.442873
    14  H   -0.136234
 Sum of Mulliken charges =   0.00000

 Dipole moment (field-independent basis, Debye):
    X=             -3.8141    Y=             -3.2925    Z=             -0.2348  Tot=              5.0441

 Test job not archived.
 1\1\GINC-SE362\SP\RHF\Aug-CC-pVDZ\C4H7N1O2\OHZDE\09-Apr-2025\0\\#t hf
 aug-cc-pvdz iop(5/13=1,5/36=2,99/5=2) pseudo=read geom=check guess=(re
 ad,tcheck) scf=(maxcycle=1)\\title\\0,1\O,0,-1.21544855,-2.13665869,1.
 32046699\C,0,-0.75164747,-2.12749807,0.10649612\C,0,-0.55267146,1.1967
 6645,-0.29136573\N,0,0.50905049,1.95393097,-0.9115527\C,0,0.68856589,0
 .51713792,-0.76320114\C,0,1.62788284,0.0512784,0.29577548\O,0,1.984913
 73,0.76572012,1.19866068\H,0,-2.17218353,-1.99807164,1.40198522\H,0,-1
 .61491564,-1.95028706,-0.58392313\H,0,-0.68359396,1.27587542,0.7830783

 Normal termination of Gaussian 16 at Wed Apr  9 03:52:36 2025.
