 Gaussian 16, Revision C.01,

 ----------------------------------------------------------------------
 #t hf aug-cc-pvdz symm=none int=(grid=ultrafine) guess=(read,tcheck) s
 table=(opt,rrhf)
 ----------------------------------------------------------------------
 -----
 title
 -----
 Symbolic Z-matrix:
 Charge =  0 Multiplicity = 1

 SCF Done:  E(RHF) =  -306.636289658     A.U. after   17 cycles
 Normal termination of Gaussian 16 at Wed Apr  9 15:41:03 2025.
 Gaussian 16:  ES64L-G16RevC.01  3-Jul-2019

 ----------------------------------------------------------------------
 #t hf aug-cc-pvdz iop(5/13=1,5/36=2,99/5=2) pseudo=read geom=check gue
 ss=(read,tcheck) scf=(maxcycle=1)
 ----------------------------------------------------------------------
 -----
 title
 -----
 Structure from the checkpoint file:  "Grambow2020_wb97xd3_007298_reverse_mol2.chk"
 Charge =  0 Multiplicity = 1

                         Standard orientation:
 ---------------------------------------------------------------------
 Center     Atomic      Atomic             Coordinates (Angstroms)
 Number     Number       Type             X           Y           Z
 ---------------------------------------------------------------------
      1          6           0       -2.777132   -0.526728   -0.091786
      2          6           0       -1.321825   -0.796613    0.267121
      3          6           0       -0.416206    0.362533   -0.062734
      4          8           0       -0.739769    1.540506    0.019162
      5          6           0        0.896927    0.156095   -0.576192
      6          6           0        2.014134    0.207592    0.277790
      7          6           0        3.043956   -0.587155   -0.072147
      8          1           0       -3.119106    0.399258    0.368956
      9          1           0       -3.413671   -1.342870    0.251466
     10          1           0       -2.899143   -0.428304   -1.171329
     11          1           0       -0.945015   -1.697539   -0.223900
     12          1           0       -1.219117   -0.959553    1.346204
     13          1           0        3.824054   -0.856120    0.631702
     14          1           0        1.984803    0.699338    1.250132
     15          1           0        3.066222   -1.032599   -1.058844
 ---------------------------------------------------------------------

 SCF Done:  E(RHF) =  -306.730348940     A.U. after    2 cycles

 The electronic state is 1-A.
 Alpha  occ. eigenvalues --  -20.54845 -11.33785 -11.29968 -11.28274 -11.27462
 Alpha  occ. eigenvalues --  -11.25314 -11.23137  -1.34304  -1.11023  -1.05475
 Alpha  occ. eigenvalues --   -0.96958  -0.88145  -0.80489  -0.72526  -0.69244
 Alpha  occ. eigenvalues --   -0.64740  -0.63277  -0.60936  -0.57630  -0.56271
 Alpha  occ. eigenvalues --   -0.53550  -0.51506  -0.49754  -0.44457  -0.43044
 Alpha  occ. eigenvalues --   -0.35173
 Alpha virt. eigenvalues --    0.02564   0.03319   0.03944   0.04349   0.05511
 Alpha virt. eigenvalues --    0.05813   0.06330   0.07264   0.08211   0.10633
 Alpha virt. eigenvalues --    0.10963   0.11939   0.12103   0.12917   0.14023

 Mulliken charges:
               1
     1  C    0.443591
     2  C    0.018354
     3  C    0.342717
     4  O   -0.633029
     5  C   -0.577863
     6  C    0.849149
     7  C    0.492730
     8  H   -0.027678
     9  H   -0.054355
    10  H   -0.052291
    11  H   -0.053418
    12  H    0.041685
    13  H   -0.233834
    14  H   -0.353257
    15  H   -0.202501
 Sum of Mulliken charges =  -0.00000

 Dipole moment (field-independent basis, Debye):
    X=              2.3392    Y=             -3.9165    Z=              1.6056  Tot=              4.8362

 Test job not archived.
 1\1\GINC-SE042\SP\RHF\Aug-CC-pVDZ\C6H8O1\OHZDE\09-Apr-2025\0\\#t hf au
 g-cc-pvdz iop(5/13=1,5/36=2,99/5=2) pseudo=read geom=check guess=(read
 ,tcheck) scf=(maxcycle=1)\\title\\0,1\C,0,-2.66692264,-0.07393334,0.19
 166551\C,0,-1.21155279,-0.39277211,-0.12426178\C,0,-0.24803279,0.31198
 308,0.79634545\O,0,-0.46240324,0.54297178,1.97943877\C,0,0.98761331,0.
 83605794,0.31770202\C,0,2.18225163,0.11054252,0.48066\C,0,3.10338203,0
 .29284737,-0.48520584\H,0,-2.88416784,-0.27775027,1.23949392\H,0,-3.33
 354665,-0.67630289,-0.42627867\H,0,-2.88367576,0.97850164,0.00355108\H

 Normal termination of Gaussian 16 at Wed Apr  9 15:41:08 2025.
