 Gaussian 16, Revision C.01,

 ----------------------------------------------------------------------
 #t hf aug-cc-pvdz symm=none int=(grid=ultrafine) guess=(read,tcheck) s
 table=(opt,rrhf)
 ----------------------------------------------------------------------
 -----
 title
 -----
 Symbolic Z-matrix:
 Charge =  0 Multiplicity = 1

 SCF Done:  E(RHF) =  -358.455722257     A.U. after   15 cycles
 Normal termination of Gaussian 16 at Wed Apr  9 03:28:37 2025.
 Gaussian 16:  ES64L-G16RevC.01  3-Jul-2019

 ----------------------------------------------------------------------
 #t hf aug-cc-pvdz iop(5/13=1,5/36=2,99/5=2) pseudo=read geom=check gue
 ss=(read,tcheck) scf=(maxcycle=1)
 ----------------------------------------------------------------------
 -----
 title
 -----
 Structure from the checkpoint file:  "Grambow2020_wb97xd3_006793_reverse_mol2.chk"
 Charge =  0 Multiplicity = 1

                         Standard orientation:
 ---------------------------------------------------------------------
 Center     Atomic      Atomic             Coordinates (Angstroms)
 Number     Number       Type             X           Y           Z
 ---------------------------------------------------------------------
      1          8           0       -2.715232   -0.602376    0.188558
      2          6           0       -1.527177   -0.721396   -0.038288
      3          6           0       -0.647257    0.311154   -0.454328
      4          6           0       -0.264227    1.643281    0.039509
      5          7           0        0.660458    0.517188   -0.062221
      6          6           0        1.850224    0.145237    0.164479
      7          8           0        2.260716   -1.115504    0.011031
      8          1           0       -1.043265   -1.726621    0.010429
      9          1           0        1.542474   -1.661994   -0.328337
     10          1           0       -0.475286    1.944457    1.064425
     11          1           0       -0.090691    2.454783   -0.661927
     12          1           0        2.610314    0.842438    0.486014
 ---------------------------------------------------------------------

 SCF Done:  E(RHF) =  -358.568530897     A.U. after    2 cycles

 The electronic state is 1-A.
 Alpha  occ. eigenvalues --  -20.66549 -20.52332 -15.74138 -11.41342 -11.32325
 Alpha  occ. eigenvalues --  -11.31964 -11.25478  -1.44569  -1.33289  -1.31111
 Alpha  occ. eigenvalues --   -1.09958  -0.93191  -0.90370  -0.82598  -0.75152
 Alpha  occ. eigenvalues --   -0.70951  -0.70389  -0.66039  -0.64659  -0.62852
 Alpha  occ. eigenvalues --   -0.56353  -0.52870  -0.52142  -0.49394  -0.41319
 Alpha  occ. eigenvalues --   -0.29827
 Alpha virt. eigenvalues --    0.02171   0.03274   0.04126   0.04660   0.07062
 Alpha virt. eigenvalues --    0.07966   0.08891   0.09549   0.10893   0.11696
 Alpha virt. eigenvalues --    0.12634   0.13051   0.13324   0.14385   0.14916

 Mulliken charges:
               1
     1  O   -0.556793
     2  C    0.748168
     3  C   -0.393241
     4  C    0.795708
     5  N   -0.138526
     6  C    0.657407
     7  O   -0.358673
     8  H   -0.121310
     9  H    0.136079
    10  H   -0.243828
    11  H   -0.217052
    12  H   -0.307940
 Sum of Mulliken charges =   0.00000

 Dipole moment (field-independent basis, Debye):
    X=              6.4944    Y=              1.6326    Z=              0.6933  Tot=              6.7322

 Test job not archived.
 1\1\GINC-SE222\SP\RHF\Aug-CC-pVDZ\C4H5N1O2\OHZDE\09-Apr-2025\0\\#t hf
 aug-cc-pvdz iop(5/13=1,5/36=2,99/5=2) pseudo=read geom=check guess=(re
 ad,tcheck) scf=(maxcycle=1)\\title\\0,1\O,0,2.25298032,0.65720369,-1.6
 928151\C,0,1.58498173,0.06283163,-0.86965173\C,0,0.5843759,0.62869611,
 -0.03773024\C,0,-0.64073881,1.41891972,-0.23720692\N,0,-0.62500927,0.0
 7248691,0.32878673\C,0,-1.35872631,-0.86326601,0.7661757\O,0,-0.883970
 93,-2.06501166,1.10073984\H,0,1.7764937,-1.01799431,-0.66432012\H,0,0.
 07469614,-2.08574422,0.99964532\H,0,-1.1188443,1.47708241,-1.21380244\

 Normal termination of Gaussian 16 at Wed Apr  9 03:28:41 2025.
