 Gaussian 16, Revision C.01,

 ----------------------------------------------------------------------
 #t hf aug-cc-pvdz symm=none int=(grid=ultrafine) guess=(read,tcheck) s
 table=(opt,rrhf)
 ----------------------------------------------------------------------
 -----
 title
 -----
 Symbolic Z-matrix:
 Charge =  0 Multiplicity = 1

 SCF Done:  E(RHF) =  -308.972611220     A.U. after   15 cycles

 1\1\GINC-SE112\Stability\RHF\Aug-CC-pVDZ\C6H12O1\OHZDE\09-Apr-2025\0\\
 #t hf aug-cc-pvdz symm=none int=(grid=ultrafine) guess=(read,tcheck) s
 table=(opt,rrhf)\\title\\0,1\C,0,1.83029202,-1.03338473,-0.65812061\C,
 0,1.09600574,0.2255999,-0.53896953\O,0,-0.27673095,2.58040815,-0.26499
 189\C,0,-0.56972092,1.57638264,0.66380382\C,0,-0.2192274,0.1692274,0.1
 2997237\C,0,-0.44299511,-0.87398504,1.2251532\C,0,-1.11997873,-0.13958
 823,-1.10185924\H,0,2.53097255,-1.04816763,-1.49266807\H,0,2.46007636,
 -0.96104247,0.24905676\H,0,1.27629508,-1.97672587,-0.58659908\H,0,0.55

 Normal termination of Gaussian 16 at Wed Apr  9 14:33:59 2025.
 Gaussian 16:  ES64L-G16RevC.01  3-Jul-2019

 ----------------------------------------------------------------------
 #t hf aug-cc-pvdz iop(5/13=1,5/36=2,99/5=2) pseudo=read geom=check gue
 ss=(read,tcheck) scf=(maxcycle=1)
 ----------------------------------------------------------------------
 -----
 title
 -----
 Structure from the checkpoint file:  "Grambow2020_wb97xd3_006572_reverse_mol2.chk"
 Charge =  0 Multiplicity = 1

                         Standard orientation:
 ---------------------------------------------------------------------
 Center     Atomic      Atomic             Coordinates (Angstroms)
 Number     Number       Type             X           Y           Z
 ---------------------------------------------------------------------
      1          6           0        2.116532   -0.982620   -0.191212
      2          6           0        0.654643   -0.977073   -0.155608
      3          8           0       -2.084436   -0.938852   -0.131621
      4          6           0       -1.448219    0.236551   -0.544210
      5          6           0       -0.003314    0.336344   -0.005509
      6          6           0        0.684048    1.573455   -0.584192
      7          6           0       -0.051224    0.422632    1.548321
      8          1           0        2.553539   -1.926821    0.133056
      9          1           0        2.270055   -0.952228   -1.286813
     10          1           0        2.658349   -0.127648    0.229949
     11          1           0       -1.389455   -1.617350   -0.169986
     12          1           0       -2.039167    1.084105   -0.183036
     13          1           0       -1.411122    0.305663   -1.641934
     14          1           0        0.837201    1.469525   -1.660841
     15          1           0        1.651212    1.769297   -0.120266
     16          1           0        0.060550    2.456510   -0.424011
     17          1           0        0.946463    0.522118    1.978209
     18          1           0       -0.547942   -0.440729    1.988586
     19          1           0       -0.628991    1.312647    1.804523
 ---------------------------------------------------------------------

 SCF Done:  E(RHF) =  -309.068352791     A.U. after    2 cycles

 The electronic state is 1-A.
 Alpha  occ. eigenvalues --  -20.54766 -11.27567 -11.27102 -11.25294 -11.24700
 Alpha  occ. eigenvalues --  -11.24253 -11.23829  -1.31003  -1.11664  -1.01192
 Alpha  occ. eigenvalues --   -0.94761  -0.91188  -0.84973  -0.71151  -0.67640
 Alpha  occ. eigenvalues --   -0.64599  -0.63343  -0.59980  -0.58987  -0.58295
 Alpha  occ. eigenvalues --   -0.55206  -0.54930  -0.54718  -0.51226  -0.49706
 Alpha  occ. eigenvalues --   -0.45858  -0.43376  -0.34702
 Alpha virt. eigenvalues --    0.03092   0.04065   0.04310   0.04979   0.06248
 Alpha virt. eigenvalues --    0.06339   0.06749   0.07129   0.07230   0.08616
 Alpha virt. eigenvalues --    0.08967   0.09187   0.09449   0.11949   0.12970

 Mulliken charges:
               1
     1  C    0.659815
     2  C   -0.663468
     3  O   -0.576651
     4  C    1.335948
     5  C   -2.503396
     6  C    1.086778
     7  C    0.985192
     8  H   -0.110050
     9  H    0.114822
    10  H   -0.124130
    11  H    0.228363
    12  H   -0.123939
    13  H   -0.108924
    14  H   -0.041803
    15  H   -0.030920
    16  H   -0.007491
    17  H   -0.074165
    18  H   -0.019999
    19  H   -0.025983
 Sum of Mulliken charges =  -0.00000

 Dipole moment (field-independent basis, Debye):
    X=              3.3314    Y=              1.9908    Z=             -0.0846  Tot=              3.8818

 Test job not archived.
 1\1\GINC-SE112\SP\RHF\Aug-CC-pVDZ\C6H12O1\OHZDE\09-Apr-2025\0\\#t hf a
 ug-cc-pvdz iop(5/13=1,5/36=2,99/5=2) pseudo=read geom=check guess=(rea
 d,tcheck) scf=(maxcycle=1)\\title\\0,1\C,0,1.83029202,-1.03338473,-0.6
 5812061\C,0,1.09600574,0.2255999,-0.53896953\O,0,-0.27673095,2.5804081
 5,-0.26499189\C,0,-0.56972092,1.57638264,0.66380382\C,0,-0.2192274,0.1
 692274,0.12997237\C,0,-0.44299511,-0.87398504,1.2251532\C,0,-1.1199787
 3,-0.13958823,-1.10185924\H,0,2.53097255,-1.04816763,-1.49266807\H,0,2
 .46007636,-0.96104247,0.24905676\H,0,1.27629508,-1.97672587,-0.5865990

 Normal termination of Gaussian 16 at Wed Apr  9 14:34:06 2025.
