 Gaussian 16, Revision C.01,

 ----------------------------------------------------------------------
 #t hf aug-cc-pvdz symm=none int=(grid=ultrafine) guess=(read,tcheck) s
 table=(opt,rrhf)
 ----------------------------------------------------------------------
 -----
 title
 -----
 Symbolic Z-matrix:
 Charge =  0 Multiplicity = 1

 SCF Done:  E(RHF) =  -302.753195261     A.U. after   18 cycles
 Normal termination of Gaussian 16 at Wed Apr  9 03:59:53 2025.
 Gaussian 16:  ES64L-G16RevC.01  3-Jul-2019

 ----------------------------------------------------------------------
 #t hf aug-cc-pvdz iop(5/13=1,5/36=2,99/5=2) pseudo=read geom=check gue
 ss=(read,tcheck) scf=(maxcycle=1)
 ----------------------------------------------------------------------
 -----
 title
 -----
 Structure from the checkpoint file:  "Grambow2020_wb97xd3_008850_reverse_mol1.chk"
 Charge =  0 Multiplicity = 1

                         Standard orientation:
 ---------------------------------------------------------------------
 Center     Atomic      Atomic             Coordinates (Angstroms)
 Number     Number       Type             X           Y           Z
 ---------------------------------------------------------------------
      1          6           0        2.119752   -0.480732   -0.553107
      2          6           0        0.914233   -0.171909    0.253347
      3          6           0       -0.157251   -1.096056    0.601137
      4          6           0       -1.328107   -0.174229   -0.103118
      5          7           0       -2.489006   -0.285046   -0.355478
      6          6           0        0.532012    1.186399    0.663982
      7          7           0       -0.373033    0.917322   -0.457964
      8          1           0        2.880647   -0.905251    0.109542
      9          1           0        1.898345   -1.226950   -1.316257
     10          1           0        2.541384    0.408154   -1.022518
     11          1           0       -0.365388   -1.152312    1.668805
     12          1           0       -0.103813   -2.082034    0.148521
     13          1           0        1.245549    1.972630    0.431285
     14          1           0        0.048688    1.327436    1.630734
     15          1           0       -0.594967    1.651566   -1.129461
 ---------------------------------------------------------------------

 SCF Done:  E(RHF) =  -302.841632360     A.U. after    2 cycles

 The electronic state is 1-A.
 Alpha  occ. eigenvalues --  -15.68216 -15.51855 -11.36569 -11.32334 -11.28668
 Alpha  occ. eigenvalues --  -11.26496 -11.25082  -1.28309  -1.10294  -1.07429
 Alpha  occ. eigenvalues --   -0.99641  -0.95137  -0.79983  -0.76807  -0.68701
 Alpha  occ. eigenvalues --   -0.66349  -0.65189  -0.61150  -0.58982  -0.57182
 Alpha  occ. eigenvalues --   -0.54736  -0.53434  -0.46492  -0.42934  -0.34987
 Alpha  occ. eigenvalues --   -0.26761
 Alpha virt. eigenvalues --    0.01544   0.03123   0.03322   0.04825   0.05929
 Alpha virt. eigenvalues --    0.06114   0.06207   0.07038   0.08721   0.09633
 Alpha virt. eigenvalues --    0.11059   0.11725   0.12930   0.13256   0.13738

 Mulliken charges:
               1
     1  C    0.440407
     2  C   -0.718986
     3  C    0.451215
     4  C    0.233365
     5  N   -0.547014
     6  C    1.202848
     7  N   -0.466502
     8  H    0.097698
     9  H    0.075335
    10  H    0.014841
    11  H   -0.005759
    12  H   -0.201784
    13  H   -0.179293
    14  H   -0.267716
    15  H   -0.128657
 Sum of Mulliken charges =  -0.00000

 Dipole moment (field-independent basis, Debye):
    X=              9.1687    Y=              2.0368    Z=              1.1294  Tot=              9.4598

 Test job not archived.
 1\1\GINC-SE070\SP\RHF\Aug-CC-pVDZ\C5H8N2\OHZDE\09-Apr-2025\0\\#t hf au
 g-cc-pvdz iop(5/13=1,5/36=2,99/5=2) pseudo=read geom=check guess=(read
 ,tcheck) scf=(maxcycle=1)\\title\\0,1\C,0,-1.3542065,1.1179454,-0.6573
 1211\C,0,-0.16465518,0.57665429,0.04339244\C,0,1.1983192,0.53053279,-0
 .46969151\C,0,1.31439614,-1.10691092,-0.32154143\N,0,2.09021306,-1.956
 72015,-0.63711116\C,0,-0.23118361,-0.17536179,1.30424935\N,0,-0.035563
 27,-1.23015902,0.30454547\H,0,-1.39481852,2.19853383,-0.48713522\H,0,-
 1.27929528,0.95946562,-1.73319881\H,0,-2.2837387,0.68465948,-0.2878882

 Normal termination of Gaussian 16 at Wed Apr  9 03:59:58 2025.
