 Gaussian 16, Revision C.01,

 ----------------------------------------------------------------------
 #t hf aug-cc-pvdz symm=none int=(grid=ultrafine) guess=(read,tcheck) s
 table=(opt,rrhf)
 ----------------------------------------------------------------------
 -----
 title
 -----
 Symbolic Z-matrix:
 Charge =  0 Multiplicity = 1

 SCF Done:  E(RHF) =  -310.155522827     A.U. after   13 cycles

 1\1\GINC-SE100\Stability\RHF\Aug-CC-pVDZ\C6H14O1\OHZDE\09-Apr-2025\0\\
 #t hf aug-cc-pvdz symm=none int=(grid=ultrafine) guess=(read,tcheck) s
 table=(opt,rrhf)\\title\\0,1\C,0,-1.91713571,0.31940908,-0.07919098\C,
 0,-1.80700507,0.35728637,-1.56937843\C,0,-1.25861283,-0.58982209,-2.31
 643954\C,0,1.41165073,-1.80777673,0.82767243\C,0,1.57171858,-0.765878,
 0.02588739\O,0,1.45891158,0.50951308,0.45714516\C,0,1.64391899,1.50363
 889,-0.53229969\H,0,-1.43254629,1.18951878,0.37071378\H,0,-1.45108124,
 -0.57629141,0.3326322\H,0,-2.9649464,0.34356591,0.23181581\H,0,-2.2166

 Normal termination of Gaussian 16 at Wed Apr  9 16:03:32 2025.
 Gaussian 16:  ES64L-G16RevC.01  3-Jul-2019

 ----------------------------------------------------------------------
 #t hf aug-cc-pvdz iop(5/13=1,5/36=2,99/5=2) pseudo=read geom=check gue
 ss=(read,tcheck) scf=(maxcycle=1)
 ----------------------------------------------------------------------
 -----
 title
 -----
 Structure from the checkpoint file:  "Grambow2020_wb97xd3_007720_reverse_mol2.chk"
 Charge =  0 Multiplicity = 1

                         Standard orientation:
 ---------------------------------------------------------------------
 Center     Atomic      Atomic             Coordinates (Angstroms)
 Number     Number       Type             X           Y           Z
 ---------------------------------------------------------------------
      1          6           0       -1.658782   -0.227801    1.282332
      2          6           0       -2.334836    0.159185    0.006630
      3          6           0       -2.167828   -0.449578   -1.158430
      4          6           0        1.834817   -1.677805   -0.173824
      5          6           0        1.466907   -0.477666   -0.596132
      6          8           0        1.479994    0.611618    0.203004
      7          6           0        1.041028    1.813208   -0.401154
      8          1           0       -1.090779    0.610447    1.693484
      9          1           0       -0.970340   -1.060066    1.132450
     10          1           0       -2.394652   -0.513835    2.038570
     11          1           0       -3.014272    1.007483    0.060468
     12          1           0        1.425334   -0.150697    3.486297
     13          1           0       -1.502497   -1.301250   -1.257573
     14          1           0       -2.692229   -0.123737   -2.048941
     15          1           0        1.806277   -2.514404   -0.856249
     16          1           0        2.170199   -1.841129    0.842066
     17          1           0        1.125707   -0.304248   -1.614800
     18          1           0        1.415633    0.063088    2.771400
     19          1           0        1.691694    2.094356   -1.235097
     20          1           0        1.091498    2.585731    0.363460
     21          1           0        0.010645    1.718052   -0.756090
 ---------------------------------------------------------------------

 SCF Done:  E(RHF) =  -310.264256076     A.U. after    2 cycles

 The electronic state is 1-A.
 Alpha  occ. eigenvalues --  -20.59558 -11.30173 -11.29310 -11.24324 -11.22687
 Alpha  occ. eigenvalues --  -11.22448 -11.21795  -1.37097  -1.05827  -1.03698
 Alpha  occ. eigenvalues --   -0.93097  -0.92825  -0.79983  -0.75715  -0.69927
 Alpha  occ. eigenvalues --   -0.66501  -0.65935  -0.64271  -0.58675  -0.58038
 Alpha  occ. eigenvalues --   -0.56899  -0.56322  -0.55125  -0.52365  -0.51330
 Alpha  occ. eigenvalues --   -0.50743  -0.49050  -0.36570  -0.34419
 Alpha virt. eigenvalues --    0.03274   0.04282   0.04515   0.04810   0.05945
 Alpha virt. eigenvalues --    0.06242   0.06332   0.06745   0.07684   0.08420
 Alpha virt. eigenvalues --    0.08865   0.09391   0.09558   0.11499   0.12373

 Mulliken charges:
               1
     1  C    0.380485
     2  C    0.388349
     3  C    0.566708
     4  C    0.479471
     5  C    0.945987
     6  O   -0.641247
     7  C    0.863700
     8  H   -0.060071
     9  H   -0.185231
    10  H   -0.029560
    11  H   -0.402014
    12  H    0.019400
    13  H   -0.345482
    14  H   -0.332793
    15  H   -0.299968
    16  H   -0.376730
    17  H   -0.473339
    18  H   -0.020588
    19  H   -0.136533
    20  H   -0.274891
    21  H   -0.065655
 Sum of Mulliken charges =  -0.00000

 Dipole moment (field-independent basis, Debye):
    X=             -0.6203    Y=              1.1617    Z=             -1.0540  Tot=              1.6868

 Test job not archived.
 1\1\GINC-SE100\SP\RHF\Aug-CC-pVDZ\C6H14O1\OHZDE\09-Apr-2025\0\\#t hf a
 ug-cc-pvdz iop(5/13=1,5/36=2,99/5=2) pseudo=read geom=check guess=(rea
 d,tcheck) scf=(maxcycle=1)\\title\\0,1\C,0,-1.91713571,0.31940908,-0.0
 7919098\C,0,-1.80700507,0.35728637,-1.56937843\C,0,-1.25861283,-0.5898
 2209,-2.31643954\C,0,1.41165073,-1.80777673,0.82767243\C,0,1.57171858,
 -0.765878,0.02588739\O,0,1.45891158,0.50951308,0.45714516\C,0,1.643918
 99,1.50363889,-0.53229969\H,0,-1.43254629,1.18951878,0.37071378\H,0,-1
 .45108124,-0.57629141,0.3326322\H,0,-2.9649464,0.34356591,0.23181581\H

 Normal termination of Gaussian 16 at Wed Apr  9 16:03:55 2025.
