 Gaussian 16, Revision C.01,

 ----------------------------------------------------------------------
 #t hf aug-cc-pvdz symm=none int=(grid=ultrafine) guess=(read,tcheck) s
 table=(opt,rrhf)
 ----------------------------------------------------------------------
 -----
 title
 -----
 Symbolic Z-matrix:
 Charge =  0 Multiplicity = 1

 SCF Done:  E(RHF) =  -317.606423167     A.U. after   16 cycles
 Normal termination of Gaussian 16 at Wed Apr  9 16:50:57 2025.
 Gaussian 16:  ES64L-G16RevC.01  3-Jul-2019

 ----------------------------------------------------------------------
 #t hf aug-cc-pvdz iop(5/13=1,5/36=2,99/5=2) pseudo=read geom=check gue
 ss=(read,tcheck) scf=(maxcycle=1)
 ----------------------------------------------------------------------
 -----
 title
 -----
 Structure from the checkpoint file:  "Grambow2020_wb97xd3_008975_forward_mol1.chk"
 Charge =  0 Multiplicity = 1

                         Standard orientation:
 ---------------------------------------------------------------------
 Center     Atomic      Atomic             Coordinates (Angstroms)
 Number     Number       Type             X           Y           Z
 ---------------------------------------------------------------------
      1          7           0       -2.310499    0.047553   -0.074015
      2          6           0       -0.934419    0.023810   -0.008028
      3          6           0       -0.199427   -1.151798    0.003052
      4          7           0        1.140491   -1.201661    0.001796
      5          6           0        1.795398   -0.071650   -0.004197
      6          7           0        1.154871    1.106349    0.012702
      7          6           0       -0.201384    1.225121    0.009609
      8          1           0       -2.804073   -0.758396    0.267842
      9          1           0       -2.728575    0.927178    0.177117
     10          1           0       -0.703793   -2.116252    0.007987
     11          1           0        2.878218   -0.072189   -0.014390
     12          1           0        0.703173    2.201075   -0.024556
 ---------------------------------------------------------------------

 SCF Done:  E(RHF) =  -317.699153103     A.U. after    2 cycles

 The electronic state is 1-A.
 Alpha  occ. eigenvalues --  -15.66937 -15.64090 -15.63414 -11.33102 -11.29636
 Alpha  occ. eigenvalues --  -11.29454 -11.27095  -1.30022  -1.19611  -1.18183
 Alpha  occ. eigenvalues --   -1.03095  -0.90831  -0.87995  -0.76668  -0.72486
 Alpha  occ. eigenvalues --   -0.68244  -0.63862  -0.61099  -0.59410  -0.51404
 Alpha  occ. eigenvalues --   -0.49264  -0.46466  -0.42991  -0.35427  -0.31417
 Alpha virt. eigenvalues --    0.03089   0.03685   0.04252   0.05972   0.07202
 Alpha virt. eigenvalues --    0.07777   0.08405   0.10836   0.11059   0.11622
 Alpha virt. eigenvalues --    0.12418   0.13715   0.14198   0.15252   0.15462

 Mulliken charges:
               1
     1  N   -0.320171
     2  C    0.535147
     3  C    0.759808
     4  N   -0.520940
     5  C    0.506654
     6  N   -0.621177
     7  C   -0.036493
     8  H   -0.057484
     9  H   -0.024999
    10  H   -0.328731
    11  H   -0.245409
    12  H    0.353795
 Sum of Mulliken charges =  -0.00000

 Dipole moment (field-independent basis, Debye):
    X=             -0.9515    Y=              0.0473    Z=              0.7851  Tot=              1.2345

 Test job not archived.
 1\1\GINC-SE037\SP\RHF\Aug-CC-pVDZ\C4H5N3\OHZDE\09-Apr-2025\0\\#t hf au
 g-cc-pvdz iop(5/13=1,5/36=2,99/5=2) pseudo=read geom=check guess=(read
 ,tcheck) scf=(maxcycle=1)\\title\\0,1\N,0,-2.16158981,0.17724362,0.078
 97893\C,0,-0.78963343,0.06219525,0.02407236\C,0,0.06298916,1.15282718,
 0.10118814\N,0,1.40073615,1.0627673,0.11496156\C,0,1.93521725,-0.12691
 466,0.04532513\N,0,1.17669045,-1.22779912,-0.059234\C,0,-0.1844866,-1.
 20470912,-0.07365724\H,0,-2.56439393,1.05204466,-0.20826057\H,0,-2.664
 76069,-0.63443527,-0.23660203\H,0,-0.33889448,2.16251642,0.16116829\H,

 Normal termination of Gaussian 16 at Wed Apr  9 16:51:02 2025.
