 Gaussian 16, Revision C.01,

 ----------------------------------------------------------------------
 #t hf aug-cc-pvdz symm=none int=(grid=ultrafine) guess=(read,tcheck) s
 table=(opt,rrhf)
 ----------------------------------------------------------------------
 -----
 title
 -----
 Symbolic Z-matrix:
 Charge =  0 Multiplicity = 1

 SCF Done:  E(RHF) =  -307.799894435     A.U. after   13 cycles

 1\1\GINC-SE113\Stability\RHF\Aug-CC-pVDZ\C6H10O1\OHZDE\09-Apr-2025\0\\
 #t hf aug-cc-pvdz symm=none int=(grid=ultrafine) guess=(read,tcheck) s
 table=(opt,rrhf)\\title\\0,1\C,0,2.07470398,0.37411408,0.6823099\C,0,0
 .83663681,0.14014713,0.28937149\C,0,-0.05593348,-1.05348022,0.23935162
 \C,0,-1.29210271,-0.75197379,1.03855106\C,0,-1.18245957,-0.18679672,-0
 .33570292\C,0,-0.23659829,1.0138022,-0.36486178\O,0,-0.6177227,2.23205
 811,0.2094293\H,0,2.70462261,-0.41425526,1.07725655\H,0,2.49694836,1.3
 6993146,0.61438037\H,0,0.53057879,-1.13977078,-2.62929303\H,0,0.224371

 Normal termination of Gaussian 16 at Wed Apr  9 16:04:44 2025.
 Gaussian 16:  ES64L-G16RevC.01  3-Jul-2019

 ----------------------------------------------------------------------
 #t hf aug-cc-pvdz iop(5/13=1,5/36=2,99/5=2) pseudo=read geom=check gue
 ss=(read,tcheck) scf=(maxcycle=1)
 ----------------------------------------------------------------------
 -----
 title
 -----
 Structure from the checkpoint file:  "Grambow2020_wb97xd3_007734_reverse_mol2.chk"
 Charge =  0 Multiplicity = 1

                         Standard orientation:
 ---------------------------------------------------------------------
 Center     Atomic      Atomic             Coordinates (Angstroms)
 Number     Number       Type             X           Y           Z
 ---------------------------------------------------------------------
      1          6           0       -1.889804   -1.043527   -0.446392
      2          6           0       -0.704300   -0.570230   -0.110950
      3          6           0        0.697885   -1.074608   -0.169349
      4          6           0        1.511715   -0.112219   -0.987413
      5          6           0        1.198095    0.247744    0.424002
      6          6           0       -0.247271    0.725629    0.563587
      7          8           0       -0.634827    1.972224    0.058596
      8          1           0       -2.007523   -2.033382   -0.871404
      9          1           0       -2.783861   -0.448976   -0.298986
     10          1           0        0.439851   -1.575553    2.705201
     11          1           0        1.035176   -2.080240    0.038568
     12          1           0        1.052895    0.406660   -1.823107
     13          1           0        2.537222   -0.409409   -1.167792
     14          1           0        0.433530   -1.784846    3.420587
     15          1           0        1.977191    0.398973    1.158119
     16          1           0       -0.548031    0.721138    1.613306
     17          1           0       -0.455753    1.991111   -0.884171
 ---------------------------------------------------------------------

 SCF Done:  E(RHF) =  -307.898071652     A.U. after    2 cycles

 The electronic state is 1-A.
 Alpha  occ. eigenvalues --  -20.57516 -11.30000 -11.25497 -11.25271 -11.25136
 Alpha  occ. eigenvalues --  -11.25044 -11.22919  -1.33364  -1.19634  -1.02941
 Alpha  occ. eigenvalues --   -0.94375  -0.85375  -0.80170  -0.76421  -0.68429
 Alpha  occ. eigenvalues --   -0.65557  -0.65178  -0.62665  -0.59271  -0.57703
 Alpha  occ. eigenvalues --   -0.57101  -0.55024  -0.48905  -0.45846  -0.43711
 Alpha  occ. eigenvalues --   -0.42272  -0.34801
 Alpha virt. eigenvalues --    0.03268   0.04113   0.04527   0.04688   0.06072
 Alpha virt. eigenvalues --    0.06304   0.06669   0.07336   0.08378   0.09510
 Alpha virt. eigenvalues --    0.11130   0.12282   0.12581   0.13046   0.14114

 Mulliken charges:
               1
     1  C    1.088634
     2  C   -0.645984
     3  C    0.511328
     4  C    0.823524
     5  C    0.713416
     6  C    0.521681
     7  O   -0.601716
     8  H   -0.335731
     9  H   -0.350545
    10  H   -0.064181
    11  H   -0.467189
    12  H   -0.400431
    13  H   -0.367709
    14  H    0.050176
    15  H   -0.422740
    16  H   -0.185837
    17  H    0.133303
 Sum of Mulliken charges =  -0.00000

 Dipole moment (field-independent basis, Debye):
    X=              1.3885    Y=             -1.3665    Z=             -0.7779  Tot=              2.0977

 Test job not archived.
 1\1\GINC-SE113\SP\RHF\Aug-CC-pVDZ\C6H10O1\OHZDE\09-Apr-2025\0\\#t hf a
 ug-cc-pvdz iop(5/13=1,5/36=2,99/5=2) pseudo=read geom=check guess=(rea
 d,tcheck) scf=(maxcycle=1)\\title\\0,1\C,0,2.07470398,0.37411408,0.682
 3099\C,0,0.83663681,0.14014713,0.28937149\C,0,-0.05593348,-1.05348022,
 0.23935162\C,0,-1.29210271,-0.75197379,1.03855106\C,0,-1.18245957,-0.1
 8679672,-0.33570292\C,0,-0.23659829,1.0138022,-0.36486178\O,0,-0.61772
 27,2.23205811,0.2094293\H,0,2.70462261,-0.41425526,1.07725655\H,0,2.49
 694836,1.36993146,0.61438037\H,0,0.53057879,-1.13977078,-2.62929303\H,

 Normal termination of Gaussian 16 at Wed Apr  9 16:04:50 2025.
