 Gaussian 16, Revision C.01,

 ----------------------------------------------------------------------
 #t hf aug-cc-pvdz symm=none int=(grid=ultrafine) guess=(read,tcheck) s
 table=(opt,rrhf)
 ----------------------------------------------------------------------
 -----
 title
 -----
 Symbolic Z-matrix:
 Charge =  0 Multiplicity = 1

 SCF Done:  E(RHF) =  -343.623069795     A.U. after   15 cycles
 Normal termination of Gaussian 16 at Wed Apr  9 16:59:25 2025.
 Gaussian 16:  ES64L-G16RevC.01  3-Jul-2019

 ----------------------------------------------------------------------
 #t hf aug-cc-pvdz iop(5/13=1,5/36=2,99/5=2) pseudo=read geom=check gue
 ss=(read,tcheck) scf=(maxcycle=1)
 ----------------------------------------------------------------------
 -----
 title
 -----
 Structure from the checkpoint file:  "Grambow2020_wb97xd3_009099_reverse_mol2.chk"
 Charge =  0 Multiplicity = 1

                         Standard orientation:
 ---------------------------------------------------------------------
 Center     Atomic      Atomic             Coordinates (Angstroms)
 Number     Number       Type             X           Y           Z
 ---------------------------------------------------------------------
      1          6           0        1.640750    1.209492    0.563795
      2          6           0        1.762489    0.311296   -0.404136
      3          8           0        1.078377   -0.840260   -0.595903
      4          6           0        0.175160   -1.291480    0.391901
      5          6           0       -1.256587   -0.919711    0.090832
      6          8           0       -1.485365    0.479713    0.338888
      7          6           0       -1.940038    1.181773   -0.646140
      8          1           0        0.902787    1.155745    1.351131
      9          1           0        2.301908    2.063823    0.552725
     10          1           0        2.492540    0.428546   -1.196672
     11          1           0        0.474490   -0.945658    1.384960
     12          1           0        0.241141   -2.381778    0.379995
     13          1           0       -1.513704   -1.118155   -0.950673
     14          1           0       -1.923610   -1.467266    0.759833
     15          1           0       -2.010295    2.200904   -0.202692
 ---------------------------------------------------------------------

 SCF Done:  E(RHF) =  -343.734161007     A.U. after    2 cycles

 The electronic state is 1-A.
 Alpha  occ. eigenvalues --  -20.64425 -20.60579 -11.31071 -11.30956 -11.30918
 Alpha  occ. eigenvalues --  -11.30438 -11.22337  -1.41835  -1.37908  -1.07049
 Alpha  occ. eigenvalues --   -1.01779  -0.92971  -0.82960  -0.78656  -0.71731
 Alpha  occ. eigenvalues --   -0.70796  -0.69341  -0.66381  -0.62982  -0.60032
 Alpha  occ. eigenvalues --   -0.57514  -0.55416  -0.54127  -0.51036  -0.50376
 Alpha  occ. eigenvalues --   -0.36283  -0.35447
 Alpha virt. eigenvalues --    0.03265   0.04198   0.04503   0.05249   0.06066
 Alpha virt. eigenvalues --    0.06207   0.06956   0.08448   0.08608   0.11461
 Alpha virt. eigenvalues --    0.12098   0.12529   0.13107   0.13777   0.14404

 Mulliken charges:
               1
     1  C    0.642889
     2  C    0.592517
     3  O   -0.560557
     4  C    0.688392
     5  C    0.763014
     6  O   -0.469223
     7  C    0.108137
     8  H   -0.371997
     9  H   -0.298653
    10  H   -0.362738
    11  H   -0.095700
    12  H   -0.192871
    13  H   -0.102247
    14  H   -0.114957
    15  H   -0.226006
 Sum of Mulliken charges =  -0.00000

 Dipole moment (field-independent basis, Debye):
    X=              0.1624    Y=             -1.1678    Z=              1.9473  Tot=              2.2764

 Test job not archived.
 1\1\GINC-SE174\SP\RHF\Aug-CC-pVDZ\C5H8O2\OHZDE\09-Apr-2025\0\\#t hf au
 g-cc-pvdz iop(5/13=1,5/36=2,99/5=2) pseudo=read geom=check guess=(read
 ,tcheck) scf=(maxcycle=1)\\title\\0,1\C,0,-1.85698991,0.63501078,0.584
 10717\C,0,-1.51444454,0.71234343,-0.69462229\O,0,-0.28234783,0.7863995
 4,-1.24898579\C,0,0.85144769,0.93389302,-0.41958252\C,0,1.54927911,-0.
 37564763,-0.14229455\O,0,0.80220123,-1.16409983,0.80241443\C,0,0.45486
 52,-2.35126277,0.42838288\H,0,-1.14949486,0.57388668,1.39841016\H,0,-2
 .90869151,0.60426746,0.82928719\H,0,-2.26072865,0.73094963,-1.48046479

 Normal termination of Gaussian 16 at Wed Apr  9 16:59:31 2025.
