 Gaussian 16, Revision C.01,

 ----------------------------------------------------------------------
 #t hf aug-cc-pvdz symm=none int=(grid=ultrafine) guess=(read,tcheck) s
 table=(opt,rrhf)
 ----------------------------------------------------------------------
 -----
 title
 -----
 Symbolic Z-matrix:
 Charge =  0 Multiplicity = 1

 SCF Done:  E(RHF) =  -307.916498230     A.U. after   13 cycles

 1\1\GINC-SE123\Stability\RHF\Aug-CC-pVDZ\C6H10O1\OHZDE\09-Apr-2025\0\\
 #t hf aug-cc-pvdz symm=none int=(grid=ultrafine) guess=(read,tcheck) s
 table=(opt,rrhf)\\title\\0,1\O,0,1.89502168,-0.88074711,1.07792033\C,0
 ,1.30297824,-0.49815549,-0.16191687\C,0,0.00075459,-1.24818697,-0.4340
 1138\C,0,-1.16907508,-0.62592184,0.31793484\C,0,-1.37815566,0.81864488
 ,-0.12339925\C,0,-0.08311621,1.57520785,-0.19371432\C,0,1.11038243,0.9
 9279322,-0.21173388\H,0,1.44418715,-0.40700911,1.7801345\H,0,2.0414719
 9,-0.78820367,-0.91396226\H,0,0.14091515,-2.2950092,-0.15841898\H,0,-0

 Normal termination of Gaussian 16 at Wed Apr  9 03:53:48 2025.
 Gaussian 16:  ES64L-G16RevC.01  3-Jul-2019

 ----------------------------------------------------------------------
 #t hf aug-cc-pvdz iop(5/13=1,5/36=2,99/5=2) pseudo=read geom=check gue
 ss=(read,tcheck) scf=(maxcycle=1)
 ----------------------------------------------------------------------
 -----
 title
 -----
 Structure from the checkpoint file:  "Grambow2020_wb97xd3_008410_forward_mol2.chk"
 Charge =  0 Multiplicity = 1

                         Standard orientation:
 ---------------------------------------------------------------------
 Center     Atomic      Atomic             Coordinates (Angstroms)
 Number     Number       Type             X           Y           Z
 ---------------------------------------------------------------------
      1          8           0       -2.034541   -0.028975   -0.642726
      2          6           0       -1.112850    0.103214    0.437598
      3          6           0       -0.269785   -1.155192    0.632605
      4          6           0        0.890965   -1.207353   -0.352827
      5          6           0        1.813202   -0.009424   -0.153556
      6          6           0        1.043485    1.272268   -0.014772
      7          6           0       -0.257165    1.325762    0.248702
      8          1           0       -1.557949    0.131324   -1.460008
      9          1           0       -1.746887    0.243449    1.317031
     10          1           0       -0.919931   -2.025948    0.530007
     11          1           0        0.122491   -1.159271    1.655601
     12          1           0        0.500965   -1.199952   -1.376871
     13          1           0        1.448439   -2.139977   -0.245082
     14          1           0        2.428358   -0.153731    0.743384
     15          1           0        2.518527    0.077832   -0.984503
     16          1           0        1.598374    2.198380   -0.134812
     17          1           0       -0.763174    2.284044    0.310563
 ---------------------------------------------------------------------

 SCF Done:  E(RHF) =  -308.010478770     A.U. after    2 cycles

 The electronic state is 1-A.
 Alpha  occ. eigenvalues --  -20.56506 -11.28751 -11.24456 -11.23877 -11.23332
 Alpha  occ. eigenvalues --  -11.23290 -11.22656  -1.31942  -1.11293  -1.01116
 Alpha  occ. eigenvalues --   -0.99224  -0.85553  -0.82796  -0.73297  -0.69524
 Alpha  occ. eigenvalues --   -0.64725  -0.62841  -0.61093  -0.58855  -0.56513
 Alpha  occ. eigenvalues --   -0.55556  -0.51828  -0.50094  -0.48178  -0.45568
 Alpha  occ. eigenvalues --   -0.43107  -0.36460
 Alpha virt. eigenvalues --    0.03302   0.04271   0.04391   0.04788   0.06095
 Alpha virt. eigenvalues --    0.06183   0.06604   0.07347   0.07864   0.08985
 Alpha virt. eigenvalues --    0.12465   0.13483   0.13821   0.14023   0.14144

 Mulliken charges:
               1
     1  O   -0.628498
     2  C    0.430542
     3  C    0.434748
     4  C    0.435459
     5  C    0.129214
     6  C    0.087761
     7  C    0.204573
     8  H    0.170475
     9  H   -0.123112
    10  H   -0.032168
    11  H   -0.094499
    12  H   -0.189427
    13  H   -0.051352
    14  H    0.022380
    15  H   -0.001790
    16  H   -0.401479
    17  H   -0.392828
 Sum of Mulliken charges =   0.00000

 Dipole moment (field-independent basis, Debye):
    X=              2.2267    Y=              0.1048    Z=             -0.0051  Tot=              2.2291

 Test job not archived.
 1\1\GINC-SE123\SP\RHF\Aug-CC-pVDZ\C6H10O1\OHZDE\09-Apr-2025\0\\#t hf a
 ug-cc-pvdz iop(5/13=1,5/36=2,99/5=2) pseudo=read geom=check guess=(rea
 d,tcheck) scf=(maxcycle=1)\\title\\0,1\O,0,1.89502168,-0.88074711,1.07
 792033\C,0,1.30297824,-0.49815549,-0.16191687\C,0,0.00075459,-1.248186
 97,-0.43401138\C,0,-1.16907508,-0.62592184,0.31793484\C,0,-1.37815566,
 0.81864488,-0.12339925\C,0,-0.08311621,1.57520785,-0.19371432\C,0,1.11
 038243,0.99279322,-0.21173388\H,0,1.44418715,-0.40700911,1.7801345\H,0
 ,2.04147199,-0.78820367,-0.91396226\H,0,0.14091515,-2.2950092,-0.15841

 Normal termination of Gaussian 16 at Wed Apr  9 03:53:54 2025.
