 Gaussian 16, Revision C.01,

 ----------------------------------------------------------------------
 #t hf aug-cc-pvdz symm=none int=(grid=ultrafine) guess=(read,tcheck) s
 table=(opt,rrhf)
 ----------------------------------------------------------------------
 -----
 title
 -----
 Symbolic Z-matrix:
 Charge =  0 Multiplicity = 1

 SCF Done:  E(RHF) =  -306.508629330     A.U. after   17 cycles
 Normal termination of Gaussian 16 at Wed Apr  9 16:23:11 2025.
 Gaussian 16:  ES64L-G16RevC.01  3-Jul-2019

 ----------------------------------------------------------------------
 #t hf aug-cc-pvdz iop(5/13=1,5/36=2,99/5=2) pseudo=read geom=check gue
 ss=(read,tcheck) scf=(maxcycle=1)
 ----------------------------------------------------------------------
 -----
 title
 -----
 Structure from the checkpoint file:  "Grambow2020_wb97xd3_008165_forward_mol1.chk"
 Charge =  0 Multiplicity = 1

                         Standard orientation:
 ---------------------------------------------------------------------
 Center     Atomic      Atomic             Coordinates (Angstroms)
 Number     Number       Type             X           Y           Z
 ---------------------------------------------------------------------
      1          8           0        2.050100    0.229732   -0.449576
      2          6           0        0.776602   -0.008870    0.049568
      3          6           0       -0.059486    1.305820    0.377866
      4          6           0       -1.435190    0.896204    0.107981
      5          6           0       -1.686333   -0.464523   -0.322102
      6          6           0       -0.218492   -1.097780   -0.373439
      7          6           0        0.452405   -1.097833    0.870452
      8          1           0        1.982302    0.848848   -1.179626
      9          1           0        0.199969    2.203918   -0.206520
     10          1           0        0.237667    1.522211    1.403573
     11          1           0       -2.100625    1.661688   -0.281493
     12          1           0       -2.165572   -1.161704    0.364665
     13          1           0       -2.285626   -0.483773   -1.245068
     14          1           0       -0.100520   -1.865126   -1.136085
     15          1           0        0.854571   -1.762030    1.615208
 ---------------------------------------------------------------------

 SCF Done:  E(RHF) =  -306.600855041     A.U. after    2 cycles

 The electronic state is 1-A.
 Alpha  occ. eigenvalues --  -20.58242 -11.30524 -11.28261 -11.25146 -11.25095
 Alpha  occ. eigenvalues --  -11.25032 -11.22753  -1.34083  -1.17237  -1.04685
 Alpha  occ. eigenvalues --   -0.97321  -0.80817  -0.79543  -0.75134  -0.72217
 Alpha  occ. eigenvalues --   -0.64937  -0.64207  -0.59617  -0.58684  -0.57121
 Alpha  occ. eigenvalues --   -0.55053  -0.49629  -0.48207  -0.44798  -0.39294
 Alpha  occ. eigenvalues --   -0.22929
 Alpha virt. eigenvalues --    0.01401   0.03083   0.04311   0.04524   0.04688
 Alpha virt. eigenvalues --    0.06456   0.06670   0.06781   0.07151   0.10744
 Alpha virt. eigenvalues --    0.11717   0.13221   0.13867   0.14287   0.14562

 Mulliken charges:
               1
     1  O   -0.617612
     2  C    0.510428
     3  C    0.228561
     4  C    0.144444
     5  C    0.292245
     6  C    0.338528
     7  C    0.068101
     8  H    0.133786
     9  H   -0.157186
    10  H    0.106582
    11  H   -0.305747
    12  H    0.116236
    13  H   -0.136061
    14  H   -0.311500
    15  H   -0.410805
 Sum of Mulliken charges =  -0.00000

 Dipole moment (field-independent basis, Debye):
    X=             -1.6727    Y=              1.1210    Z=             -1.5811  Tot=              2.5601

 Test job not archived.
 1\1\GINC-SE057\SP\RHF\Aug-CC-pVDZ\C6H8O1\OHZDE\09-Apr-2025\0\\#t hf au
 g-cc-pvdz iop(5/13=1,5/36=2,99/5=2) pseudo=read geom=check guess=(read
 ,tcheck) scf=(maxcycle=1)\\title\\0,1\O,0,2.17039138,0.81384715,-0.226
 66824\C,0,0.86307429,0.37222409,-0.38082579\C,0,0.64246861,-1.16663791
 ,-0.03663131\C,0,-0.72149604,-1.19436917,0.48492063\C,0,-1.47420233,0.
 04274747,0.53590021\C,0,-0.43497571,1.11506161,-0.03712382\C,0,-0.0132
 7107,0.85763004,-1.36123113\H,0,2.48136332,0.55379779,0.64312808\H,0,1
 .34510503,-1.60642428,0.69020708\H,0,0.8561047,-1.65236007,-0.98827828

 Normal termination of Gaussian 16 at Wed Apr  9 16:23:16 2025.
