 Gaussian 16, Revision C.01,

 ----------------------------------------------------------------------
 #t hf aug-cc-pvdz symm=none int=(grid=ultrafine) guess=(read,tcheck) s
 table=(opt,rrhf)
 ----------------------------------------------------------------------
 -----
 title
 -----
 Symbolic Z-matrix:
 Charge =  0 Multiplicity = 1

 SCF Done:  E(RHF) =  -336.270159919     A.U. after   17 cycles
 Normal termination of Gaussian 16 at Wed Apr  9 03:45:30 2025.
 Gaussian 16:  ES64L-G16RevC.01  3-Jul-2019

 ----------------------------------------------------------------------
 #t hf aug-cc-pvdz iop(5/13=1,5/36=2,99/5=2) pseudo=read geom=check gue
 ss=(read,tcheck) scf=(maxcycle=1)
 ----------------------------------------------------------------------
 -----
 title
 -----
 Structure from the checkpoint file:  "Grambow2020_wb97xd3_007920_forward_mol1.chk"
 Charge =  0 Multiplicity = 1

                         Standard orientation:
 ---------------------------------------------------------------------
 Center     Atomic      Atomic             Coordinates (Angstroms)
 Number     Number       Type             X           Y           Z
 ---------------------------------------------------------------------
      1          7           0        2.148630   -0.972179    0.006720
      2          6           0        1.399733    0.154338   -0.000715
      3          8           0        1.845632    1.276282   -0.004530
      4          6           0       -0.045733   -0.086817   -0.002510
      5          6           0       -1.239384   -0.239633   -0.004401
      6          6           0       -2.688130   -0.612990   -0.011005
      7          7           0       -2.749143    0.581162    0.013376
      8          1           0        1.730521   -1.883679    0.003409
      9          1           0        3.149103   -0.878839    0.003938
 ---------------------------------------------------------------------

 SCF Done:  E(RHF) =  -336.370411287     A.U. after    2 cycles

 The electronic state is 1-A.
 Alpha  occ. eigenvalues --  -20.56796 -15.75659 -15.67871 -11.41742 -11.34555
 Alpha  occ. eigenvalues --  -11.33881 -11.30098  -1.38614  -1.33503  -1.21493
 Alpha  occ. eigenvalues --   -1.07801  -0.91101  -0.79575  -0.77206  -0.72039
 Alpha  occ. eigenvalues --   -0.66903  -0.65177  -0.62740  -0.58926  -0.55835
 Alpha  occ. eigenvalues --   -0.49225  -0.44665  -0.43051  -0.41750
 Alpha virt. eigenvalues --    0.02287   0.03872   0.04992   0.06940   0.07087
 Alpha virt. eigenvalues --    0.08500   0.09108   0.09826   0.10497   0.11541
 Alpha virt. eigenvalues --    0.12279   0.13930   0.15256   0.15933   0.16326

 Mulliken charges:
               1
     1  N   -0.154466
     2  C    0.362132
     3  O   -0.460804
     4  C    0.633950
     5  C   -0.093631
     6  C   -0.104908
     7  N   -0.241214
     8  H    0.013087
     9  H    0.045854
 Sum of Mulliken charges =  -0.00000

 Dipole moment (field-independent basis, Debye):
    X=              0.9451    Y=             -3.9907    Z=              0.0040  Tot=              4.1011

 Test job not archived.
 1\1\GINC-SE083\SP\RHF\Aug-CC-pVDZ\C4H2N2O1\OHZDE\09-Apr-2025\0\\#t hf
 aug-cc-pvdz iop(5/13=1,5/36=2,99/5=2) pseudo=read geom=check guess=(re
 ad,tcheck) scf=(maxcycle=1)\\title\\0,1\N,0,-1.84902211,0.35119828,0.5
 0610491\C,0,-0.9200334,-0.61487017,0.68950238\O,0,-1.16910953,-1.77990
 871,0.88506493\C,0,0.46331779,-0.13443204,0.63427625\C,0,1.61353672,0.
 21730234,0.59635481\C,0,2.97781651,0.82569633,0.51329517\N,0,3.2398064
 1,-0.31792972,0.74523502\H,0,-1.59149852,1.30613599,0.34047282\H,0,-2.
 81888487,0.0893317,0.52752572\\Version=ES64L-G16RevC.01\State=1-A\HF=-

 Normal termination of Gaussian 16 at Wed Apr  9 03:45:36 2025.
