 Gaussian 16, Revision C.01,

 ----------------------------------------------------------------------
 #t hf aug-cc-pvdz symm=none int=(grid=ultrafine) guess=(read,tcheck) s
 table=(opt,rrhf)
 ----------------------------------------------------------------------
 -----
 title
 -----
 Symbolic Z-matrix:
 Charge =  0 Multiplicity = 1

 SCF Done:  E(RHF) =  -306.568657492     A.U. after   16 cycles
 Normal termination of Gaussian 16 at Wed Apr  9 04:05:24 2025.
 Gaussian 16:  ES64L-G16RevC.01  3-Jul-2019

 ----------------------------------------------------------------------
 #t hf aug-cc-pvdz iop(5/13=1,5/36=2,99/5=2) pseudo=read geom=check gue
 ss=(read,tcheck) scf=(maxcycle=1)
 ----------------------------------------------------------------------
 -----
 title
 -----
 Structure from the checkpoint file:  "Grambow2020_wb97xd3_009281_forward_mol1.chk"
 Charge =  0 Multiplicity = 1

                         Standard orientation:
 ---------------------------------------------------------------------
 Center     Atomic      Atomic             Coordinates (Angstroms)
 Number     Number       Type             X           Y           Z
 ---------------------------------------------------------------------
      1          6           0       -1.782653   -1.069669   -0.133308
      2          6           0       -0.967021    0.059419    0.494455
      3          6           0       -1.236551    1.408666   -0.172307
      4          6           0        0.480276   -0.261010    0.484003
      5          8           0        1.081875   -0.413006   -1.078949
      6          6           0        1.646035   -0.185928    1.137685
      7          6           0        1.867983    0.197194   -0.226101
      8          1           0       -1.545043   -1.164907   -1.193513
      9          1           0       -2.848221   -0.857957   -0.033015
     10          1           0       -1.576324   -2.024797    0.350659
     11          1           0       -1.207019    0.133259    1.559602
     12          1           0       -0.966881    1.376490   -1.228818
     13          1           0       -2.297629    1.649405   -0.098372
     14          1           0       -0.670432    2.206882    0.309610
     15          1           0        2.408137    1.093644   -0.541121
 ---------------------------------------------------------------------

 SCF Done:  E(RHF) =  -306.662574103     A.U. after    2 cycles

 The electronic state is 1-A.
 Alpha  occ. eigenvalues --  -20.61811 -11.38218 -11.35580 -11.27960 -11.24700
 Alpha  occ. eigenvalues --  -11.24247 -11.23910  -1.41532  -1.13214  -1.08803
 Alpha  occ. eigenvalues --   -0.95163  -0.89816  -0.83050  -0.71956  -0.69491
 Alpha  occ. eigenvalues --   -0.65507  -0.62498  -0.60330  -0.58797  -0.56312
 Alpha  occ. eigenvalues --   -0.55025  -0.51466  -0.50462  -0.48198  -0.41971
 Alpha  occ. eigenvalues --   -0.37201
 Alpha virt. eigenvalues --    0.03131   0.03893   0.04737   0.05015   0.06225
 Alpha virt. eigenvalues --    0.06962   0.07282   0.07446   0.09110   0.09275
 Alpha virt. eigenvalues --    0.10513   0.12443   0.13147   0.13491   0.14219

 Mulliken charges:
               1
     1  C    0.792435
     2  C   -1.004466
     3  C    0.732998
     4  C    0.209069
     5  O   -0.731476
     6  C   -0.474681
     7  C    0.848349
     8  H    0.019781
     9  H   -0.063639
    10  H   -0.061179
    11  H    0.040401
    12  H    0.048194
    13  H   -0.063215
    14  H   -0.029202
    15  H   -0.263367
 Sum of Mulliken charges =  -0.00000

 Dipole moment (field-independent basis, Debye):
    X=             -2.1596    Y=              1.5290    Z=             -1.0596  Tot=              2.8504

 Test job not archived.
 1\1\GINC-SE090\SP\RHF\Aug-CC-pVDZ\C6H8O1\OHZDE\09-Apr-2025\0\\#t hf au
 g-cc-pvdz iop(5/13=1,5/36=2,99/5=2) pseudo=read geom=check guess=(read
 ,tcheck) scf=(maxcycle=1)\\title\\0,1\C,0,-1.24763024,0.67723464,-1.15
 105627\C,0,-0.22523668,-0.26308961,-0.51490878\C,0,-0.7456183,-0.89716
 623,0.77537493\C,0,1.06458814,0.43067257,-0.28578014\O,0,0.91183946,1.
 7043205,0.80156958\C,0,2.40000567,0.338474,-0.29530301\C,0,2.00105123,
 0.98522371,0.92063554\H,0,-1.50407033,1.48160153,-0.46055243\H,0,-2.15
 663223,0.12601875,-1.39639608\H,0,-0.86003486,1.12355008,-2.0673733\H,

 Normal termination of Gaussian 16 at Wed Apr  9 04:05:30 2025.
