 Gaussian 16, Revision C.01,

 ----------------------------------------------------------------------
 #t hf aug-cc-pvdz symm=none int=(grid=ultrafine) guess=(read,tcheck) s
 table=(opt,rrhf)
 ----------------------------------------------------------------------
 -----
 title
 -----
 Symbolic Z-matrix:
 Charge =  0 Multiplicity = 1

 SCF Done:  E(RHF) =  -337.406559969     A.U. after   16 cycles
 Normal termination of Gaussian 16 at Wed Apr  9 16:36:46 2025.
 Gaussian 16:  ES64L-G16RevC.01  3-Jul-2019

 ----------------------------------------------------------------------
 #t hf aug-cc-pvdz iop(5/13=1,5/36=2,99/5=2) pseudo=read geom=check gue
 ss=(read,tcheck) scf=(maxcycle=1)
 ----------------------------------------------------------------------
 -----
 title
 -----
 Structure from the checkpoint file:  "Grambow2020_wb97xd3_008691_forward_mol1.chk"
 Charge =  0 Multiplicity = 1

                         Standard orientation:
 ---------------------------------------------------------------------
 Center     Atomic      Atomic             Coordinates (Angstroms)
 Number     Number       Type             X           Y           Z
 ---------------------------------------------------------------------
      1          8           0        2.670993   -0.323116    0.000594
      2          6           0        1.587205    0.062310   -0.000142
      3          6           0        0.230539    0.068256   -0.001357
      4          6           0       -0.623745    1.210159   -0.000421
      5          7           0       -1.897714    0.706086    0.000336
      6          6           0       -1.825887   -0.607169    0.000549
      7          7           0       -0.565989   -1.070392   -0.000228
      8          1           0        1.708438    1.945961    0.002282
      9          1           0        0.908137    2.105815   -0.000302
     10          1           0       -2.670824   -1.285682    0.002042
     11          1           0       -0.276448   -2.032355   -0.001305
 ---------------------------------------------------------------------

 SCF Done:  E(RHF) =  -337.509769061     A.U. after    2 cycles

 The electronic state is 1-A.
 Alpha  occ. eigenvalues --  -20.68890 -15.71745 -15.61741 -11.46019 -11.36225
 Alpha  occ. eigenvalues --  -11.30399 -11.25845  -1.49308  -1.34341  -1.16296
 Alpha  occ. eigenvalues --   -1.08340  -0.91024  -0.84487  -0.80082  -0.79268
 Alpha  occ. eigenvalues --   -0.70081  -0.69251  -0.68117  -0.62057  -0.62043
 Alpha  occ. eigenvalues --   -0.56547  -0.44622  -0.41720  -0.37258  -0.33708
 Alpha virt. eigenvalues --    0.01619   0.03935   0.05037   0.05736   0.07071
 Alpha virt. eigenvalues --    0.07546   0.07887   0.09363   0.10384   0.11122
 Alpha virt. eigenvalues --    0.11272   0.13073   0.13491   0.14511   0.15122

 Mulliken charges:
               1
     1  O   -0.159377
     2  C   -0.526590
     3  C    0.899934
     4  C    0.153483
     5  N   -0.593474
     6  C    0.754702
     7  N   -0.470125
     8  H   -0.039938
     9  H    0.280167
    10  H   -0.189086
    11  H   -0.109695
 Sum of Mulliken charges =   0.00000

 Dipole moment (field-independent basis, Debye):
    X=              0.1708    Y=             -5.7151    Z=             -0.0013  Tot=              5.7176

 Test job not archived.
 1\1\GINC-SE454\SP\RHF\Aug-CC-pVDZ\C4H4N2O1\OHZDE\09-Apr-2025\0\\#t hf
 aug-cc-pvdz iop(5/13=1,5/36=2,99/5=2) pseudo=read geom=check guess=(re
 ad,tcheck) scf=(maxcycle=1)\\title\\0,1\O,0,-2.57055066,-1.00220094,0.
 04804547\C,0,-1.60186685,-0.38284815,0.0133321\C,0,-0.28166145,-0.0705
 2959,0.00369923\C,0,0.29261031,1.23186853,-0.08414328\N,0,1.64747016,1
 .02982568,-0.05922277\C,0,1.87411964,-0.26239206,0.03351517\N,0,0.7514
 4238,-0.99700958,0.07656545\H,0,-2.14538887,1.41978016,-0.12068596\H,0
 ,-1.40192421,1.75605735,-0.13550622\H,0,2.85045529,-0.73088797,0.07327

 Normal termination of Gaussian 16 at Wed Apr  9 16:36:50 2025.
