 Gaussian 16, Revision C.01,

 ----------------------------------------------------------------------
 #t hf aug-cc-pvdz symm=none int=(grid=ultrafine) guess=(read,tcheck) s
 table=(opt,rrhf)
 ----------------------------------------------------------------------
 -----
 title
 -----
 Symbolic Z-matrix:
 Charge =  0 Multiplicity = 1

 SCF Done:  E(RHF) =  -358.407625075     A.U. after   16 cycles
 Normal termination of Gaussian 16 at Wed Apr  9 03:28:37 2025.
 Gaussian 16:  ES64L-G16RevC.01  3-Jul-2019

 ----------------------------------------------------------------------
 #t hf aug-cc-pvdz iop(5/13=1,5/36=2,99/5=2) pseudo=read geom=check gue
 ss=(read,tcheck) scf=(maxcycle=1)
 ----------------------------------------------------------------------
 -----
 title
 -----
 Structure from the checkpoint file:  "Grambow2020_wb97xd3_006798_reverse_mol1.chk"
 Charge =  0 Multiplicity = 1

                         Standard orientation:
 ---------------------------------------------------------------------
 Center     Atomic      Atomic             Coordinates (Angstroms)
 Number     Number       Type             X           Y           Z
 ---------------------------------------------------------------------
      1          8           0       -2.649888   -0.415579    0.107063
      2          6           0       -1.413999   -0.642045    0.247263
      3          6           0       -0.726196    0.403392   -0.439868
      4          6           0        0.170395    1.313605    0.396300
      5          7           0        0.704163    0.467290   -0.610936
      6          6           0        1.601573   -0.550742   -0.364485
      7          8           0        2.480065   -0.508594    0.455153
      8          1           0       -1.084677   -1.530231    0.788845
      9          1           0       -2.270747    0.483349   -0.587546
     10          1           0        0.402515    1.052362    1.424690
     11          1           0        0.127462    2.372173    0.172665
     12          1           0        1.464253   -1.400569   -1.055080
 ---------------------------------------------------------------------

 SCF Done:  E(RHF) =  -358.518181810     A.U. after    2 cycles

 The electronic state is 1-A.
 Alpha  occ. eigenvalues --  -20.65078 -20.57036 -15.66561 -11.40266 -11.37852
 Alpha  occ. eigenvalues --  -11.30714 -11.27557  -1.44142  -1.37858  -1.28194
 Alpha  occ. eigenvalues --   -1.00791  -0.95553  -0.86129  -0.81258  -0.76234
 Alpha  occ. eigenvalues --   -0.72201  -0.67945  -0.66487  -0.63308  -0.60015
 Alpha  occ. eigenvalues --   -0.56900  -0.52505  -0.51424  -0.45731  -0.43752
 Alpha  occ. eigenvalues --   -0.35125
 Alpha virt. eigenvalues --    0.02994   0.03275   0.04342   0.05272   0.05707
 Alpha virt. eigenvalues --    0.06600   0.09336   0.09688   0.09822   0.11113
 Alpha virt. eigenvalues --    0.12871   0.13349   0.13995   0.14131   0.15021

 Mulliken charges:
               1
     1  O   -0.536443
     2  C    0.715015
     3  C   -0.256851
     4  C    0.865371
     5  N   -0.655277
     6  C    0.694186
     7  O   -0.462016
     8  H   -0.165396
     9  H    0.463355
    10  H   -0.228363
    11  H   -0.240951
    12  H   -0.192630
 Sum of Mulliken charges =  -0.00000

 Dipole moment (field-independent basis, Debye):
    X=             -2.0710    Y=             -0.8473    Z=              0.3024  Tot=              2.2580

 Test job not archived.
 1\1\GINC-SE322\SP\RHF\Aug-CC-pVDZ\C4H5N1O2\OHZDE\09-Apr-2025\0\\#t hf
 aug-cc-pvdz iop(5/13=1,5/36=2,99/5=2) pseudo=read geom=check guess=(re
 ad,tcheck) scf=(maxcycle=1)\\title\\0,1\O,0,2.59173719,0.17187011,-0.1
 4570812\C,0,1.43858576,-0.28135296,-0.39709795\C,0,0.55949715,0.271260
 71,0.5826897\C,0,-0.56762155,1.16974774,0.07884241\N,0,-0.83504076,-0.
 07030128,0.71637387\C,0,-1.47849584,-1.12643296,0.1056158\O,0,-2.38258
 399,-1.0187064,-0.67946342\H,0,1.30087613,-0.98330213,-1.22107625\H,0,
 2.04711871,0.66237376,0.80144413\H,0,-0.7834829,1.22692775,-0.98410069

 Normal termination of Gaussian 16 at Wed Apr  9 03:28:42 2025.
