 Gaussian 16, Revision C.01,

 ----------------------------------------------------------------------
 #t hf aug-cc-pvdz symm=none int=(grid=ultrafine) guess=(read,tcheck) s
 table=(opt,rrhf)
 ----------------------------------------------------------------------
 -----
 title
 -----
 Symbolic Z-matrix:
 Charge =  0 Multiplicity = 1

 SCF Done:  E(RHF) =  -323.803139022     A.U. after   15 cycles
 Normal termination of Gaussian 16 at Wed Apr  9 15:24:08 2025.
 Gaussian 16:  ES64L-G16RevC.01  3-Jul-2019

 ----------------------------------------------------------------------
 #t hf aug-cc-pvdz iop(5/13=1,5/36=2,99/5=2) pseudo=read geom=check gue
 ss=(read,tcheck) scf=(maxcycle=1)
 ----------------------------------------------------------------------
 -----
 title
 -----
 Structure from the checkpoint file:  "Grambow2020_wb97xd3_006877_reverse_mol2.chk"
 Charge =  0 Multiplicity = 1

                         Standard orientation:
 ---------------------------------------------------------------------
 Center     Atomic      Atomic             Coordinates (Angstroms)
 Number     Number       Type             X           Y           Z
 ---------------------------------------------------------------------
      1          6           0        2.421226   -0.187204   -0.680885
      2          7           0        1.200748    0.375012   -0.111853
      3          6           0        0.815183    0.315353    1.361046
      4          6           0        0.131059   -0.535162    0.323804
      5          6           0       -1.287420   -0.231789   -0.064365
      6          8           0       -2.070976   -1.140857   -0.188512
      7          6           0       -1.678367    1.212029   -0.239699
      8          1           0        3.234675    0.525871   -0.549156
      9          1           0        2.289528   -0.409975   -1.741153
     10          1           0        2.663274   -1.100886   -0.141608
     11          1           0        1.600842   -0.287511    1.829717
     12          1           0        0.899978    1.225242   -0.568106
     13          1           0        0.382735   -1.579348    0.148600
     14          1           0       -1.369218    1.557523   -1.231768
     15          1           0       -2.759640    1.306364   -0.175163
     16          1           0       -1.189689    1.825137    0.520298
 ---------------------------------------------------------------------

 SCF Done:  E(RHF) =  -323.902922519     A.U. after    2 cycles

 The electronic state is 1-A.
 Alpha  occ. eigenvalues --  -20.56131 -15.72513 -11.34307 -11.30715 -11.28783
 Alpha  occ. eigenvalues --  -11.24152 -11.22187  -1.35836  -1.29919  -1.05171
 Alpha  occ. eigenvalues --   -1.00018  -0.91973  -0.86499  -0.75443  -0.71023
 Alpha  occ. eigenvalues --   -0.68522  -0.64032  -0.62572  -0.61108  -0.61025
 Alpha  occ. eigenvalues --   -0.59037  -0.55119  -0.52362  -0.49404  -0.46418
 Alpha  occ. eigenvalues --   -0.42308  -0.31676
 Alpha virt. eigenvalues --    0.02170   0.03451   0.04117   0.04813   0.06141
 Alpha virt. eigenvalues --    0.06937   0.07342   0.07488   0.08874   0.10489
 Alpha virt. eigenvalues --    0.11001   0.12110   0.13056   0.13737   0.14205

 Mulliken charges:
               1
     1  C    0.806173
     2  N   -0.414829
     3  C    0.087858
     4  C    0.961065
     5  C   -0.186589
     6  O   -0.495000
     7  C    0.371170
     8  H   -0.153424
     9  H   -0.142373
    10  H   -0.164025
    11  H   -0.237518
    12  H   -0.024376
    13  H   -0.434500
    14  H    0.090687
    15  H   -0.138805
    16  H    0.074487
 Sum of Mulliken charges =  -0.00000

 Dipole moment (field-independent basis, Debye):
    X=              4.1855    Y=              1.4660    Z=             -3.6061  Tot=              5.7159

 Test job not archived.
 1\1\GINC-SE226\SP\RHF\Aug-CC-pVDZ\C5H9N1O1\OHZDE\09-Apr-2025\0\\#t hf
 aug-cc-pvdz iop(5/13=1,5/36=2,99/5=2) pseudo=read geom=check guess=(re
 ad,tcheck) scf=(maxcycle=1)\\title\\0,1\C,0,1.2555436,-0.03141982,-1.8
 5730981\N,0,0.76066464,0.13586376,-0.4947527\C,0,1.11956886,-0.7632747
 5,0.68184737\C,0,-0.23440145,-0.81395887,0.02498569\C,0,-1.4334346,-0.
 28532029,0.7582354\O,0,-2.46164936,-0.91627676,0.73715978\C,0,-1.28027
 161,0.99956678,1.52881963\H,0,2.23687465,0.43555832,-1.93761049\H,0,0.
 56975792,0.41709236,-2.57819476\H,0,1.35479954,-1.09614274,-2.05913942

 Normal termination of Gaussian 16 at Wed Apr  9 15:24:14 2025.
