 Gaussian 16, Revision C.01,

 ----------------------------------------------------------------------
 #t hf aug-cc-pvdz symm=none int=(grid=ultrafine) guess=(read,tcheck) s
 table=(opt,rrhf)
 ----------------------------------------------------------------------
 -----
 title
 -----
 Symbolic Z-matrix:
 Charge =  0 Multiplicity = 1

 SCF Done:  E(RHF) =  -264.874387750     A.U. after   16 cycles
 Normal termination of Gaussian 16 at Wed Apr  9 14:14:14 2025.
 Gaussian 16:  ES64L-G16RevC.01  3-Jul-2019

 ----------------------------------------------------------------------
 #t hf aug-cc-pvdz iop(5/13=1,5/36=2,99/5=2) pseudo=read geom=check gue
 ss=(read,tcheck) scf=(maxcycle=1)
 ----------------------------------------------------------------------
 -----
 title
 -----
 Structure from the checkpoint file:  "Grambow2020_b97d3_006846_reverse_mol1.chk"
 Charge =  0 Multiplicity = 1

                         Standard orientation:
 ---------------------------------------------------------------------
 Center     Atomic      Atomic             Coordinates (Angstroms)
 Number     Number       Type             X           Y           Z
 ---------------------------------------------------------------------
      1          6           0        0.294555    1.984156    0.081714
      2          7           0       -0.537812    0.820892   -0.240227
      3          6           0       -0.100069   -0.422758    0.395420
      4          6           0       -2.608375   -1.137184   -0.186705
      5          6           0        1.277590   -0.846820    0.081740
      6          7           0        2.365570   -1.143295   -0.237122
      7          1           0        0.224039    2.184434    1.159740
      8          1           0       -0.097587    2.857516   -0.454307
      9          1           0        1.361469    1.856145   -0.177505
     10          1           0       -0.559633    0.676883   -1.251468
     11          1           0       -0.219293   -0.345405    1.484402
     12          1           0       -0.825162   -1.224701    0.036906
     13          1           0       -2.882989   -1.050001    0.896724
     14          1           0       -2.977352   -0.162409   -0.586061
 ---------------------------------------------------------------------

 SCF Done:  E(RHF) =  -264.953394037     A.U. after    2 cycles

 The electronic state is 1-A.
 Alpha  occ. eigenvalues --  -15.64933 -15.64895 -11.32684 -11.30930 -11.29534
 Alpha  occ. eigenvalues --  -11.27743  -1.21739  -1.17783  -1.00515  -0.90186
 Alpha  occ. eigenvalues --   -0.89348  -0.73121  -0.68640  -0.64375  -0.60207
 Alpha  occ. eigenvalues --   -0.57825  -0.55646  -0.54874  -0.54526  -0.46585
 Alpha  occ. eigenvalues --   -0.46218  -0.41544  -0.38971
 Alpha virt. eigenvalues --    0.02272   0.03139   0.03753   0.04979   0.05707
 Alpha virt. eigenvalues --    0.07005   0.07395   0.07802   0.08190   0.10681
 Alpha virt. eigenvalues --    0.11345   0.12574   0.13003   0.13892   0.14398

 Mulliken charges:
               1
     1  C    0.723134
     2  N   -0.621068
     3  C    0.802290
     4  C   -0.001333
     5  C   -0.119770
     6  N   -0.256133
     7  H   -0.115575
     8  H   -0.188474
     9  H   -0.100610
    10  H    0.036046
    11  H   -0.132700
    12  H    0.011186
    13  H   -0.004277
    14  H   -0.032716
 Sum of Mulliken charges =   0.00000

 Dipole moment (field-independent basis, Debye):
    X=             -3.3501    Y=              2.6663    Z=              1.1372  Tot=              4.4301

 Test job not archived.
 1\1\GINC-SE141\SP\RHF\Aug-CC-pVDZ\C4H8N2\OHZDE\09-Apr-2025\0\\#t hf au
 g-cc-pvdz iop(5/13=1,5/36=2,99/5=2) pseudo=read geom=check guess=(read
 ,tcheck) scf=(maxcycle=1)\\title\\0,1\C,0,1.77273172,-0.04579532,0.447
 86564\N,0,0.32901989,-0.3009324,0.46417161\C,0,-0.4257546,0.46655897,-
 0.52759726\C,0,-2.23517948,-1.43860242,-0.04055075\C,0,-0.30111375,1.9
 3298212,-0.42642867\N,0,-0.18620794,3.08831091,-0.26742607\H,0,2.17991
 6,-0.36837279,-0.52031217\H,0,2.24588064,-0.64659541,1.23464328\H,0,2.
 04103159,1.01571483,0.59984675\H,0,-0.05102717,-0.09503876,1.38991086\

 Normal termination of Gaussian 16 at Wed Apr  9 14:14:18 2025.
