 Gaussian 16, Revision C.01,

 ----------------------------------------------------------------------
 #t hf aug-cc-pvdz symm=none int=(grid=ultrafine) guess=(read,tcheck) s
 table=(opt,rrhf)
 ----------------------------------------------------------------------
 -----
 title
 -----
 Symbolic Z-matrix:
 Charge =  0 Multiplicity = 1

 SCF Done:  E(RHF) =  -247.754586462     A.U. after   14 cycles
 Normal termination of Gaussian 16 at Wed Apr  9 03:22:04 2025.
 Gaussian 16:  ES64L-G16RevC.01  3-Jul-2019

 ----------------------------------------------------------------------
 #t hf aug-cc-pvdz iop(5/13=1,5/36=2,99/5=2) pseudo=read geom=check gue
 ss=(read,tcheck) scf=(maxcycle=1)
 ----------------------------------------------------------------------
 -----
 title
 -----
 Structure from the checkpoint file:  "Grambow2020_wb97xd3_006173_forward_mol1.chk"
 Charge =  0 Multiplicity = 1

                         Standard orientation:
 ---------------------------------------------------------------------
 Center     Atomic      Atomic             Coordinates (Angstroms)
 Number     Number       Type             X           Y           Z
 ---------------------------------------------------------------------
      1          6           0        1.595002   -0.948744   -0.225819
      2          6           0        1.010963    0.293394    0.384393
      3          6           0        0.280567    1.290145   -0.446589
      4          6           0       -0.479159    0.451482    0.549818
      5          6           0       -1.334610   -0.969152    0.334597
      6          7           0       -1.838291   -0.275214   -0.483279
      7          1           0        1.654931   -1.750707    0.511544
      8          1           0        2.599674   -0.749598   -0.602424
      9          1           0        0.985329   -1.305605   -1.056966
     10          1           0        1.559648    0.685964    1.234772
     11          1           0        0.143395    1.064813   -1.494822
     12          1           0        0.363211    2.344156   -0.216072
     13          1           0       -0.874728    0.934722    1.428527
 ---------------------------------------------------------------------

 SCF Done:  E(RHF) =  -247.827740165     A.U. after    2 cycles

 The electronic state is 1-A.
 Alpha  occ. eigenvalues --  -15.67824 -11.31854 -11.26947 -11.26891 -11.26076
 Alpha  occ. eigenvalues --  -11.23897  -1.25810  -1.15478  -0.97887  -0.84684
 Alpha  occ. eigenvalues --   -0.79414  -0.70886  -0.65780  -0.62785  -0.59125
 Alpha  occ. eigenvalues --   -0.56530  -0.53262  -0.52472  -0.49260  -0.48820
 Alpha  occ. eigenvalues --   -0.43330  -0.40780
 Alpha virt. eigenvalues --    0.02979   0.04072   0.04479   0.05427   0.06662
 Alpha virt. eigenvalues --    0.06794   0.07732   0.08994   0.09788   0.11824
 Alpha virt. eigenvalues --    0.12781   0.13662   0.14192   0.14545   0.14976

 Mulliken charges:
               1
     1  C    0.405389
     2  C   -0.072132
     3  C    0.775859
     4  C    0.565285
     5  C    0.072114
     6  N   -0.332303
     7  H    0.028758
     8  H   -0.009897
     9  H   -0.090710
    10  H   -0.343907
    11  H   -0.293482
    12  H   -0.305852
    13  H   -0.399121
 Sum of Mulliken charges =  -0.00000

 Dipole moment (field-independent basis, Debye):
    X=              2.3980    Y=              1.9016    Z=              0.4528  Tot=              3.0938

 Test job not archived.
 1\1\GINC-SE036\SP\RHF\Aug-CC-pVDZ\C5H7N1\OHZDE\09-Apr-2025\0\\#t hf au
 g-cc-pvdz iop(5/13=1,5/36=2,99/5=2) pseudo=read geom=check guess=(read
 ,tcheck) scf=(maxcycle=1)\\title\\0,1\C,0,1.43817048,0.61720082,-0.043
 40115\C,0,0.46105647,-0.5098664,-0.22041432\C,0,-0.54797635,-0.8268199
 6,0.8278767\C,0,-0.99811297,-0.23914055,-0.48565875\C,0,-1.32320195,1.
 34716973,-0.90309503\N,0,-2.01724564,1.21645001,0.04842081\H,0,1.75188
 122,1.01281306,-1.01062145\H,0,2.32363267,0.27050108,0.49196134\H,0,0.
 99738388,1.4374876,0.52466066\H,0,0.83210003,-1.34922319,-0.80017124\H

 Normal termination of Gaussian 16 at Wed Apr  9 03:22:09 2025.
