 Gaussian 16, Revision C.01,

 ----------------------------------------------------------------------
 #t hf aug-cc-pvdz symm=none int=(grid=ultrafine) guess=(read,tcheck) s
 table=(opt,rrhf)
 ----------------------------------------------------------------------
 -----
 title
 -----
 Symbolic Z-matrix:
 Charge =  0 Multiplicity = 1

 SCF Done:  E(RHF) =  -343.474025111     A.U. after   16 cycles
 Normal termination of Gaussian 16 at Wed Apr  9 16:01:07 2025.
 Gaussian 16:  ES64L-G16RevC.01  3-Jul-2019

 ----------------------------------------------------------------------
 #t hf aug-cc-pvdz iop(5/13=1,5/36=2,99/5=2) pseudo=read geom=check gue
 ss=(read,tcheck) scf=(maxcycle=1)
 ----------------------------------------------------------------------
 -----
 title
 -----
 Structure from the checkpoint file:  "Grambow2020_wb97xd3_007687_reverse_mol1.chk"
 Charge =  0 Multiplicity = 1

                         Standard orientation:
 ---------------------------------------------------------------------
 Center     Atomic      Atomic             Coordinates (Angstroms)
 Number     Number       Type             X           Y           Z
 ---------------------------------------------------------------------
      1          6           0        0.339022    1.855225   -0.258493
      2          6           0        0.019841    0.763759    0.694782
      3          6           0       -1.352162    0.394540    0.166315
      4          8           0       -1.151370   -0.619811   -0.849997
      5          6           0       -0.528780   -1.289524    0.142192
      6          6           0        0.740739   -0.669673    0.549463
      7          8           0        1.772959   -0.682295   -0.392467
      8          1           0        0.384174    1.554021   -1.304803
      9          1           0        1.044068    2.646480   -0.007033
     10          1           0       -1.267406    1.574913   -0.379804
     11          1           0       -0.003047    1.069884    1.737337
     12          1           0       -2.202686    0.211844    0.826014
     13          1           0       -1.085509   -2.047087    0.687063
     14          1           0        1.111103   -1.070967    1.492862
     15          1           0        1.734629    0.151798   -0.877484
 ---------------------------------------------------------------------

 SCF Done:  E(RHF) =  -343.578710111     A.U. after    2 cycles

 The electronic state is 1-A.
 Alpha  occ. eigenvalues --  -20.64092 -20.58071 -11.37297 -11.31898 -11.30764
 Alpha  occ. eigenvalues --  -11.26706 -11.22748  -1.43334  -1.33895  -1.09992
 Alpha  occ. eigenvalues --   -1.01252  -0.89728  -0.84914  -0.79320  -0.76510
 Alpha  occ. eigenvalues --   -0.71075  -0.69041  -0.64357  -0.63890  -0.61568
 Alpha  occ. eigenvalues --   -0.55334  -0.54364  -0.52231  -0.49797  -0.47059
 Alpha  occ. eigenvalues --   -0.42393  -0.26221
 Alpha virt. eigenvalues --    0.02234   0.02696   0.04299   0.04746   0.05046
 Alpha virt. eigenvalues --    0.06161   0.07210   0.07279   0.08666   0.10053
 Alpha virt. eigenvalues --    0.11908   0.13026   0.13270   0.13504   0.13703

 Mulliken charges:
               1
     1  C    0.132855
     2  C   -0.121598
     3  C    0.371613
     4  O   -0.662558
     5  C    0.626293
     6  C    0.977736
     7  O   -0.592168
     8  H   -0.150196
     9  H   -0.269418
    10  H    0.382529
    11  H   -0.222348
    12  H   -0.218779
    13  H   -0.218402
    14  H   -0.219020
    15  H    0.183460
 Sum of Mulliken charges =  -0.00000

 Dipole moment (field-independent basis, Debye):
    X=             -1.3239    Y=             -1.0968    Z=              2.7598  Tot=              3.2515

 Test job not archived.
 1\1\GINC-SE168\SP\RHF\Aug-CC-pVDZ\C5H8O2\OHZDE\09-Apr-2025\0\\#t hf au
 g-cc-pvdz iop(5/13=1,5/36=2,99/5=2) pseudo=read geom=check guess=(read
 ,tcheck) scf=(maxcycle=1)\\title\\0,1\C,0,1.63385938,-0.38411353,0.048
 39429\C,0,0.41329194,0.30898866,0.52977999\C,0,0.12570618,1.14446797,-
 0.70199219\O,0,-0.7271198,0.34616027,-1.56077606\C,0,-1.53593095,0.304
 83202,-0.48156808\C,0,-0.9825899,-0.48976892,0.62486114\O,0,-0.8553511
 8,-1.86392669,0.40493261\H,0,1.49071102,-1.01037493,-0.83185168\H,0,2.
 37952483,-0.77559356,0.73914204\H,0,1.37389585,0.87457765,-0.96255375\

 Normal termination of Gaussian 16 at Wed Apr  9 16:01:12 2025.
