 Gaussian 16, Revision C.01,

 ----------------------------------------------------------------------
 #t hf aug-cc-pvdz symm=none int=(grid=ultrafine) guess=(read,tcheck) s
 table=(opt,rrhf)
 ----------------------------------------------------------------------
 -----
 title
 -----
 Symbolic Z-matrix:
 Charge =  0 Multiplicity = 1

 SCF Done:  E(RHF) =  -308.873200223     A.U. after   16 cycles

 1\1\GINC-SE150\Stability\RHF\Aug-CC-pVDZ\C6H12O1\OHZDE\09-Apr-2025\0\\
 #t hf aug-cc-pvdz symm=none int=(grid=ultrafine) guess=(read,tcheck) s
 table=(opt,rrhf)\\title\\0,1\C,0,1.97086343,-0.73342616,-0.45242042\O,
 0,1.27081652,-0.56502465,0.77338213\C,0,0.53479796,0.53618428,0.924281
 36\C,0,0.64634842,1.74298147,0.17793168\C,0,-1.31800994,1.02669172,0.0
 1680142\C,0,-1.39333158,-0.29902123,0.47779503\C,0,-1.35171039,-1.4817
 6642,-0.4429893\H,0,2.7012996,0.0619764,-0.5975732\H,0,1.27580302,-0.7
 5452329,-1.29478989\H,0,2.47357514,-1.69417507,-0.37550041\H,0,0.22868

 Normal termination of Gaussian 16 at Wed Apr  9 03:54:09 2025.
 Gaussian 16:  ES64L-G16RevC.01  3-Jul-2019

 ----------------------------------------------------------------------
 #t hf aug-cc-pvdz iop(5/13=1,5/36=2,99/5=2) pseudo=read geom=check gue
 ss=(read,tcheck) scf=(maxcycle=1)
 ----------------------------------------------------------------------
 -----
 title
 -----
 Structure from the checkpoint file:  "Grambow2020_wb97xd3_008400_forward_mol1.chk"
 Charge =  0 Multiplicity = 1

                         Standard orientation:
 ---------------------------------------------------------------------
 Center     Atomic      Atomic             Coordinates (Angstroms)
 Number     Number       Type             X           Y           Z
 ---------------------------------------------------------------------
      1          6           0        1.778634   -1.063543   -0.450245
      2          8           0        1.145357   -0.547631    0.713289
      3          6           0        0.540170    0.636518    0.620036
      4          6           0        0.756505    1.626172   -0.379776
      5          6           0       -1.278952    1.122114   -0.355673
      6          6           0       -1.482486   -0.050283    0.392499
      7          6           0       -1.603437   -1.404938   -0.238961
      8          1           0        2.586122   -0.409486   -0.778034
      9          1           0        1.055871   -1.191575   -1.259171
     10          1           0        2.175561   -2.034282   -0.164257
     11          1           0        0.284329    1.002465    1.605640
     12          1           0        1.059444    2.603017   -0.022784
     13          1           0        1.088997    1.341834   -1.366744
     14          1           0       -1.293908    1.061822   -1.437647
     15          1           0       -1.603407    2.079447    0.030269
     16          1           0       -1.850962    0.053370    1.406110
     17          1           0       -2.610740   -1.819910   -0.122022
     18          1           0       -1.404725   -1.362357   -1.314821
     19          1           0       -0.912043   -2.139540    0.189876
 ---------------------------------------------------------------------

 SCF Done:  E(RHF) =  -308.972720279     A.U. after    2 cycles

 The electronic state is 1-A.
 Alpha  occ. eigenvalues --  -20.61370 -11.37022 -11.29630 -11.29032 -11.21434
 Alpha  occ. eigenvalues --  -11.18947 -11.18185  -1.39266  -1.07521  -1.00531
 Alpha  occ. eigenvalues --   -0.95956  -0.90785  -0.80373  -0.74890  -0.72322
 Alpha  occ. eigenvalues --   -0.67926  -0.66101  -0.63640  -0.57560  -0.57235
 Alpha  occ. eigenvalues --   -0.55729  -0.53761  -0.51796  -0.51122  -0.50543
 Alpha  occ. eigenvalues --   -0.47667  -0.40879  -0.22144
 Alpha virt. eigenvalues --    0.03467   0.04272   0.04574   0.04672   0.05990
 Alpha virt. eigenvalues --    0.06343   0.06443   0.07212   0.07285   0.08784
 Alpha virt. eigenvalues --    0.09547   0.09871   0.11592   0.11875   0.13183

 Mulliken charges:
               1
     1  C    0.830040
     2  O   -0.582313
     3  C    0.651553
     4  C    0.651516
     5  C    0.627253
     6  C    0.373134
     7  C    0.278784
     8  H   -0.061803
     9  H   -0.067589
    10  H   -0.275259
    11  H   -0.396273
    12  H   -0.321329
    13  H   -0.436539
    14  H   -0.247926
    15  H   -0.288955
    16  H   -0.447589
    17  H   -0.143898
    18  H   -0.131546
    19  H   -0.011260
 Sum of Mulliken charges =  -0.00000

 Dipole moment (field-independent basis, Debye):
    X=              0.4628    Y=              0.0224    Z=             -0.7343  Tot=              0.8682

 Test job not archived.
 1\1\GINC-SE150\SP\RHF\Aug-CC-pVDZ\C6H12O1\OHZDE\09-Apr-2025\0\\#t hf a
 ug-cc-pvdz iop(5/13=1,5/36=2,99/5=2) pseudo=read geom=check guess=(rea
 d,tcheck) scf=(maxcycle=1)\\title\\0,1\C,0,1.97086343,-0.73342616,-0.4
 5242042\O,0,1.27081652,-0.56502465,0.77338213\C,0,0.53479796,0.5361842
 8,0.92428136\C,0,0.64634842,1.74298147,0.17793168\C,0,-1.31800994,1.02
 669172,0.01680142\C,0,-1.39333158,-0.29902123,0.47779503\C,0,-1.351710
 39,-1.48176642,-0.4429893\H,0,2.7012996,0.0619764,-0.5975732\H,0,1.275
 80302,-0.75452329,-1.29478989\H,0,2.47357514,-1.69417507,-0.37550041\H

 Normal termination of Gaussian 16 at Wed Apr  9 03:54:17 2025.
