 Gaussian 16, Revision C.01,

 ----------------------------------------------------------------------
 #t hf aug-cc-pvdz symm=none int=(grid=ultrafine) guess=(read,tcheck) s
 table=(opt,rrhf)
 ----------------------------------------------------------------------
 -----
 title
 -----
 Symbolic Z-matrix:
 Charge =  0 Multiplicity = 1

 SCF Done:  E(RHF) =  -306.493179307     A.U. after   19 cycles
 Normal termination of Gaussian 16 at Wed Apr  9 04:05:28 2025.
 Gaussian 16:  ES64L-G16RevC.01  3-Jul-2019

 ----------------------------------------------------------------------
 #t hf aug-cc-pvdz iop(5/13=1,5/36=2,99/5=2) pseudo=read geom=check gue
 ss=(read,tcheck) scf=(maxcycle=1)
 ----------------------------------------------------------------------
 -----
 title
 -----
 Structure from the checkpoint file:  "Grambow2020_wb97xd3_009288_forward_mol1.chk"
 Charge =  0 Multiplicity = 1

                         Standard orientation:
 ---------------------------------------------------------------------
 Center     Atomic      Atomic             Coordinates (Angstroms)
 Number     Number       Type             X           Y           Z
 ---------------------------------------------------------------------
      1          6           0        0.938545    1.385553    0.830969
      2          6           0       -1.013130    0.372691   -0.530699
      3          6           0       -2.482065    0.202686   -0.431530
      4          6           0       -0.138815   -0.493558    0.135578
      5          8           0       -0.360114   -1.358973    0.963803
      6          6           0        1.298891   -0.193238   -0.303851
      7          6           0        2.359464   -0.419223   -0.849542
      8          1           0        0.082576    1.481236    1.482803
      9          1           0        1.064960    2.207113    0.138154
     10          1           0        1.832694    1.109431    1.371244
     11          1           0       -0.595606    1.034592   -1.277383
     12          1           0       -2.745237   -0.266757    0.517627
     13          1           0       -2.992155    1.163640   -0.528780
     14          1           0       -2.865392   -0.441920   -1.231160
     15          1           0        3.321728   -0.545019   -1.288482
 ---------------------------------------------------------------------

 SCF Done:  E(RHF) =  -306.589978242     A.U. after    2 cycles

 The electronic state is 1-A.
 Alpha  occ. eigenvalues --  -20.50985 -11.33839 -11.33563 -11.27166 -11.26204
 Alpha  occ. eigenvalues --  -11.25960 -11.23578  -1.31582  -1.08368  -1.03661
 Alpha  occ. eigenvalues --   -0.97322  -0.91818  -0.78199  -0.72018  -0.68698
 Alpha  occ. eigenvalues --   -0.63804  -0.63648  -0.61941  -0.58467  -0.55884
 Alpha  occ. eigenvalues --   -0.54347  -0.52692  -0.44432  -0.42468  -0.40655
 Alpha  occ. eigenvalues --   -0.27511
 Alpha virt. eigenvalues --   -0.01113   0.02923   0.03569   0.04867   0.04900
 Alpha virt. eigenvalues --    0.05937   0.06826   0.06897   0.08016   0.10535
 Alpha virt. eigenvalues --    0.10978   0.11179   0.12832   0.13163   0.13886

 Mulliken charges:
               1
     1  C    0.537064
     2  C    0.254061
     3  C    0.264606
     4  C    0.051285
     5  O   -0.680079
     6  C   -0.048199
     7  C    0.569631
     8  H   -0.154698
     9  H   -0.039563
    10  H    0.026269
    11  H   -0.447537
    12  H   -0.010097
    13  H    0.023666
    14  H    0.088515
    15  H   -0.434925
 Sum of Mulliken charges =  -0.00000

 Dipole moment (field-independent basis, Debye):
    X=              1.6062    Y=              5.0061    Z=             -1.7153  Tot=              5.5302

 Test job not archived.
 1\1\GINC-SE212\SP\RHF\Aug-CC-pVDZ\C6H8O1\OHZDE\09-Apr-2025\0\\#t hf au
 g-cc-pvdz iop(5/13=1,5/36=2,99/5=2) pseudo=read geom=check guess=(read
 ,tcheck) scf=(maxcycle=1)\\title\\0,1\C,0,0.11128013,0.76401295,-1.653
 81503\C,0,-0.22846736,-0.71590825,0.43985882\C,0,-1.31929765,-1.428229
 41,1.14639427\C,0,-0.03137077,0.65868207,0.61419893\O,0,-0.71846654,1.
 49177337,1.17787491\C,0,1.27044291,1.07249373,-0.0817373\C,0,2.4166120
 7,1.46810054,-0.14052341\H,0,-0.9581197,0.62175853,-1.60021147\H,0,0.6
 3854863,-0.01733209,-2.1852505\H,0,0.37374071,1.76884484,-1.95226006\H

 Normal termination of Gaussian 16 at Wed Apr  9 04:05:34 2025.
