 Gaussian 16, Revision C.01,

 ----------------------------------------------------------------------
 #t hf aug-cc-pvdz symm=none int=(grid=ultrafine) guess=(read,tcheck) s
 table=(opt,rrhf)
 ----------------------------------------------------------------------
 -----
 title
 -----
 Symbolic Z-matrix:
 Charge =  0 Multiplicity = 1

 SCF Done:  E(RHF) =  -321.717591363     A.U. after   15 cycles
 Normal termination of Gaussian 16 at Wed Apr  9 03:08:50 2025.
 Gaussian 16:  ES64L-G16RevC.01  3-Jul-2019

 ----------------------------------------------------------------------
 #t hf aug-cc-pvdz iop(5/13=1,5/36=2,99/5=2) pseudo=read geom=check gue
 ss=(read,tcheck) scf=(maxcycle=1)
 ----------------------------------------------------------------------
 -----
 title
 -----
 Structure from the checkpoint file:  "Grambow2020_b97d3_006700_forward_mol1.chk"
 Charge =  0 Multiplicity = 1

                         Standard orientation:
 ---------------------------------------------------------------------
 Center     Atomic      Atomic             Coordinates (Angstroms)
 Number     Number       Type             X           Y           Z
 ---------------------------------------------------------------------
      1          6           0        1.972287   -0.421282    0.546618
      2          7           0        1.360192   -0.281814   -0.644616
      3          6           0        0.062943    0.371585   -0.027888
      4          8           0       -0.099613    1.593119   -0.086040
      5          8           0       -0.891264   -0.612156   -0.386619
      6          6           0       -2.129212   -0.406108    0.304066
      7          1           0        2.534071   -1.325886    0.807447
      8          1           0        0.362018   -0.050792    1.196776
      9          1           0        2.242840    0.494541    1.071538
     10          1           0        1.161597   -1.150510   -1.138103
     11          1           0       -1.988997   -0.509393    1.392605
     12          1           0       -2.805774   -1.188093   -0.057431
     13          1           0       -2.536187    0.589959    0.083971
 ---------------------------------------------------------------------

 SCF Done:  E(RHF) =  -321.818586453     A.U. after    2 cycles

 The electronic state is 1-A.
 Alpha  occ. eigenvalues --  -20.59116 -20.49731 -15.67421 -11.41271 -11.40972
 Alpha  occ. eigenvalues --  -11.28320  -1.37452  -1.27906  -1.23897  -0.96028
 Alpha  occ. eigenvalues --   -0.91514  -0.82028  -0.74825  -0.69169  -0.67613
 Alpha  occ. eigenvalues --   -0.64387  -0.63443  -0.58841  -0.56866  -0.52417
 Alpha  occ. eigenvalues --   -0.48285  -0.45949  -0.42278  -0.35432
 Alpha virt. eigenvalues --    0.01574   0.02587   0.04007   0.04496   0.05891
 Alpha virt. eigenvalues --    0.06688   0.07425   0.08343   0.10742   0.12379
 Alpha virt. eigenvalues --    0.12620   0.13447   0.14428   0.14907   0.15728

 Mulliken charges:
               1
     1  C    0.787443
     2  N   -0.455580
     3  C    0.632109
     4  O   -0.583176
     5  O   -0.678395
     6  C    0.655296
     7  H   -0.134140
     8  H    0.129300
     9  H   -0.099661
    10  H    0.057652
    11  H   -0.065670
    12  H   -0.227085
    13  H   -0.018091
 Sum of Mulliken charges =   0.00000

 Dipole moment (field-independent basis, Debye):
    X=              3.2274    Y=             -5.0764    Z=              2.0820  Tot=              6.3656

 Test job not archived.
 1\1\GINC-SE340\SP\RHF\Aug-CC-pVDZ\C3H7N1O2\OHZDE\09-Apr-2025\0\\#t hf
 aug-cc-pvdz iop(5/13=1,5/36=2,99/5=2) pseudo=read geom=check guess=(re
 ad,tcheck) scf=(maxcycle=1)\\title\\0,1\C,0,-2.03829386,-0.03775329,0.
 06141349\N,0,-1.3331437,0.62061019,-0.8779858\C,0,-0.05188591,-0.28534
 183,-0.71135533\O,0,0.17984976,-1.18174681,-1.52665272\O,0,0.87207122,
 0.69099918,-0.26413468\C,0,2.06479661,0.07932954,0.24112237\H,0,-2.665
 57292,0.48849654,0.7904702\H,0,-0.4629829,-0.75137167,0.46400235\H,0,-
 2.2973993,-1.07416893,-0.1534777\H,0,-1.14549214,1.60123524,-0.6760822

 Normal termination of Gaussian 16 at Wed Apr  9 03:08:53 2025.
