 Gaussian 16, Revision C.01,

 ----------------------------------------------------------------------
 #t hf aug-cc-pvdz symm=none int=(grid=ultrafine) guess=(read,tcheck) s
 table=(opt,rrhf)
 ----------------------------------------------------------------------
 -----
 title
 -----
 Symbolic Z-matrix:
 Charge =  0 Multiplicity = 1

 SCF Done:  E(RHF) =  -269.966515780     A.U. after   14 cycles

 1\1\GINC-SE174\Stability\RHF\Aug-CC-pVDZ\C5H10O1\OHZDE\09-Apr-2025\0\\
 #t hf aug-cc-pvdz symm=none int=(grid=ultrafine) guess=(read,tcheck) s
 table=(opt,rrhf)\\title\\0,1\C,0,2.87786429,-0.78163611,0.07374572\O,0
 ,1.52861358,-0.75878903,0.55244381\C,0,0.5924808,-0.60895966,-0.333358
 56\C,0,-1.54990214,1.64503685,-0.19646899\C,0,-1.80521073,0.14934167,-
 0.32791687\C,0,-0.72979488,-0.68248915,0.36361467\H,0,3.42028976,0.021
 49997,0.57122269\H,0,2.87476454,-0.64494425,-1.00656289\H,0,3.31245984
 ,-1.74266922,0.34666518\H,0,-0.58883987,1.91362608,-0.64231146\H,0,-1.

 Normal termination of Gaussian 16 at Wed Apr  9 14:23:25 2025.
 Gaussian 16:  ES64L-G16RevC.01  3-Jul-2019

 ----------------------------------------------------------------------
 #t hf aug-cc-pvdz iop(5/13=1,5/36=2,99/5=2) pseudo=read geom=check gue
 ss=(read,tcheck) scf=(maxcycle=1)
 ----------------------------------------------------------------------
 -----
 title
 -----
 Structure from the checkpoint file:  "Grambow2020_wb97xd3_006202_reverse_mol2.chk"
 Charge =  0 Multiplicity = 1

                         Standard orientation:
 ---------------------------------------------------------------------
 Center     Atomic      Atomic             Coordinates (Angstroms)
 Number     Number       Type             X           Y           Z
 ---------------------------------------------------------------------
      1          6           0       -2.761254    0.438842    0.128133
      2          8           0       -1.545744   -0.132161   -0.368499
      3          6           0       -0.548748   -0.204665    0.458653
      4          6           0        2.256124    1.010249   -0.129328
      5          6           0        1.949361   -0.426188    0.273301
      6          6           0        0.587465   -0.889289   -0.234097
      7          1           0       -3.007888    1.293413   -0.500848
      8          1           0       -2.615479    0.741008    1.164090
      9          1           0       -3.542567   -0.315921    0.045513
     10          1           0        1.504817    1.693595    0.274569
     11          1           0        2.258542    1.122794   -1.216938
     12          1           0        3.231702    1.329285    0.241584
     13          1           0        1.963651   -0.513956    1.362820
     14          1           0        2.725598   -1.093712   -0.110487
     15          1           0        0.512969   -0.827359   -1.327922
     16          1           0        0.436922   -1.945556    0.035636
 ---------------------------------------------------------------------

 SCF Done:  E(RHF) =  -270.054476636     A.U. after    2 cycles

 The electronic state is 1-A.
 Alpha  occ. eigenvalues --  -20.63001 -11.29571 -11.29290 -11.22603 -11.22522
 Alpha  occ. eigenvalues --  -11.21816  -1.40431  -1.06856  -1.00070  -0.92622
 Alpha  occ. eigenvalues --   -0.82415  -0.77368  -0.67444  -0.67050  -0.65259
 Alpha  occ. eigenvalues --   -0.60806  -0.57056  -0.54932  -0.54272  -0.51817
 Alpha  occ. eigenvalues --   -0.48080  -0.47642  -0.47405  -0.34539
 Alpha virt. eigenvalues --    0.03610   0.04273   0.04653   0.05115   0.06053
 Alpha virt. eigenvalues --    0.06489   0.06849   0.07469   0.07944   0.08891
 Alpha virt. eigenvalues --    0.10697   0.11715   0.13323   0.14214   0.14823

 Mulliken charges:
               1
     1  C    0.799342
     2  O   -0.464633
     3  C   -0.129125
     4  C    0.348489
     5  C    0.248734
     6  C    0.152316
     7  H   -0.138400
     8  H   -0.080446
     9  H   -0.145966
    10  H   -0.095236
    11  H   -0.057167
    12  H   -0.081354
    13  H   -0.124500
    14  H   -0.071888
    15  H   -0.197762
    16  H    0.037598
 Sum of Mulliken charges =   0.00000

 Dipole moment (field-independent basis, Debye):
    X=             -0.9427    Y=             -0.0210    Z=             -0.6716  Tot=              1.1577

 Test job not archived.
 1\1\GINC-SE174\SP\RHF\Aug-CC-pVDZ\C5H10O1\OHZDE\09-Apr-2025\0\\#t hf a
 ug-cc-pvdz iop(5/13=1,5/36=2,99/5=2) pseudo=read geom=check guess=(rea
 d,tcheck) scf=(maxcycle=1)\\title\\0,1\C,0,2.87786429,-0.78163611,0.07
 374572\O,0,1.52861358,-0.75878903,0.55244381\C,0,0.5924808,-0.60895966
 ,-0.33335856\C,0,-1.54990214,1.64503685,-0.19646899\C,0,-1.80521073,0.
 14934167,-0.32791687\C,0,-0.72979488,-0.68248915,0.36361467\H,0,3.4202
 8976,0.02149997,0.57122269\H,0,2.87476454,-0.64494425,-1.00656289\H,0,
 3.31245984,-1.74266922,0.34666518\H,0,-0.58883987,1.91362608,-0.642311

 Normal termination of Gaussian 16 at Wed Apr  9 14:23:29 2025.
