 Gaussian 16, Revision C.01,

 ----------------------------------------------------------------------
 #t hf aug-cc-pvdz symm=none int=(grid=ultrafine) guess=(read,tcheck) s
 table=(opt,rrhf)
 ----------------------------------------------------------------------
 -----
 title
 -----
 Symbolic Z-matrix:
 Charge =  0 Multiplicity = 1

 SCF Done:  E(RHF) =  -302.693089761     A.U. after   15 cycles
 Normal termination of Gaussian 16 at Wed Apr  9 16:53:19 2025.
 Gaussian 16:  ES64L-G16RevC.01  3-Jul-2019

 ----------------------------------------------------------------------
 #t hf aug-cc-pvdz iop(5/13=1,5/36=2,99/5=2) pseudo=read geom=check gue
 ss=(read,tcheck) scf=(maxcycle=1)
 ----------------------------------------------------------------------
 -----
 title
 -----
 Structure from the checkpoint file:  "Grambow2020_wb97xd3_009047_reverse_mol1.chk"
 Charge =  0 Multiplicity = 1

                         Standard orientation:
 ---------------------------------------------------------------------
 Center     Atomic      Atomic             Coordinates (Angstroms)
 Number     Number       Type             X           Y           Z
 ---------------------------------------------------------------------
      1          7           0       -1.633958   -1.247761    0.275043
      2          6           0       -0.731636   -0.472208   -0.523852
      3          6           0       -0.470410    0.981788   -0.139351
      4          7           0       -0.766906    2.079885    0.267645
      5          6           0        0.734160   -0.847596   -0.512158
      6          6           0        1.488246   -0.581371    0.751124
      7          6           0        1.409761    0.485956   -0.296361
      8          1           0       -2.586690   -0.920047    0.208904
      9          1           0       -1.359181   -1.257402    1.247481
     10          1           0       -1.094755   -0.456927   -1.556296
     11          1           0        1.102132   -1.591543   -1.205051
     12          1           0        0.960108   -0.440749    1.690205
     13          1           0        2.420377   -1.123096    0.860674
     14          1           0        2.277015    0.798617   -0.866947
     15          1           0        0.506327    1.766861    0.145795
 ---------------------------------------------------------------------

 SCF Done:  E(RHF) =  -302.780843407     A.U. after    2 cycles

 The electronic state is 1-A.
 Alpha  occ. eigenvalues --  -15.63765 -15.63011 -11.35154 -11.31138 -11.25573
 Alpha  occ. eigenvalues --  -11.24831 -11.23348  -1.25483  -1.19196  -1.13843
 Alpha  occ. eigenvalues --   -0.96900  -0.82209  -0.80611  -0.74262  -0.69460
 Alpha  occ. eigenvalues --   -0.66911  -0.65332  -0.60474  -0.57593  -0.55719
 Alpha  occ. eigenvalues --   -0.52113  -0.48692  -0.44477  -0.42001  -0.41785
 Alpha  occ. eigenvalues --   -0.31358
 Alpha virt. eigenvalues --    0.03205   0.03725   0.03914   0.04876   0.06323
 Alpha virt. eigenvalues --    0.06579   0.07643   0.08538   0.09496   0.11728
 Alpha virt. eigenvalues --    0.12256   0.12837   0.13687   0.13965   0.14450

 Mulliken charges:
               1
     1  N   -0.393621
     2  C    0.554597
     3  C    0.300806
     4  N   -0.560984
     5  C    0.708010
     6  C    0.805322
     7  C   -0.187595
     8  H   -0.004732
     9  H    0.028274
    10  H   -0.042654
    11  H   -0.387431
    12  H   -0.419627
    13  H   -0.332542
    14  H   -0.452899
    15  H    0.385074
 Sum of Mulliken charges =  -0.00000

 Dipole moment (field-independent basis, Debye):
    X=              0.5265    Y=             -1.7337    Z=             -0.4027  Tot=              1.8561

 Test job not archived.
 1\1\GINC-SE174\SP\RHF\Aug-CC-pVDZ\C5H8N2\OHZDE\09-Apr-2025\0\\#t hf au
 g-cc-pvdz iop(5/13=1,5/36=2,99/5=2) pseudo=read geom=check guess=(read
 ,tcheck) scf=(maxcycle=1)\\title\\0,1\N,0,2.0448432,0.21506584,-0.4666
 6252\C,0,0.93589222,-0.53729205,0.04135822\C,0,0.23320489,-0.05122993,
 1.30633149\N,0,0.17223426,0.4388832,2.40880355\C,0,-0.33642393,-0.5730
 4617,-0.77689991\C,0,-1.12316255,0.69589816,-0.85579983\C,0,-1.3960121
 5,-0.26967208,0.25586526\H,0,2.84481286,0.18604354,0.1487032\H,0,1.796
 99635,1.1803634,-0.63400932\H,0,1.26517719,-1.56081268,0.24631524\H,0,

 Normal termination of Gaussian 16 at Wed Apr  9 16:53:24 2025.
