 Gaussian 16, Revision C.01,

 ----------------------------------------------------------------------
 #t hf aug-cc-pvdz symm=none int=(grid=ultrafine) guess=(read,tcheck) s
 table=(opt,rrhf)
 ----------------------------------------------------------------------
 -----
 title
 -----
 Symbolic Z-matrix:
 Charge =  0 Multiplicity = 1

 SCF Done:  E(RHF) =  -287.883811021     A.U. after   15 cycles

 1\1\GINC-SE129\Stability\RHF\Aug-CC-pVDZ\C6H11N1\OHZDE\09-Apr-2025\0\\
 #t hf aug-cc-pvdz symm=none int=(grid=ultrafine) guess=(read,tcheck) s
 table=(opt,rrhf)\\title\\0,1\C,0,-2.36924802,-0.14350316,-1.32715207\C
 ,0,-1.39602705,0.21632583,-0.35179723\C,0,0.05248046,-0.13601305,-0.56
 147396\C,0,0.96334155,0.00014572,0.66367354\C,0,2.41328163,-0.36495892
 ,0.34071654\C,0,0.88122668,1.36248108,1.20088748\N,0,0.80672307,2.4370
 7894,1.59646265\H,0,-2.20104063,-0.68450183,0.0574894\H,0,-3.2948529,0
 .40518775,-1.39530981\H,0,-2.17267284,-0.96080971,-2.0056585\H,0,-1.57

 Normal termination of Gaussian 16 at Wed Apr  9 15:13:28 2025.
 Gaussian 16:  ES64L-G16RevC.01  3-Jul-2019

 ----------------------------------------------------------------------
 #t hf aug-cc-pvdz iop(5/13=1,5/36=2,99/5=2) pseudo=read geom=check gue
 ss=(read,tcheck) scf=(maxcycle=1)
 ----------------------------------------------------------------------
 -----
 title
 -----
 Structure from the checkpoint file:  "Grambow2020_wb97xd3_006815_forward_mol1.chk"
 Charge =  0 Multiplicity = 1

                         Standard orientation:
 ---------------------------------------------------------------------
 Center     Atomic      Atomic             Coordinates (Angstroms)
 Number     Number       Type             X           Y           Z
 ---------------------------------------------------------------------
      1          6           0       -2.953455    0.008995   -0.193619
      2          6           0       -1.592593    0.307542    0.101133
      3          6           0       -0.506285   -0.666896   -0.268579
      4          6           0        0.867364   -0.416529    0.363558
      5          6           0        1.900828   -1.449857   -0.088232
      6          6           0        1.323863    0.941618    0.049955
      7          7           0        1.662723    2.005013   -0.216796
      8          1           0       -2.291824    0.090720    1.145698
      9          1           0       -3.671989    0.806333   -0.295661
     10          1           0       -3.261414   -1.018031   -0.325456
     11          1           0       -1.314417    1.355871    0.058514
     12          1           0       -1.307490    0.270781    1.685364
     13          1           0       -0.828416   -1.682322   -0.029878
     14          1           0       -0.429788   -0.608913   -1.359434
     15          1           0        0.758211   -0.462416    1.450828
     16          1           0        1.562960   -2.450845    0.183256
     17          1           0        2.042597   -1.414336   -1.169297
     18          1           0        2.864168   -1.271171    0.388339
 ---------------------------------------------------------------------

 SCF Done:  E(RHF) =  -287.973863499     A.U. after    2 cycles

 The electronic state is 1-A.
 Alpha  occ. eigenvalues --  -15.64074 -11.33832 -11.30200 -11.28778 -11.27898
 Alpha  occ. eigenvalues --  -11.26094 -11.22018  -1.20434  -1.14183  -1.08186
 Alpha  occ. eigenvalues --   -0.96360  -0.89064  -0.81128  -0.72912  -0.68251
 Alpha  occ. eigenvalues --   -0.66045  -0.62483  -0.59130  -0.58172  -0.56413
 Alpha  occ. eigenvalues --   -0.55552  -0.53417  -0.53243  -0.52149  -0.46223
 Alpha  occ. eigenvalues --   -0.46159  -0.27915
 Alpha virt. eigenvalues --    0.02728   0.03893   0.03943   0.04771   0.05997
 Alpha virt. eigenvalues --    0.06104   0.06695   0.07598   0.08546   0.08616
 Alpha virt. eigenvalues --    0.09833   0.10461   0.11685   0.12751   0.13500

 Mulliken charges:
               1
     1  C    0.568673
     2  C   -0.063550
     3  C    0.508487
     4  C   -0.256430
     5  C    0.807147
     6  C   -0.398378
     7  N   -0.189633
     8  H    0.294729
     9  H   -0.321918
    10  H   -0.369257
    11  H   -0.334292
    12  H    0.009036
    13  H   -0.076725
    14  H   -0.035902
    15  H   -0.069796
    16  H   -0.041231
    17  H   -0.014033
    18  H   -0.016927
 Sum of Mulliken charges =  -0.00000

 Dipole moment (field-independent basis, Debye):
    X=             -0.4312    Y=             -3.7783    Z=              0.2129  Tot=              3.8088

 Test job not archived.
 1\1\GINC-SE129\SP\RHF\Aug-CC-pVDZ\C6H11N1\OHZDE\09-Apr-2025\0\\#t hf a
 ug-cc-pvdz iop(5/13=1,5/36=2,99/5=2) pseudo=read geom=check guess=(rea
 d,tcheck) scf=(maxcycle=1)\\title\\0,1\C,0,-2.36924802,-0.14350316,-1.
 32715207\C,0,-1.39602705,0.21632583,-0.35179723\C,0,0.05248046,-0.1360
 1305,-0.56147396\C,0,0.96334155,0.00014572,0.66367354\C,0,2.41328163,-
 0.36495892,0.34071654\C,0,0.88122668,1.36248108,1.20088748\N,0,0.80672
 307,2.43707894,1.59646265\H,0,-2.20104063,-0.68450183,0.0574894\H,0,-3
 .2948529,0.40518775,-1.39530981\H,0,-2.17267284,-0.96080971,-2.0056585

 Normal termination of Gaussian 16 at Wed Apr  9 15:13:35 2025.
