 Gaussian 16, Revision C.01,

 ----------------------------------------------------------------------
 #t hf aug-cc-pvdz symm=none int=(grid=ultrafine) guess=(read,tcheck) s
 table=(opt,rrhf)
 ----------------------------------------------------------------------
 -----
 title
 -----
 Symbolic Z-matrix:
 Charge =  0 Multiplicity = 1

 SCF Done:  E(RHF) =  -317.552858852     A.U. after   19 cycles
 Normal termination of Gaussian 16 at Wed Apr  9 16:16:37 2025.
 Gaussian 16:  ES64L-G16RevC.01  3-Jul-2019

 ----------------------------------------------------------------------
 #t hf aug-cc-pvdz iop(5/13=1,5/36=2,99/5=2) pseudo=read geom=check gue
 ss=(read,tcheck) scf=(maxcycle=1)
 ----------------------------------------------------------------------
 -----
 title
 -----
 Structure from the checkpoint file:  "Grambow2020_wb97xd3_008049_reverse_mol1.chk"
 Charge =  0 Multiplicity = 1

                         Standard orientation:
 ---------------------------------------------------------------------
 Center     Atomic      Atomic             Coordinates (Angstroms)
 Number     Number       Type             X           Y           Z
 ---------------------------------------------------------------------
      1          7           0        2.928081   -0.033234    0.009333
      2          6           0        1.700447   -0.005468    0.043583
      3          6           0        0.344197    0.009407   -0.213788
      4          6           0       -0.595415    1.196080   -0.121952
      5          7           0       -1.912600    0.609951    0.143589
      6          6           0       -1.767523   -0.649517    0.109344
      7          7           0       -0.477433   -1.110993   -0.073642
      8          1           0        1.936170    0.147443    1.150334
      9          1           0       -0.324630    1.907599    0.660492
     10          1           0       -0.637859    1.760208   -1.061822
     11          1           0       -2.578246   -1.358702    0.230643
     12          1           0       -0.252009   -2.019628   -0.437723
 ---------------------------------------------------------------------

 SCF Done:  E(RHF) =  -317.643462454     A.U. after    2 cycles

 The electronic state is 1-A.
 Alpha  occ. eigenvalues --  -15.68292 -15.66192 -15.62432 -11.34108 -11.32116
 Alpha  occ. eigenvalues --  -11.31608 -11.29062  -1.31513  -1.21752  -1.15330
 Alpha  occ. eigenvalues --   -1.04160  -0.90527  -0.82103  -0.80109  -0.70021
 Alpha  occ. eigenvalues --   -0.65522  -0.63546  -0.62056  -0.57861  -0.55587
 Alpha  occ. eigenvalues --   -0.53223  -0.48119  -0.43193  -0.40817  -0.25562
 Alpha virt. eigenvalues --    0.02205   0.02850   0.04350   0.04470   0.06117
 Alpha virt. eigenvalues --    0.07258   0.09379   0.09589   0.09988   0.11210
 Alpha virt. eigenvalues --    0.12861   0.13052   0.13318   0.14482   0.15121

 Mulliken charges:
               1
     1  N   -0.472151
     2  C    0.129064
     3  C    0.413886
     4  C    0.636790
     5  N   -0.528940
     6  C    0.765122
     7  N   -0.476494
     8  H    0.012136
     9  H   -0.144744
    10  H   -0.013660
    11  H   -0.216059
    12  H   -0.104951
 Sum of Mulliken charges =  -0.00000

 Dipole moment (field-independent basis, Debye):
    X=             -1.9116    Y=             -2.1012    Z=              0.2469  Tot=              2.8513

 Test job not archived.
 1\1\GINC-SE163\SP\RHF\Aug-CC-pVDZ\C4H5N3\OHZDE\09-Apr-2025\0\\#t hf au
 g-cc-pvdz iop(5/13=1,5/36=2,99/5=2) pseudo=read geom=check guess=(read
 ,tcheck) scf=(maxcycle=1)\\title\\0,1\N,0,2.92445749,-0.92118141,0.040
 72069\C,0,1.75604233,-0.54370161,0.0040585\C,0,0.43694541,-0.21485792,
 0.2443102\C,0,-0.79679484,-0.93205699,-0.26853241\N,0,-1.84161482,0.09
 583843,-0.29710883\C,0,-1.33311936,1.14972763,0.19200082\N,0,0.0069564
 9,1.08381694,0.52461064\H,0,2.05765149,-0.37070802,-1.08357624\H,0,-0.
 66438091,-1.3755361,-1.25726687\H,0,-1.10987094,-1.74173287,0.40214237

 Normal termination of Gaussian 16 at Wed Apr  9 16:16:42 2025.
