 Gaussian 16, Revision C.01,

 ----------------------------------------------------------------------
 #t hf aug-cc-pvdz symm=none int=(grid=ultrafine) guess=(read,tcheck) s
 table=(opt,rrhf)
 ----------------------------------------------------------------------
 -----
 title
 -----
 Symbolic Z-matrix:
 Charge =  0 Multiplicity = 1

 SCF Done:  E(RHF) =  -279.715489750     A.U. after   15 cycles
 Normal termination of Gaussian 16 at Wed Apr  9 03:15:48 2025.
 Gaussian 16:  ES64L-G16RevC.01  3-Jul-2019

 ----------------------------------------------------------------------
 #t hf aug-cc-pvdz iop(5/13=1,5/36=2,99/5=2) pseudo=read geom=check gue
 ss=(read,tcheck) scf=(maxcycle=1)
 ----------------------------------------------------------------------
 -----
 title
 -----
 Structure from the checkpoint file:  "Grambow2020_b97d3_007062_forward_mol1.chk"
 Charge =  0 Multiplicity = 1

                         Standard orientation:
 ---------------------------------------------------------------------
 Center     Atomic      Atomic             Coordinates (Angstroms)
 Number     Number       Type             X           Y           Z
 ---------------------------------------------------------------------
      1          7           0        2.049982    0.004546    0.087606
      2          6           0        0.671427    0.048509   -0.001961
      3          6           0       -0.228571    1.157649   -0.032728
      4          6           0       -1.631869    0.605718   -0.105834
      5          7           0       -1.498191   -0.737838    0.004625
      6          7           0       -0.129786   -1.028449   -0.000080
      7          1           0        2.508735    0.861175   -0.208913
      8          1           0        2.502586   -0.816871   -0.307297
      9          1           0        0.053598    2.188146   -0.239280
     10          1           0       -1.058240    1.229539    0.926658
     11          1           0        0.173369   -2.001058    0.026908
 ---------------------------------------------------------------------

 SCF Done:  E(RHF) =  -279.794849215     A.U. after    2 cycles

 The electronic state is 1-A.
 Alpha  occ. eigenvalues --  -15.72609 -15.69106 -15.63404 -11.37519 -11.26803
 Alpha  occ. eigenvalues --  -11.23287  -1.33355  -1.22164  -1.08117  -1.03025
 Alpha  occ. eigenvalues --   -0.84500  -0.80087  -0.76186  -0.70255  -0.65456
 Alpha  occ. eigenvalues --   -0.61030  -0.60270  -0.51244  -0.46172  -0.42065
 Alpha  occ. eigenvalues --   -0.32948  -0.32310
 Alpha virt. eigenvalues --    0.01245   0.02788   0.04527   0.05974   0.06750
 Alpha virt. eigenvalues --    0.09544   0.10378   0.11192   0.12068   0.12891
 Alpha virt. eigenvalues --    0.13237   0.13791   0.14375   0.15109   0.16423

 Mulliken charges:
               1
     1  N   -0.269701
     2  C    0.639329
     3  C    0.559700
     4  C   -0.363074
     5  N   -0.503139
     6  N   -0.124895
     7  H    0.045342
     8  H   -0.015889
     9  H   -0.270210
    10  H    0.334406
    11  H   -0.031869
 Sum of Mulliken charges =  -0.00000

 Dipole moment (field-independent basis, Debye):
    X=              7.8799    Y=             -0.6598    Z=             -0.3459  Tot=              7.9151

 Test job not archived.
 1\1\GINC-SE368\SP\RHF\Aug-CC-pVDZ\C3H5N3\OHZDE\09-Apr-2025\0\\#t hf au
 g-cc-pvdz iop(5/13=1,5/36=2,99/5=2) pseudo=read geom=check guess=(read
 ,tcheck) scf=(maxcycle=1)\\title\\0,1\N,0,-1.71142691,-0.15771208,0.30
 957764\C,0,-0.36992726,0.02617374,0.03221106\C,0,0.69597123,-0.9164203
 3,-0.09628697\C,0,1.96096067,-0.14082697,-0.37462828\N,0,1.61315542,1.
 16490327,-0.27812626\N,0,0.22659429,1.22122031,-0.10124559\H,0,-2.0504
 4457,-1.09201653,0.09902682\H,0,-2.34696101,0.55685431,-0.03829699\H,0
 ,0.57117212,-1.98812386,-0.23800449\H,0,1.64452808,-0.80340471,0.74121

 Normal termination of Gaussian 16 at Wed Apr  9 03:15:51 2025.
