 Gaussian 16, Revision C.01,

 ----------------------------------------------------------------------
 #t hf aug-cc-pvdz symm=none int=(grid=ultrafine) guess=(read,tcheck) s
 table=(opt,rrhf)
 ----------------------------------------------------------------------
 -----
 title
 -----
 Symbolic Z-matrix:
 Charge =  0 Multiplicity = 1

 SCF Done:  E(RHF) =  -284.720487020     A.U. after   15 cycles
 Normal termination of Gaussian 16 at Wed Apr  9 03:05:27 2025.
 Gaussian 16:  ES64L-G16RevC.01  3-Jul-2019

 ----------------------------------------------------------------------
 #t hf aug-cc-pvdz iop(5/13=1,5/36=2,99/5=2) pseudo=read geom=check gue
 ss=(read,tcheck) scf=(maxcycle=1)
 ----------------------------------------------------------------------
 -----
 title
 -----
 Structure from the checkpoint file:  "Grambow2020_b97d3_006534_forward_mol1.chk"
 Charge =  0 Multiplicity = 1

                         Standard orientation:
 ---------------------------------------------------------------------
 Center     Atomic      Atomic             Coordinates (Angstroms)
 Number     Number       Type             X           Y           Z
 ---------------------------------------------------------------------
      1          6           0        1.127132    0.807680    0.262505
      2          6           0       -0.172728    1.173129   -0.442547
      3          8           0       -1.280162    0.581039    0.194768
      4          6           0       -1.125268   -0.741600    0.255639
      5          7           0       -0.057577   -1.223705   -0.414018
      6          6           0        1.269042   -0.723420    0.099679
      7          1           0        1.963764    1.375797   -0.165762
      8          1           0        1.057924    1.067453    1.335475
      9          1           0       -0.392150    2.233514   -0.581818
     10          1           0       -0.079182   -0.321794   -1.215836
     11          1           0       -2.018214   -1.293997    0.538307
     12          1           0        2.015832   -0.995829   -0.657056
     13          1           0        1.507297   -1.242257    1.035022
 ---------------------------------------------------------------------

 SCF Done:  E(RHF) =  -284.805330316     A.U. after    2 cycles

 The electronic state is 1-A.
 Alpha  occ. eigenvalues --  -20.66415 -15.63920 -11.37921 -11.28140 -11.26630
 Alpha  occ. eigenvalues --  -11.24160  -1.43535  -1.19860  -1.04960  -0.92055
 Alpha  occ. eigenvalues --   -0.88996  -0.76140  -0.70965  -0.70592  -0.66853
 Alpha  occ. eigenvalues --   -0.61664  -0.59510  -0.56695  -0.53004  -0.49860
 Alpha  occ. eigenvalues --   -0.47646  -0.42134  -0.28726
 Alpha virt. eigenvalues --    0.03394   0.04089   0.04485   0.05103   0.06378
 Alpha virt. eigenvalues --    0.07073   0.07243   0.08373   0.10097   0.11424
 Alpha virt. eigenvalues --    0.13037   0.13922   0.14240   0.14813   0.15163

 Mulliken charges:
               1
     1  C    0.135502
     2  C    0.256367
     3  O   -0.465866
     4  C    0.678127
     5  N   -0.713512
     6  C    0.587769
     7  H   -0.061186
     8  H   -0.052666
     9  H   -0.348450
    10  H    0.556373
    11  H   -0.255916
    12  H   -0.153857
    13  H   -0.162685
 Sum of Mulliken charges =   0.00000

 Dipole moment (field-independent basis, Debye):
    X=              0.4725    Y=             -0.3987    Z=              1.4603  Tot=              1.5857

 Test job not archived.
 1\1\GINC-SE105\SP\RHF\Aug-CC-pVDZ\C4H7N1O1\OHZDE\09-Apr-2025\0\\#t hf
 aug-cc-pvdz iop(5/13=1,5/36=2,99/5=2) pseudo=read geom=check guess=(re
 ad,tcheck) scf=(maxcycle=1)\\title\\0,1\C,0,0.66545593,-0.91188983,0.0
 483173\C,0,-0.84526485,-0.93243339,0.24219333\O,0,-1.49110116,-0.12458
 066,-0.71353694\C,0,-1.01950627,1.12112289,-0.65976667\N,0,-0.16937132
 ,1.36722986,0.35882665\C,0,1.09645849,0.54873065,0.31616178\H,0,1.1435
 3175,-1.64177062,0.71528129\H,0,0.91411662,-1.19310629,-0.99217447\H,0
 ,-1.34123877,-1.90500415,0.25080667\H,0,-0.67850844,0.53007359,1.06364

 Normal termination of Gaussian 16 at Wed Apr  9 03:05:31 2025.
