 Gaussian 16, Revision C.01,

 ----------------------------------------------------------------------
 #t hf aug-cc-pvdz symm=none int=(grid=ultrafine) guess=(read,tcheck) s
 table=(opt,rrhf)
 ----------------------------------------------------------------------
 -----
 title
 -----
 Symbolic Z-matrix:
 Charge =  0 Multiplicity = 1

 SCF Done:  E(RHF) =  -286.624256615     A.U. after   17 cycles
 Normal termination of Gaussian 16 at Wed Apr  9 15:58:14 2025.
 Gaussian 16:  ES64L-G16RevC.01  3-Jul-2019

 ----------------------------------------------------------------------
 #t hf aug-cc-pvdz iop(5/13=1,5/36=2,99/5=2) pseudo=read geom=check gue
 ss=(read,tcheck) scf=(maxcycle=1)
 ----------------------------------------------------------------------
 -----
 title
 -----
 Structure from the checkpoint file:  "Grambow2020_wb97xd3_007634_forward_mol1.chk"
 Charge =  0 Multiplicity = 1

                         Standard orientation:
 ---------------------------------------------------------------------
 Center     Atomic      Atomic             Coordinates (Angstroms)
 Number     Number       Type             X           Y           Z
 ---------------------------------------------------------------------
      1          6           0        1.998084   -0.719648    0.086393
      2          6           0        0.663504   -0.092000   -0.159668
      3          6           0        0.470700    1.315024   -0.602309
      4          6           0       -0.050842    0.886767    0.736757
      5          6           0       -1.402160    0.229749    0.763204
      6          7           0       -1.639359   -0.265941   -0.507085
      7          6           0       -0.490415   -1.032900   -0.526853
      8          1           0        1.930854   -1.481307    0.866570
      9          1           0        2.736565    0.022385    0.392753
     10          1           0        2.353414   -1.208215   -0.824286
     11          1           0        1.362280    1.926173   -0.551981
     12          1           0       -0.221522    1.552356   -1.400489
     13          1           0        0.351246    1.284936    1.655917
     14          1           0       -1.013653   -1.229230    1.433525
     15          1           0       -2.506545   -0.761404   -0.650468
     16          1           0       -0.650357   -1.766054    0.842912
 ---------------------------------------------------------------------

 SCF Done:  E(RHF) =  -286.707280989     A.U. after    2 cycles

 The electronic state is 1-A.
 Alpha  occ. eigenvalues --  -15.66808 -11.30960 -11.30826 -11.26782 -11.25553
 Alpha  occ. eigenvalues --  -11.25404 -11.23763  -1.29897  -1.15316  -0.99042
 Alpha  occ. eigenvalues --   -0.91188  -0.89414  -0.78289  -0.73920  -0.70906
 Alpha  occ. eigenvalues --   -0.66070  -0.62851  -0.58651  -0.57195  -0.54084
 Alpha  occ. eigenvalues --   -0.52056  -0.47906  -0.46489  -0.45242  -0.35482
 Alpha  occ. eigenvalues --   -0.33459
 Alpha virt. eigenvalues --    0.03330   0.04062   0.04406   0.04579   0.05839
 Alpha virt. eigenvalues --    0.06325   0.06820   0.07178   0.08320   0.09390
 Alpha virt. eigenvalues --    0.10660   0.12600   0.12870   0.12953   0.13489

 Mulliken charges:
               1
     1  C    0.619296
     2  C   -0.685941
     3  C    0.764049
     4  C    0.468058
     5  C   -0.096961
     6  N   -0.330761
     7  C   -0.124286
     8  H    0.023175
     9  H   -0.030274
    10  H    0.016127
    11  H   -0.303291
    12  H   -0.291926
    13  H   -0.428169
    14  H    0.076149
    15  H   -0.033447
    16  H    0.358203
 Sum of Mulliken charges =  -0.00000

 Dipole moment (field-independent basis, Debye):
    X=              1.0683    Y=              1.0441    Z=             -0.4492  Tot=              1.5599

 Test job not archived.
 1\1\GINC-SE041\SP\RHF\Aug-CC-pVDZ\C6H9N1\OHZDE\09-Apr-2025\0\\#t hf au
 g-cc-pvdz iop(5/13=1,5/36=2,99/5=2) pseudo=read geom=check guess=(read
 ,tcheck) scf=(maxcycle=1)\\title\\0,1\C,0,1.46410599,-0.65007504,0.968
 64566\C,0,0.46493879,-0.15520512,-0.02752788\C,0,0.7603589,0.86052789,
 -1.07339285\C,0,-0.24586294,1.17377149,-0.00666641\C,0,-1.64984014,0.6
 8667817,-0.2303209\N,0,-1.57986429,-0.35605813,-1.13773997\C,0,-0.6993
 0795,-1.09291569,-0.36939664\H,0,0.97447261,-0.925226,1.90559367\H,0,2
 .21942174,0.10671237,1.18450517\H,0,1.96528871,-1.5410429,0.58227111\H

 Normal termination of Gaussian 16 at Wed Apr  9 15:58:19 2025.
