 Gaussian 16, Revision C.01,

 ----------------------------------------------------------------------
 #t hf aug-cc-pvdz symm=none int=(grid=ultrafine) guess=(read,tcheck) s
 table=(opt,rrhf)
 ----------------------------------------------------------------------
 -----
 title
 -----
 Symbolic Z-matrix:
 Charge =  0 Multiplicity = 1

 SCF Done:  E(RHF) =  -338.724570502     A.U. after   14 cycles
 Normal termination of Gaussian 16 at Wed Apr  9 16:32:59 2025.
 Gaussian 16:  ES64L-G16RevC.01  3-Jul-2019

 ----------------------------------------------------------------------
 #t hf aug-cc-pvdz iop(5/13=1,5/36=2,99/5=2) pseudo=read geom=check gue
 ss=(read,tcheck) scf=(maxcycle=1)
 ----------------------------------------------------------------------
 -----
 title
 -----
 Structure from the checkpoint file:  "Grambow2020_wb97xd3_008555_reverse_mol2.chk"
 Charge =  0 Multiplicity = 1

                         Standard orientation:
 ---------------------------------------------------------------------
 Center     Atomic      Atomic             Coordinates (Angstroms)
 Number     Number       Type             X           Y           Z
 ---------------------------------------------------------------------
      1          7           0        1.723756    1.590447   -0.067535
      2          6           0        0.775800    2.215701    0.170362
      3          8           0       -2.366671    0.527587   -0.016275
      4          6           0       -1.356469   -0.301507   -0.525306
      5          6           0       -0.526775   -0.921554    0.613764
      6          6           0        0.751978   -1.432958    0.135574
      7          7           0        1.773965   -1.762822   -0.269904
      8          1           0        2.486971    0.975728   -0.269671
      9          1           0       -1.972155    1.370018    0.226413
     10          1           0       -0.695546    0.240914   -1.207837
     11          1           0       -1.844369   -1.091470   -1.097568
     12          1           0       -0.310434   -0.152640    1.359330
     13          1           0       -1.082347   -1.714722    1.115240
 ---------------------------------------------------------------------

 SCF Done:  E(RHF) =  -338.830617998     A.U. after    2 cycles

 The electronic state is 1-A.
 Alpha  occ. eigenvalues --  -20.58994 -15.68730 -15.64930 -11.32181 -11.31619
 Alpha  occ. eigenvalues --  -11.30191 -11.29537  -1.34736  -1.25202  -1.21144
 Alpha  occ. eigenvalues --   -1.07019  -0.90534  -0.88323  -0.74021  -0.71159
 Alpha  occ. eigenvalues --   -0.66916  -0.62562  -0.60163  -0.56104  -0.53870
 Alpha  occ. eigenvalues --   -0.53557  -0.52506  -0.50980  -0.50201  -0.47211
 Alpha  occ. eigenvalues --   -0.46083
 Alpha virt. eigenvalues --    0.03454   0.04074   0.04521   0.05420   0.06840
 Alpha virt. eigenvalues --    0.07398   0.08808   0.09015   0.10707   0.12377
 Alpha virt. eigenvalues --    0.12718   0.13175   0.13604   0.14491   0.14653

 Mulliken charges:
               1
     1  N    0.000186
     2  C   -0.131478
     3  O   -0.536137
     4  C    0.901119
     5  C    0.274054
     6  C   -0.188147
     7  N   -0.231463
     8  H    0.099254
     9  H    0.186281
    10  H   -0.245169
    11  H   -0.172578
    12  H   -0.016362
    13  H    0.060440
 Sum of Mulliken charges =  -0.00000

 Dipole moment (field-independent basis, Debye):
    X=              0.4731    Y=              0.2183    Z=              0.4951  Tot=              0.7187

 Test job not archived.
 1\1\GINC-SE129\SP\RHF\Aug-CC-pVDZ\C4H6N2O1\OHZDE\09-Apr-2025\0\\#t hf
 aug-cc-pvdz iop(5/13=1,5/36=2,99/5=2) pseudo=read geom=check guess=(re
 ad,tcheck) scf=(maxcycle=1)\\title\\0,1\N,0,-1.69357591,1.73650669,-0.
 63400735\C,0,-1.78993546,1.58438746,0.51217374\O,0,0.08661316,-1.09120
 235,1.9542116\C,0,0.15126073,-1.17183137,0.55552076\C,0,1.130542,-0.12
 795581,-0.01163321\C,0,0.91478612,0.09921557,-1.4354491\N,0,0.66900929
 ,0.29578414,-2.5393673\H,0,-1.53959932,1.80745049,-1.62015883\H,0,-0.4
 8234039,-0.35239833,2.18807225\H,0,-0.83351141,-1.03817958,0.09808122\

 Normal termination of Gaussian 16 at Wed Apr  9 16:33:04 2025.
