 Gaussian 16, Revision C.01,

 ----------------------------------------------------------------------
 #t hf aug-cc-pvdz symm=none int=(grid=ultrafine) guess=(read,tcheck) s
 table=(opt,rrhf)
 ----------------------------------------------------------------------
 -----
 title
 -----
 Symbolic Z-matrix:
 Charge =  0 Multiplicity = 1

 SCF Done:  E(RHF) =  -342.492745448     A.U. after   14 cycles
 Normal termination of Gaussian 16 at Wed Apr  9 16:31:58 2025.
 Gaussian 16:  ES64L-G16RevC.01  3-Jul-2019

 ----------------------------------------------------------------------
 #t hf aug-cc-pvdz iop(5/13=1,5/36=2,99/5=2) pseudo=read geom=check gue
 ss=(read,tcheck) scf=(maxcycle=1)
 ----------------------------------------------------------------------
 -----
 title
 -----
 Structure from the checkpoint file:  "Grambow2020_wb97xd3_008518_reverse_mol2.chk"
 Charge =  0 Multiplicity = 1

                         Standard orientation:
 ---------------------------------------------------------------------
 Center     Atomic      Atomic             Coordinates (Angstroms)
 Number     Number       Type             X           Y           Z
 ---------------------------------------------------------------------
      1          8           0       -1.419679   -1.592120   -0.152881
      2          6           0       -0.663450   -0.659538   -0.023942
      3          6           0       -1.218728    0.701289    0.398110
      4          8           0       -0.706982    1.808393   -0.311790
      5          6           0        1.761082    0.259867   -0.520723
      6          6           0        1.794740   -0.140323    0.695770
      7          6           0        0.807603   -0.857777   -0.197767
      8          1           0       -1.069012    0.806365    1.481097
      9          1           0       -2.292611    0.664066    0.219778
     10          1           0        2.122717    0.878442   -1.322317
     11          1           0        0.124662    2.075496    0.082307
     12          1           0        2.207171   -0.109372    1.688237
     13          1           0        1.032875   -1.866296   -0.540427
 ---------------------------------------------------------------------

 SCF Done:  E(RHF) =  -342.599907879     A.U. after    2 cycles

 The electronic state is 1-A.
 Alpha  occ. eigenvalues --  -20.58812 -20.56051 -11.33622 -11.30149 -11.29014
 Alpha  occ. eigenvalues --  -11.28676 -11.27727  -1.35933  -1.33839  -1.19295
 Alpha  occ. eigenvalues --   -0.98370  -0.89934  -0.80118  -0.76949  -0.72846
 Alpha  occ. eigenvalues --   -0.70871  -0.67011  -0.64827  -0.60693  -0.56722
 Alpha  occ. eigenvalues --   -0.54897  -0.51867  -0.51119  -0.44970  -0.44120
 Alpha  occ. eigenvalues --   -0.38163
 Alpha virt. eigenvalues --    0.02576   0.03633   0.04479   0.05030   0.06588
 Alpha virt. eigenvalues --    0.06679   0.08512   0.09272   0.09903   0.10964
 Alpha virt. eigenvalues --    0.12864   0.13727   0.13903   0.14099   0.15015

 Mulliken charges:
               1
     1  O   -0.486527
     2  C   -0.333123
     3  C    0.750235
     4  O   -0.512699
     5  C    0.460778
     6  C    0.398587
     7  C    0.652568
     8  H    0.037697
     9  H   -0.168269
    10  H   -0.333679
    11  H    0.185792
    12  H   -0.319738
    13  H   -0.331623
 Sum of Mulliken charges =  -0.00000

 Dipole moment (field-independent basis, Debye):
    X=              3.8860    Y=              2.1869    Z=              1.7826  Tot=              4.8022

 Test job not archived.
 1\1\GINC-SE087\SP\RHF\Aug-CC-pVDZ\C5H6O2\OHZDE\09-Apr-2025\0\\#t hf au
 g-cc-pvdz iop(5/13=1,5/36=2,99/5=2) pseudo=read geom=check guess=(read
 ,tcheck) scf=(maxcycle=1)\\title\\0,1\O,0,1.46443936,1.89521391,-0.072
 1451\C,0,0.7870485,0.89591871,-0.04444532\C,0,1.46462373,-0.46250733,0
 .13961923\O,0,0.98949237,-1.49256617,-0.6998747\C,0,-1.59186207,-0.134
 08135,-0.54478461\C,0,-1.5763582,0.08144861,0.71792944\C,0,-0.70255116
 ,0.99807724,-0.10901723\H,0,1.39241532,-0.73523512,1.20109101\H,0,2.51
 943941,-0.31340537,-0.08741359\H,0,-1.95858284,-0.65698763,-1.40968494

 Normal termination of Gaussian 16 at Wed Apr  9 16:32:02 2025.
