 Gaussian 16, Revision C.01,

 ----------------------------------------------------------------------
 #t hf aug-cc-pvdz symm=none int=(grid=ultrafine) guess=(read,tcheck) s
 table=(opt,rrhf)
 ----------------------------------------------------------------------
 -----
 title
 -----
 Symbolic Z-matrix:
 Charge =  0 Multiplicity = 1

 SCF Done:  E(RHF) =  -344.831495693     A.U. after   14 cycles

 1\1\GINC-SE173\Stability\RHF\Aug-CC-pVDZ\C5H10O2\OHZDE\09-Apr-2025\0\\
 #t hf aug-cc-pvdz symm=none int=(grid=ultrafine) guess=(read,tcheck) s
 table=(opt,rrhf)\\title\\0,1\C,0,-2.41977726,-0.60766255,-0.25564081\C
 ,0,-1.24482449,0.28355059,-0.63306257\C,0,0.07811763,-0.22007012,-0.08
 218848\O,0,0.33315006,-1.49076554,-0.64937553\C,0,1.19987838,0.7481578
 7,-0.39915706\C,0,2.97560799,0.92754279,1.10624888\O,0,2.43078563,0.23
 618159,0.16123639\H,0,-3.35051976,-0.21946235,-0.67163759\H,0,-2.27411
 24,-1.62050187,-0.63082429\H,0,-2.53669598,-0.66402208,0.82932139\H,0,

 Normal termination of Gaussian 16 at Wed Apr  9 16:10:11 2025.
 Gaussian 16:  ES64L-G16RevC.01  3-Jul-2019

 ----------------------------------------------------------------------
 #t hf aug-cc-pvdz iop(5/13=1,5/36=2,99/5=2) pseudo=read geom=check gue
 ss=(read,tcheck) scf=(maxcycle=1)
 ----------------------------------------------------------------------
 -----
 title
 -----
 Structure from the checkpoint file:  "Grambow2020_wb97xd3_007828_reverse_mol2.chk"
 Charge =  0 Multiplicity = 1

                         Standard orientation:
 ---------------------------------------------------------------------
 Center     Atomic      Atomic             Coordinates (Angstroms)
 Number     Number       Type             X           Y           Z
 ---------------------------------------------------------------------
      1          6           0       -2.834879   -0.173541   -0.440302
      2          6           0       -1.592523   -0.676120    0.281631
      3          6           0       -0.331724    0.065021   -0.128696
      4          8           0       -0.487400    1.424924    0.228849
      5          6           0        0.889390   -0.533178    0.540123
      6          6           0        2.928236   -0.463645   -0.595621
      7          8           0        2.062516    0.191290    0.103984
      8          1           0       -3.720117   -0.723445   -0.117824
      9          1           0       -2.998266    0.885098   -0.239271
     10          1           0       -2.738465   -0.300051   -1.521361
     11          1           0       -1.717874   -0.565675    1.363385
     12          1           0       -1.448543   -1.742075    0.082556
     13          1           0       -0.198365   -0.024610   -1.217650
     14          1           0        0.301468    1.904107   -0.033890
     15          1           0        1.034443   -1.581153    0.274814
     16          1           0        0.835730   -0.403433    1.622281
     17          1           0        3.698059    0.310312   -0.818519
 ---------------------------------------------------------------------

 SCF Done:  E(RHF) =  -344.940993654     A.U. after    2 cycles

 The electronic state is 1-A.
 Alpha  occ. eigenvalues --  -20.64958 -20.57824 -11.31016 -11.30383 -11.30032
 Alpha  occ. eigenvalues --  -11.23895 -11.22461  -1.42168  -1.33522  -1.07475
 Alpha  occ. eigenvalues --   -1.01462  -0.91322  -0.82012  -0.80739  -0.73780
 Alpha  occ. eigenvalues --   -0.72171  -0.66110  -0.63277  -0.61465  -0.59728
 Alpha  occ. eigenvalues --   -0.58158  -0.55945  -0.53352  -0.51757  -0.49520
 Alpha  occ. eigenvalues --   -0.48071  -0.45893  -0.36771
 Alpha virt. eigenvalues --    0.03514   0.04197   0.04394   0.05166   0.05900
 Alpha virt. eigenvalues --    0.06248   0.06645   0.07243   0.08614   0.09148
 Alpha virt. eigenvalues --    0.10003   0.10830   0.11904   0.13666   0.14372

 Mulliken charges:
               1
     1  C    0.426586
     2  C    0.226800
     3  C    0.156336
     4  O   -0.612495
     5  C    0.962378
     6  C    0.131863
     7  O   -0.536086
     8  H   -0.047195
     9  H   -0.025638
    10  H   -0.071186
    11  H   -0.078130
    12  H   -0.093944
    13  H   -0.189507
    14  H    0.151046
    15  H   -0.066613
    16  H   -0.139817
    17  H   -0.194400
 Sum of Mulliken charges =  -0.00000

 Dipole moment (field-independent basis, Debye):
    X=             -0.3193    Y=             -0.1368    Z=              0.1401  Tot=              0.3746

 Test job not archived.
 1\1\GINC-SE173\SP\RHF\Aug-CC-pVDZ\C5H10O2\OHZDE\09-Apr-2025\0\\#t hf a
 ug-cc-pvdz iop(5/13=1,5/36=2,99/5=2) pseudo=read geom=check guess=(rea
 d,tcheck) scf=(maxcycle=1)\\title\\0,1\C,0,-2.41977726,-0.60766255,-0.
 25564081\C,0,-1.24482449,0.28355059,-0.63306257\C,0,0.07811763,-0.2200
 7012,-0.08218848\O,0,0.33315006,-1.49076554,-0.64937553\C,0,1.19987838
 ,0.74815787,-0.39915706\C,0,2.97560799,0.92754279,1.10624888\O,0,2.430
 78563,0.23618159,0.16123639\H,0,-3.35051976,-0.21946235,-0.67163759\H,
 0,-2.2741124,-1.62050187,-0.63082429\H,0,-2.53669598,-0.66402208,0.829

 Normal termination of Gaussian 16 at Wed Apr  9 16:10:17 2025.
