 Gaussian 16, Revision C.01,

 ----------------------------------------------------------------------
 #t hf aug-cc-pvdz symm=none int=(grid=ultrafine) guess=(read,tcheck) s
 table=(opt,rrhf)
 ----------------------------------------------------------------------
 -----
 title
 -----
 Symbolic Z-matrix:
 Charge =  0 Multiplicity = 1

 SCF Done:  E(RHF) =  -342.564020909     A.U. after   13 cycles
 Normal termination of Gaussian 16 at Wed Apr  9 16:54:09 2025.
 Gaussian 16:  ES64L-G16RevC.01  3-Jul-2019

 ----------------------------------------------------------------------
 #t hf aug-cc-pvdz iop(5/13=1,5/36=2,99/5=2) pseudo=read geom=check gue
 ss=(read,tcheck) scf=(maxcycle=1)
 ----------------------------------------------------------------------
 -----
 title
 -----
 Structure from the checkpoint file:  "Grambow2020_wb97xd3_009061_reverse_mol2.chk"
 Charge =  0 Multiplicity = 1

                         Standard orientation:
 ---------------------------------------------------------------------
 Center     Atomic      Atomic             Coordinates (Angstroms)
 Number     Number       Type             X           Y           Z
 ---------------------------------------------------------------------
      1          8           0        2.283843    0.000088    0.256065
      2          6           0        1.114843    0.000096   -0.004189
      3          6           0        0.258715    1.249976   -0.209235
      4          6           0       -1.148994    0.732856   -0.306235
      5          6           0       -1.149021   -0.733138   -0.306443
      6          8           0       -1.548054   -0.000046    0.843894
      7          6           0        0.258989   -1.250186   -0.209289
      8          1           0        0.575263    1.750525   -1.128568
      9          1           0        0.406980    1.945626    0.617553
     10          1           0       -1.930021   -1.314668   -0.783316
     11          1           0       -1.928788    1.316107   -0.783176
     12          1           0        0.575722   -1.751029   -1.128367
     13          1           0        0.407342   -1.944528    0.618542
 ---------------------------------------------------------------------

 SCF Done:  E(RHF) =  -342.669288500     A.U. after    2 cycles

 The electronic state is 1-A.
 Alpha  occ. eigenvalues --  -20.59989 -20.57072 -11.35185 -11.31361 -11.31252
 Alpha  occ. eigenvalues --  -11.25891 -11.25880  -1.40620  -1.36735  -1.08963
 Alpha  occ. eigenvalues --   -1.01309  -0.90459  -0.82508  -0.76879  -0.73442
 Alpha  occ. eigenvalues --   -0.65788  -0.64339  -0.64233  -0.62111  -0.61269
 Alpha  occ. eigenvalues --   -0.55033  -0.54100  -0.52233  -0.47879  -0.44862
 Alpha  occ. eigenvalues --   -0.42388
 Alpha virt. eigenvalues --    0.02829   0.04034   0.04671   0.05127   0.06189
 Alpha virt. eigenvalues --    0.06507   0.08827   0.10617   0.11793   0.12354
 Alpha virt. eigenvalues --    0.12456   0.13603   0.13851   0.14436   0.14779

 Mulliken charges:
               1
     1  O   -0.512355
     2  C    0.154972
     3  C    0.165478
     4  C    0.484534
     5  C    0.485791
     6  O   -0.767503
     7  C    0.166507
     8  H    0.068129
     9  H    0.062829
    10  H   -0.220078
    11  H   -0.219988
    12  H    0.068019
    13  H    0.063665
 Sum of Mulliken charges =  -0.00000

 Dipole moment (field-independent basis, Debye):
    X=             -2.4838    Y=              0.0006    Z=             -2.9497  Tot=              3.8562

 Test job not archived.
 1\1\GINC-SE162\SP\RHF\Aug-CC-pVDZ\C5H6O2\OHZDE\09-Apr-2025\0\\#t hf au
 g-cc-pvdz iop(5/13=1,5/36=2,99/5=2) pseudo=read geom=check guess=(read
 ,tcheck) scf=(maxcycle=1)\\title\\0,1\O,0,0.65055397,-2.13110433,-1.06
 199263\C,0,0.36171512,-1.1074437,-0.51155086\C,0,-1.05090366,-0.532254
 24,-0.4073248\C,0,-0.85972721,0.83642673,0.18312478\C,0,0.54560956,1.0
 3592203,0.54969175\O,0,-0.0081144,1.66124276,-0.60021656\C,0,1.3459344
 8,-0.19223788,0.21746844\H,0,-1.65036058,-1.17765394,0.24077714\H,0,-1
 .52252178,-0.51612026,-1.39058832\H,0,0.84957546,1.70711261,1.34508723

 Normal termination of Gaussian 16 at Wed Apr  9 16:54:13 2025.
