 Gaussian 16, Revision C.01,

 ----------------------------------------------------------------------
 #t hf aug-cc-pvdz symm=none int=(grid=ultrafine) guess=(read,tcheck) s
 table=(opt,rrhf)
 ----------------------------------------------------------------------
 -----
 title
 -----
 Symbolic Z-matrix:
 Charge =  0 Multiplicity = 1

 SCF Done:  E(RHF) =  -360.890687819     A.U. after   13 cycles
 Normal termination of Gaussian 16 at Wed Apr  9 03:28:19 2025.
 Gaussian 16:  ES64L-G16RevC.01  3-Jul-2019

 ----------------------------------------------------------------------
 #t hf aug-cc-pvdz iop(5/13=1,5/36=2,99/5=2) pseudo=read geom=check gue
 ss=(read,tcheck) scf=(maxcycle=1)
 ----------------------------------------------------------------------
 -----
 title
 -----
 Structure from the checkpoint file:  "Grambow2020_wb97xd3_006760_reverse_mol2.chk"
 Charge =  0 Multiplicity = 1

                         Standard orientation:
 ---------------------------------------------------------------------
 Center     Atomic      Atomic             Coordinates (Angstroms)
 Number     Number       Type             X           Y           Z
 ---------------------------------------------------------------------
      1          6           0       -2.496005   -1.174610   -0.001634
      2          7           0       -1.345543   -0.306338    0.001894
      3          6           0       -1.415365    1.034483    0.000088
      4          8           0       -0.458774    1.784044   -0.001391
      5          6           0        2.203259   -0.022187    0.731205
      6          6           0        2.215546   -0.018519   -0.724531
      7          8           0        1.503691   -1.023207   -0.005393
      8          1           0       -2.518107   -1.804527   -0.893698
      9          1           0       -2.510704   -1.819637    0.879549
     10          1           0       -3.403274   -0.569248    0.008037
     11          1           0       -2.454411    1.414771    0.000208
     12          1           0        1.567740    0.696200    1.238301
     13          1           0        3.066201   -0.388777    1.277426
     14          1           0        1.589043    0.702709   -1.238978
     15          1           0        3.087633   -0.381598   -1.258400
     16          1           0       -0.409264   -0.707220   -0.002191
 ---------------------------------------------------------------------

 SCF Done:  E(RHF) =  -361.008833216     A.U. after    2 cycles

 The electronic state is 1-A.
 Alpha  occ. eigenvalues --  -20.59013 -20.53030 -15.64063 -11.35582 -11.29083
 Alpha  occ. eigenvalues --  -11.28964 -11.28109  -1.38242  -1.34060  -1.19896
 Alpha  occ. eigenvalues --   -0.95254  -0.93209  -0.86040  -0.83619  -0.71554
 Alpha  occ. eigenvalues --   -0.68659  -0.68014  -0.67019  -0.62730  -0.59122
 Alpha  occ. eigenvalues --   -0.56635  -0.56236  -0.55167  -0.53551  -0.47096
 Alpha  occ. eigenvalues --   -0.46115  -0.44026  -0.38726
 Alpha virt. eigenvalues --    0.03223   0.04065   0.04726   0.04913   0.06054
 Alpha virt. eigenvalues --    0.06469   0.07618   0.08292   0.09453   0.11031
 Alpha virt. eigenvalues --    0.12105   0.12521   0.12730   0.13465   0.15077

 Mulliken charges:
               1
     1  C    0.776587
     2  N   -0.157942
     3  C    0.614160
     4  O   -0.455043
     5  C    0.850853
     6  C    0.845815
     7  O   -0.699281
     8  H   -0.112893
     9  H   -0.114933
    10  H   -0.199315
    11  H   -0.286528
    12  H   -0.238574
    13  H   -0.241300
    14  H   -0.237244
    15  H   -0.241285
    16  H   -0.103077
 Sum of Mulliken charges =  -0.00000

 Dipole moment (field-independent basis, Debye):
    X=             -1.0722    Y=             -1.8512    Z=              0.0105  Tot=              2.1393

 Test job not archived.
 1\1\GINC-SE424\SP\RHF\Aug-CC-pVDZ\C4H9N1O2\OHZDE\09-Apr-2025\0\\#t hf
 aug-cc-pvdz iop(5/13=1,5/36=2,99/5=2) pseudo=read geom=check guess=(re
 ad,tcheck) scf=(maxcycle=1)\\title\\0,1\C,0,2.25394593,-0.37913334,-1.
 34162019\N,0,1.20150043,-0.00600486,-0.43024448\C,0,1.40089817,0.67010
 574,0.71246905\O,0,0.52902779,0.99041971,1.49614676\C,0,-2.36538452,0.
 56188625,-0.02842618\C,0,-2.1990001,-0.69285556,0.69078883\O,0,-1.6814
 6916,-0.53629108,-0.62865962\H,0,2.32378064,-1.46393817,-1.4483216\H,0
 ,2.09797725,0.05784296,-2.33029861\H,0,3.20767799,-0.0144772,-0.958066

 Normal termination of Gaussian 16 at Wed Apr  9 03:28:24 2025.
