 Gaussian 16, Revision C.01,

 ----------------------------------------------------------------------
 #t hf aug-cc-pvdz symm=none int=(grid=ultrafine) guess=(read,tcheck) s
 table=(opt,rrhf)
 ----------------------------------------------------------------------
 -----
 title
 -----
 Symbolic Z-matrix:
 Charge =  0 Multiplicity = 1

 SCF Done:  E(RHF) =  -322.519604098     A.U. after   17 cycles
 Normal termination of Gaussian 16 at Wed Apr  9 15:29:53 2025.
 Gaussian 16:  ES64L-G16RevC.01  3-Jul-2019

 ----------------------------------------------------------------------
 #t hf aug-cc-pvdz iop(5/13=1,5/36=2,99/5=2) pseudo=read geom=check gue
 ss=(read,tcheck) scf=(maxcycle=1)
 ----------------------------------------------------------------------
 -----
 title
 -----
 Structure from the checkpoint file:  "Grambow2020_wb97xd3_006938_forward_mol1.chk"
 Charge =  0 Multiplicity = 1

                         Standard orientation:
 ---------------------------------------------------------------------
 Center     Atomic      Atomic             Coordinates (Angstroms)
 Number     Number       Type             X           Y           Z
 ---------------------------------------------------------------------
      1          8           0        1.822554    0.691407   -0.018599
      2          6           0        1.574998   -0.489510    0.340247
      3          7           0        0.949740   -1.380659   -0.387619
      4          6           0       -1.248082   -1.067550    0.174181
      5          6           0       -2.164867    0.071943    0.026368
      6          6           0       -0.972666    0.902270   -0.076212
      7          6           0        0.023751    1.613983   -0.078580
      8          1           0        1.796264   -0.782980    1.377361
      9          1           0        0.832665   -0.976508   -1.317769
     10          1           0       -0.971586   -1.385149    1.166718
     11          1           0       -1.203415   -1.820589   -0.592936
     12          1           0       -2.764073    0.068366   -0.881101
     13          1           0       -2.770713    0.316734    0.897496
     14          1           0        0.573435    2.526669   -0.103677
 ---------------------------------------------------------------------

 SCF Done:  E(RHF) =  -322.619989609     A.U. after    2 cycles

 The electronic state is 1-A.
 Alpha  occ. eigenvalues --  -20.52981 -15.58811 -11.35626 -11.30911 -11.30338
 Alpha  occ. eigenvalues --  -11.29014 -11.25862  -1.31158  -1.14646  -1.10877
 Alpha  occ. eigenvalues --   -1.01100  -0.89063  -0.78934  -0.74727  -0.70516
 Alpha  occ. eigenvalues --   -0.68327  -0.63366  -0.62402  -0.60040  -0.57757
 Alpha  occ. eigenvalues --   -0.56321  -0.45590  -0.41730  -0.40262  -0.36334
 Alpha  occ. eigenvalues --   -0.34502
 Alpha virt. eigenvalues --    0.02239   0.02891   0.03829   0.04718   0.05462
 Alpha virt. eigenvalues --    0.06298   0.07374   0.07703   0.09123   0.10821
 Alpha virt. eigenvalues --    0.12643   0.12884   0.13341   0.13423   0.13970

 Mulliken charges:
               1
     1  O   -0.589987
     2  C    0.646825
     3  N   -0.499284
     4  C    0.845940
     5  C    0.384084
     6  C   -0.648992
     7  C    0.988615
     8  H   -0.257899
     9  H    0.054992
    10  H   -0.220081
    11  H   -0.207081
    12  H   -0.037208
    13  H   -0.000339
    14  H   -0.459586
 Sum of Mulliken charges =  -0.00000

 Dipole moment (field-independent basis, Debye):
    X=             -5.5919    Y=             -0.5679    Z=              0.7673  Tot=              5.6728

 Test job not archived.
 1\1\GINC-SE332\SP\RHF\Aug-CC-pVDZ\C5H7N1O1\OHZDE\09-Apr-2025\0\\#t hf
 aug-cc-pvdz iop(5/13=1,5/36=2,99/5=2) pseudo=read geom=check guess=(re
 ad,tcheck) scf=(maxcycle=1)\\title\\0,1\O,0,-0.45549014,2.18475384,-0.
 07886802\C,0,-1.3406347,1.42160464,0.38882979\N,0,-1.2204682,0.7139055
 7,1.48409469\C,0,-0.33637673,-1.2620065,0.73694708\C,0,0.92986036,-1.6
 0248534,0.07248795\C,0,0.99819973,-0.20081843,-0.31734293\C,0,1.018104
 62,0.95595871,-0.71841323\H,0,-2.2476469,1.23867296,-0.20661538\H,0,-0
 .35026742,1.00401575,1.932213\H,0,-1.25852836,-1.39364504,0.19403241\H

 Normal termination of Gaussian 16 at Wed Apr  9 15:29:56 2025.
