 Gaussian 16, Revision C.01,

 ----------------------------------------------------------------------
 #t hf aug-cc-pvdz symm=none int=(grid=ultrafine) guess=(read,tcheck) s
 table=(opt,rrhf)
 ----------------------------------------------------------------------
 -----
 title
 -----
 Symbolic Z-matrix:
 Charge =  0 Multiplicity = 1

 SCF Done:  E(RHF) =  -264.847021402     A.U. after   16 cycles
 Normal termination of Gaussian 16 at Wed Apr  9 03:07:58 2025.
 Gaussian 16:  ES64L-G16RevC.01  3-Jul-2019

 ----------------------------------------------------------------------
 #t hf aug-cc-pvdz iop(5/13=1,5/36=2,99/5=2) pseudo=read geom=check gue
 ss=(read,tcheck) scf=(maxcycle=1)
 ----------------------------------------------------------------------
 -----
 title
 -----
 Structure from the checkpoint file:  "Grambow2020_b97d3_006630_forward_mol1.chk"
 Charge =  0 Multiplicity = 1

                         Standard orientation:
 ---------------------------------------------------------------------
 Center     Atomic      Atomic             Coordinates (Angstroms)
 Number     Number       Type             X           Y           Z
 ---------------------------------------------------------------------
      1          6           0        1.996620   -0.713462    0.180212
      2          6           0        1.158246    0.405585   -0.439640
      3          6           0       -0.259631    0.535380    0.093156
      4          7           0       -0.868484    1.774433   -0.045988
      5          6           0       -1.047672   -0.701664    0.006921
      6          7           0       -1.735020   -1.642313   -0.114348
      7          1           0        1.493753   -1.686531    0.096442
      8          1           0        2.181306   -0.515270    1.244245
      9          1           0        2.965151   -0.786566   -0.330575
     10          1           0        1.627597    1.391356   -0.330481
     11          1           0        1.016910    0.240817   -1.521179
     12          1           0        0.100835    0.361370    1.673511
     13          1           0       -1.884250    1.656660    0.061636
     14          1           0       -0.362150    1.258293    1.184857
 ---------------------------------------------------------------------

 SCF Done:  E(RHF) =  -264.925423089     A.U. after    2 cycles

 The electronic state is 1-A.
 Alpha  occ. eigenvalues --  -15.68253 -15.62147 -11.42073 -11.32268 -11.28149
 Alpha  occ. eigenvalues --  -11.25648  -1.24385  -1.19851  -1.06866  -0.94170
 Alpha  occ. eigenvalues --   -0.87504  -0.77119  -0.67084  -0.64825  -0.62733
 Alpha  occ. eigenvalues --   -0.58439  -0.55075  -0.54140  -0.52665  -0.49550
 Alpha  occ. eigenvalues --   -0.49336  -0.44920  -0.35217
 Alpha virt. eigenvalues --    0.02698   0.03323   0.04445   0.05186   0.06298
 Alpha virt. eigenvalues --    0.06852   0.07517   0.08242   0.09284   0.10073
 Alpha virt. eigenvalues --    0.12189   0.12888   0.13318   0.13923   0.14616

 Mulliken charges:
               1
     1  C    0.405973
     2  C    0.281869
     3  C    0.494320
     4  N   -0.883424
     5  C   -0.300927
     6  N   -0.181100
     7  H   -0.067233
     8  H   -0.046359
     9  H   -0.037162
    10  H    0.003620
    11  H    0.030732
    12  H    0.135125
    13  H   -0.009081
    14  H    0.173647
 Sum of Mulliken charges =  -0.00000

 Dipole moment (field-independent basis, Debye):
    X=              2.4211    Y=              0.3599    Z=              0.5072  Tot=              2.4997

 Test job not archived.
 1\1\GINC-SE060\SP\RHF\Aug-CC-pVDZ\C4H8N2\OHZDE\09-Apr-2025\0\\#t hf au
 g-cc-pvdz iop(5/13=1,5/36=2,99/5=2) pseudo=read geom=check guess=(read
 ,tcheck) scf=(maxcycle=1)\\title\\0,1\C,0,-1.71029651,0.17986526,0.332
 72292\C,0,-0.60867142,-0.62110647,-0.36313612\C,0,0.80829317,-0.115947
 43,-0.14377656\N,0,1.83292497,-1.03628088,-0.31239188\C,0,1.00254614,1
 .29645351,-0.49889783\N,0,1.22011776,2.39495009,-0.84232435\H,0,-1.665
 38758,1.24391749,0.06340348\H,0,-1.61722688,0.09980434,1.42381586\H,0,
 -2.6966294,-0.20292246,0.04131108\H,0,-0.6140404,-1.67994384,-0.075413

 Normal termination of Gaussian 16 at Wed Apr  9 03:08:02 2025.
