 Gaussian 16, Revision C.01,

 ----------------------------------------------------------------------
 #t hf aug-cc-pvdz symm=none int=(grid=ultrafine) guess=(read,tcheck) s
 table=(opt,rrhf)
 ----------------------------------------------------------------------
 -----
 title
 -----
 Symbolic Z-matrix:
 Charge =  0 Multiplicity = 1

 SCF Done:  E(RHF) =  -270.019448387     A.U. after   13 cycles

 1\1\GINC-SE029\Stability\RHF\Aug-CC-pVDZ\C5H10O1\OHZDE\09-Apr-2025\0\\
 #t hf aug-cc-pvdz symm=none int=(grid=ultrafine) guess=(read,tcheck) s
 table=(opt,rrhf)\\title\\0,1\C,0,2.12951138,0.80200758,-1.01126295\C,0
 ,1.75802072,1.43749623,0.10787432\C,0,-0.92328202,-0.49526078,1.475967
 93\O,0,-1.31421541,0.64267937,1.66899236\C,0,-0.92559622,-1.19908018,0
 .13682701\C,0,-1.57080985,-0.40198942,-0.99687865\H,0,1.40367249,0.508
 00712,-1.77153748\H,0,0.12888294,-1.43819557,-0.08951265\H,0,3.1730073
 1,0.5566801,-1.2159777\H,0,2.487179,1.73471129,0.86350756\H,0,0.716329

 Normal termination of Gaussian 16 at Wed Apr  9 03:07:28 2025.
 Gaussian 16:  ES64L-G16RevC.01  3-Jul-2019

 ----------------------------------------------------------------------
 #t hf aug-cc-pvdz iop(5/13=1,5/36=2,99/5=2) pseudo=read geom=check gue
 ss=(read,tcheck) scf=(maxcycle=1)
 ----------------------------------------------------------------------
 -----
 title
 -----
 Structure from the checkpoint file:  "Grambow2020_b97d3_006613_reverse_mol2.chk"
 Charge =  0 Multiplicity = 1

                         Standard orientation:
 ---------------------------------------------------------------------
 Center     Atomic      Atomic             Coordinates (Angstroms)
 Number     Number       Type             X           Y           Z
 ---------------------------------------------------------------------
      1          6           0       -2.598456    0.533570    0.164896
      2          6           0       -2.206906   -0.690586   -0.212526
      3          6           0        1.293524   -0.853719    0.506497
      4          8           0        1.233815   -1.427744   -0.566781
      5          6           0        1.191032    0.643484    0.697663
      6          6           0        1.106317    1.443937   -0.601968
      7          1           0       -2.068666    1.430702   -0.160329
      8          1           0        0.304211    0.814787    1.333694
      9          1           0       -3.467001    0.688927    0.807136
     10          1           0       -2.742209   -1.585150    0.110268
     11          1           0       -1.338517   -0.849015   -0.852057
     12          1           0        1.422801   -1.430739    1.457561
     13          1           0        2.050987    0.957763    1.315341
     14          1           0        0.228942    1.144255   -1.188086
     15          1           0        1.992714    1.271461   -1.225754
     16          1           0        1.033158    2.518839   -0.390892
 ---------------------------------------------------------------------

 SCF Done:  E(RHF) =  -270.106945276     A.U. after    2 cycles

 The electronic state is 1-A.
 Alpha  occ. eigenvalues --  -20.57448 -11.34946 -11.25676 -11.24565 -11.24344
 Alpha  occ. eigenvalues --  -11.23669  -1.35309  -1.05171  -1.02540  -0.90813
 Alpha  occ. eigenvalues --   -0.79160  -0.77477  -0.68676  -0.65051  -0.63897
 Alpha  occ. eigenvalues --   -0.62778  -0.59035  -0.54753  -0.53943  -0.52207
 Alpha  occ. eigenvalues --   -0.50716  -0.49498  -0.43481  -0.37944
 Alpha virt. eigenvalues --    0.03136   0.04233   0.04356   0.05152   0.06093
 Alpha virt. eigenvalues --    0.06388   0.07271   0.07520   0.09068   0.09295
 Alpha virt. eigenvalues --    0.10173   0.11822   0.13175   0.13754   0.14222

 Mulliken charges:
               1
     1  C    0.597805
     2  C    0.588748
     3  C    0.646663
     4  O   -0.499251
     5  C   -0.241743
     6  C    0.474572
     7  H   -0.337246
     8  H   -0.009529
     9  H   -0.267302
    10  H   -0.272571
    11  H   -0.316309
    12  H   -0.134421
    13  H   -0.018838
    14  H   -0.089873
    15  H   -0.080898
    16  H   -0.039807
 Sum of Mulliken charges =   0.00000

 Dipole moment (field-independent basis, Debye):
    X=              0.1167    Y=              1.9432    Z=              2.6133  Tot=              3.2586

 Test job not archived.
 1\1\GINC-SE029\SP\RHF\Aug-CC-pVDZ\C5H10O1\OHZDE\09-Apr-2025\0\\#t hf a
 ug-cc-pvdz iop(5/13=1,5/36=2,99/5=2) pseudo=read geom=check guess=(rea
 d,tcheck) scf=(maxcycle=1)\\title\\0,1\C,0,2.12951138,0.80200758,-1.01
 126295\C,0,1.75802072,1.43749623,0.10787432\C,0,-0.92328202,-0.4952607
 8,1.47596793\O,0,-1.31421541,0.64267937,1.66899236\C,0,-0.92559622,-1.
 19908018,0.13682701\C,0,-1.57080985,-0.40198942,-0.99687865\H,0,1.4036
 7249,0.50800712,-1.77153748\H,0,0.12888294,-1.43819557,-0.08951265\H,0
 ,3.17300731,0.5566801,-1.2159777\H,0,2.487179,1.73471129,0.86350756\H,

 Normal termination of Gaussian 16 at Wed Apr  9 03:07:33 2025.
