 Gaussian 16, Revision C.01,

 ----------------------------------------------------------------------
 #t hf aug-cc-pvdz symm=none int=(grid=ultrafine) guess=(read,tcheck) s
 table=(opt,rrhf)
 ----------------------------------------------------------------------
 -----
 title
 -----
 Symbolic Z-matrix:
 Charge =  0 Multiplicity = 1

 SCF Done:  E(RHF) =  -344.913288286     A.U. after   12 cycles

 1\1\GINC-SE335\Stability\RHF\Aug-CC-pVDZ\C5H10O2\OHZDE\09-Apr-2025\0\\
 #t hf aug-cc-pvdz symm=none int=(grid=ultrafine) guess=(read,tcheck) s
 table=(opt,rrhf)\\title\\0,1\O,0,-0.05342211,-1.18232975,1.15396026\C,
 0,1.12382292,-1.24464459,0.35431528\C,0,0.93144662,-0.23404353,-0.7931
 4236\C,0,-0.50336257,0.28896421,-0.59066797\C,0,-1.10694199,-0.8100612
 7,0.28171214\O,0,0.23911116,1.69112268,1.28776671\C,0,-0.5367496,1.645
 73437,0.10885344\H,0,0.10747243,0.86571992,1.76706754\H,0,1.24882345,-
 2.26374267,-0.02915995\H,0,1.9701299,-1.0092039,0.9992401\H,0,1.038337

 Normal termination of Gaussian 16 at Wed Apr  9 03:40:32 2025.
 Gaussian 16:  ES64L-G16RevC.01  3-Jul-2019

 ----------------------------------------------------------------------
 #t hf aug-cc-pvdz iop(5/13=1,5/36=2,99/5=2) pseudo=read geom=check gue
 ss=(read,tcheck) scf=(maxcycle=1)
 ----------------------------------------------------------------------
 -----
 title
 -----
 Structure from the checkpoint file:  "Grambow2020_wb97xd3_007543_reverse_mol2.chk"
 Charge =  0 Multiplicity = 1

                         Standard orientation:
 ---------------------------------------------------------------------
 Center     Atomic      Atomic             Coordinates (Angstroms)
 Number     Number       Type             X           Y           Z
 ---------------------------------------------------------------------
      1          8           0        1.090358    0.789419   -0.683779
      2          6           0        1.506723   -0.564731   -0.534987
      3          6           0        0.569371   -1.202057    0.509124
      4          6           0       -0.311466   -0.029947    0.981877
      5          6           0        0.531625    1.172386    0.561395
      6          8           0       -1.618742   -0.132159   -1.098127
      7          6           0       -1.681581   -0.020716    0.308105
      8          1           0       -0.891417    0.416517   -1.411658
      9          1           0        2.550321   -0.589169   -0.201003
     10          1           0        1.444012   -1.035842   -1.515659
     11          1           0        1.139570   -1.623349    1.337144
     12          1           0       -0.035032   -1.996549    0.072973
     13          1           0       -0.462491   -0.044723    2.063696
     14          1           0        1.326542    1.377643    1.291647
     15          1           0       -0.042427    2.087854    0.406795
     16          1           0       -2.219776    0.892502    0.600293
     17          1           0       -2.270269   -0.872573    0.657930
 ---------------------------------------------------------------------

 SCF Done:  E(RHF) =  -345.020836538     A.U. after    2 cycles

 The electronic state is 1-A.
 Alpha  occ. eigenvalues --  -20.57742 -20.56035 -11.28965 -11.28687 -11.28301
 Alpha  occ. eigenvalues --  -11.24359 -11.23590  -1.35409  -1.31420  -1.07049
 Alpha  occ. eigenvalues --   -1.00401  -0.91857  -0.82607  -0.79633  -0.71636
 Alpha  occ. eigenvalues --   -0.69795  -0.66428  -0.63196  -0.61689  -0.60755
 Alpha  occ. eigenvalues --   -0.56357  -0.54699  -0.51462  -0.50024  -0.49474
 Alpha  occ. eigenvalues --   -0.47040  -0.44105  -0.43214
 Alpha virt. eigenvalues --    0.03049   0.04384   0.04606   0.04909   0.06187
 Alpha virt. eigenvalues --    0.06426   0.06580   0.07530   0.07898   0.09504
 Alpha virt. eigenvalues --    0.11869   0.12394   0.13576   0.13677   0.14342

 Mulliken charges:
               1
     1  O   -0.739583
     2  C    0.860816
     3  C    0.231387
     4  C   -0.489165
     5  C    0.945232
     6  O   -0.562138
     7  C    0.970843
     8  H    0.240665
     9  H   -0.205754
    10  H   -0.231271
    11  H   -0.086338
    12  H   -0.080668
    13  H   -0.189636
    14  H   -0.166192
    15  H   -0.211785
    16  H   -0.137035
    17  H   -0.149377
 Sum of Mulliken charges =  -0.00000

 Dipole moment (field-independent basis, Debye):
    X=              1.0887    Y=             -0.2349    Z=              2.6436  Tot=              2.8686

 Test job not archived.
 1\1\GINC-SE335\SP\RHF\Aug-CC-pVDZ\C5H10O2\OHZDE\09-Apr-2025\0\\#t hf a
 ug-cc-pvdz iop(5/13=1,5/36=2,99/5=2) pseudo=read geom=check guess=(rea
 d,tcheck) scf=(maxcycle=1)\\title\\0,1\O,0,-0.05342211,-1.18232975,1.1
 5396026\C,0,1.12382292,-1.24464459,0.35431528\C,0,0.93144662,-0.234043
 53,-0.79314236\C,0,-0.50336257,0.28896421,-0.59066797\C,0,-1.10694199,
 -0.81006127,0.28171214\O,0,0.23911116,1.69112268,1.28776671\C,0,-0.536
 7496,1.64573437,0.10885344\H,0,0.10747243,0.86571992,1.76706754\H,0,1.
 24882345,-2.26374267,-0.02915995\H,0,1.9701299,-1.0092039,0.9992401\H,

 Normal termination of Gaussian 16 at Wed Apr  9 03:40:38 2025.
