 Gaussian 16, Revision C.01,

 ----------------------------------------------------------------------
 #t hf aug-cc-pvdz symm=none int=(grid=ultrafine) guess=(read,tcheck) s
 table=(opt,rrhf)
 ----------------------------------------------------------------------
 -----
 title
 -----
 Symbolic Z-matrix:
 Charge =  0 Multiplicity = 1

 SCF Done:  E(RHF) =  -272.025251578     A.U. after   12 cycles
 Normal termination of Gaussian 16 at Wed Apr  9 15:53:19 2025.
 Gaussian 16:  ES64L-G16RevC.01  3-Jul-2019

 ----------------------------------------------------------------------
 #t hf aug-cc-pvdz iop(5/13=1,5/36=2,99/5=2) pseudo=read geom=check gue
 ss=(read,tcheck) scf=(maxcycle=1)
 ----------------------------------------------------------------------
 -----
 title
 -----
 Structure from the checkpoint file:  "Grambow2020_wb97xd3_007430_forward_mol2.chk"
 Charge =  0 Multiplicity = 1

                         Standard orientation:
 ---------------------------------------------------------------------
 Center     Atomic      Atomic             Coordinates (Angstroms)
 Number     Number       Type             X           Y           Z
 ---------------------------------------------------------------------
      1          6           0        2.675908    0.118108   -0.178015
      2          6           0        1.401651   -0.709338   -0.064008
      3          6           0        0.263200    0.060960    0.580793
      4          6           0       -0.384527    1.253466   -0.188542
      5          6           0       -1.751559    0.597422   -0.017837
      6          6           0       -1.748545   -0.748385   -0.663534
      7          6           0       -1.115568   -0.591263    0.682980
      8          1           0        3.478300   -0.444423   -0.658452
      9          1           0        3.032060    0.430087    0.807094
     10          1           0        2.506769    1.022757   -0.767572
     11          1           0        1.097000   -1.052170   -1.057789
     12          1           0        1.596160   -1.612641    0.523730
     13          1           0        0.579351    0.405066    1.569472
     14          1           0       -0.062585    1.391293   -1.224908
     15          1           0       -0.278787    2.201228    0.337601
     16          1           0       -2.670381    1.111408    0.229231
     17          1           0       -2.697951   -1.269138   -0.662501
     18          1           0       -1.144030   -0.926525   -1.547263
     19          1           0       -1.479264   -1.142768    1.540340
 ---------------------------------------------------------------------

 SCF Done:  E(RHF) =  -272.109369399     A.U. after    2 cycles

 The electronic state is 1-A.
 Alpha  occ. eigenvalues --  -11.23229 -11.23112 -11.23055 -11.22884 -11.22575
 Alpha  occ. eigenvalues --  -11.22088 -11.21886  -1.17975  -1.03981  -0.96044
 Alpha  occ. eigenvalues --   -0.89448  -0.82443  -0.78041  -0.71661  -0.69413
 Alpha  occ. eigenvalues --   -0.61967  -0.60863  -0.59160  -0.54611  -0.53156
 Alpha  occ. eigenvalues --   -0.52921  -0.50250  -0.47752  -0.44994  -0.44061
 Alpha  occ. eigenvalues --   -0.40454  -0.37308
 Alpha virt. eigenvalues --    0.03460   0.04190   0.04395   0.04547   0.06057
 Alpha virt. eigenvalues --    0.06220   0.06494   0.07061   0.07143   0.08698
 Alpha virt. eigenvalues --    0.08952   0.09776   0.12677   0.13026   0.13992

 Mulliken charges:
               1
     1  C    0.484106
     2  C    0.159633
     3  C   -0.362613
     4  C    0.619388
     5  C    0.446544
     6  C    0.914504
     7  C    0.533774
     8  H   -0.072976
     9  H   -0.067674
    10  H   -0.090974
    11  H   -0.086911
    12  H   -0.064673
    13  H   -0.262578
    14  H   -0.236761
    15  H   -0.239976
    16  H   -0.445386
    17  H   -0.372601
    18  H   -0.412355
    19  H   -0.442472
 Sum of Mulliken charges =  -0.00000

 Dipole moment (field-independent basis, Debye):
    X=             -0.0607    Y=              0.0266    Z=              0.2383  Tot=              0.2473

 Test job not archived.
 1\1\GINC-SE141\SP\RHF\Aug-CC-pVDZ\C7H12\OHZDE\09-Apr-2025\0\\#t hf aug
 -cc-pvdz iop(5/13=1,5/36=2,99/5=2) pseudo=read geom=check guess=(read,
 tcheck) scf=(maxcycle=1)\\title\\0,1\C,0,2.37740947,0.40025656,-0.6938
 5196\C,0,1.12881181,-0.47243387,-0.7223037\C,0,0.2549483,-0.278319,0.5
 0402431\C,0,-0.49584689,1.07487482,0.70067244\C,0,-1.80755557,0.306839
 28,0.83428548\C,0,-2.06309972,-0.47419654,-0.4118333\C,0,-1.08602578,-
 1.00742321,0.58788909\H,0,2.98514541,0.26095127,-1.58958979\H,0,3.0020
 7808,0.16544051,0.17174924\H,0,2.11620318,1.45977214,-0.63242311\H,0,0

 Normal termination of Gaussian 16 at Wed Apr  9 15:53:27 2025.
