 Gaussian 16, Revision C.01,

 ----------------------------------------------------------------------
 #t hf aug-cc-pvdz symm=none int=(grid=ultrafine) guess=(read,tcheck) s
 table=(opt,rrhf)
 ----------------------------------------------------------------------
 -----
 title
 -----
 Symbolic Z-matrix:
 Charge =  0 Multiplicity = 1

 SCF Done:  E(RHF) =  -283.540127275     A.U. after   16 cycles
 Normal termination of Gaussian 16 at Wed Apr  9 03:20:56 2025.
 Gaussian 16:  ES64L-G16RevC.01  3-Jul-2019

 ----------------------------------------------------------------------
 #t hf aug-cc-pvdz iop(5/13=1,5/36=2,99/5=2) pseudo=read geom=check gue
 ss=(read,tcheck) scf=(maxcycle=1)
 ----------------------------------------------------------------------
 -----
 title
 -----
 Structure from the checkpoint file:  "Grambow2020_wb97xd3_006125_reverse_mol1.chk"
 Charge =  0 Multiplicity = 1

                         Standard orientation:
 ---------------------------------------------------------------------
 Center     Atomic      Atomic             Coordinates (Angstroms)
 Number     Number       Type             X           Y           Z
 ---------------------------------------------------------------------
      1          7           0       -2.481801   -0.095279   -0.439231
      2          6           0       -1.451831   -0.023214    0.061841
      3          6           0       -0.136181    0.088794    0.690416
      4          6           0        0.866634   -0.957242    0.182802
      5          8           0        1.659873   -0.100529   -0.673846
      6          6           0        0.744587    1.233267    0.190859
      7          1           0       -0.268563    0.101151    1.773530
      8          1           0        0.435297   -1.748388   -0.424655
      9          1           0        1.478681   -1.388927    0.976043
     10          1           0        0.302369    1.802457   -0.627301
     11          1           0        2.006586    0.655260    0.012257
 ---------------------------------------------------------------------

 SCF Done:  E(RHF) =  -283.624155764     A.U. after    2 cycles

 The electronic state is 1-A.
 Alpha  occ. eigenvalues --  -20.62821 -15.64734 -11.34103 -11.31472 -11.31227
 Alpha  occ. eigenvalues --  -11.29363  -1.38244  -1.20695  -1.09386  -0.96057
 Alpha  occ. eigenvalues --   -0.84960  -0.76723  -0.70849  -0.68533  -0.64855
 Alpha  occ. eigenvalues --   -0.57070  -0.56665  -0.55622  -0.52167  -0.47269
 Alpha  occ. eigenvalues --   -0.46672  -0.38432
 Alpha virt. eigenvalues --    0.02621   0.04101   0.04648   0.05160   0.06652
 Alpha virt. eigenvalues --    0.07966   0.09303   0.09999   0.10487   0.11987
 Alpha virt. eigenvalues --    0.13027   0.14315   0.14860   0.15181   0.15526

 Mulliken charges:
               1
     1  N   -0.145116
     2  C   -0.449478
     3  C    0.444133
     4  C    0.962812
     5  O   -0.754563
     6  C    0.089120
     7  H   -0.084336
     8  H   -0.220591
     9  H   -0.133096
    10  H   -0.154394
    11  H    0.445509
 Sum of Mulliken charges =  -0.00000

 Dipole moment (field-independent basis, Debye):
    X=              2.3827    Y=             -0.7921    Z=              2.3436  Tot=              3.4347

 Test job not archived.
 1\1\GINC-SE186\SP\RHF\Aug-CC-pVDZ\C4H5N1O1\OHZDE\09-Apr-2025\0\\#t hf
 aug-cc-pvdz iop(5/13=1,5/36=2,99/5=2) pseudo=read geom=check guess=(re
 ad,tcheck) scf=(maxcycle=1)\\title\\0,1\N,0,1.85950972,-0.74114262,1.9
 9431137\C,0,1.2832593,-0.5789081,1.01516971\C,0,0.5554308,-0.35040591,
 -0.23248487\C,0,-0.96586492,-0.48970501,-0.07835771\O,0,-1.31620695,0.
 91524581,-0.09846934\C,0,0.41768153,1.10881762,-0.66471191\H,0,0.99156
 231,-0.98039389,-1.00947705\H,0,-1.2936208,-0.91347219,0.86713976\H,0,
 -1.43683167,-1.02034661,-0.90708797\H,0,0.83485718,1.81933411,0.049466

 Normal termination of Gaussian 16 at Wed Apr  9 03:21:00 2025.
