 Gaussian 16, Revision C.01,

 ----------------------------------------------------------------------
 #t hf aug-cc-pvdz symm=none int=(grid=ultrafine) guess=(read,tcheck) s
 table=(opt,rrhf)
 ----------------------------------------------------------------------
 -----
 title
 -----
 Symbolic Z-matrix:
 Charge =  0 Multiplicity = 1

 SCF Done:  E(RHF) =  -343.629937831     A.U. after   16 cycles
 Normal termination of Gaussian 16 at Wed Apr  9 15:06:01 2025.
 Gaussian 16:  ES64L-G16RevC.01  3-Jul-2019

 ----------------------------------------------------------------------
 #t hf aug-cc-pvdz iop(5/13=1,5/36=2,99/5=2) pseudo=read geom=check gue
 ss=(read,tcheck) scf=(maxcycle=1)
 ----------------------------------------------------------------------
 -----
 title
 -----
 Structure from the checkpoint file:  "Grambow2020_wb97xd3_006673_reverse_mol1.chk"
 Charge =  0 Multiplicity = 1

                         Standard orientation:
 ---------------------------------------------------------------------
 Center     Atomic      Atomic             Coordinates (Angstroms)
 Number     Number       Type             X           Y           Z
 ---------------------------------------------------------------------
      1          6           0        2.247294   -0.588432   -0.231160
      2          6           0        0.876356   -0.041192   -0.421568
      3          8           0       -0.090713   -0.793519    0.849520
      4          6           0        0.578270    1.352747    0.050689
      5          6           0       -0.950389    1.262134    0.076400
      6          6           0       -1.124589   -0.225382   -0.060575
      7          8           0       -1.985967   -0.923453   -0.478991
      8          1           0        2.667108   -0.405824    0.767580
      9          1           0        2.317532   -1.652157   -0.466147
     10          1           0        2.877899   -0.066558   -0.958302
     11          1           0       -0.108819   -1.741467    0.659385
     12          1           0        1.013145    1.634238    1.019782
     13          1           0        0.937958    2.055447   -0.703198
     14          1           0       -1.418674    1.605558    1.002116
     15          1           0       -1.434377    1.747289   -0.768166
 ---------------------------------------------------------------------

 SCF Done:  E(RHF) =  -343.735026940     A.U. after    2 cycles

 The electronic state is 1-A.
 Alpha  occ. eigenvalues --  -20.65117 -20.57375 -11.41926 -11.26619 -11.26266
 Alpha  occ. eigenvalues --  -11.24592 -11.23641  -1.42985  -1.35120  -1.10573
 Alpha  occ. eigenvalues --   -1.01157  -0.90267  -0.84467  -0.75847  -0.73604
 Alpha  occ. eigenvalues --   -0.68722  -0.65375  -0.63902  -0.62065  -0.58147
 Alpha  occ. eigenvalues --   -0.57164  -0.56096  -0.52800  -0.51759  -0.48738
 Alpha  occ. eigenvalues --   -0.46802  -0.32111
 Alpha virt. eigenvalues --    0.03351   0.04197   0.04561   0.05097   0.06198
 Alpha virt. eigenvalues --    0.06546   0.07070   0.08280   0.09963   0.10171
 Alpha virt. eigenvalues --    0.12588   0.13436   0.13894   0.14151   0.14788

 Mulliken charges:
               1
     1  C    0.473811
     2  C   -0.822696
     3  O   -0.646756
     4  C    0.467531
     5  C    0.150722
     6  C    0.758598
     7  O   -0.486707
     8  H    0.037290
     9  H   -0.071561
    10  H    0.033290
    11  H    0.237013
    12  H   -0.096807
    13  H   -0.042517
    14  H    0.012426
    15  H   -0.003638
 Sum of Mulliken charges =   0.00000

 Dipole moment (field-independent basis, Debye):
    X=              2.2603    Y=              1.4413    Z=              1.4383  Tot=              3.0422

 Test job not archived.
 1\1\GINC-SE114\SP\RHF\Aug-CC-pVDZ\C5H8O2\OHZDE\09-Apr-2025\0\\#t hf au
 g-cc-pvdz iop(5/13=1,5/36=2,99/5=2) pseudo=read geom=check guess=(read
 ,tcheck) scf=(maxcycle=1)\\title\\0,1\C,0,-1.97837859,-0.38072497,0.16
 483291\C,0,-0.51817832,-0.41983537,-0.12062024\O,0,-0.14590949,1.17137
 748,-0.78870828\C,0,0.44914242,-0.26873477,1.01797913\C,0,1.69848601,0
 .09161988,0.20868543\C,0,1.06900997,0.37790702,-1.12683352\O,0,1.45039
 08,0.33722349,-2.2481006\H,0,-2.28030218,0.43038723,0.84159772\H,0,-2.
 58824475,-0.34536115,-0.73986337\H,0,-2.2088825,-1.33021513,0.65888533

 Normal termination of Gaussian 16 at Wed Apr  9 15:06:06 2025.
