 Gaussian 16, Revision C.01,

 ----------------------------------------------------------------------
 #t hf aug-cc-pvdz symm=none int=(grid=ultrafine) guess=(read,tcheck) s
 table=(opt,rrhf)
 ----------------------------------------------------------------------
 -----
 title
 -----
 Symbolic Z-matrix:
 Charge =  0 Multiplicity = 1

 SCF Done:  E(RHF) =  -306.624543684     A.U. after   16 cycles
 Normal termination of Gaussian 16 at Wed Apr  9 15:42:04 2025.
 Gaussian 16:  ES64L-G16RevC.01  3-Jul-2019

 ----------------------------------------------------------------------
 #t hf aug-cc-pvdz iop(5/13=1,5/36=2,99/5=2) pseudo=read geom=check gue
 ss=(read,tcheck) scf=(maxcycle=1)
 ----------------------------------------------------------------------
 -----
 title
 -----
 Structure from the checkpoint file:  "Grambow2020_wb97xd3_007302_forward_mol1.chk"
 Charge =  0 Multiplicity = 1

                         Standard orientation:
 ---------------------------------------------------------------------
 Center     Atomic      Atomic             Coordinates (Angstroms)
 Number     Number       Type             X           Y           Z
 ---------------------------------------------------------------------
      1          6           0        2.549305   -0.166087    0.378825
      2          6           0        1.214440    0.548791    0.491359
      3          6           0        0.145376   -0.036528   -0.382605
      4          8           0        0.256674   -0.960579   -1.116849
      5          6           0       -1.193517    1.421131   -0.689207
      6          6           0       -1.450018    0.391931   -0.007077
      7          6           0       -2.203861   -0.623204    0.756845
      8          1           0        2.457795   -1.219135    0.646645
      9          1           0        3.280163    0.294592    1.044133
     10          1           0        2.935419   -0.117523   -0.639333
     11          1           0        1.280058    1.608272    0.228536
     12          1           0        0.828850    0.537083    1.516267
     13          1           0       -2.264058   -1.553885    0.192362
     14          1           0       -1.730477   -0.828203    1.718948
     15          1           0       -3.211491   -0.252782    0.938388
 ---------------------------------------------------------------------

 SCF Done:  E(RHF) =  -306.719147913     A.U. after    2 cycles

 The electronic state is 1-A.
 Alpha  occ. eigenvalues --  -20.60172 -11.39221 -11.27674 -11.27134 -11.26458
 Alpha  occ. eigenvalues --  -11.26246 -11.23995  -1.40508  -1.11281  -1.06071
 Alpha  occ. eigenvalues --   -0.98504  -0.90254  -0.76436  -0.70279  -0.67602
 Alpha  occ. eigenvalues --   -0.65381  -0.64127  -0.61140  -0.58972  -0.56194
 Alpha  occ. eigenvalues --   -0.55904  -0.53280  -0.51114  -0.44926  -0.42326
 Alpha  occ. eigenvalues --   -0.39799
 Alpha virt. eigenvalues --    0.02821   0.03665   0.04805   0.04909   0.06203
 Alpha virt. eigenvalues --    0.06413   0.06772   0.07515   0.08140   0.09896
 Alpha virt. eigenvalues --    0.11249   0.11628   0.12268   0.13117   0.13958

 Mulliken charges:
               1
     1  C    0.504946
     2  C   -0.020086
     3  C   -0.192022
     4  O   -0.507039
     5  C   -0.429170
     6  C    0.048735
     7  C    0.604990
     8  H   -0.049510
     9  H   -0.033803
    10  H   -0.042853
    11  H    0.035989
    12  H   -0.012308
    13  H    0.091125
    14  H    0.021315
    15  H   -0.020307
 Sum of Mulliken charges =  -0.00000

 Dipole moment (field-independent basis, Debye):
    X=              0.0667    Y=             -0.7686    Z=              3.6704  Tot=              3.7506

 Test job not archived.
 1\1\GINC-SE219\SP\RHF\Aug-CC-pVDZ\C6H8O1\OHZDE\09-Apr-2025\0\\#t hf au
 g-cc-pvdz iop(5/13=1,5/36=2,99/5=2) pseudo=read geom=check guess=(read
 ,tcheck) scf=(maxcycle=1)\\title\\0,1\C,0,-2.28085951,-0.60976692,0.39
 573557\C,0,-1.11362292,0.04221152,-0.32402835\C,0,-0.054047,0.56266428
 ,0.60103247\O,0,-0.05879521,0.51083679,1.7853731\C,0,0.92000559,1.9943
 1193,-0.40545441\C,0,1.45410728,0.89478408,-0.09542013\C,0,2.47847844,
 -0.14952605,0.11057713\H,0,-1.94921571,-1.44941903,1.00729776\H,0,-3.0
 0978733,-0.97854461,-0.3265393\H,0,-2.78118807,0.10010194,1.05440566\H

 Normal termination of Gaussian 16 at Wed Apr  9 15:42:09 2025.
