 Gaussian 16, Revision C.01,

 ----------------------------------------------------------------------
 #t hf aug-cc-pvdz symm=none int=(grid=ultrafine) guess=(read,tcheck) s
 table=(opt,rrhf)
 ----------------------------------------------------------------------
 -----
 title
 -----
 Symbolic Z-matrix:
 Charge =  0 Multiplicity = 1

 SCF Done:  E(RHF) =  -233.003830394     A.U. after   13 cycles
 Normal termination of Gaussian 16 at Wed Apr  9 03:07:00 2025.
 Gaussian 16:  ES64L-G16RevC.01  3-Jul-2019

 ----------------------------------------------------------------------
 #t hf aug-cc-pvdz iop(5/13=1,5/36=2,99/5=2) pseudo=read geom=check gue
 ss=(read,tcheck) scf=(maxcycle=1)
 ----------------------------------------------------------------------
 -----
 title
 -----
 Structure from the checkpoint file:  "Grambow2020_b97d3_006588_reverse_mol2.chk"
 Charge =  0 Multiplicity = 1

                         Standard orientation:
 ---------------------------------------------------------------------
 Center     Atomic      Atomic             Coordinates (Angstroms)
 Number     Number       Type             X           Y           Z
 ---------------------------------------------------------------------
      1          6           0       -1.915115   -0.002918   -0.788555
      2          6           0        2.215697   -0.001912   -0.544616
      3          6           0        1.035233    0.001400    0.082888
      4          6           0        0.056045   -1.092061    0.477638
      5          6           0       -1.067520    0.001333    0.481358
      6          6           0        0.054911    1.095726    0.472422
      7          1           0       -2.558214   -0.894035   -0.832950
      8          1           0       -1.268476   -0.006404   -1.679323
      9          1           0        2.722313    0.926712   -0.814638
     10          1           0        2.717340   -0.935001   -0.808742
     11          1           0        0.254779   -1.491161    1.484124
     12          1           0       -0.064749   -1.934457   -0.218542
     13          1           0       -1.707085    0.003075    1.374308
     14          1           0       -2.558402    0.887626   -0.840093
     15          1           0        0.253762    1.499802    1.476915
     16          1           0       -0.066771    1.934432   -0.227872
 ---------------------------------------------------------------------

 SCF Done:  E(RHF) =  -233.074861697     A.U. after    2 cycles

 The electronic state is 1-A.
 Alpha  occ. eigenvalues --  -11.24662 -11.24174 -11.23409 -11.23394 -11.22652
 Alpha  occ. eigenvalues --  -11.22321  -1.13230  -0.99939  -0.93154  -0.90315
 Alpha  occ. eigenvalues --   -0.78215  -0.70497  -0.64733  -0.62789  -0.60278
 Alpha  occ. eigenvalues --   -0.57559  -0.54369  -0.53157  -0.48723  -0.45864
 Alpha  occ. eigenvalues --   -0.45339  -0.44053  -0.34769
 Alpha virt. eigenvalues --    0.03476   0.04343   0.04674   0.04699   0.06388
 Alpha virt. eigenvalues --    0.06397   0.06927   0.07020   0.07515   0.08952
 Alpha virt. eigenvalues --    0.11834   0.12086   0.12939   0.13471   0.14401

 Mulliken charges:
               1
     1  C    0.523375
     2  C    1.000929
     3  C   -0.387680
     4  C    0.296702
     5  C   -0.212035
     6  C    0.298017
     7  H   -0.052954
     8  H   -0.004221
     9  H   -0.318980
    10  H   -0.318538
    11  H   -0.038795
    12  H   -0.203746
    13  H   -0.287814
    14  H   -0.053757
    15  H   -0.037641
    16  H   -0.202864
 Sum of Mulliken charges =  -0.00000

 Dipole moment (field-independent basis, Debye):
    X=             -0.6759    Y=              0.0013    Z=              0.2667  Tot=              0.7266

 Test job not archived.
 1\1\GINC-SE165\SP\RHF\Aug-CC-pVDZ\C6H10\OHZDE\09-Apr-2025\0\\#t hf aug
 -cc-pvdz iop(5/13=1,5/36=2,99/5=2) pseudo=read geom=check guess=(read,
 tcheck) scf=(maxcycle=1)\\title\\0,1\C,0,0.46798285,0.40582738,1.84250
 877\C,0,-1.75668459,-0.1479341,-1.60238899\C,0,-0.56478126,-0.17099936
 ,-0.99732552\C,0,0.16134956,-1.20579316,-0.15338835\C,0,0.98423865,-0.
 02718487,0.47243843\C,0,0.48181973,0.88926719,-0.69603015\H,0,0.677280
 36,-0.35884031,2.60481655\H,0,-0.62111197,0.56182366,1.8084408\H,0,-2.
 13106278,0.7521373,-2.09394429\H,0,-2.39912998,-1.03035094,-1.62820991

 Normal termination of Gaussian 16 at Wed Apr  9 03:07:06 2025.
