 Gaussian 16, Revision C.01,

 ----------------------------------------------------------------------
 #t hf aug-cc-pvdz symm=none int=(grid=ultrafine) guess=(read,tcheck) s
 table=(opt,rrhf)
 ----------------------------------------------------------------------
 -----
 title
 -----
 Symbolic Z-matrix:
 Charge =  0 Multiplicity = 1

 SCF Done:  E(RHF) =  -346.082212901     A.U. after   15 cycles

 1\1\GINC-SE097\Stability\RHF\Aug-CC-pVDZ\C5H12O2\OHZDE\09-Apr-2025\0\\
 #t hf aug-cc-pvdz symm=none int=(grid=ultrafine) guess=(read,tcheck) s
 table=(opt,rrhf)\\title\\0,1\C,0,-2.92748491,0.9873588,1.65211974\O,0,
 0.67725552,-0.7366599,2.0060407\C,0,0.10473096,-0.64945105,0.95365578\
 C,0,0.34289447,0.49132999,-0.01105539\C,0,1.69632297,0.37515522,-0.721
 03927\C,0,1.71404293,-0.69325915,-1.7925026\O,0,1.36824258,-1.92840415
 ,-1.19078205\H,0,-3.86619751,1.21812235,2.15320781\H,0,-2.2094599,0.61
 456528,2.38124367\H,0,-3.10375961,0.2283787,0.89051521\H,0,-0.63841197

 Normal termination of Gaussian 16 at Wed Apr  9 16:15:22 2025.
 Gaussian 16:  ES64L-G16RevC.01  3-Jul-2019

 ----------------------------------------------------------------------
 #t hf aug-cc-pvdz iop(5/13=1,5/36=2,99/5=2) pseudo=read geom=check gue
 ss=(read,tcheck) scf=(maxcycle=1)
 ----------------------------------------------------------------------
 -----
 title
 -----
 Structure from the checkpoint file:  "Grambow2020_wb97xd3_008010_reverse_mol2.chk"
 Charge =  0 Multiplicity = 1

                         Standard orientation:
 ---------------------------------------------------------------------
 Center     Atomic      Atomic             Coordinates (Angstroms)
 Number     Number       Type             X           Y           Z
 ---------------------------------------------------------------------
      1          6           0       -3.730776   -0.665215    0.456036
      2          8           0       -0.709818    1.752141   -0.603142
      3          6           0       -0.545823    0.774296    0.074966
      4          6           0       -0.157792   -0.566234   -0.509140
      5          6           0        1.305756   -0.597162   -0.963467
      6          6           0        2.282720   -0.681561    0.189041
      7          8           0        2.057201    0.427194    1.041703
      8          1           0       -4.797908   -0.732622    0.661482
      9          1           0       -3.506925    0.305638    0.016159
     10          1           0       -3.177425   -0.781736    1.387375
     11          1           0       -0.685467    0.820562    1.171256
     12          1           0       -0.803799   -0.729846   -1.374752
     13          1           0       -3.445861   -1.454278   -0.238671
     14          1           0       -0.350209   -1.360889    0.216956
     15          1           0        1.511610    0.297966   -1.555599
     16          1           0        1.467116   -1.460153   -1.614192
     17          1           0        2.131608   -1.622878    0.735111
     18          1           0        3.309985   -0.675795   -0.194999
     19          1           0        2.643704    0.374607    1.796779
 ---------------------------------------------------------------------

 SCF Done:  E(RHF) =  -346.196115781     A.U. after    2 cycles

 The electronic state is 1-A.
 Alpha  occ. eigenvalues --  -20.58385 -20.55657 -11.32990 -11.29702 -11.24442
 Alpha  occ. eigenvalues --  -11.24320 -11.22022  -1.34906  -1.33726  -1.07050
 Alpha  occ. eigenvalues --   -0.96214  -0.94178  -0.84261  -0.77279  -0.73269
 Alpha  occ. eigenvalues --   -0.68979  -0.65394  -0.63189  -0.60281  -0.57894
 Alpha  occ. eigenvalues --   -0.55331  -0.55011  -0.54968  -0.54548  -0.53111
 Alpha  occ. eigenvalues --   -0.51069  -0.48073  -0.46412  -0.41688
 Alpha virt. eigenvalues --    0.02745   0.03798   0.04060   0.04843   0.05703
 Alpha virt. eigenvalues --    0.06215   0.06856   0.07334   0.07851   0.08648
 Alpha virt. eigenvalues --    0.09118   0.10751   0.11665   0.13002   0.13651

 Mulliken charges:
               1
     1  C    0.738465
     2  O   -0.551669
     3  C    0.767029
     4  C   -0.041228
     5  C    0.109577
     6  C    0.819500
     7  O   -0.560434
     8  H   -0.187118
     9  H   -0.156719
    10  H   -0.190213
    11  H   -0.176780
    12  H   -0.056378
    13  H   -0.179972
    14  H   -0.095010
    15  H   -0.067772
    16  H   -0.052946
    17  H   -0.137132
    18  H   -0.125071
    19  H    0.143871
 Sum of Mulliken charges =  -0.00000

 Dipole moment (field-independent basis, Debye):
    X=              2.0398    Y=             -4.1001    Z=              1.6893  Tot=              4.8811

 Test job not archived.
 1\1\GINC-SE097\SP\RHF\Aug-CC-pVDZ\C5H12O2\OHZDE\09-Apr-2025\0\\#t hf a
 ug-cc-pvdz iop(5/13=1,5/36=2,99/5=2) pseudo=read geom=check guess=(rea
 d,tcheck) scf=(maxcycle=1)\\title\\0,1\C,0,-2.92748491,0.9873588,1.652
 11974\O,0,0.67725552,-0.7366599,2.0060407\C,0,0.10473096,-0.64945105,0
 .95365578\C,0,0.34289447,0.49132999,-0.01105539\C,0,1.69632297,0.37515
 522,-0.72103927\C,0,1.71404293,-0.69325915,-1.7925026\O,0,1.36824258,-
 1.92840415,-1.19078205\H,0,-3.86619751,1.21812235,2.15320781\H,0,-2.20
 94599,0.61456528,2.38124367\H,0,-3.10375961,0.2283787,0.89051521\H,0,-

 Normal termination of Gaussian 16 at Wed Apr  9 16:15:32 2025.
