 Gaussian 16, Revision C.01,

 ----------------------------------------------------------------------
 #t hf aug-cc-pvdz symm=none int=(grid=ultrafine) guess=(read,tcheck) s
 table=(opt,rrhf)
 ----------------------------------------------------------------------
 -----
 title
 -----
 Symbolic Z-matrix:
 Charge =  0 Multiplicity = 1

 SCF Done:  E(RHF) =  -307.695856620     A.U. after   15 cycles

 1\1\GINC-SE120\Stability\RHF\Aug-CC-pVDZ\C6H10O1\OHZDE\09-Apr-2025\0\\
 #t hf aug-cc-pvdz symm=none int=(grid=ultrafine) guess=(read,tcheck) s
 table=(opt,rrhf)\\title\\0,1\C,0,1.94060027,0.22343492,-0.71788505\C,0
 ,0.62166252,0.19469826,-0.01466756\C,0,0.08494633,-1.11069582,0.611059
 53\C,0,-1.22155566,-0.94085908,-0.20067999\C,0,-0.77090404,0.47267771,
 -0.62852803\C,0,-0.79438511,1.61461374,0.39335599\O,0,0.43639159,1.325
 00484,0.88019091\H,0,2.75187763,0.07502904,-0.00178183\H,0,1.9889491,-
 0.57625442,-1.45877797\H,0,2.08798818,1.17971353,-1.22098454\H,0,0.666

 Normal termination of Gaussian 16 at Wed Apr  9 15:36:13 2025.
 Gaussian 16:  ES64L-G16RevC.01  3-Jul-2019

 ----------------------------------------------------------------------
 #t hf aug-cc-pvdz iop(5/13=1,5/36=2,99/5=2) pseudo=read geom=check gue
 ss=(read,tcheck) scf=(maxcycle=1)
 ----------------------------------------------------------------------
 -----
 title
 -----
 Structure from the checkpoint file:  "Grambow2020_wb97xd3_007034_forward_mol1.chk"
 Charge =  0 Multiplicity = 1

                         Standard orientation:
 ---------------------------------------------------------------------
 Center     Atomic      Atomic             Coordinates (Angstroms)
 Number     Number       Type             X           Y           Z
 ---------------------------------------------------------------------
      1          6           0       -2.023102   -0.210509    0.303727
      2          6           0       -0.583091   -0.048988   -0.063992
      3          6           0        0.166140   -1.154174   -0.839148
      4          6           0        1.247573   -1.171599    0.267610
      5          6           0        0.618165    0.088031    0.901176
      6          6           0        0.787309    1.445789    0.210742
      7          8           0       -0.283614    1.268455   -0.600040
      8          1           0       -2.645087   -0.189352   -0.593873
      9          1           0       -2.178155   -1.167943    0.803768
     10          1           0       -2.342594    0.591321    0.970282
     11          1           0       -0.387418   -2.082855   -0.972593
     12          1           0        0.514196   -0.806828   -1.811722
     13          1           0        2.288991   -1.098286   -0.040106
     14          1           0        1.131009   -2.030635    0.930955
     15          1           0        0.536977    0.138491    1.985584
     16          1           0        2.195466    1.036847   -0.813580
     17          1           0        1.877553    1.770305   -0.339080
 ---------------------------------------------------------------------

 SCF Done:  E(RHF) =  -307.791299619     A.U. after    2 cycles

 The electronic state is 1-A.
 Alpha  occ. eigenvalues --  -20.60145 -11.31713 -11.30973 -11.24849 -11.24779
 Alpha  occ. eigenvalues --  -11.24080 -11.23996  -1.39940  -1.12543  -1.01443
 Alpha  occ. eigenvalues --   -0.95158  -0.86854  -0.84650  -0.71927  -0.69589
 Alpha  occ. eigenvalues --   -0.68453  -0.66556  -0.60066  -0.58738  -0.57666
 Alpha  occ. eigenvalues --   -0.55502  -0.52028  -0.48819  -0.48121  -0.46300
 Alpha  occ. eigenvalues --   -0.44067  -0.31612
 Alpha virt. eigenvalues --    0.03196   0.04225   0.04379   0.04651   0.06204
 Alpha virt. eigenvalues --    0.06528   0.06691   0.07190   0.07468   0.09705
 Alpha virt. eigenvalues --    0.10845   0.11841   0.12521   0.12881   0.13647

 Mulliken charges:
               1
     1  C    0.550895
     2  C   -0.655879
     3  C    0.718849
     4  C    0.500115
     5  C    0.328507
     6  C    0.202091
     7  O   -0.722125
     8  H    0.057380
     9  H    0.076854
    10  H    0.044049
    11  H   -0.224726
    12  H   -0.122202
    13  H   -0.219217
    14  H   -0.138432
    15  H   -0.353656
    16  H   -0.174982
    17  H    0.132479
 Sum of Mulliken charges =   0.00000

 Dipole moment (field-independent basis, Debye):
    X=             -0.6217    Y=             -2.9691    Z=              0.9537  Tot=              3.1799

 Test job not archived.
 1\1\GINC-SE120\SP\RHF\Aug-CC-pVDZ\C6H10O1\OHZDE\09-Apr-2025\0\\#t hf a
 ug-cc-pvdz iop(5/13=1,5/36=2,99/5=2) pseudo=read geom=check guess=(rea
 d,tcheck) scf=(maxcycle=1)\\title\\0,1\C,0,1.94060027,0.22343492,-0.71
 788505\C,0,0.62166252,0.19469826,-0.01466756\C,0,0.08494633,-1.1106958
 2,0.61105953\C,0,-1.22155566,-0.94085908,-0.20067999\C,0,-0.77090404,0
 .47267771,-0.62852803\C,0,-0.79438511,1.61461374,0.39335599\O,0,0.4363
 9159,1.32500484,0.88019091\H,0,2.75187763,0.07502904,-0.00178183\H,0,1
 .9889491,-0.57625442,-1.45877797\H,0,2.08798818,1.17971353,-1.22098454

 Normal termination of Gaussian 16 at Wed Apr  9 15:36:20 2025.
