 Gaussian 16, Revision C.01,

 ----------------------------------------------------------------------
 #t hf aug-cc-pvdz symm=none int=(grid=ultrafine) guess=(read,tcheck) s
 table=(opt,rrhf)
 ----------------------------------------------------------------------
 -----
 title
 -----
 Symbolic Z-matrix:
 Charge =  0 Multiplicity = 1

 SCF Done:  E(RHF) =  -316.505991669     A.U. after   16 cycles
 Normal termination of Gaussian 16 at Wed Apr  9 15:39:40 2025.
 Gaussian 16:  ES64L-G16RevC.01  3-Jul-2019

 ----------------------------------------------------------------------
 #t hf aug-cc-pvdz iop(5/13=1,5/36=2,99/5=2) pseudo=read geom=check gue
 ss=(read,tcheck) scf=(maxcycle=1)
 ----------------------------------------------------------------------
 -----
 title
 -----
 Structure from the checkpoint file:  "Grambow2020_wb97xd3_007266_reverse_mol2.chk"
 Charge =  0 Multiplicity = 1

                         Standard orientation:
 ---------------------------------------------------------------------
 Center     Atomic      Atomic             Coordinates (Angstroms)
 Number     Number       Type             X           Y           Z
 ---------------------------------------------------------------------
      1          7           0        2.666571    0.043138   -0.451731
      2          6           0        1.615560    0.019172    0.004897
      3          6           0       -1.713025   -0.741619   -0.383959
      4          7           0       -1.701166    0.717413   -0.347659
      5          6           0       -0.617780    1.121493    0.172052
      6          6           0        0.281948   -0.011235    0.601130
      7          7           0       -0.556236   -1.103842    0.140781
      8          1           0       -0.360017    2.166438    0.312936
      9          1           0        0.383611   -0.021507    1.692010
     10          1           0       -0.287998   -2.068764    0.240596
 ---------------------------------------------------------------------

 SCF Done:  E(RHF) =  -316.596440330     A.U. after    2 cycles

 The electronic state is 1-A.
 Alpha  occ. eigenvalues --  -15.70562 -15.67645 -15.66041 -11.37324 -11.34783
 Alpha  occ. eigenvalues --  -11.32220 -11.31387  -1.34221  -1.23150  -1.18392
 Alpha  occ. eigenvalues --   -1.07535  -0.88282  -0.83489  -0.78762  -0.74200
 Alpha  occ. eigenvalues --   -0.66392  -0.64297  -0.58484  -0.53135  -0.51503
 Alpha  occ. eigenvalues --   -0.50543  -0.46043  -0.45031  -0.38842
 Alpha virt. eigenvalues --    0.01869   0.03215   0.04544   0.05688   0.06515
 Alpha virt. eigenvalues --    0.09066   0.09860   0.10108   0.10539   0.11038
 Alpha virt. eigenvalues --    0.12802   0.13444   0.13599   0.13979   0.14747

 Mulliken charges:
               1
     1  N   -0.053200
     2  C   -0.594106
     3  C    0.220083
     4  N   -0.526127
     5  C    0.439184
     6  C    1.124227
     7  N   -0.372771
     8  H   -0.179469
     9  H    0.014216
    10  H   -0.072038
 Sum of Mulliken charges =  -0.00000

 Dipole moment (field-independent basis, Debye):
    X=              1.2841    Y=              0.1060    Z=              3.6472  Tot=              3.8681

 Test job not archived.
 1\1\GINC-SE057\SP\RHF\Aug-CC-pVDZ\C4H3N3\OHZDE\09-Apr-2025\0\\#t hf au
 g-cc-pvdz iop(5/13=1,5/36=2,99/5=2) pseudo=read geom=check guess=(read
 ,tcheck) scf=(maxcycle=1)\\title\\0,1\N,0,1.84238525,0.0497225,-2.0872
 7879\C,0,0.99646753,0.1740729,-1.32395262\C,0,-0.07415438,-0.18240223,
 1.92199601\N,0,-0.83776083,-1.19552789,1.20039046\C,0,-0.83885965,-0.9
 2568277,-0.03827394\C,0,-0.08844758,0.34321187,-0.35995627\N,0,0.35056
 071,0.65103272,0.98940765\H,0,-1.33531885,-1.52608878,-0.79407834\H,0,
 -0.77881638,1.1061932,-0.73639868\H,0,0.91376718,1.45739849,1.20286351

 Normal termination of Gaussian 16 at Wed Apr  9 15:39:44 2025.
