 Gaussian 16, Revision C.01,

 ----------------------------------------------------------------------
 #t hf aug-cc-pvdz symm=none int=(grid=ultrafine) guess=(read,tcheck) s
 table=(opt,rrhf)
 ----------------------------------------------------------------------
 -----
 title
 -----
 Symbolic Z-matrix:
 Charge =  0 Multiplicity = 1

 SCF Done:  E(RHF) =  -360.772691554     A.U. after   16 cycles
 Normal termination of Gaussian 16 at Wed Apr  9 16:37:19 2025.
 Gaussian 16:  ES64L-G16RevC.01  3-Jul-2019

 ----------------------------------------------------------------------
 #t hf aug-cc-pvdz iop(5/13=1,5/36=2,99/5=2) pseudo=read geom=check gue
 ss=(read,tcheck) scf=(maxcycle=1)
 ----------------------------------------------------------------------
 -----
 title
 -----
 Structure from the checkpoint file:  "Grambow2020_wb97xd3_008684_reverse_mol1.chk"
 Charge =  0 Multiplicity = 1

                         Standard orientation:
 ---------------------------------------------------------------------
 Center     Atomic      Atomic             Coordinates (Angstroms)
 Number     Number       Type             X           Y           Z
 ---------------------------------------------------------------------
      1          6           0       -1.872366   -1.102606   -0.170438
      2          7           0       -1.890349    0.093387   -0.771488
      3          6           0       -0.570407    1.472040    0.193666
      4          6           0        0.402964    0.519434    0.383559
      5          8           0        0.185302   -0.477468    1.157444
      6          8           0        1.460848    0.504140   -0.439586
      7          6           0        2.312425   -0.631883   -0.375426
      8          1           0       -2.650908   -1.373887    0.544880
      9          1           0       -0.789787   -0.963415    0.712144
     10          1           0       -1.450145   -1.916580   -0.759284
     11          1           0       -2.628771    0.672662   -0.384334
     12          1           0       -1.235100    1.666763    1.021467
     13          1           0       -0.433426    2.242396   -0.550655
     14          1           0        3.119812   -0.431276   -1.075217
     15          1           0        1.783191   -1.539168   -0.670032
     16          1           0        2.712678   -0.766501    0.630418
 ---------------------------------------------------------------------

 SCF Done:  E(RHF) =  -360.889261364     A.U. after    2 cycles

 The electronic state is 1-A.
 Alpha  occ. eigenvalues --  -20.60584 -20.59069 -15.67197 -11.37123 -11.29343
 Alpha  occ. eigenvalues --  -11.25122 -11.24315  -1.41870  -1.33142  -1.17202
 Alpha  occ. eigenvalues --   -1.03056  -0.93788  -0.85959  -0.80218  -0.72896
 Alpha  occ. eigenvalues --   -0.70641  -0.68490  -0.66807  -0.63528  -0.60129
 Alpha  occ. eigenvalues --   -0.58500  -0.57645  -0.53094  -0.51874  -0.49964
 Alpha  occ. eigenvalues --   -0.45498  -0.42757  -0.30870
 Alpha virt. eigenvalues --    0.03425   0.03999   0.04668   0.05357   0.06125
 Alpha virt. eigenvalues --    0.06336   0.06799   0.07683   0.08427   0.10137
 Alpha virt. eigenvalues --    0.10441   0.12557   0.12823   0.13965   0.14457

 Mulliken charges:
               1
     1  C    0.393345
     2  N   -0.385371
     3  C    0.669567
     4  C    0.664972
     5  O   -0.682125
     6  O   -0.598804
     7  C    0.749256
     8  H   -0.138533
     9  H    0.354837
    10  H   -0.176954
    11  H    0.126397
    12  H   -0.271092
    13  H   -0.292284
    14  H   -0.246261
    15  H   -0.090595
    16  H   -0.076355
 Sum of Mulliken charges =   0.00000

 Dipole moment (field-independent basis, Debye):
    X=             -0.7575    Y=             -0.3460    Z=              0.1893  Tot=              0.8541

 Test job not archived.
 1\1\GINC-SE125\SP\RHF\Aug-CC-pVDZ\C4H9N1O2\OHZDE\09-Apr-2025\0\\#t hf
 aug-cc-pvdz iop(5/13=1,5/36=2,99/5=2) pseudo=read geom=check guess=(re
 ad,tcheck) scf=(maxcycle=1)\\title\\0,1\C,0,-1.85941627,0.55571423,-0.
 40252365\N,0,-1.70304042,0.47978217,0.92479118\C,0,-0.26498847,-1.0111
 2157,1.45739444\C,0,0.5736215,-0.67656326,0.42020086\O,0,0.20090816,-0
 .85550057,-0.79188635\O,0,1.65583641,0.07056222,0.68007494\C,0,2.35635
 855,0.60249167,-0.43624411\H,0,-2.695622,0.05183034,-0.89064534\H,0,-0
 .80688061,-0.25156795,-0.8616178\H,0,-1.51651122,1.48224833,-0.8624319

 Normal termination of Gaussian 16 at Wed Apr  9 16:37:28 2025.
