 Gaussian 16, Revision C.01,

 ----------------------------------------------------------------------
 #t hf aug-cc-pvdz symm=none int=(grid=ultrafine) guess=(read,tcheck) s
 table=(opt,rrhf)
 ----------------------------------------------------------------------
 -----
 title
 -----
 Symbolic Z-matrix:
 Charge =  0 Multiplicity = 1

 SCF Done:  E(RHF) =  -373.409544280     A.U. after   15 cycles
 Normal termination of Gaussian 16 at Wed Apr  9 04:04:28 2025.
 Gaussian 16:  ES64L-G16RevC.01  3-Jul-2019

 ----------------------------------------------------------------------
 #t hf aug-cc-pvdz iop(5/13=1,5/36=2,99/5=2) pseudo=read geom=check gue
 ss=(read,tcheck) scf=(maxcycle=1)
 ----------------------------------------------------------------------
 -----
 title
 -----
 Structure from the checkpoint file:  "Grambow2020_wb97xd3_009220_forward_mol2.chk"
 Charge =  0 Multiplicity = 1

                         Standard orientation:
 ---------------------------------------------------------------------
 Center     Atomic      Atomic             Coordinates (Angstroms)
 Number     Number       Type             X           Y           Z
 ---------------------------------------------------------------------
      1          7           0       -1.096167    1.642247    0.458440
      2          6           0       -0.534340    0.643860   -0.033470
      3          8           0        0.693503    0.681476   -0.669323
      4          6           0        1.670547   -0.163663   -0.228416
      5          8           0        1.584330   -0.850674    0.733010
      6          6           0       -1.204476   -0.641685   -0.084393
      7          7           0       -1.738569   -1.652154   -0.163404
      8          1           0       -0.503436    2.468534    0.400568
      9          1           0        2.533534   -0.076673   -0.897648
 ---------------------------------------------------------------------

 SCF Done:  E(RHF) =  -373.525439573     A.U. after    2 cycles

 The electronic state is 1-A.
 Alpha  occ. eigenvalues --  -20.68730 -20.62124 -15.68264 -15.67587 -11.44704
 Alpha  occ. eigenvalues --  -11.43505 -11.31668  -1.49436  -1.40232  -1.25686
 Alpha  occ. eigenvalues --   -1.21914  -0.99610  -0.91851  -0.79785  -0.76749
 Alpha  occ. eigenvalues --   -0.74968  -0.68864  -0.66405  -0.58497  -0.57080
 Alpha  occ. eigenvalues --   -0.54670  -0.53527  -0.50672  -0.49542  -0.46209
 Alpha virt. eigenvalues --    0.02323   0.03850   0.06064   0.07101   0.08249
 Alpha virt. eigenvalues --    0.09068   0.10046   0.10842   0.11437   0.12450
 Alpha virt. eigenvalues --    0.13512   0.13691   0.14823   0.15906   0.17190

 Mulliken charges:
               1
     1  N   -0.252499
     2  C    1.034382
     3  O   -0.607247
     4  C    0.765121
     5  O   -0.317890
     6  C   -0.421358
     7  N   -0.110995
     8  H    0.056957
     9  H   -0.146473
 Sum of Mulliken charges =  -0.00000

 Dipole moment (field-independent basis, Debye):
    X=              3.2872    Y=              3.4576    Z=             -1.9287  Tot=              5.1459

 Test job not archived.
 1\1\GINC-SE220\SP\RHF\Aug-CC-pVDZ\C3H2N2O2\OHZDE\09-Apr-2025\0\\#t hf
 aug-cc-pvdz iop(5/13=1,5/36=2,99/5=2) pseudo=read geom=check guess=(re
 ad,tcheck) scf=(maxcycle=1)\\title\\0,1\N,0,-1.68843588,-0.97397771,-0
 .17746741\C,0,-0.7640277,-0.20612863,0.15461593\O,0,0.51755557,-0.6254
 8484,0.46284717\C,0,1.55867009,-0.05586742,-0.21160943\O,0,1.44286811,
 0.69205585,-1.12317842\C,0,-1.00691739,1.20811165,0.36729039\N,0,-1.19
 525783,2.3191145,0.57404118\H,0,-1.36019675,-1.9340139,-0.26701879\H,0
 ,2.49574178,-0.42380949,0.22047938\\Version=ES64L-G16RevC.01\State=1-A

 Normal termination of Gaussian 16 at Wed Apr  9 04:04:32 2025.
