 Gaussian 16, Revision C.01,

 ----------------------------------------------------------------------
 #t hf aug-cc-pvdz symm=none int=(grid=ultrafine) guess=(read,tcheck) s
 table=(opt,rrhf)
 ----------------------------------------------------------------------
 -----
 title
 -----
 Symbolic Z-matrix:
 Charge =  0 Multiplicity = 1

 SCF Done:  E(RHF) =  -359.557590190     A.U. after   16 cycles
 Normal termination of Gaussian 16 at Wed Apr  9 14:45:04 2025.
 Gaussian 16:  ES64L-G16RevC.01  3-Jul-2019

 ----------------------------------------------------------------------
 #t hf aug-cc-pvdz iop(5/13=1,5/36=2,99/5=2) pseudo=read geom=check gue
 ss=(read,tcheck) scf=(maxcycle=1)
 ----------------------------------------------------------------------
 -----
 title
 -----
 Structure from the checkpoint file:  "Grambow2020_wb97xd3_006600_forward_mol1.chk"
 Charge =  0 Multiplicity = 1

                         Standard orientation:
 ---------------------------------------------------------------------
 Center     Atomic      Atomic             Coordinates (Angstroms)
 Number     Number       Type             X           Y           Z
 ---------------------------------------------------------------------
      1          6           0        2.218840   -0.659596   -0.185382
      2          7           0        1.223179    1.462298   -0.056665
      3          6           0        0.191149    0.869568    0.135798
      4          6           0       -1.307530    0.989662    0.091411
      5          8           0       -1.746750   -0.252558   -0.443637
      6          6           0       -0.918492   -1.251966    0.091783
      7          8           0        0.319225   -0.620318    0.370763
      8          1           0        2.313383   -0.282406   -1.190511
      9          1           0        2.828688   -0.174671    0.558088
     10          1           0        2.092001   -1.727898   -0.074556
     11          1           0       -1.619289    1.783090   -0.581754
     12          1           0       -1.727707    1.161082    1.090226
     13          1           0       -0.796829   -2.045189   -0.648755
     14          1           0       -1.336090   -1.653096    1.025239
 ---------------------------------------------------------------------

 SCF Done:  E(RHF) =  -359.670377693     A.U. after    2 cycles

 The electronic state is 1-A.
 Alpha  occ. eigenvalues --  -20.60495 -20.59032 -15.54770 -11.37549 -11.35885
 Alpha  occ. eigenvalues --  -11.29957 -11.29048  -1.41060  -1.30822  -1.12589
 Alpha  occ. eigenvalues --   -0.99199  -0.98365  -0.87731  -0.77546  -0.72710
 Alpha  occ. eigenvalues --   -0.70286  -0.66009  -0.65211  -0.63048  -0.60778
 Alpha  occ. eigenvalues --   -0.56499  -0.54474  -0.52424  -0.47587  -0.45685
 Alpha  occ. eigenvalues --   -0.38142  -0.31166
 Alpha virt. eigenvalues --    0.01916   0.03681   0.04544   0.05213   0.06050
 Alpha virt. eigenvalues --    0.06516   0.06964   0.07134   0.09809   0.11355
 Alpha virt. eigenvalues --    0.12180   0.13486   0.14189   0.14708   0.15073

 Mulliken charges:
               1
     1  C    0.658103
     2  N   -0.668339
     3  C    0.324511
     4  C    0.694447
     5  O   -0.685126
     6  C    1.144920
     7  O   -0.751446
     8  H    0.038791
     9  H    0.004705
    10  H   -0.136076
    11  H   -0.125925
    12  H   -0.043003
    13  H   -0.266741
    14  H   -0.188821
 Sum of Mulliken charges =   0.00000

 Dipole moment (field-independent basis, Debye):
    X=              1.0245    Y=             -4.4886    Z=              0.2958  Tot=              4.6135

 Test job not archived.
 1\1\GINC-SE057\SP\RHF\Aug-CC-pVDZ\C4H7N1O2\OHZDE\09-Apr-2025\0\\#t hf
 aug-cc-pvdz iop(5/13=1,5/36=2,99/5=2) pseudo=read geom=check guess=(re
 ad,tcheck) scf=(maxcycle=1)\\title\\0,1\C,0,1.89679871,-0.82351847,-0.
 87162012\N,0,1.44528041,1.28196095,0.0629557\C,0,0.30850137,0.89428782
 ,0.16736082\C,0,-1.11802971,1.33942067,0.33852667\O,0,-1.86139253,0.48
 473348,-0.52125285\C,0,-1.27920223,-0.79066978,-0.44440665\O,0,0.08304
 849,-0.57510807,-0.11797574\H,0,2.04376474,-0.15023047,-1.70022115\H,0
 ,2.6310676,-0.76915335,-0.08567602\H,0,1.52098277,-1.81040828,-1.10496

 Normal termination of Gaussian 16 at Wed Apr  9 14:45:09 2025.
