 Gaussian 16, Revision C.01,

 ----------------------------------------------------------------------
 #t hf aug-cc-pvdz symm=none int=(grid=ultrafine) guess=(read,tcheck) s
 table=(opt,rrhf)
 ----------------------------------------------------------------------
 -----
 title
 -----
 Symbolic Z-matrix:
 Charge =  0 Multiplicity = 1

 SCF Done:  E(RHF) =  -344.843365382     A.U. after   15 cycles

 1\1\GINC-SE454\Stability\RHF\Aug-CC-pVDZ\C5H10O2\OHZDE\09-Apr-2025\0\\
 #t hf aug-cc-pvdz symm=none int=(grid=ultrafine) guess=(read,tcheck) s
 table=(opt,rrhf)\\title\\0,1\C,0,-2.44494182,-0.48546269,-0.36669444\C
 ,0,-1.15295435,0.28136645,-0.64965268\C,0,-0.0144835,-0.34335056,0.126
 03903\O,0,0.47962197,-1.44124178,-0.28654195\C,0,1.47686042,1.02199414
 ,-0.27879908\C,0,2.41213599,0.32915523,0.46079065\O,0,2.7345154,-0.886
 54733,0.20662937\H,0,-3.2812925,-0.0359253,-0.90414637\H,0,-2.35408223
 ,-1.52596248,-0.67980945\H,0,-2.68956232,-0.47255751,0.69809937\H,0,-0

 Normal termination of Gaussian 16 at Wed Apr  9 16:10:13 2025.
 Gaussian 16:  ES64L-G16RevC.01  3-Jul-2019

 ----------------------------------------------------------------------
 #t hf aug-cc-pvdz iop(5/13=1,5/36=2,99/5=2) pseudo=read geom=check gue
 ss=(read,tcheck) scf=(maxcycle=1)
 ----------------------------------------------------------------------
 -----
 title
 -----
 Structure from the checkpoint file:  "Grambow2020_wb97xd3_007839_forward_mol1.chk"
 Charge =  0 Multiplicity = 1

                         Standard orientation:
 ---------------------------------------------------------------------
 Center     Atomic      Atomic             Coordinates (Angstroms)
 Number     Number       Type             X           Y           Z
 ---------------------------------------------------------------------
      1          6           0       -2.884435   -0.170294    0.187074
      2          6           0       -1.623394    0.576330   -0.248417
      3          6           0       -0.403555   -0.127652    0.303387
      4          8           0       -0.020053   -1.210794   -0.243841
      5          6           0        1.058033    1.218154   -0.248639
      6          6           0        2.069138    0.454179    0.295208
      7          8           0        2.302973   -0.751659   -0.075921
      8          1           0       -3.775941    0.335456   -0.186897
      9          1           0       -2.881704   -1.191146   -0.196059
     10          1           0       -2.962098   -0.217624    1.275890
     11          1           0       -1.557570    0.592337   -1.337809
     12          1           0       -1.656812    1.606627    0.111320
     13          1           0       -0.301377   -0.034195    1.396643
     14          1           0        1.286458   -1.167196   -0.279039
     15          1           0        0.896589    2.212339    0.148336
     16          1           0        0.775639    1.055807   -1.280103
     17          1           0        2.618733    0.802924    1.174131
 ---------------------------------------------------------------------

 SCF Done:  E(RHF) =  -344.953486876     A.U. after    2 cycles

 The electronic state is 1-A.
 Alpha  occ. eigenvalues --  -20.58247 -20.54222 -11.35473 -11.35060 -11.24924
 Alpha  occ. eigenvalues --  -11.23755 -11.23635  -1.38090  -1.32221  -1.06056
 Alpha  occ. eigenvalues --   -1.02440  -0.90043  -0.84100  -0.79705  -0.72872
 Alpha  occ. eigenvalues --   -0.70096  -0.65667  -0.63758  -0.62325  -0.60026
 Alpha  occ. eigenvalues --   -0.57376  -0.55605  -0.53014  -0.51911  -0.50496
 Alpha  occ. eigenvalues --   -0.49177  -0.43280  -0.35735
 Alpha virt. eigenvalues --    0.03026   0.03895   0.04454   0.05113   0.05891
 Alpha virt. eigenvalues --    0.06227   0.07027   0.07489   0.08389   0.09081
 Alpha virt. eigenvalues --    0.09748   0.11009   0.12332   0.13129   0.13925

 Mulliken charges:
               1
     1  C    0.415049
     2  C    0.055787
     3  C    0.648566
     4  O   -0.884916
     5  C    0.325455
     6  C    1.039055
     7  O   -0.673965
     8  H   -0.045452
     9  H   -0.032732
    10  H   -0.051414
    11  H   -0.152496
    12  H   -0.099193
    13  H   -0.276799
    14  H    0.488660
    15  H   -0.355843
    16  H   -0.158928
    17  H   -0.240833
 Sum of Mulliken charges =   0.00000

 Dipole moment (field-independent basis, Debye):
    X=             -1.4538    Y=              3.6567    Z=              1.4409  Tot=              4.1906

 Test job not archived.
 1\1\GINC-SE454\SP\RHF\Aug-CC-pVDZ\C5H10O2\OHZDE\09-Apr-2025\0\\#t hf a
 ug-cc-pvdz iop(5/13=1,5/36=2,99/5=2) pseudo=read geom=check guess=(rea
 d,tcheck) scf=(maxcycle=1)\\title\\0,1\C,0,-2.44494182,-0.48546269,-0.
 36669444\C,0,-1.15295435,0.28136645,-0.64965268\C,0,-0.0144835,-0.3433
 5056,0.12603903\O,0,0.47962197,-1.44124178,-0.28654195\C,0,1.47686042,
 1.02199414,-0.27879908\C,0,2.41213599,0.32915523,0.46079065\O,0,2.7345
 154,-0.88654733,0.20662937\H,0,-3.2812925,-0.0359253,-0.90414637\H,0,-
 2.35408223,-1.52596248,-0.67980945\H,0,-2.68956232,-0.47255751,0.69809

 Normal termination of Gaussian 16 at Wed Apr  9 16:10:19 2025.
