 Gaussian 16, Revision C.01,

 ----------------------------------------------------------------------
 #t hf aug-cc-pvdz symm=none int=(grid=ultrafine) guess=(read,tcheck) s
 table=(opt,rrhf)
 ----------------------------------------------------------------------
 -----
 title
 -----
 Symbolic Z-matrix:
 Charge =  0 Multiplicity = 1

 SCF Done:  E(RHF) =  -323.819187108     A.U. after   14 cycles
 Normal termination of Gaussian 16 at Wed Apr  9 15:17:03 2025.
 Gaussian 16:  ES64L-G16RevC.01  3-Jul-2019

 ----------------------------------------------------------------------
 #t hf aug-cc-pvdz iop(5/13=1,5/36=2,99/5=2) pseudo=read geom=check gue
 ss=(read,tcheck) scf=(maxcycle=1)
 ----------------------------------------------------------------------
 -----
 title
 -----
 Structure from the checkpoint file:  "Grambow2020_wb97xd3_006831_reverse_mol2.chk"
 Charge =  0 Multiplicity = 1

                         Standard orientation:
 ---------------------------------------------------------------------
 Center     Atomic      Atomic             Coordinates (Angstroms)
 Number     Number       Type             X           Y           Z
 ---------------------------------------------------------------------
      1          6           0        1.757218   -1.359126   -0.355475
      2          6           0        1.141026   -0.239190    0.464544
      3          6           0        1.466849    1.221389    0.012818
      4          6           0       -0.020868    1.383528   -0.219394
      5          6           0       -0.291298    0.135685    0.165351
      6          7           0       -1.424975   -0.635081    0.356908
      7          8           0       -2.544462   -0.114895   -0.315634
      8          1           0        2.837697   -1.401587   -0.202070
      9          1           0        1.571475   -1.204445   -1.421304
     10          1           0        1.350838   -2.335752   -0.078887
     11          1           0        1.327839   -0.398782    1.530641
     12          1           0        1.906857    1.846697    0.793948
     13          1           0        2.100164    1.273496   -0.877095
     14          1           0       -1.300373   -1.589406    0.042602
     15          1           0       -0.631333    2.206317   -0.561287
     16          1           0       -3.150216    0.114478    0.393113
 ---------------------------------------------------------------------

 SCF Done:  E(RHF) =  -323.918498277     A.U. after    2 cycles

 The electronic state is 1-A.
 Alpha  occ. eigenvalues --  -20.61449 -15.68695 -11.26781 -11.24344 -11.22980
 Alpha  occ. eigenvalues --  -11.22857 -11.21609  -1.38086  -1.16817  -1.08356
 Alpha  occ. eigenvalues --   -0.98336  -0.87102  -0.83143  -0.74068  -0.71874
 Alpha  occ. eigenvalues --   -0.68694  -0.66244  -0.61891  -0.58105  -0.55348
 Alpha  occ. eigenvalues --   -0.53469  -0.52172  -0.49620  -0.46371  -0.45318
 Alpha  occ. eigenvalues --   -0.44946  -0.31517
 Alpha virt. eigenvalues --    0.03435   0.04059   0.04387   0.04912   0.06155
 Alpha virt. eigenvalues --    0.06591   0.07109   0.07607   0.08673   0.11775
 Alpha virt. eigenvalues --    0.12820   0.13061   0.13780   0.14454   0.14631

 Mulliken charges:
               1
     1  C    0.531809
     2  C   -0.408971
     3  C    0.591941
     4  C    0.339936
     5  C    0.210026
     6  N   -0.202134
     7  O   -0.530246
     8  H   -0.069830
     9  H   -0.010141
    10  H   -0.101431
    11  H   -0.141399
    12  H   -0.108805
    13  H   -0.118300
    14  H    0.101424
    15  H   -0.297001
    16  H    0.213123
 Sum of Mulliken charges =   0.00000

 Dipole moment (field-independent basis, Debye):
    X=              0.1208    Y=             -0.9275    Z=              0.8729  Tot=              1.2794

 Test job not archived.
 1\1\GINC-SE113\SP\RHF\Aug-CC-pVDZ\C5H9N1O1\OHZDE\09-Apr-2025\0\\#t hf
 aug-cc-pvdz iop(5/13=1,5/36=2,99/5=2) pseudo=read geom=check guess=(re
 ad,tcheck) scf=(maxcycle=1)\\title\\0,1\C,0,-1.64321293,-0.9703877,0.2
 0009228\C,0,-0.60391697,-0.24782337,-0.63904068\C,0,-0.74724547,1.3049
 3589,-0.74814621\C,0,0.60971643,1.38499741,-0.08049517\C,0,0.72439907,
 0.05958007,0.01109755\N,0,1.68624723,-0.84036956,0.43646505\O,0,2.6425
 0875,-0.243054,1.27607019\H,0,-2.6180644,-0.9527936,-0.29196957\H,0,-1
 .74812724,-0.49473625,1.17844109\H,0,-1.37839422,-2.01910847,0.3597796

 Normal termination of Gaussian 16 at Wed Apr  9 15:17:09 2025.
