 Gaussian 16, Revision C.01,

 ----------------------------------------------------------------------
 #t hf aug-cc-pvdz symm=none int=(grid=ultrafine) guess=(read,tcheck) s
 table=(opt,rrhf)
 ----------------------------------------------------------------------
 -----
 title
 -----
 Symbolic Z-matrix:
 Charge =  0 Multiplicity = 1

 SCF Done:  E(RHF) =  -359.609243338     A.U. after   16 cycles
 Normal termination of Gaussian 16 at Wed Apr  9 15:41:00 2025.
 Gaussian 16:  ES64L-G16RevC.01  3-Jul-2019

 ----------------------------------------------------------------------
 #t hf aug-cc-pvdz iop(5/13=1,5/36=2,99/5=2) pseudo=read geom=check gue
 ss=(read,tcheck) scf=(maxcycle=1)
 ----------------------------------------------------------------------
 -----
 title
 -----
 Structure from the checkpoint file:  "Grambow2020_wb97xd3_007294_reverse_mol1.chk"
 Charge =  0 Multiplicity = 1

                         Standard orientation:
 ---------------------------------------------------------------------
 Center     Atomic      Atomic             Coordinates (Angstroms)
 Number     Number       Type             X           Y           Z
 ---------------------------------------------------------------------
      1          8           0        0.424295    1.645606   -0.763576
      2          6           0        0.211149    0.895671    0.442386
      3          6           0       -1.241969    0.722030    0.688327
      4          7           0       -1.557824   -0.571836   -0.230930
      5          6           0       -0.342183   -1.339457   -0.455469
      6          6           0        0.779557   -0.494126    0.144141
      7          8           0        1.901196   -0.878592    0.326019
      8          1           0        1.371971    1.714623   -0.913046
      9          1           0        0.718934    1.359219    1.291574
     10          1           0       -1.503794    0.501637    1.719716
     11          1           0       -1.820538    0.489371   -0.557161
     12          1           0       -2.367364   -1.074346    0.094191
     13          1           0       -0.147618   -1.537259   -1.510514
     14          1           0       -0.390069   -2.291216    0.075891
 ---------------------------------------------------------------------

 SCF Done:  E(RHF) =  -359.718073880     A.U. after    2 cycles

 The electronic state is 1-A.
 Alpha  occ. eigenvalues --  -20.58118 -20.58096 -15.68667 -11.35282 -11.30347
 Alpha  occ. eigenvalues --  -11.30164 -11.23267  -1.37914  -1.33017  -1.24274
 Alpha  occ. eigenvalues --   -1.01571  -1.00249  -0.82002  -0.78459  -0.74980
 Alpha  occ. eigenvalues --   -0.71389  -0.69080  -0.64946  -0.63924  -0.61857
 Alpha  occ. eigenvalues --   -0.59013  -0.54659  -0.52942  -0.50658  -0.46552
 Alpha  occ. eigenvalues --   -0.42533  -0.31222
 Alpha virt. eigenvalues --    0.02494   0.04043   0.04319   0.04870   0.06455
 Alpha virt. eigenvalues --    0.06848   0.07878   0.09275   0.10576   0.11819
 Alpha virt. eigenvalues --    0.12883   0.13693   0.13805   0.14346   0.14586

 Mulliken charges:
               1
     1  O   -0.598710
     2  C    0.693636
     3  C    0.295031
     4  N   -0.583148
     5  C    0.722890
     6  C   -0.192521
     7  O   -0.491094
     8  H    0.143499
     9  H   -0.117789
    10  H   -0.349404
    11  H    0.498883
    12  H   -0.002068
    13  H    0.020433
    14  H   -0.039637
 Sum of Mulliken charges =  -0.00000

 Dipole moment (field-independent basis, Debye):
    X=             -2.0733    Y=             -2.6038    Z=             -0.1682  Tot=              3.3327

 Test job not archived.
 1\1\GINC-SE173\SP\RHF\Aug-CC-pVDZ\C4H7N1O2\OHZDE\09-Apr-2025\0\\#t hf
 aug-cc-pvdz iop(5/13=1,5/36=2,99/5=2) pseudo=read geom=check guess=(re
 ad,tcheck) scf=(maxcycle=1)\\title\\0,1\O,0,1.9644035,-0.14177603,-0.5
 8939109\C,0,0.95411307,0.0730698,0.40827243\C,0,0.22273047,1.33486979,
 0.13417081\N,0,-0.87591217,0.82730002,-0.9401867\C,0,-1.09049808,-0.60
 538927,-0.80308009\C,0,-0.04359471,-1.0704407,0.20693824\O,0,-0.028215
 4,-2.15239432,0.72472942\H,0,2.39888026,-0.97966312,-0.40400056\H,0,1.
 38107749,0.05595304,1.4138826\H,0,-0.28696324,1.75930674,0.99495844\H,

 Normal termination of Gaussian 16 at Wed Apr  9 15:41:05 2025.
