 Gaussian 16, Revision C.01,

 ----------------------------------------------------------------------
 #t hf aug-cc-pvdz symm=none int=(grid=ultrafine) guess=(read,tcheck) s
 table=(opt,rrhf)
 ----------------------------------------------------------------------
 -----
 title
 -----
 Symbolic Z-matrix:
 Charge =  0 Multiplicity = 1

 SCF Done:  E(RHF) =  -335.594446517     A.U. after   14 cycles
 Normal termination of Gaussian 16 at Wed Apr  9 03:09:40 2025.
 Gaussian 16:  ES64L-G16RevC.01  3-Jul-2019

 ----------------------------------------------------------------------
 #t hf aug-cc-pvdz iop(5/13=1,5/36=2,99/5=2) pseudo=read geom=check gue
 ss=(read,tcheck) scf=(maxcycle=1)
 ----------------------------------------------------------------------
 -----
 title
 -----
 Structure from the checkpoint file:  "Grambow2020_b97d3_006735_reverse_mol2.chk"
 Charge =  0 Multiplicity = 1

                         Standard orientation:
 ---------------------------------------------------------------------
 Center     Atomic      Atomic             Coordinates (Angstroms)
 Number     Number       Type             X           Y           Z
 ---------------------------------------------------------------------
      1          8           0       -0.976330   -1.235834    0.040866
      2          6           0       -1.639838   -0.260282    0.007088
      3          7           0        2.095527   -0.767338   -0.114912
      4          6           0        1.581300    0.474390   -0.001548
      5          7           0        1.119383    1.555793    0.030006
      6          8           0       -2.324374    0.691046   -0.025773
      7          1           0        2.875472   -0.955533    0.512857
      8          1           0        1.377016   -1.489993   -0.072497
 ---------------------------------------------------------------------

 SCF Done:  E(RHF) =  -335.700127695     A.U. after    2 cycles

 The electronic state is 1-A.
 Alpha  occ. eigenvalues --  -20.67591 -20.67419 -15.69874 -15.64168 -11.49317
 Alpha  occ. eigenvalues --  -11.33416  -1.49016  -1.44305  -1.24921  -1.15908
 Alpha  occ. eigenvalues --   -0.82186  -0.78887  -0.76471  -0.74223  -0.72920
 Alpha  occ. eigenvalues --   -0.72290  -0.57720  -0.56825  -0.56539  -0.55036
 Alpha  occ. eigenvalues --   -0.46385  -0.41363
 Alpha virt. eigenvalues --    0.02306   0.04564   0.07032   0.08321   0.09564
 Alpha virt. eigenvalues --    0.10493   0.11247   0.11767   0.13774   0.15173
 Alpha virt. eigenvalues --    0.15929   0.17377   0.17997   0.18276   0.18602

 Mulliken charges:
               1
     1  O   -0.170860
     2  C    0.306871
     3  N   -0.052214
     4  C   -0.069947
     5  N   -0.121699
     6  O   -0.138507
     7  H    0.100980
     8  H    0.145376
 Sum of Mulliken charges =   0.00000

 Dipole moment (field-independent basis, Debye):
    X=              1.2213    Y=             -4.1269    Z=              0.9482  Tot=              4.4070

 Test job not archived.
 1\1\GINC-SE126\SP\RHF\Aug-CC-pVDZ\C2H2N2O2\OHZDE\09-Apr-2025\0\\#t hf
 aug-cc-pvdz iop(5/13=1,5/36=2,99/5=2) pseudo=read geom=check guess=(re
 ad,tcheck) scf=(maxcycle=1)\\title\\0,1\O,0,1.72890926,0.29143911,0.61
 587698\C,0,1.85827299,-0.83625779,0.9393741\N,0,-1.0570988,1.03389592,
 -0.55330121\C,0,-1.2145268,-0.23119922,-0.11293653\N,0,-1.3220135,-1.3
 5630339,0.21322786\O,0,2.01631277,-1.95054539,1.26813022\H,0,-1.799822
 64,1.6706863,-0.26925092\H,0,-0.12796528,1.40238947,-0.3502955\\Versio
 n=ES64L-G16RevC.01\State=1-A\HF=-335.7001277\RMSD=2.119e-03\Dipole=0.2

 Normal termination of Gaussian 16 at Wed Apr  9 03:09:42 2025.
