 Gaussian 16, Revision C.01,

 ----------------------------------------------------------------------
 #t hf aug-cc-pvdz symm=none int=(grid=ultrafine) guess=(read,tcheck) s
 table=(opt,rrhf)
 ----------------------------------------------------------------------
 -----
 title
 -----
 Symbolic Z-matrix:
 Charge =  0 Multiplicity = 1

 SCF Done:  E(RHF) =  -353.575602954     A.U. after   15 cycles
 Normal termination of Gaussian 16 at Wed Apr  9 14:26:14 2025.
 Gaussian 16:  ES64L-G16RevC.01  3-Jul-2019

 ----------------------------------------------------------------------
 #t hf aug-cc-pvdz iop(5/13=1,5/36=2,99/5=2) pseudo=read geom=check gue
 ss=(read,tcheck) scf=(maxcycle=1)
 ----------------------------------------------------------------------
 -----
 title
 -----
 Structure from the checkpoint file:  "Grambow2020_wb97xd3_006534_forward_mol2.chk"
 Charge =  0 Multiplicity = 1

                         Standard orientation:
 ---------------------------------------------------------------------
 Center     Atomic      Atomic             Coordinates (Angstroms)
 Number     Number       Type             X           Y           Z
 ---------------------------------------------------------------------
      1          8           0       -2.212113    0.044000   -0.000532
      2          6           0       -1.010324    0.090115   -0.000155
      3          7           0       -0.261840   -1.090575    0.000582
      4          7           0        1.053226   -1.205200    0.000191
      5          6           0        1.714452   -0.095925   -0.001051
      6          6           0        1.022681    1.157208   -0.000068
      7          7           0       -0.259887    1.264241    0.000526
      8          1           0       -0.778463   -1.956876    0.001169
      9          1           0        2.793655   -0.162730   -0.000186
     10          1           0        1.600358    2.079960    0.001825
 ---------------------------------------------------------------------

 SCF Done:  E(RHF) =  -353.679739180     A.U. after    2 cycles

 The electronic state is 1-A.
 Alpha  occ. eigenvalues --  -20.54977 -15.74034 -15.73052 -15.66652 -11.41083
 Alpha  occ. eigenvalues --  -11.34815 -11.31428  -1.40535  -1.34503  -1.23736
 Alpha  occ. eigenvalues --   -1.13779  -0.96013  -0.92296  -0.79198  -0.77957
 Alpha  occ. eigenvalues --   -0.70728  -0.66714  -0.66144  -0.62363  -0.54959
 Alpha  occ. eigenvalues --   -0.54526  -0.49319  -0.49129  -0.43051  -0.37849
 Alpha virt. eigenvalues --    0.02301   0.03702   0.03839   0.04664   0.08018
 Alpha virt. eigenvalues --    0.09570   0.09798   0.10756   0.11186   0.13130
 Alpha virt. eigenvalues --    0.13505   0.13938   0.14381   0.14437   0.15561

 Mulliken charges:
               1
     1  O   -0.427020
     2  C    0.684643
     3  N   -0.110237
     4  N   -0.361064
     5  C    0.732715
     6  C    0.463774
     7  N   -0.453411
     8  H    0.016179
     9  H   -0.277202
    10  H   -0.268378
 Sum of Mulliken charges =  -0.00000

 Dipole moment (field-independent basis, Debye):
    X=              5.0904    Y=             -0.9540    Z=              0.0015  Tot=              5.1791

 Test job not archived.
 1\1\GINC-SE232\SP\RHF\Aug-CC-pVDZ\C3H3N3O1\OHZDE\09-Apr-2025\0\\#t hf
 aug-cc-pvdz iop(5/13=1,5/36=2,99/5=2) pseudo=read geom=check guess=(re
 ad,tcheck) scf=(maxcycle=1)\\title\\0,1\O,0,2.29031285,-1.1620859,0.22
 931894\C,0,1.19623859,-0.67504571,0.11878647\N,0,1.04187889,0.71434641
 ,0.12329457\N,0,-0.08328361,1.39555514,0.01148795\C,0,-1.15748196,0.69
 018825,-0.11605707\C,0,-1.0855581,-0.73934598,-0.12832188\N,0,0.013850
 38,-1.39944986,-0.01878024\H,0,1.8810342,1.26511442,0.22254247\H,0,-2.
 09284977,1.22472084,-0.20827365\H,0,-2.00414146,-1.31399761,-0.2339975

 Normal termination of Gaussian 16 at Wed Apr  9 14:26:17 2025.
