 Gaussian 16, Revision C.01,

 ----------------------------------------------------------------------
 #t hf aug-cc-pvdz symm=none int=(grid=ultrafine) guess=(read,tcheck) s
 table=(opt,rrhf)
 ----------------------------------------------------------------------
 -----
 title
 -----
 Symbolic Z-matrix:
 Charge =  0 Multiplicity = 1

 SCF Done:  E(RHF) =  -306.867773947     A.U. after   14 cycles

 1\1\GINC-SE023\Stability\RHF\Aug-CC-pVDZ\C4H10O2\OHZDE\09-Apr-2025\0\\
 #t hf aug-cc-pvdz symm=none int=(grid=ultrafine) guess=(read,tcheck) s
 table=(opt,rrhf)\\title\\0,1\C,0,2.39963535,-0.69247628,-0.28341017\O,
 0,1.75833847,0.58775575,-0.22682277\C,0,0.39216829,0.5673053,-0.607750
 92\C,0,-0.42182409,0.06530539,0.58559682\C,0,-2.28001482,0.40321072,-0
 .08183128\O,0,-0.38734742,-1.23738689,0.88897514\H,0,1.9796845,-1.3939
 1401,0.44844387\H,0,2.30505394,-1.13244555,-1.29195467\H,0,3.45865723,
 -0.50665009,-0.06820396\H,0,0.21332265,-0.0932943,-1.47453899\H,0,0.12

 Normal termination of Gaussian 16 at Wed Apr  9 03:05:58 2025.
 Gaussian 16:  ES64L-G16RevC.01  3-Jul-2019

 ----------------------------------------------------------------------
 #t hf aug-cc-pvdz iop(5/13=1,5/36=2,99/5=2) pseudo=read geom=check gue
 ss=(read,tcheck) scf=(maxcycle=1)
 ----------------------------------------------------------------------
 -----
 title
 -----
 Structure from the checkpoint file:  "Grambow2020_b97d3_006566_forward_mol1.chk"
 Charge =  0 Multiplicity = 1

                         Standard orientation:
 ---------------------------------------------------------------------
 Center     Atomic      Atomic             Coordinates (Angstroms)
 Number     Number       Type             X           Y           Z
 ---------------------------------------------------------------------
      1          6           0        2.271972    0.333394    0.261706
      2          8           0        1.510711   -0.701560   -0.372967
      3          6           0        0.206666   -0.869185    0.159305
      4          6           0       -0.690668    0.212203   -0.444067
      5          6           0       -2.481314   -0.404015    0.208906
      6          8           0       -0.569409    1.470700   -0.006213
      7          1           0        1.837091    1.326046    0.089941
      8          1           0        2.338156    0.158056    1.350080
      9          1           0        3.276209    0.277110   -0.175000
     10          1           0        0.193713   -0.780977    1.260100
     11          1           0       -0.128657   -1.872458   -0.138373
     12          1           0       -0.874346    0.053620   -1.526603
     13          1           0       -3.336803    0.292181    0.174872
     14          1           0       -2.382446   -0.863714    1.197310
     15          1           0       -2.626856   -1.153452   -0.574406
     16          1           0       -1.666408    0.776079    0.260423
 ---------------------------------------------------------------------

 SCF Done:  E(RHF) =  -306.966099260     A.U. after    2 cycles

 The electronic state is 1-A.
 Alpha  occ. eigenvalues --  -20.58135 -20.52661 -11.37188 -11.30638 -11.27775
 Alpha  occ. eigenvalues --  -11.26271  -1.34161  -1.30712  -1.01875  -0.96394
 Alpha  occ. eigenvalues --   -0.89544  -0.81186  -0.70511  -0.68797  -0.66138
 Alpha  occ. eigenvalues --   -0.64531  -0.59806  -0.58093  -0.57916  -0.56909
 Alpha  occ. eigenvalues --   -0.53015  -0.50332  -0.47278  -0.41646  -0.37792
 Alpha virt. eigenvalues --    0.03056   0.04394   0.04638   0.04963   0.06268
 Alpha virt. eigenvalues --    0.06698   0.07074   0.07413   0.09169   0.09354
 Alpha virt. eigenvalues --    0.11735   0.12141   0.13629   0.14132   0.15122

 Mulliken charges:
               1
     1  C    0.685711
     2  O   -0.693082
     3  C    0.676940
     4  C    0.610432
     5  C    0.187303
     6  O   -0.923524
     7  H   -0.063125
     8  H   -0.053837
     9  H   -0.208422
    10  H   -0.088460
    11  H   -0.213658
    12  H   -0.121020
    13  H   -0.154283
    14  H   -0.114600
    15  H   -0.127260
    16  H    0.600886
 Sum of Mulliken charges =  -0.00000

 Dipole moment (field-independent basis, Debye):
    X=             -1.8880    Y=             -2.4112    Z=              0.6248  Tot=              3.1255

 Test job not archived.
 1\1\GINC-SE023\SP\RHF\Aug-CC-pVDZ\C4H10O2\OHZDE\09-Apr-2025\0\\#t hf a
 ug-cc-pvdz iop(5/13=1,5/36=2,99/5=2) pseudo=read geom=check guess=(rea
 d,tcheck) scf=(maxcycle=1)\\title\\0,1\C,0,2.39963535,-0.69247628,-0.2
 8341017\O,0,1.75833847,0.58775575,-0.22682277\C,0,0.39216829,0.5673053
 ,-0.60775092\C,0,-0.42182409,0.06530539,0.58559682\C,0,-2.28001482,0.4
 0321072,-0.08183128\O,0,-0.38734742,-1.23738689,0.88897514\H,0,1.97968
 45,-1.39391401,0.44844387\H,0,2.30505394,-1.13244555,-1.29195467\H,0,3
 .45865723,-0.50665009,-0.06820396\H,0,0.21332265,-0.0932943,-1.4745389

 Normal termination of Gaussian 16 at Wed Apr  9 03:06:02 2025.
