 Gaussian 16, Revision C.01,

 ----------------------------------------------------------------------
 #t hf aug-cc-pvdz symm=none int=(grid=ultrafine) guess=(read,tcheck) s
 table=(opt,rrhf)
 ----------------------------------------------------------------------
 -----
 title
 -----
 Symbolic Z-matrix:
 Charge =  0 Multiplicity = 1

 SCF Done:  E(RHF) =  -322.743925168     A.U. after   14 cycles
 Normal termination of Gaussian 16 at Wed Apr  9 15:35:58 2025.
 Gaussian 16:  ES64L-G16RevC.01  3-Jul-2019

 ----------------------------------------------------------------------
 #t hf aug-cc-pvdz iop(5/13=1,5/36=2,99/5=2) pseudo=read geom=check gue
 ss=(read,tcheck) scf=(maxcycle=1)
 ----------------------------------------------------------------------
 -----
 title
 -----
 Structure from the checkpoint file:  "Grambow2020_wb97xd3_007025_reverse_mol2.chk"
 Charge =  0 Multiplicity = 1

                         Standard orientation:
 ---------------------------------------------------------------------
 Center     Atomic      Atomic             Coordinates (Angstroms)
 Number     Number       Type             X           Y           Z
 ---------------------------------------------------------------------
      1          6           0        0.142432    1.963244   -0.318319
      2          6           0        0.053455    0.676142    0.476371
      3          6           0       -1.006600   -0.345948    0.081840
      4          6           0       -2.324930   -0.385919    0.015763
      5          7           0       -0.007585   -1.283480   -0.225474
      6          6           0        1.043006   -0.437684    0.079608
      7          8           0        2.228440   -0.568638    0.020088
      8          1           0       -0.689605    2.626147   -0.077904
      9          1           0        0.119680    1.762068   -1.390721
     10          1           0        1.073141    2.483372   -0.088107
     11          1           0        0.075458    0.859989    1.552465
     12          1           0       -2.905701    0.476644    0.309820
     13          1           0       -2.853620   -1.265577   -0.327224
     14          1           0       -0.037972   -2.228179   -0.572295
 ---------------------------------------------------------------------

 SCF Done:  E(RHF) =  -322.843959997     A.U. after    2 cycles

 The electronic state is 1-A.
 Alpha  occ. eigenvalues --  -20.55860 -15.67178 -11.37632 -11.30752 -11.27229
 Alpha  occ. eigenvalues --  -11.24642 -11.23168  -1.37326  -1.27205  -1.05770
 Alpha  occ. eigenvalues --   -1.01641  -0.92401  -0.80060  -0.77557  -0.69053
 Alpha  occ. eigenvalues --   -0.67913  -0.65878  -0.61020  -0.60329  -0.57543
 Alpha  occ. eigenvalues --   -0.55327  -0.53304  -0.50001  -0.48552  -0.43575
 Alpha  occ. eigenvalues --   -0.34490
 Alpha virt. eigenvalues --    0.02998   0.03718   0.04647   0.04764   0.06398
 Alpha virt. eigenvalues --    0.06826   0.07634   0.09800   0.10287   0.11301
 Alpha virt. eigenvalues --    0.12034   0.13037   0.13686   0.14276   0.14794

 Mulliken charges:
               1
     1  C    0.645202
     2  C   -0.759236
     3  C    0.056261
     4  C    1.381208
     5  N   -0.516670
     6  C    0.473718
     7  O   -0.424852
     8  H   -0.026940
     9  H    0.009265
    10  H   -0.014626
    11  H    0.006227
    12  H   -0.307797
    13  H   -0.375022
    14  H   -0.146738
 Sum of Mulliken charges =  -0.00000

 Dipole moment (field-independent basis, Debye):
    X=             -3.2202    Y=              0.2037    Z=             -0.0731  Tot=              3.2275

 Test job not archived.
 1\1\GINC-SE037\SP\RHF\Aug-CC-pVDZ\C5H7N1O1\OHZDE\09-Apr-2025\0\\#t hf
 aug-cc-pvdz iop(5/13=1,5/36=2,99/5=2) pseudo=read geom=check guess=(re
 ad,tcheck) scf=(maxcycle=1)\\title\\0,1\C,0,-1.70109945,0.07029838,0.4
 0207212\C,0,-0.51836519,0.00897604,-0.54315836\C,0,0.8659107,0.3312215
 4,0.00818277\C,0,1.46089814,1.37190997,0.56218129\N,0,1.30126391,-0.97
 065385,-0.28682476\C,0,0.08305905,-1.38911693,-0.78986882\O,0,-0.29761
 475,-2.43813731,-1.21482611\H,0,-1.95643877,1.10412541,0.63771871\H,0,
 -1.48097985,-0.44843807,1.33668121\H,0,-2.57163442,-0.40270736,-0.0542

 Normal termination of Gaussian 16 at Wed Apr  9 15:36:03 2025.
