 Gaussian 16, Revision C.01,

 ----------------------------------------------------------------------
 #t hf aug-cc-pvdz symm=none int=(grid=ultrafine) guess=(read,tcheck) s
 table=(opt,rrhf)
 ----------------------------------------------------------------------
 -----
 title
 -----
 Symbolic Z-matrix:
 Charge =  0 Multiplicity = 1

 SCF Done:  E(RHF) =  -354.602358556     A.U. after   16 cycles
 Normal termination of Gaussian 16 at Wed Apr  9 03:39:15 2025.
 Gaussian 16:  ES64L-G16RevC.01  3-Jul-2019

 ----------------------------------------------------------------------
 #t hf aug-cc-pvdz iop(5/13=1,5/36=2,99/5=2) pseudo=read geom=check gue
 ss=(read,tcheck) scf=(maxcycle=1)
 ----------------------------------------------------------------------
 -----
 title
 -----
 Structure from the checkpoint file:  "Grambow2020_wb97xd3_007473_forward_mol1.chk"
 Charge =  0 Multiplicity = 1

                         Standard orientation:
 ---------------------------------------------------------------------
 Center     Atomic      Atomic             Coordinates (Angstroms)
 Number     Number       Type             X           Y           Z
 ---------------------------------------------------------------------
      1          7           0        2.239722   -0.580489   -0.413670
      2          6           0        1.001565   -0.300098   -0.085845
      3          6           0       -1.587329   -1.546494    0.011258
      4          7           0       -1.578200   -0.254724   -0.096995
      5          6           0       -0.396851    0.610456   -0.015929
      6          8           0       -0.502490    1.757231   -0.422281
      7          7           0        0.546312    0.201652    1.041358
      8          1           0        3.008479   -0.486141    0.234656
      9          1           0        2.435266   -0.973468   -1.316156
     10          1           0       -2.637820   -1.862587   -0.113098
     11          1           0       -2.382298    0.330362   -0.312051
     12          1           0        1.037146    0.785729    1.713142
 ---------------------------------------------------------------------

 SCF Done:  E(RHF) =  -354.709401265     A.U. after    2 cycles

 The electronic state is 1-A.
 Alpha  occ. eigenvalues --  -20.51499 -15.69520 -15.67426 -15.67239 -11.41423
 Alpha  occ. eigenvalues --  -11.34996 -11.25430  -1.36739  -1.28366  -1.21845
 Alpha  occ. eigenvalues --   -1.19660  -0.90177  -0.86855  -0.83012  -0.76219
 Alpha  occ. eigenvalues --   -0.72316  -0.68520  -0.63644  -0.62716  -0.57961
 Alpha  occ. eigenvalues --   -0.53317  -0.47126  -0.46012  -0.42912  -0.37746
 Alpha  occ. eigenvalues --   -0.34381
 Alpha virt. eigenvalues --    0.01888   0.03426   0.04240   0.05901   0.06689
 Alpha virt. eigenvalues --    0.08337   0.09598   0.11454   0.12011   0.12420
 Alpha virt. eigenvalues --    0.13444   0.14139   0.14572   0.15529   0.15658

 Mulliken charges:
               1
     1  N   -0.043587
     2  C    0.236177
     3  C    0.025381
     4  N   -0.192201
     5  C    1.119076
     6  O   -0.573679
     7  N   -0.292828
     8  H    0.018493
     9  H    0.047317
    10  H   -0.234237
    11  H   -0.051097
    12  H   -0.058814
 Sum of Mulliken charges =  -0.00000

 Dipole moment (field-independent basis, Debye):
    X=              3.6490    Y=             -1.4219    Z=              1.0346  Tot=              4.0506

 Test job not archived.
 1\1\GINC-SE249\SP\RHF\Aug-CC-pVDZ\C3H5N3O1\OHZDE\09-Apr-2025\0\\#t hf
 aug-cc-pvdz iop(5/13=1,5/36=2,99/5=2) pseudo=read geom=check guess=(re
 ad,tcheck) scf=(maxcycle=1)\\title\\0,1\N,0,2.07972632,-0.74851319,0.3
 3050702\C,0,0.83643105,-0.39160642,0.11613334\C,0,-0.70034083,1.944050
 12,-0.5534519\N,0,-1.33250102,1.00543188,0.07887695\C,0,-0.80948754,-0
 .32822962,0.39271987\O,0,-1.40049156,-0.98778937,1.23359395\N,0,-0.035
 73848,-0.91985092,-0.71445225\H,0,2.53580444,-1.47631006,-0.20101753\H
 ,0,2.6328647,-0.23868994,0.99478904\H,0,-1.38690814,2.80751688,-0.5977

 Normal termination of Gaussian 16 at Wed Apr  9 03:39:20 2025.
