 Gaussian 16, Revision C.01,

 ----------------------------------------------------------------------
 #t hf aug-cc-pvdz symm=none int=(grid=ultrafine) guess=(read,tcheck) s
 table=(opt,rrhf)
 ----------------------------------------------------------------------
 -----
 title
 -----
 Symbolic Z-matrix:
 Charge =  0 Multiplicity = 1

 SCF Done:  E(RHF) =  -286.909180618     A.U. after   13 cycles
 Normal termination of Gaussian 16 at Wed Apr  9 16:33:06 2025.
 Gaussian 16:  ES64L-G16RevC.01  3-Jul-2019

 ----------------------------------------------------------------------
 #t hf aug-cc-pvdz iop(5/13=1,5/36=2,99/5=2) pseudo=read geom=check gue
 ss=(read,tcheck) scf=(maxcycle=1)
 ----------------------------------------------------------------------
 -----
 title
 -----
 Structure from the checkpoint file:  "Grambow2020_wb97xd3_008582_reverse_mol2.chk"
 Charge =  0 Multiplicity = 1

                         Standard orientation:
 ---------------------------------------------------------------------
 Center     Atomic      Atomic             Coordinates (Angstroms)
 Number     Number       Type             X           Y           Z
 ---------------------------------------------------------------------
      1          6           0       -2.582762   -0.426081   -0.000368
      2          6           0       -1.152037   -0.011927    0.000246
      3          6           0        0.006615   -0.972253    0.000290
      4          6           0        1.170914   -0.028291    0.000293
      5          6           0        2.602041   -0.442892   -0.000250
      6          6           0        0.647265    1.201197   -0.000114
      7          7           0       -0.771845    1.210620   -0.000025
      8          1           0       -3.221869    0.454616   -0.009536
      9          1           0       -2.809371   -1.042016   -0.874197
     10          1           0       -2.815182   -1.024985    0.883875
     11          1           0       -0.011276   -1.627131    0.878093
     12          1           0        3.261651    0.424785   -0.025891
     13          1           0        2.834602   -1.068962   -0.866079
     14          1           0        2.847506   -1.027308    0.890925
     15          1           0        1.177528    2.144240    0.000722
     16          1           0       -0.012880   -1.626098   -0.878316
 ---------------------------------------------------------------------

 SCF Done:  E(RHF) =  -286.995577832     A.U. after    2 cycles

 The electronic state is 1-A.
 Alpha  occ. eigenvalues --  -15.60997 -11.28427 -11.25023 -11.24565 -11.23745
 Alpha  occ. eigenvalues --  -11.23706 -11.23579  -1.23695  -1.05739  -1.01333
 Alpha  occ. eigenvalues --   -0.95484  -0.90342  -0.75747  -0.71206  -0.66209
 Alpha  occ. eigenvalues --   -0.63128  -0.58918  -0.57724  -0.57191  -0.55276
 Alpha  occ. eigenvalues --   -0.53801  -0.52405  -0.49165  -0.45588  -0.40986
 Alpha  occ. eigenvalues --   -0.31463
 Alpha virt. eigenvalues --    0.03120   0.03606   0.04536   0.04820   0.06018
 Alpha virt. eigenvalues --    0.06764   0.06787   0.08588   0.09167   0.09564
 Alpha virt. eigenvalues --    0.11210   0.11376   0.12074   0.13148   0.14542

 Mulliken charges:
               1
     1  C    0.743914
     2  C   -0.610834
     3  C   -0.141929
     4  C   -0.493263
     5  C    0.494496
     6  C    0.926695
     7  N   -0.678673
     8  H   -0.135166
     9  H    0.037292
    10  H    0.039547
    11  H    0.084293
    12  H   -0.084154
    13  H    0.039249
    14  H    0.046186
    15  H   -0.350999
    16  H    0.083346
 Sum of Mulliken charges =  -0.00000

 Dipole moment (field-independent basis, Debye):
    X=              0.6403    Y=             -2.5973    Z=              0.0024  Tot=              2.6751

 Test job not archived.
 1\1\GINC-SE454\SP\RHF\Aug-CC-pVDZ\C6H9N1\OHZDE\09-Apr-2025\0\\#t hf au
 g-cc-pvdz iop(5/13=1,5/36=2,99/5=2) pseudo=read geom=check guess=(read
 ,tcheck) scf=(maxcycle=1)\\title\\0,1\C,0,2.65849147,-0.09252946,0.048
 08242\C,0,1.21266065,0.26524604,0.05634607\C,0,0.09365794,-0.7319955,-
 0.07798801\C,0,-1.10725075,0.16191385,-0.00450036\C,0,-2.52031658,-0.3
 0358528,-0.08558665\C,0,-0.63338831,1.40264417,0.14345242\N,0,0.783890
 71,1.4652144,0.18044413\H,0,3.26147684,0.80514213,0.16959012\H,0,2.891
 06431,-0.79199165,0.85490676\H,0,2.93335037,-0.58130655,-0.89007578\H,

 Normal termination of Gaussian 16 at Wed Apr  9 16:33:11 2025.
