 Gaussian 16, Revision C.01,

 ----------------------------------------------------------------------
 #t hf aug-cc-pvdz symm=none int=(grid=ultrafine) guess=(read,tcheck) s
 table=(opt,rrhf)
 ----------------------------------------------------------------------
 -----
 title
 -----
 Symbolic Z-matrix:
 Charge =  0 Multiplicity = 1

 SCF Done:  E(RHF) =  -302.050586984     A.U. after   13 cycles
 Normal termination of Gaussian 16 at Wed Apr  9 14:17:14 2025.
 Gaussian 16:  ES64L-G16RevC.01  3-Jul-2019

 ----------------------------------------------------------------------
 #t hf aug-cc-pvdz iop(5/13=1,5/36=2,99/5=2) pseudo=read geom=check gue
 ss=(read,tcheck) scf=(maxcycle=1)
 ----------------------------------------------------------------------
 -----
 title
 -----
 Structure from the checkpoint file:  "Grambow2020_b97d3_006942_reverse_mol2.chk"
 Charge =  0 Multiplicity = 1

                         Standard orientation:
 ---------------------------------------------------------------------
 Center     Atomic      Atomic             Coordinates (Angstroms)
 Number     Number       Type             X           Y           Z
 ---------------------------------------------------------------------
      1          6           0        2.080455   -0.749296    0.080644
      2          7           0        1.315691    0.469895   -0.170422
      3          6           0       -0.066169    0.520626   -0.023754
      4          8           0       -0.584266   -0.738202   -0.041351
      5          7           0       -0.826044    1.553503    0.073017
      6          6           0       -2.016618   -0.814211    0.007931
      7          1           0        2.024783   -1.095087    1.127019
      8          1           0        3.130083   -0.553840   -0.171934
      9          1           0        1.713012   -1.551928   -0.566638
     10          1           0        1.774482    1.326938    0.119095
     11          1           0       -0.273755    2.416300    0.058026
     12          1           0       -2.464459   -0.283220   -0.841099
     13          1           0       -2.244806   -1.884401   -0.038941
     14          1           0       -2.398754   -0.375642    0.938192
 ---------------------------------------------------------------------

 SCF Done:  E(RHF) =  -302.147235299     A.U. after    2 cycles

 The electronic state is 1-A.
 Alpha  occ. eigenvalues --  -20.60510 -15.64596 -15.58326 -11.38190 -11.28724
 Alpha  occ. eigenvalues --  -11.27550  -1.38609  -1.21063  -1.12431  -0.96217
 Alpha  occ. eigenvalues --   -0.92244  -0.78973  -0.72936  -0.67089  -0.66520
 Alpha  occ. eigenvalues --   -0.62476  -0.59984  -0.59499  -0.55516  -0.52035
 Alpha  occ. eigenvalues --   -0.51847  -0.44478  -0.42501  -0.35516
 Alpha virt. eigenvalues --    0.03087   0.03932   0.04490   0.05285   0.06592
 Alpha virt. eigenvalues --    0.06749   0.07706   0.08500   0.10886   0.12477
 Alpha virt. eigenvalues --    0.13227   0.14523   0.14940   0.15859   0.15953

 Mulliken charges:
               1
     1  C    0.770577
     2  N   -0.415626
     3  C    0.693620
     4  O   -0.620442
     5  N   -0.310650
     6  C    0.710602
     7  H   -0.081117
     8  H   -0.200582
     9  H   -0.094957
    10  H   -0.078929
    11  H   -0.028178
    12  H   -0.040539
    13  H   -0.253943
    14  H   -0.049836
 Sum of Mulliken charges =   0.00000

 Dipole moment (field-independent basis, Debye):
    X=              2.0307    Y=             -0.5964    Z=              0.4998  Tot=              2.1747

 Test job not archived.
 1\1\GINC-SE138\SP\RHF\Aug-CC-pVDZ\C3H8N2O1\OHZDE\09-Apr-2025\0\\#t hf
 aug-cc-pvdz iop(5/13=1,5/36=2,99/5=2) pseudo=read geom=check guess=(re
 ad,tcheck) scf=(maxcycle=1)\\title\\0,1\C,0,-2.09190381,0.20099157,-0.
 13345022\N,0,-1.08615599,-0.33522513,0.78047979\C,0,0.27726317,-0.2056
 4843,0.53981508\O,0,0.4947677,0.0786075,-0.77368062\N,0,1.2556552,-0.3
 5951797,1.35998815\C,0,1.87306896,0.14397508,-1.16846344\H,0,-2.057113
 98,1.29970993,-0.22925328\H,0,-3.08246117,-0.09055286,0.23738186\H,0,-
 1.95302217,-0.23532176,-1.12770842\H,0,-1.32170889,-0.25924973,1.76413

 Normal termination of Gaussian 16 at Wed Apr  9 14:17:18 2025.
