 Gaussian 16, Revision C.01,

 ----------------------------------------------------------------------
 #t hf aug-cc-pvdz symm=none int=(grid=ultrafine) guess=(read,tcheck) s
 table=(opt,rrhf)
 ----------------------------------------------------------------------
 -----
 title
 -----
 Symbolic Z-matrix:
 Charge =  0 Multiplicity = 1

 SCF Done:  E(RHF) =  -306.887336006     A.U. after   14 cycles

 1\1\GINC-SE084\Stability\RHF\Aug-CC-pVDZ\C4H10O2\OHZDE\09-Apr-2025\0\\
 #t hf aug-cc-pvdz symm=none int=(grid=ultrafine) guess=(read,tcheck) s
 table=(opt,rrhf)\\title\\0,1\C,0,-1.54080329,-0.78573611,0.16862384\C,
 0,-0.45542303,0.23856857,-0.17827192\C,0,0.61864863,-0.34095768,-1.082
 17831\O,0,1.71138645,0.39264045,-1.39065099\C,0,0.18527771,0.87666935,
 1.07152674\O,0,1.06293242,1.93628004,0.76917762\H,0,-1.98547241,-1.225
 26581,-0.73529\H,0,-1.12886959,-1.60314645,0.77862636\H,0,-2.34566707,
 -0.31067651,0.74432126\H,0,-0.8834107,1.05547596,-0.78745302\H,0,0.235

 Normal termination of Gaussian 16 at Wed Apr  9 14:18:23 2025.
 Gaussian 16:  ES64L-G16RevC.01  3-Jul-2019

 ----------------------------------------------------------------------
 #t hf aug-cc-pvdz iop(5/13=1,5/36=2,99/5=2) pseudo=read geom=check gue
 ss=(read,tcheck) scf=(maxcycle=1)
 ----------------------------------------------------------------------
 -----
 title
 -----
 Structure from the checkpoint file:  "Grambow2020_b97d3_007106_reverse_mol1.chk"
 Charge =  0 Multiplicity = 1

                         Standard orientation:
 ---------------------------------------------------------------------
 Center     Atomic      Atomic             Coordinates (Angstroms)
 Number     Number       Type             X           Y           Z
 ---------------------------------------------------------------------
      1          6           0        2.137655   -0.068926   -0.023435
      2          6           0        0.641345   -0.066744   -0.353036
      3          6           0       -0.029357    1.245715    0.013214
      4          8           0       -1.369798    1.376068   -0.103508
      5          6           0       -0.113414   -1.249533    0.288070
      6          8           0       -1.451390   -1.355269   -0.139840
      7          1           0        2.655989    0.779436   -0.492040
      8          1           0        2.300633   -0.010844    1.062851
      9          1           0        2.607813   -0.992982   -0.383972
     10          1           0        0.492097   -0.129318   -1.446389
     11          1           0        0.588283    2.146139   -0.189377
     12          1           0        0.224233    1.219487    1.455396
     13          1           0       -0.706759    1.394070    1.118944
     14          1           0        0.397260   -2.188849    0.031186
     15          1           0       -0.022179   -1.123618    1.391717
     16          1           0       -1.785236   -0.422988   -0.150414
 ---------------------------------------------------------------------

 SCF Done:  E(RHF) =  -306.983361385     A.U. after    2 cycles

 The electronic state is 1-A.
 Alpha  occ. eigenvalues --  -20.55273 -20.54289 -11.38836 -11.29510 -11.26962
 Alpha  occ. eigenvalues --  -11.25762  -1.32939  -1.29921  -1.09031  -0.93400
 Alpha  occ. eigenvalues --   -0.91396  -0.82952  -0.73803  -0.68309  -0.65401
 Alpha  occ. eigenvalues --   -0.63637  -0.60615  -0.59843  -0.57451  -0.55414
 Alpha  occ. eigenvalues --   -0.52188  -0.50599  -0.44508  -0.43197  -0.42730
 Alpha virt. eigenvalues --    0.02672   0.03804   0.04144   0.04974   0.06355
 Alpha virt. eigenvalues --    0.06658   0.07144   0.07712   0.07862   0.09768
 Alpha virt. eigenvalues --    0.11727   0.12296   0.13523   0.14108   0.14782

 Mulliken charges:
               1
     1  C    0.705545
     2  C   -1.126769
     3  C    0.657963
     4  O   -0.921874
     5  C    1.111800
     6  O   -0.594234
     7  H   -0.047455
     8  H   -0.030462
     9  H   -0.029473
    10  H   -0.019057
    11  H   -0.193658
    12  H    0.216423
    13  H    0.213773
    14  H   -0.143367
    15  H   -0.048893
    16  H    0.249738
 Sum of Mulliken charges =  -0.00000

 Dipole moment (field-independent basis, Debye):
    X=              4.8651    Y=              1.2773    Z=              1.4107  Tot=              5.2240

 Test job not archived.
 1\1\GINC-SE084\SP\RHF\Aug-CC-pVDZ\C4H10O2\OHZDE\09-Apr-2025\0\\#t hf a
 ug-cc-pvdz iop(5/13=1,5/36=2,99/5=2) pseudo=read geom=check guess=(rea
 d,tcheck) scf=(maxcycle=1)\\title\\0,1\C,0,-1.54080329,-0.78573611,0.1
 6862384\C,0,-0.45542303,0.23856857,-0.17827192\C,0,0.61864863,-0.34095
 768,-1.08217831\O,0,1.71138645,0.39264045,-1.39065099\C,0,0.18527771,0
 .87666935,1.07152674\O,0,1.06293242,1.93628004,0.76917762\H,0,-1.98547
 241,-1.22526581,-0.73529\H,0,-1.12886959,-1.60314645,0.77862636\H,0,-2
 .34566707,-0.31067651,0.74432126\H,0,-0.8834107,1.05547596,-0.78745302

 Normal termination of Gaussian 16 at Wed Apr  9 14:18:28 2025.
