 Gaussian 16, Revision C.01,

 ----------------------------------------------------------------------
 #t hf aug-cc-pvdz symm=none int=(grid=ultrafine) guess=(read,tcheck) s
 table=(opt,rrhf)
 ----------------------------------------------------------------------
 -----
 title
 -----
 Symbolic Z-matrix:
 Charge =  0 Multiplicity = 1

 SCF Done:  E(RHF) =  -305.839306874     A.U. after   13 cycles
 Normal termination of Gaussian 16 at Wed Apr  9 03:04:33 2025.
 Gaussian 16:  ES64L-G16RevC.01  3-Jul-2019

 ----------------------------------------------------------------------
 #t hf aug-cc-pvdz iop(5/13=1,5/36=2,99/5=2) pseudo=read geom=check gue
 ss=(read,tcheck) scf=(maxcycle=1)
 ----------------------------------------------------------------------
 -----
 title
 -----
 Structure from the checkpoint file:  "Grambow2020_b97d3_006523_reverse_mol2.chk"
 Charge =  0 Multiplicity = 1

                         Standard orientation:
 ---------------------------------------------------------------------
 Center     Atomic      Atomic             Coordinates (Angstroms)
 Number     Number       Type             X           Y           Z
 ---------------------------------------------------------------------
      1          8           0        0.616975   -1.382436   -0.593227
      2          6           0        1.306579   -0.819765    0.502517
      3          6           0        1.475416    0.682474    0.448783
      4          6           0        1.111088    1.450282   -0.588989
      5          6           0       -2.251171    0.635842    0.267266
      6          8           0       -2.103329   -0.522960   -0.080621
      7          1           0       -0.325616   -1.118779   -0.504714
      8          1           0        0.839954   -1.086886    1.473720
      9          1           0        2.307072   -1.283488    0.512958
     10          1           0        1.937004    1.135420    1.333012
     11          1           0        1.262576    2.529802   -0.588544
     12          1           0        0.673356    1.000171   -1.480965
     13          1           0       -1.400353    1.347056    0.319696
     14          1           0       -3.254626    1.026868    0.548163
 ---------------------------------------------------------------------

 SCF Done:  E(RHF) =  -305.937546507     A.U. after    2 cycles

 The electronic state is 1-A.
 Alpha  occ. eigenvalues --  -20.61146 -20.55336 -11.37333 -11.28837 -11.25081
 Alpha  occ. eigenvalues --  -11.23671  -1.38368  -1.30409  -1.04596  -0.91682
 Alpha  occ. eigenvalues --   -0.88430  -0.76417  -0.72354  -0.69190  -0.66722
 Alpha  occ. eigenvalues --   -0.65999  -0.61093  -0.56943  -0.56766  -0.53625
 Alpha  occ. eigenvalues --   -0.50130  -0.47148  -0.45222  -0.36665
 Alpha virt. eigenvalues --    0.02753   0.04005   0.04444   0.05416   0.06281
 Alpha virt. eigenvalues --    0.06619   0.07102   0.07578   0.08733   0.11585
 Alpha virt. eigenvalues --    0.12123   0.12882   0.13949   0.14617   0.15049

 Mulliken charges:
               1
     1  O   -0.511823
     2  C    0.710125
     3  C    0.214733
     4  C    0.461029
     5  C    0.663571
     6  O   -0.417792
     7  H    0.195919
     8  H   -0.042673
     9  H   -0.064732
    10  H   -0.338244
    11  H   -0.317038
    12  H   -0.329063
    13  H   -0.073369
    14  H   -0.150644
 Sum of Mulliken charges =  -0.00000

 Dipole moment (field-independent basis, Debye):
    X=             -1.4366    Y=              3.8245    Z=              2.3253  Tot=              4.7008

 Test job not archived.
 1\1\GINC-SE040\SP\RHF\Aug-CC-pVDZ\C4H8O2\OHZDE\09-Apr-2025\0\\#t hf au
 g-cc-pvdz iop(5/13=1,5/36=2,99/5=2) pseudo=read geom=check guess=(read
 ,tcheck) scf=(maxcycle=1)\\title\\0,1\O,0,-1.70374197,0.50130204,-0.50
 121904\C,0,-1.444385,-0.73861771,0.12179059\C,0,-0.13951666,-1.3930167
 2,-0.27468994\C,0,0.68809177,-0.92369609,-1.22022522\C,0,1.3178742,1.8
 0097802,0.98902674\O,0,0.19094544,2.23971053,0.83654536\H,0,-1.0803362
 8,1.15369463,-0.11189083\H,0,-1.48007198,-0.66727505,1.22902342\H,0,-2
 .27208748,-1.40970607,-0.16225657\H,0,0.1070555,-2.31424327,0.26440892

 Normal termination of Gaussian 16 at Wed Apr  9 03:05:08 2025.
