 Gaussian 16, Revision C.01,

 ----------------------------------------------------------------------
 #t hf aug-cc-pvdz symm=none int=(grid=ultrafine) guess=(read,tcheck) s
 table=(opt,rrhf)
 ----------------------------------------------------------------------
 -----
 title
 -----
 Symbolic Z-matrix:
 Charge =  0 Multiplicity = 1

 SCF Done:  E(RHF) =  -338.713746719     A.U. after   15 cycles
 Normal termination of Gaussian 16 at Wed Apr  9 03:26:44 2025.
 Gaussian 16:  ES64L-G16RevC.01  3-Jul-2019

 ----------------------------------------------------------------------
 #t hf aug-cc-pvdz iop(5/13=1,5/36=2,99/5=2) pseudo=read geom=check gue
 ss=(read,tcheck) scf=(maxcycle=1)
 ----------------------------------------------------------------------
 -----
 title
 -----
 Structure from the checkpoint file:  "Grambow2020_wb97xd3_006692_reverse_mol2.chk"
 Charge =  0 Multiplicity = 1

                         Standard orientation:
 ---------------------------------------------------------------------
 Center     Atomic      Atomic             Coordinates (Angstroms)
 Number     Number       Type             X           Y           Z
 ---------------------------------------------------------------------
      1          6           0        2.477009   -0.274023    0.389572
      2          6           0        1.116785    0.212083   -0.034714
      3          6           0       -0.032549   -0.715373    0.223654
      4          7           0       -1.017248   -0.934911   -0.933714
      5          6           0       -1.374325   -0.228430    0.032670
      6          7           0       -2.398712    0.464943    0.545040
      7          8           0        0.942449    1.286086   -0.557649
      8          1           0        3.230577    0.476875    0.164725
      9          1           0        2.479683   -0.495422    1.459996
     10          1           0        2.711517   -1.206407   -0.129936
     11          1           0        0.163306   -1.583337    0.850028
     12          1           0       -2.182615    1.145588    1.250478
     13          1           0       -3.151857    0.698255   -0.080478
 ---------------------------------------------------------------------

 SCF Done:  E(RHF) =  -338.815516410     A.U. after    2 cycles

 The electronic state is 1-A.
 Alpha  occ. eigenvalues --  -20.55984 -15.67637 -15.63854 -11.34750 -11.34178
 Alpha  occ. eigenvalues --  -11.28731 -11.24601  -1.35902  -1.30073  -1.19798
 Alpha  occ. eigenvalues --   -1.02264  -0.91535  -0.80609  -0.76311  -0.72411
 Alpha  occ. eigenvalues --   -0.68461  -0.66368  -0.61771  -0.60867  -0.57517
 Alpha  occ. eigenvalues --   -0.53697  -0.53340  -0.51218  -0.44097  -0.40581
 Alpha  occ. eigenvalues --   -0.37868
 Alpha virt. eigenvalues --    0.02672   0.03355   0.04818   0.04959   0.06216
 Alpha virt. eigenvalues --    0.07140   0.09451   0.10855   0.11351   0.12231
 Alpha virt. eigenvalues --    0.12641   0.13063   0.14285   0.15065   0.15409

 Mulliken charges:
               1
     1  C    0.397903
     2  C   -0.109320
     3  C    1.254891
     4  N   -0.547572
     5  C   -0.081775
     6  N   -0.090523
     7  O   -0.518180
     8  H   -0.087666
     9  H    0.066707
    10  H    0.081382
    11  H   -0.402067
    12  H    0.018844
    13  H    0.017378
 Sum of Mulliken charges =  -0.00000

 Dipole moment (field-independent basis, Debye):
    X=             -0.8452    Y=             -0.2873    Z=              3.6395  Tot=              3.7474

 Test job not archived.
 1\1\GINC-SE123\SP\RHF\Aug-CC-pVDZ\C4H6N2O1\OHZDE\09-Apr-2025\0\\#t hf
 aug-cc-pvdz iop(5/13=1,5/36=2,99/5=2) pseudo=read geom=check guess=(re
 ad,tcheck) scf=(maxcycle=1)\\title\\0,1\C,0,-2.21648938,0.4209719,-0.1
 4715741\C,0,-0.7511887,0.48026762,0.19329006\C,0,0.08628486,-0.6761949
 1,-0.26401607\N,0,1.04762737,-1.28398701,0.76736104\C,0,1.51907342,-0.
 58290463,-0.15282324\N,0,2.65734017,-0.12359253,-0.68764896\O,0,-0.260
 34887,1.39978611,0.80230446\H,0,-2.72349753,1.30923607,0.22189358\H,0,
 -2.34765713,0.33985949,-1.22930785\H,0,-2.65986189,-0.47405091,0.29621

 Normal termination of Gaussian 16 at Wed Apr  9 03:26:49 2025.
