 Gaussian 16, Revision C.01,

 ----------------------------------------------------------------------
 #t hf aug-cc-pvdz symm=none int=(grid=ultrafine) guess=(read,tcheck) s
 table=(opt,rrhf)
 ----------------------------------------------------------------------
 -----
 title
 -----
 Symbolic Z-matrix:
 Charge =  0 Multiplicity = 1

 SCF Done:  E(RHF) =  -345.910039010     A.U. after   15 cycles

 1\1\GINC-SE138\Stability\RHF\Aug-CC-pVDZ\C5H12O2\OHZDE\09-Apr-2025\0\\
 #t hf aug-cc-pvdz symm=none int=(grid=ultrafine) guess=(read,tcheck) s
 table=(opt,rrhf)\\title\\0,1\C,0,-1.27090893,-1.36246859,1.23207513\O,
 0,-0.19869101,0.36190499,1.17205621\C,0,-0.19079809,0.82652598,-0.1882
 158\C,0,0.00480736,2.32871034,-0.18858576\C,0,0.89551843,0.07241077,-0
 .95530672\C,0,0.82271114,-1.43667153,-0.69447147\O,0,0.72300728,-1.704
 69924,0.67141688\H,0,-2.03553343,-0.6129243,1.38657252\H,0,-0.98488681
 ,-1.90315262,2.12137272\H,0,-1.41484074,-1.97089243,0.35004019\H,0,-1.

 Normal termination of Gaussian 16 at Wed Apr  9 16:15:30 2025.
 Gaussian 16:  ES64L-G16RevC.01  3-Jul-2019

 ----------------------------------------------------------------------
 #t hf aug-cc-pvdz iop(5/13=1,5/36=2,99/5=2) pseudo=read geom=check gue
 ss=(read,tcheck) scf=(maxcycle=1)
 ----------------------------------------------------------------------
 -----
 title
 -----
 Structure from the checkpoint file:  "Grambow2020_wb97xd3_008019_forward_mol1.chk"
 Charge =  0 Multiplicity = 1

                         Standard orientation:
 ---------------------------------------------------------------------
 Center     Atomic      Atomic             Coordinates (Angstroms)
 Number     Number       Type             X           Y           Z
 ---------------------------------------------------------------------
      1          6           0       -1.473938   -1.470049    0.453939
      2          8           0        0.243197   -1.011726   -0.529982
      3          6           0        1.000457   -0.117289    0.302373
      4          6           0        2.468552   -0.254227   -0.045138
      5          6           0        0.461067    1.300529    0.112501
      6          6           0       -1.069340    1.335498    0.197928
      7          8           0       -1.638306    0.339738   -0.597164
      8          1           0       -0.794891   -2.231699    0.813273
      9          1           0       -2.193499   -1.815510   -0.272620
     10          1           0       -1.872584   -0.827664    1.226794
     11          1           0        0.855073   -0.428727    1.346337
     12          1           0        2.636594    0.023142   -1.087613
     13          1           0        2.799284   -1.284407    0.092522
     14          1           0        3.076997    0.394459    0.588953
     15          1           0        0.764571    1.650738   -0.879820
     16          1           0        0.910921    1.972361    0.848006
     17          1           0       -1.383683    1.226744    1.253442
     18          1           0       -1.432430    2.321669   -0.119572
     19          1           0       -0.526267   -0.391971   -0.922155
 ---------------------------------------------------------------------

 SCF Done:  E(RHF) =  -346.018152977     A.U. after    2 cycles

 The electronic state is 1-A.
 Alpha  occ. eigenvalues --  -20.56374 -20.49134 -11.37076 -11.28899 -11.25840
 Alpha  occ. eigenvalues --  -11.22197 -11.22036  -1.32489  -1.22477  -1.04593
 Alpha  occ. eigenvalues --   -0.97246  -0.95612  -0.83299  -0.80478  -0.68839
 Alpha  occ. eigenvalues --   -0.67554  -0.64964  -0.64199  -0.60445  -0.58769
 Alpha  occ. eigenvalues --   -0.55635  -0.55382  -0.52202  -0.51762  -0.50985
 Alpha  occ. eigenvalues --   -0.48323  -0.44538  -0.39073  -0.37114
 Alpha virt. eigenvalues --    0.02516   0.03977   0.04578   0.04847   0.06034
 Alpha virt. eigenvalues --    0.06237   0.06413   0.06989   0.07428   0.08690
 Alpha virt. eigenvalues --    0.08985   0.10012   0.10151   0.12375   0.13709

 Mulliken charges:
               1
     1  C    0.707712
     2  O   -0.843286
     3  C   -0.120030
     4  C    0.502564
     5  C    0.102400
     6  C    0.958588
     7  O   -1.008674
     8  H   -0.068835
     9  H   -0.028547
    10  H   -0.045125
    11  H   -0.252565
    12  H    0.001652
    13  H   -0.057566
    14  H    0.025292
    15  H   -0.068764
    16  H   -0.109682
    17  H   -0.201814
    18  H   -0.174809
    19  H    0.681490
 Sum of Mulliken charges =  -0.00000

 Dipole moment (field-independent basis, Debye):
    X=              0.4880    Y=             -1.6199    Z=              3.0891  Tot=              3.5220

 Test job not archived.
 1\1\GINC-SE138\SP\RHF\Aug-CC-pVDZ\C5H12O2\OHZDE\09-Apr-2025\0\\#t hf a
 ug-cc-pvdz iop(5/13=1,5/36=2,99/5=2) pseudo=read geom=check guess=(rea
 d,tcheck) scf=(maxcycle=1)\\title\\0,1\C,0,-1.27090893,-1.36246859,1.2
 3207513\O,0,-0.19869101,0.36190499,1.17205621\C,0,-0.19079809,0.826525
 98,-0.1882158\C,0,0.00480736,2.32871034,-0.18858576\C,0,0.89551843,0.0
 7241077,-0.95530672\C,0,0.82271114,-1.43667153,-0.69447147\O,0,0.72300
 728,-1.70469924,0.67141688\H,0,-2.03553343,-0.6129243,1.38657252\H,0,-
 0.98488681,-1.90315262,2.12137272\H,0,-1.41484074,-1.97089243,0.350040

 Normal termination of Gaussian 16 at Wed Apr  9 16:15:38 2025.
