 Gaussian 16, Revision C.01,

 ----------------------------------------------------------------------
 #t hf aug-cc-pvdz symm=none int=(grid=ultrafine) guess=(read,tcheck) s
 table=(opt,rrhf)
 ----------------------------------------------------------------------
 -----
 title
 -----
 Symbolic Z-matrix:
 Charge =  0 Multiplicity = 1

 SCF Done:  E(RHF) =  -308.800632576     A.U. after   18 cycles

 1\1\GINC-SE042\Stability\RHF\Aug-CC-pVDZ\C6H12O1\OHZDE\09-Apr-2025\0\\
 #t hf aug-cc-pvdz symm=none int=(grid=ultrafine) guess=(read,tcheck) s
 table=(opt,rrhf)\\title\\0,1\C,0,1.67566738,1.29639085,0.00723532\C,0,
 0.56206766,0.34322929,0.3247615\C,0,0.95161947,-1.49874065,-0.30676313
 \C,0,-0.72961697,0.29137906,-0.43173812\C,0,-1.00100114,-1.17450165,-0
 .43820765\C,0,-1.80865349,1.03594394,0.16511554\O,0,-2.26542764,0.8694
 1098,1.4299164\H,0,1.64236058,2.22192488,0.58679331\H,0,2.63300421,0.8
 1666036,0.2365325\H,0,1.67814286,1.5559025,-1.05406875\H,0,0.43666138,

 Normal termination of Gaussian 16 at Wed Apr  9 16:26:38 2025.
 Gaussian 16:  ES64L-G16RevC.01  3-Jul-2019

 ----------------------------------------------------------------------
 #t hf aug-cc-pvdz iop(5/13=1,5/36=2,99/5=2) pseudo=read geom=check gue
 ss=(read,tcheck) scf=(maxcycle=1)
 ----------------------------------------------------------------------
 -----
 title
 -----
 Structure from the checkpoint file:  "Grambow2020_wb97xd3_008299_forward_mol1.chk"
 Charge =  0 Multiplicity = 1

                         Standard orientation:
 ---------------------------------------------------------------------
 Center     Atomic      Atomic             Coordinates (Angstroms)
 Number     Number       Type             X           Y           Z
 ---------------------------------------------------------------------
      1          6           0        1.569803   -1.688596    0.071059
      2          6           0        0.702521   -0.521662   -0.297085
      3          6           0        1.715746    1.186089   -0.316871
      4          6           0       -0.279571    0.112903    0.638998
      5          6           0       -0.144828    1.550226    0.266915
      6          6           0       -1.634901   -0.354522    0.499268
      7          8           0       -2.352535   -0.334352   -0.649945
      8          1           0        1.141271   -2.657623   -0.195317
      9          1           0        2.522156   -1.608813   -0.463611
     10          1           0        1.787437   -1.692189    1.141733
     11          1           0        0.348909   -0.549632   -1.329972
     12          1           0        2.316103    0.709952   -1.110939
     13          1           0        2.270531    1.110688    0.617108
     14          1           0        1.732876    2.244150   -0.626624
     15          1           0        0.035359   -0.043998    1.672508
     16          1           0       -0.222509    2.329137    1.027342
     17          1           0       -0.635482    1.839209   -0.662553
     18          1           0       -2.195635   -0.816407    1.301355
     19          1           0       -1.853358    0.103719   -1.345178
 ---------------------------------------------------------------------

 SCF Done:  E(RHF) =  -308.897250544     A.U. after    2 cycles

 The electronic state is 1-A.
 Alpha  occ. eigenvalues --  -20.60541 -11.31164 -11.26070 -11.25166 -11.24904
 Alpha  occ. eigenvalues --  -11.24344 -11.23491  -1.36771  -1.10928  -0.99821
 Alpha  occ. eigenvalues --   -0.94191  -0.87914  -0.85163  -0.78060  -0.71758
 Alpha  occ. eigenvalues --   -0.66630  -0.61305  -0.60743  -0.59738  -0.57992
 Alpha  occ. eigenvalues --   -0.56465  -0.53942  -0.53117  -0.52298  -0.50189
 Alpha  occ. eigenvalues --   -0.48781  -0.37373  -0.20161
 Alpha virt. eigenvalues --    0.03357   0.03989   0.04352   0.04547   0.05562
 Alpha virt. eigenvalues --    0.06149   0.06417   0.06832   0.07203   0.08159
 Alpha virt. eigenvalues --    0.09066   0.09273   0.09600   0.12225   0.12629

 Mulliken charges:
               1
     1  C    0.477598
     2  C   -0.533091
     3  C    0.687570
     4  C    0.602107
     5  C    0.627507
     6  C    0.619007
     7  O   -0.461604
     8  H    0.003313
     9  H   -0.008316
    10  H   -0.026283
    11  H   -0.446965
    12  H   -0.186528
    13  H   -0.140163
    14  H   -0.218504
    15  H   -0.207922
    16  H   -0.293551
    17  H   -0.313128
    18  H   -0.356738
    19  H    0.175690
 Sum of Mulliken charges =  -0.00000

 Dipole moment (field-independent basis, Debye):
    X=              1.3609    Y=             -0.1201    Z=             -0.3320  Tot=              1.4060

 Test job not archived.
 1\1\GINC-SE042\SP\RHF\Aug-CC-pVDZ\C6H12O1\OHZDE\09-Apr-2025\0\\#t hf a
 ug-cc-pvdz iop(5/13=1,5/36=2,99/5=2) pseudo=read geom=check guess=(rea
 d,tcheck) scf=(maxcycle=1)\\title\\0,1\C,0,1.67566738,1.29639085,0.007
 23532\C,0,0.56206766,0.34322929,0.3247615\C,0,0.95161947,-1.49874065,-
 0.30676313\C,0,-0.72961697,0.29137906,-0.43173812\C,0,-1.00100114,-1.1
 7450165,-0.43820765\C,0,-1.80865349,1.03594394,0.16511554\O,0,-2.26542
 764,0.86941098,1.4299164\H,0,1.64236058,2.22192488,0.58679331\H,0,2.63
 300421,0.81666036,0.2365325\H,0,1.67814286,1.5559025,-1.05406875\H,0,0

 Normal termination of Gaussian 16 at Wed Apr  9 16:26:46 2025.
