 Gaussian 16, Revision C.01,

 ----------------------------------------------------------------------
 #t hf aug-cc-pvdz symm=none int=(grid=ultrafine) guess=(read,tcheck) s
 table=(opt,rrhf)
 ----------------------------------------------------------------------
 -----
 title
 -----
 Symbolic Z-matrix:
 Charge =  0 Multiplicity = 1

 SCF Done:  E(RHF) =  -305.696834002     A.U. after   15 cycles
 Normal termination of Gaussian 16 at Wed Apr  9 03:21:06 2025.
 Gaussian 16:  ES64L-G16RevC.01  3-Jul-2019

 ----------------------------------------------------------------------
 #t hf aug-cc-pvdz iop(5/13=1,5/36=2,99/5=2) pseudo=read geom=check gue
 ss=(read,tcheck) scf=(maxcycle=1)
 ----------------------------------------------------------------------
 -----
 title
 -----
 Structure from the checkpoint file:  "Grambow2020_wb97xd3_006133_forward_mol1.chk"
 Charge =  0 Multiplicity = 1

                         Standard orientation:
 ---------------------------------------------------------------------
 Center     Atomic      Atomic             Coordinates (Angstroms)
 Number     Number       Type             X           Y           Z
 ---------------------------------------------------------------------
      1          8           0       -2.359897   -0.406521    0.044618
      2          6           0       -1.293175    0.448930   -0.295371
      3          6           0       -0.121658    0.139326    0.600347
      4          6           0        1.299638   -1.226264   -0.002560
      5          8           0        1.757159   -0.057661   -0.627536
      6          6           0        1.159633    0.893592    0.220793
      7          1           0       -3.014619   -0.391851   -0.654074
      8          1           0       -1.561302    1.505921   -0.145595
      9          1           0       -0.986957    0.325824   -1.341894
     10          1           0       -0.394293    0.121360    1.653262
     11          1           0        1.698927   -1.235549    1.033862
     12          1           0        0.041513   -1.064330    0.186763
     13          1           0        1.781276    1.083578    1.105160
     14          1           0        0.990731    1.834997   -0.313397
 ---------------------------------------------------------------------

 SCF Done:  E(RHF) =  -305.792363055     A.U. after    2 cycles

 The electronic state is 1-A.
 Alpha  occ. eigenvalues --  -20.59303 -20.58444 -11.31405 -11.31329 -11.30026
 Alpha  occ. eigenvalues --  -11.29215  -1.37258  -1.34822  -1.07057  -0.94527
 Alpha  occ. eigenvalues --   -0.91334  -0.78097  -0.74319  -0.71128  -0.66176
 Alpha  occ. eigenvalues --   -0.65142  -0.63695  -0.61059  -0.55759  -0.53435
 Alpha  occ. eigenvalues --   -0.51637  -0.48579  -0.45055  -0.33012
 Alpha virt. eigenvalues --    0.02853   0.03737   0.04461   0.05269   0.06535
 Alpha virt. eigenvalues --    0.06578   0.07383   0.09140   0.09950   0.11808
 Alpha virt. eigenvalues --    0.12418   0.13240   0.14381   0.14646   0.14952

 Mulliken charges:
               1
     1  O   -0.560673
     2  C    0.724729
     3  C   -0.499247
     4  C    0.098143
     5  O   -0.632952
     6  C    1.061746
     7  H    0.159661
     8  H   -0.080742
     9  H   -0.068268
    10  H   -0.202815
    11  H    0.011174
    12  H    0.365822
    13  H   -0.191333
    14  H   -0.185244
 Sum of Mulliken charges =  -0.00000

 Dipole moment (field-independent basis, Debye):
    X=             -2.1816    Y=              3.2970    Z=              0.9921  Tot=              4.0759

 Test job not archived.
 1\1\GINC-SE249\SP\RHF\Aug-CC-pVDZ\C4H8O2\OHZDE\09-Apr-2025\0\\#t hf au
 g-cc-pvdz iop(5/13=1,5/36=2,99/5=2) pseudo=read geom=check guess=(read
 ,tcheck) scf=(maxcycle=1)\\title\\0,1\O,0,2.1553852,0.95223244,0.08937
 537\C,0,1.31388454,-0.17782586,0.07816057\C,0,-0.08761668,0.26044661,0
 .41628457\C,0,-1.39898896,0.76265799,-1.09252327\O,0,-1.54901825,-0.63
 059157,-1.04891455\C,0,-1.1319834,-0.8551253,0.27669744\H,0,2.98031213
 ,0.73900153,-0.3477454\H,0,1.62530346,-0.91916263,0.82982157\H,0,1.308
 16744,-0.67458002,-0.90027635\H,0,-0.12887216,0.86996938,1.3163201\H,0

 Normal termination of Gaussian 16 at Wed Apr  9 03:21:11 2025.
