 Gaussian 16, Revision C.01,

 ----------------------------------------------------------------------
 #t hf aug-cc-pvdz symm=none int=(grid=ultrafine) guess=(read,tcheck) s
 table=(opt,rrhf)
 ----------------------------------------------------------------------
 -----
 title
 -----
 Symbolic Z-matrix:
 Charge =  0 Multiplicity = 1

 SCF Done:  E(RHF) =  -316.353382850     A.U. after   17 cycles
 Normal termination of Gaussian 16 at Wed Apr  9 15:39:41 2025.
 Gaussian 16:  ES64L-G16RevC.01  3-Jul-2019

 ----------------------------------------------------------------------
 #t hf aug-cc-pvdz iop(5/13=1,5/36=2,99/5=2) pseudo=read geom=check gue
 ss=(read,tcheck) scf=(maxcycle=1)
 ----------------------------------------------------------------------
 -----
 title
 -----
 Structure from the checkpoint file:  "Grambow2020_wb97xd3_007266_forward_mol1.chk"
 Charge =  0 Multiplicity = 1

                         Standard orientation:
 ---------------------------------------------------------------------
 Center     Atomic      Atomic             Coordinates (Angstroms)
 Number     Number       Type             X           Y           Z
 ---------------------------------------------------------------------
      1          7           0       -2.320368   -0.379025   -0.084100
      2          6           0       -1.187884   -0.119142   -0.092533
      3          6           0        0.273232    0.303765   -0.908247
      4          7           0        1.201538   -0.746657   -0.716854
      5          6           0        1.048199   -0.867201    0.551379
      6          6           0        0.159755    0.278591    0.895265
      7          7           0        0.694434    1.323986   -0.009557
      8          1           0        1.443157   -1.654628    1.181640
      9          1           0       -0.266835    0.589806    1.840547
     10          1           0        0.034633    2.100616   -0.023795
 ---------------------------------------------------------------------

 SCF Done:  E(RHF) =  -316.439306270     A.U. after    2 cycles

 The electronic state is 1-A.
 Alpha  occ. eigenvalues --  -15.70334 -15.67711 -15.62439 -11.39466 -11.38531
 Alpha  occ. eigenvalues --  -11.35101 -11.30364  -1.39310  -1.20810  -1.17960
 Alpha  occ. eigenvalues --   -1.00396  -0.92246  -0.80116  -0.78937  -0.71927
 Alpha  occ. eigenvalues --   -0.67124  -0.60921  -0.55524  -0.54185  -0.50625
 Alpha  occ. eigenvalues --   -0.49155  -0.46704  -0.44341  -0.35822
 Alpha virt. eigenvalues --    0.01020   0.02894   0.03393   0.04961   0.07199
 Alpha virt. eigenvalues --    0.08364   0.09607   0.10053   0.11103   0.11501
 Alpha virt. eigenvalues --    0.12429   0.13278   0.13724   0.14463   0.14952

 Mulliken charges:
               1
     1  N   -0.256306
     2  C   -0.105763
     3  C    0.552045
     4  N   -0.542257
     5  C    0.591072
     6  C    0.748282
     7  N   -0.633966
     8  H   -0.168638
     9  H   -0.292606
    10  H    0.108136
 Sum of Mulliken charges =  -0.00000

 Dipole moment (field-independent basis, Debye):
    X=              2.7322    Y=              1.6329    Z=              3.4493  Tot=              4.6935

 Test job not archived.
 1\1\GINC-SE037\SP\RHF\Aug-CC-pVDZ\C4H3N3\OHZDE\09-Apr-2025\0\\#t hf au
 g-cc-pvdz iop(5/13=1,5/36=2,99/5=2) pseudo=read geom=check guess=(read
 ,tcheck) scf=(maxcycle=1)\\title\\0,1\N,0,1.94561017,-0.09786262,-1.50
 091192\C,0,1.13554458,-0.08196533,-0.66804218\C,0,0.61532952,-0.337068
 29,0.95781028\N,0,-0.3738276,-1.3486177,0.94759225\C,0,-1.08226591,-0.
 87060951,-0.00952927\C,0,-0.44814378,0.45204596,-0.27202314\N,0,-0.113
 0416,0.87650838,1.10818458\H,0,-1.90533601,-1.36003715,-0.51576801\H,0
 ,-0.67678181,1.21879685,-1.00154934\H,0,0.51739844,1.6752694,1.0514397

 Normal termination of Gaussian 16 at Wed Apr  9 15:39:45 2025.
