 Gaussian 16, Revision C.01,

 ----------------------------------------------------------------------
 #t hf aug-cc-pvdz symm=none int=(grid=ultrafine) guess=(read,tcheck) s
 table=(opt,rrhf)
 ----------------------------------------------------------------------
 -----
 title
 -----
 Symbolic Z-matrix:
 Charge =  0 Multiplicity = 1

 SCF Done:  E(RHF) =  -322.500449377     A.U. after   16 cycles
 Normal termination of Gaussian 16 at Wed Apr  9 14:52:07 2025.
 Gaussian 16:  ES64L-G16RevC.01  3-Jul-2019

 ----------------------------------------------------------------------
 #t hf aug-cc-pvdz iop(5/13=1,5/36=2,99/5=2) pseudo=read geom=check gue
 ss=(read,tcheck) scf=(maxcycle=1)
 ----------------------------------------------------------------------
 -----
 title
 -----
 Structure from the checkpoint file:  "Grambow2020_wb97xd3_006632_reverse_mol1.chk"
 Charge =  0 Multiplicity = 1

                         Standard orientation:
 ---------------------------------------------------------------------
 Center     Atomic      Atomic             Coordinates (Angstroms)
 Number     Number       Type             X           Y           Z
 ---------------------------------------------------------------------
      1          8           0        2.564364    0.348444    0.207520
      2          6           0        1.851911    0.120575   -0.679557
      3          6           0        0.266103   -0.907343    0.093225
      4          6           0       -0.611642   -0.149958    0.988903
      5          6           0       -1.099557    1.138271    0.340109
      6          6           0       -1.601303    0.242066   -0.809370
      7          7           0       -1.176352   -1.013026   -0.110377
      8          1           0        1.015651   -0.258848   -1.286247
      9          1           0        0.710044   -1.823157    0.479548
     10          1           0       -0.744279   -0.407430    2.033227
     11          1           0       -0.345493    1.897154    0.124369
     12          1           0       -1.916916    1.607358    0.884726
     13          1           0       -1.148844    0.375926   -1.796309
     14          1           0       -2.683678    0.250949   -0.926692
 ---------------------------------------------------------------------

 SCF Done:  E(RHF) =  -322.597338289     A.U. after    2 cycles

 The electronic state is 1-A.
 Alpha  occ. eigenvalues --  -20.65343 -15.62627 -11.40337 -11.27137 -11.27081
 Alpha  occ. eigenvalues --  -11.25565 -11.24465  -1.44838  -1.27166  -1.00819
 Alpha  occ. eigenvalues --   -0.93254  -0.90360  -0.77955  -0.75075  -0.73336
 Alpha  occ. eigenvalues --   -0.68445  -0.66344  -0.62953  -0.61616  -0.57788
 Alpha  occ. eigenvalues --   -0.54348  -0.52593  -0.46125  -0.44176  -0.36895
 Alpha  occ. eigenvalues --   -0.31138
 Alpha virt. eigenvalues --    0.03288   0.03889   0.04408   0.05088   0.06444
 Alpha virt. eigenvalues --    0.06566   0.07492   0.08136   0.09694   0.10808
 Alpha virt. eigenvalues --    0.11791   0.13178   0.13559   0.13857   0.14065

 Mulliken charges:
               1
     1  O   -0.291811
     2  C    0.295222
     3  C    0.200050
     4  C    0.524747
     5  C    0.426508
     6  C    0.863904
     7  N   -1.006889
     8  H    0.536172
     9  H   -0.348705
    10  H   -0.364769
    11  H   -0.207907
    12  H   -0.138659
    13  H   -0.227261
    14  H   -0.260603
 Sum of Mulliken charges =  -0.00000

 Dipole moment (field-independent basis, Debye):
    X=             -0.5110    Y=              1.2404    Z=             -1.2854  Tot=              1.8579

 Test job not archived.
 1\1\GINC-SE129\SP\RHF\Aug-CC-pVDZ\C5H7N1O1\OHZDE\09-Apr-2025\0\\#t hf
 aug-cc-pvdz iop(5/13=1,5/36=2,99/5=2) pseudo=read geom=check guess=(re
 ad,tcheck) scf=(maxcycle=1)\\title\\0,1\O,0,2.72857545,0.81552279,0.73
 404805\C,0,1.67398527,1.20634146,1.01956292\C,0,0.47894498,0.90729339,
 -0.60863972\C,0,0.19420338,-0.48990899,-0.94487603\C,0,-0.36216708,-1.
 25289945,0.24962262\C,0,-1.43146549,-0.1449331,0.32204427\N,0,-0.90445
 73,0.5412176,-0.90102081\H,0,0.61462119,1.50177637,0.9767607\H,0,0.927
 36053,1.52949812,-1.38118724\H,0,0.50697888,-0.94212935,-1.87877404\H,

 Normal termination of Gaussian 16 at Wed Apr  9 14:52:12 2025.
