 Gaussian 16, Revision C.01,

 ----------------------------------------------------------------------
 #t hf aug-cc-pvdz symm=none int=(grid=ultrafine) guess=(read,tcheck) s
 table=(opt,rrhf)
 ----------------------------------------------------------------------
 -----
 title
 -----
 Symbolic Z-matrix:
 Charge =  0 Multiplicity = 1

 SCF Done:  E(RHF) =  -343.662463799     A.U. after   15 cycles
 Normal termination of Gaussian 16 at Wed Apr  9 15:08:02 2025.
 Gaussian 16:  ES64L-G16RevC.01  3-Jul-2019

 ----------------------------------------------------------------------
 #t hf aug-cc-pvdz iop(5/13=1,5/36=2,99/5=2) pseudo=read geom=check gue
 ss=(read,tcheck) scf=(maxcycle=1)
 ----------------------------------------------------------------------
 -----
 title
 -----
 Structure from the checkpoint file:  "Grambow2020_wb97xd3_006678_reverse_mol1.chk"
 Charge =  0 Multiplicity = 1

                         Standard orientation:
 ---------------------------------------------------------------------
 Center     Atomic      Atomic             Coordinates (Angstroms)
 Number     Number       Type             X           Y           Z
 ---------------------------------------------------------------------
      1          6           0       -1.624724   -1.180849   -0.240851
      2          6           0       -0.809390    0.044988   -0.063486
      3          8           0       -1.399451    1.139146    0.270307
      4          6           0        1.039227   -0.820045    0.919448
      5          6           0        1.543605   -0.817803   -0.476296
      6          6           0        0.580290    0.304072   -0.315009
      7          8           0        0.885874    1.547116   -0.198380
      8          1           0       -2.191342   -1.395684    0.665994
      9          1           0       -2.343472   -0.994079   -1.041166
     10          1           0       -1.020959   -2.044980   -0.507901
     11          1           0       -0.542080    1.774777    0.173526
     12          1           0        1.574015   -0.243248    1.660516
     13          1           0        0.445996   -1.648962    1.278750
     14          1           0        2.551907   -0.463171   -0.646385
     15          1           0        1.260505   -1.656927   -1.101591
 ---------------------------------------------------------------------

 SCF Done:  E(RHF) =  -343.769842750     A.U. after    2 cycles

 The electronic state is 1-A.
 Alpha  occ. eigenvalues --  -20.61133 -20.49812 -11.37434 -11.32183 -11.27596
 Alpha  occ. eigenvalues --  -11.27556 -11.26511  -1.41650  -1.28286  -1.13089
 Alpha  occ. eigenvalues --   -1.04141  -0.90600  -0.85480  -0.79521  -0.72738
 Alpha  occ. eigenvalues --   -0.68706  -0.65284  -0.63444  -0.62184  -0.59666
 Alpha  occ. eigenvalues --   -0.57736  -0.55312  -0.53772  -0.52464  -0.49394
 Alpha  occ. eigenvalues --   -0.42492  -0.32929
 Alpha virt. eigenvalues --    0.02665   0.04079   0.04149   0.05088   0.06179
 Alpha virt. eigenvalues --    0.06915   0.07372   0.07734   0.08898   0.10888
 Alpha virt. eigenvalues --    0.11938   0.12738   0.13529   0.14070   0.14601

 Mulliken charges:
               1
     1  C    0.454829
     2  C   -0.343060
     3  O   -0.619794
     4  C    0.664036
     5  C    0.966604
     6  C    0.425273
     7  O   -0.930837
     8  H    0.087912
     9  H    0.033132
    10  H   -0.113643
    11  H    0.351229
    12  H   -0.225857
    13  H   -0.340580
    14  H   -0.203033
    15  H   -0.206211
 Sum of Mulliken charges =  -0.00000

 Dipole moment (field-independent basis, Debye):
    X=             -1.2397    Y=             -5.2623    Z=             -0.0273  Tot=              5.4064

 Test job not archived.
 1\1\GINC-SE226\SP\RHF\Aug-CC-pVDZ\C5H8O2\OHZDE\09-Apr-2025\0\\#t hf au
 g-cc-pvdz iop(5/13=1,5/36=2,99/5=2) pseudo=read geom=check guess=(read
 ,tcheck) scf=(maxcycle=1)\\title\\0,1\C,0,-1.63005757,-0.76776564,-0.0
 1709734\C,0,-0.71964165,0.29253083,-0.51289693\O,0,-1.2284982,1.341421
 88,-1.05848325\C,0,0.86569705,0.2737754,1.10518023\C,0,1.5601368,-0.61
 608892,0.14164589\C,0,0.71151665,0.34053274,-0.61816506\O,0,1.1308774,
 1.37115946,-1.26166106\H,0,-2.33952923,-0.35509972,0.70118807\H,0,-2.2
 0341341,-1.14345426,-0.86686697\H,0,-1.09215672,-1.59729323,0.43580189

 Normal termination of Gaussian 16 at Wed Apr  9 15:08:07 2025.
