 Gaussian 16, Revision C.01,

 ----------------------------------------------------------------------
 #t hf aug-cc-pvdz symm=none int=(grid=ultrafine) guess=(read,tcheck) s
 table=(opt,rrhf)
 ----------------------------------------------------------------------
 -----
 title
 -----
 Symbolic Z-matrix:
 Charge =  0 Multiplicity = 1

 SCF Done:  E(RHF) =  -268.851923235     A.U. after   14 cycles
 Normal termination of Gaussian 16 at Wed Apr  9 14:25:21 2025.
 Gaussian 16:  ES64L-G16RevC.01  3-Jul-2019

 ----------------------------------------------------------------------
 #t hf aug-cc-pvdz iop(5/13=1,5/36=2,99/5=2) pseudo=read geom=check gue
 ss=(read,tcheck) scf=(maxcycle=1)
 ----------------------------------------------------------------------
 -----
 title
 -----
 Structure from the checkpoint file:  "Grambow2020_wb97xd3_006252_reverse_mol2.chk"
 Charge =  0 Multiplicity = 1

                         Standard orientation:
 ---------------------------------------------------------------------
 Center     Atomic      Atomic             Coordinates (Angstroms)
 Number     Number       Type             X           Y           Z
 ---------------------------------------------------------------------
      1          6           0        1.609711   -0.951746    0.470267
      2          6           0        1.512133    0.319749   -0.313712
      3          6           0        0.492673    1.181295   -0.307683
      4          6           0       -0.786387    1.022392    0.399459
      5          6           0       -1.595821   -0.028428    0.268597
      6          8           0       -1.384530   -1.107231   -0.515139
      7          1           0        0.805703   -1.038500    1.200904
      8          1           0        1.574322   -1.833727   -0.177257
      9          1           0        2.565661   -0.993793    0.996686
     10          1           0        2.381529    0.578287   -0.912096
     11          1           0       -0.573903   -0.964964   -1.018377
     12          1           0        0.611967    2.103229   -0.871720
     13          1           0       -1.139310    1.842821    1.012701
     14          1           0       -2.543570   -0.095082    0.788704
 ---------------------------------------------------------------------

 SCF Done:  E(RHF) =  -268.937822996     A.U. after    2 cycles

 The electronic state is 1-A.
 Alpha  occ. eigenvalues --  -20.60086 -11.30677 -11.24830 -11.24563 -11.23414
 Alpha  occ. eigenvalues --  -11.23011  -1.36766  -1.08955  -1.01670  -0.93590
 Alpha  occ. eigenvalues --   -0.84356  -0.75665  -0.69689  -0.65420  -0.64973
 Alpha  occ. eigenvalues --   -0.59628  -0.57535  -0.56191  -0.55811  -0.52955
 Alpha  occ. eigenvalues --   -0.49297  -0.39617  -0.32590
 Alpha virt. eigenvalues --    0.03360   0.04235   0.04637   0.05196   0.05944
 Alpha virt. eigenvalues --    0.06619   0.07658   0.08025   0.11287   0.11902
 Alpha virt. eigenvalues --    0.12490   0.13614   0.14136   0.15044   0.15344

 Mulliken charges:
               1
     1  C    0.336368
     2  C    0.019131
     3  C    0.225287
     4  C    0.622327
     5  C    0.601107
     6  O   -0.510592
     7  H   -0.051767
     8  H    0.062861
     9  H   -0.050299
    10  H   -0.409145
    11  H    0.183321
    12  H   -0.368796
    13  H   -0.344202
    14  H   -0.315601
 Sum of Mulliken charges =  -0.00000

 Dipole moment (field-independent basis, Debye):
    X=              1.0516    Y=              0.6357    Z=              0.0472  Tot=              1.2297

 Test job not archived.
 1\1\GINC-SE173\SP\RHF\Aug-CC-pVDZ\C5H8O1\OHZDE\09-Apr-2025\0\\#t hf au
 g-cc-pvdz iop(5/13=1,5/36=2,99/5=2) pseudo=read geom=check guess=(read
 ,tcheck) scf=(maxcycle=1)\\title\\0,1\C,0,-1.26655715,-0.94399165,-0.5
 1675416\C,0,-1.02100397,0.53218534,-0.55482697\C,0,0.16652228,1.141358
 07,-0.53788617\C,0,1.48037662,0.49877042,-0.38901822\C,0,1.81434903,-0
 .31302826,0.61396551\O,0,1.02063243,-0.68143674,1.64206676\H,0,-0.3433
 31,-1.51030455,-0.63811487\H,0,-1.73288657,-1.25563009,0.42337746\H,0,
 -1.95772174,-1.22853866,-1.31302656\H,0,-1.90334027,1.15957815,-0.6476

 Normal termination of Gaussian 16 at Wed Apr  9 14:25:25 2025.
