 Gaussian 16, Revision C.01,

 ----------------------------------------------------------------------
 #t hf aug-cc-pvdz symm=none int=(grid=ultrafine) guess=(read,tcheck) s
 table=(opt,rrhf)
 ----------------------------------------------------------------------
 -----
 title
 -----
 Symbolic Z-matrix:
 Charge =  0 Multiplicity = 1

 SCF Done:  E(RHF) =  -301.849834379     A.U. after   17 cycles
 Normal termination of Gaussian 16 at Wed Apr  9 14:17:20 2025.
 Gaussian 16:  ES64L-G16RevC.01  3-Jul-2019

 ----------------------------------------------------------------------
 #t hf aug-cc-pvdz iop(5/13=1,5/36=2,99/5=2) pseudo=read geom=check gue
 ss=(read,tcheck) scf=(maxcycle=1)
 ----------------------------------------------------------------------
 -----
 title
 -----
 Structure from the checkpoint file:  "Grambow2020_b97d3_006943_reverse_mol1.chk"
 Charge =  0 Multiplicity = 1

                         Standard orientation:
 ---------------------------------------------------------------------
 Center     Atomic      Atomic             Coordinates (Angstroms)
 Number     Number       Type             X           Y           Z
 ---------------------------------------------------------------------
      1          6           0       -2.158552   -0.241601    0.122339
      2          7           0       -0.864585   -0.512345   -0.508266
      3          6           0        0.197550    0.335909   -0.076917
      4          8           0        0.037840    1.535803    0.124453
      5          7           0        1.261128   -0.500730    1.046972
      6          6           0        1.631171   -0.222277   -0.682582
      7          1           0       -2.182486   -0.462754    1.205419
      8          1           0       -2.924822   -0.844242   -0.382727
      9          1           0       -2.389751    0.818505   -0.017841
     10          1           0       -0.635064   -1.505049   -0.493655
     11          1           0        1.005302   -1.505549    0.951046
     12          1           0        2.380289   -0.580926    0.158487
     13          1           0        1.503697   -1.038343   -1.390185
     14          1           0        2.143304    0.691270   -0.974148
 ---------------------------------------------------------------------

 SCF Done:  E(RHF) =  -301.940652468     A.U. after    2 cycles

 The electronic state is 1-A.
 Alpha  occ. eigenvalues --  -20.50184 -15.71080 -15.63981 -11.40341 -11.29391
 Alpha  occ. eigenvalues --  -11.26299  -1.32713  -1.19109  -1.15197  -0.94795
 Alpha  occ. eigenvalues --   -0.91668  -0.78086  -0.71152  -0.67877  -0.62473
 Alpha  occ. eigenvalues --   -0.60679  -0.60231  -0.58764  -0.54168  -0.53488
 Alpha  occ. eigenvalues --   -0.51160  -0.43107  -0.39845  -0.35796
 Alpha virt. eigenvalues --    0.01975   0.03458   0.03862   0.04971   0.06566
 Alpha virt. eigenvalues --    0.07045   0.08040   0.08675   0.09593   0.10628
 Alpha virt. eigenvalues --    0.11962   0.13280   0.13858   0.14220   0.15501

 Mulliken charges:
               1
     1  C    0.707448
     2  N   -0.449071
     3  C    0.828834
     4  O   -0.653375
     5  N   -0.719046
     6  C    0.422583
     7  H   -0.068538
     8  H   -0.194168
     9  H   -0.109190
    10  H   -0.039726
    11  H    0.147503
    12  H    0.265983
    13  H   -0.108410
    14  H   -0.030828
 Sum of Mulliken charges =  -0.00000

 Dipole moment (field-independent basis, Debye):
    X=              1.2370    Y=             -5.7034    Z=             -0.9065  Tot=              5.9060

 Test job not archived.
 1\1\GINC-SE141\SP\RHF\Aug-CC-pVDZ\C3H8N2O1\OHZDE\09-Apr-2025\0\\#t hf
 aug-cc-pvdz iop(5/13=1,5/36=2,99/5=2) pseudo=read geom=check guess=(re
 ad,tcheck) scf=(maxcycle=1)\\title\\0,1\C,0,-2.07492643,0.32897338,0.0
 561188\N,0,-0.82795505,-0.38019459,-0.23961697\C,0,0.31450076,0.460222
 67,-0.38868895\O,0,0.2628372,1.54006177,-0.9692771\N,0,1.33682904,0.40
 074612,1.04155523\C,0,1.67702842,-0.47142747,-0.48468323\H,0,-2.084960
 78,0.82070103,1.04639428\H,0,-2.90416959,-0.3887742,0.00482334\H,0,-2.
 21984334,1.09582124,-0.71060932\H,0,-0.68278075,-1.17085494,0.38658993

 Normal termination of Gaussian 16 at Wed Apr  9 14:17:24 2025.
