 Gaussian 16, Revision C.01,

 ----------------------------------------------------------------------
 #t hf aug-cc-pvdz symm=none int=(grid=ultrafine) guess=(read,tcheck) s
 table=(opt,rrhf)
 ----------------------------------------------------------------------
 -----
 title
 -----
 Symbolic Z-matrix:
 Charge =  0 Multiplicity = 1

 SCF Done:  E(RHF) =  -307.689040779     A.U. after   15 cycles

 1\1\GINC-SE129\Stability\RHF\Aug-CC-pVDZ\C6H10O1\OHZDE\09-Apr-2025\0\\
 #t hf aug-cc-pvdz symm=none int=(grid=ultrafine) guess=(read,tcheck) s
 table=(opt,rrhf)\\title\\0,1\C,0,1.96829722,0.45243617,-0.61693655\C,0
 ,0.92713107,0.12307596,0.38576697\C,0,0.20577816,-1.11569171,0.4969255
 7\C,0,-1.63245846,-1.05083153,-0.28609292\C,0,-0.80034015,0.12433909,-
 0.35386291\C,0,-0.91486179,1.22131464,0.69448638\O,0,0.43253554,1.2026
 1374,1.1530676\H,0,2.83353542,0.91391911,-0.13512179\H,0,2.31600427,-0
 .4456559,-1.13067172\H,0,1.60965416,1.16579019,-1.37814669\H,0,0.58149

 Normal termination of Gaussian 16 at Wed Apr  9 15:36:14 2025.
 Gaussian 16:  ES64L-G16RevC.01  3-Jul-2019

 ----------------------------------------------------------------------
 #t hf aug-cc-pvdz iop(5/13=1,5/36=2,99/5=2) pseudo=read geom=check gue
 ss=(read,tcheck) scf=(maxcycle=1)
 ----------------------------------------------------------------------
 -----
 title
 -----
 Structure from the checkpoint file:  "Grambow2020_wb97xd3_007036_forward_mol1.chk"
 Charge =  0 Multiplicity = 1

                         Standard orientation:
 ---------------------------------------------------------------------
 Center     Atomic      Atomic             Coordinates (Angstroms)
 Number     Number       Type             X           Y           Z
 ---------------------------------------------------------------------
      1          6           0       -1.942837   -0.711656    0.446588
      2          6           0       -0.818356   -0.192096   -0.367978
      3          6           0        0.314675   -0.940343   -0.840862
      4          6           0        1.968069   -0.675291    0.251142
      5          6           0        0.757423    0.005795    0.636497
      6          6           0        0.494437    1.437574    0.193380
      7          8           0       -0.732337    1.213527   -0.492882
      8          1           0       -2.899562   -0.376323    0.039182
      9          1           0       -1.950743   -1.803117    0.453192
     10          1           0       -1.902215   -0.362688    1.492299
     11          1           0        0.239675   -2.009092   -0.700230
     12          1           0        0.780136   -0.638446   -1.772861
     13          1           0        2.671108   -0.182231   -0.403078
     14          1           0        2.293607   -1.543285    0.803526
     15          1           0        0.321163   -0.284659    1.594685
     16          1           0        1.270894    1.793080   -0.491049
     17          1           0        0.394168    2.154651    1.014794
 ---------------------------------------------------------------------

 SCF Done:  E(RHF) =  -307.783610568     A.U. after    2 cycles

 The electronic state is 1-A.
 Alpha  occ. eigenvalues --  -20.57400 -11.31746 -11.31118 -11.29931 -11.27092
 Alpha  occ. eigenvalues --  -11.23469 -11.20414  -1.35817  -1.11763  -1.02478
 Alpha  occ. eigenvalues --   -0.94812  -0.89826  -0.83432  -0.73688  -0.69359
 Alpha  occ. eigenvalues --   -0.66948  -0.65235  -0.60488  -0.58813  -0.57478
 Alpha  occ. eigenvalues --   -0.56640  -0.55203  -0.53299  -0.48891  -0.47136
 Alpha  occ. eigenvalues --   -0.44292  -0.21405
 Alpha virt. eigenvalues --    0.03329   0.04231   0.04535   0.04777   0.06127
 Alpha virt. eigenvalues --    0.06425   0.06619   0.07269   0.07897   0.08943
 Alpha virt. eigenvalues --    0.10494   0.12006   0.12318   0.13536   0.13851

 Mulliken charges:
               1
     1  C    0.409180
     2  C   -0.278678
     3  C    0.961063
     4  C    0.963945
     5  C   -0.034180
     6  C    0.870213
     7  O   -0.868536
     8  H   -0.024873
     9  H   -0.014683
    10  H    0.009541
    11  H   -0.266537
    12  H   -0.231060
    13  H   -0.359666
    14  H   -0.424927
    15  H   -0.353800
    16  H   -0.196719
    17  H   -0.160282
 Sum of Mulliken charges =   0.00000

 Dipole moment (field-independent basis, Debye):
    X=              0.3970    Y=             -1.3381    Z=              0.5149  Tot=              1.4877

 Test job not archived.
 1\1\GINC-SE129\SP\RHF\Aug-CC-pVDZ\C6H10O1\OHZDE\09-Apr-2025\0\\#t hf a
 ug-cc-pvdz iop(5/13=1,5/36=2,99/5=2) pseudo=read geom=check guess=(rea
 d,tcheck) scf=(maxcycle=1)\\title\\0,1\C,0,1.96829722,0.45243617,-0.61
 693655\C,0,0.92713107,0.12307596,0.38576697\C,0,0.20577816,-1.11569171
 ,0.49692557\C,0,-1.63245846,-1.05083153,-0.28609292\C,0,-0.80034015,0.
 12433909,-0.35386291\C,0,-0.91486179,1.22131464,0.69448638\O,0,0.43253
 554,1.20261374,1.1530676\H,0,2.83353542,0.91391911,-0.13512179\H,0,2.3
 1600427,-0.4456559,-1.13067172\H,0,1.60965416,1.16579019,-1.37814669\H

 Normal termination of Gaussian 16 at Wed Apr  9 15:36:22 2025.
