 Gaussian 16, Revision C.01,

 ----------------------------------------------------------------------
 #t hf aug-cc-pvdz symm=none int=(grid=ultrafine) guess=(read,tcheck) s
 table=(opt,rrhf)
 ----------------------------------------------------------------------
 -----
 title
 -----
 Symbolic Z-matrix:
 Charge =  0 Multiplicity = 1

 SCF Done:  E(RHF) =  -358.388721889     A.U. after   18 cycles
 Normal termination of Gaussian 16 at Wed Apr  9 03:33:09 2025.
 Gaussian 16:  ES64L-G16RevC.01  3-Jul-2019

 ----------------------------------------------------------------------
 #t hf aug-cc-pvdz iop(5/13=1,5/36=2,99/5=2) pseudo=read geom=check gue
 ss=(read,tcheck) scf=(maxcycle=1)
 ----------------------------------------------------------------------
 -----
 title
 -----
 Structure from the checkpoint file:  "Grambow2020_wb97xd3_007073_reverse_mol2.chk"
 Charge =  0 Multiplicity = 1

                         Standard orientation:
 ---------------------------------------------------------------------
 Center     Atomic      Atomic             Coordinates (Angstroms)
 Number     Number       Type             X           Y           Z
 ---------------------------------------------------------------------
      1          8           0        2.170158   -0.352793    0.062563
      2          6           0        0.997073   -0.134255    0.071066
      3          7           0        0.437068    1.107691   -0.404750
      4          6           0       -0.896554    1.101298   -0.366915
      5          6           0       -1.404115   -0.109326    0.165677
      6          8           0       -0.933530   -1.241771   -0.616235
      7          6           0       -0.194001   -0.935042    0.519815
      8          1           0        0.975829    1.746424   -0.975662
      9          1           0       -1.450319    2.003110   -0.597065
     10          1           0       -0.603187    1.312029    3.055691
     11          1           0       -2.377578   -0.203486    0.620482
     12          1           0       -0.511662    0.608539    2.821315
 ---------------------------------------------------------------------

 SCF Done:  E(RHF) =  -358.501354273     A.U. after    2 cycles

 The electronic state is 1-A.
 Alpha  occ. eigenvalues --  -20.62481 -20.58408 -15.73782 -11.39874 -11.38875
 Alpha  occ. eigenvalues --  -11.31769 -11.27370  -1.42675  -1.38655  -1.29358
 Alpha  occ. eigenvalues --   -1.03469  -0.97354  -0.86353  -0.80661  -0.77310
 Alpha  occ. eigenvalues --   -0.70767  -0.68918  -0.66777  -0.62443  -0.61368
 Alpha  occ. eigenvalues --   -0.59277  -0.54028  -0.51770  -0.50396  -0.43198
 Alpha  occ. eigenvalues --   -0.31040
 Alpha virt. eigenvalues --    0.00659   0.01408   0.03297   0.04930   0.05872
 Alpha virt. eigenvalues --    0.08747   0.09006   0.09608   0.10332   0.11631
 Alpha virt. eigenvalues --    0.12172   0.13001   0.13690   0.14243   0.14497

 Mulliken charges:
               1
     1  O   -0.402154
     2  C    0.836189
     3  N   -0.437516
     4  C    0.719299
     5  C    0.875690
     6  O   -0.617258
     7  C   -0.455450
     8  H   -0.058715
     9  H   -0.211701
    10  H   -0.015749
    11  H   -0.297614
    12  H    0.064980
 Sum of Mulliken charges =  -0.00000

 Dipole moment (field-independent basis, Debye):
    X=             -3.3300    Y=              6.8612    Z=             -1.9939  Tot=              7.8830

 Test job not archived.
 1\1\GINC-SE249\SP\RHF\Aug-CC-pVDZ\C4H5N1O2\OHZDE\09-Apr-2025\0\\#t hf
 aug-cc-pvdz iop(5/13=1,5/36=2,99/5=2) pseudo=read geom=check guess=(re
 ad,tcheck) scf=(maxcycle=1)\\title\\0,1\O,0,1.06885316,2.26119621,0.74
 075838\C,0,0.5412463,1.2043411,0.57149775\N,0,1.27137923,0.03246278,0.
 15192207\C,0,0.49176026,-1.04884068,0.09719576\C,0,-0.85219961,-0.7484
 5615,0.42949647\O,0,-0.92506755,-0.16212286,1.75846984\C,0,-0.88164908
 ,0.73443384,0.69738706\H,0,2.28092609,-0.01004749,0.20842737\H,0,0.880
 08357,-1.97828875,-0.30057438\H,0,-0.93798995,0.36664192,-2.69510223\H

 Normal termination of Gaussian 16 at Wed Apr  9 03:33:14 2025.
