 Gaussian 16, Revision C.01,

 ----------------------------------------------------------------------
 #t hf aug-cc-pvdz symm=none int=(grid=ultrafine) guess=(read,tcheck) s
 table=(opt,rrhf)
 ----------------------------------------------------------------------
 -----
 title
 -----
 Symbolic Z-matrix:
 Charge =  0 Multiplicity = 1

 SCF Done:  E(RHF) =  -343.520585016     A.U. after   17 cycles
 Normal termination of Gaussian 16 at Wed Apr  9 15:09:07 2025.
 Gaussian 16:  ES64L-G16RevC.01  3-Jul-2019

 ----------------------------------------------------------------------
 #t hf aug-cc-pvdz iop(5/13=1,5/36=2,99/5=2) pseudo=read geom=check gue
 ss=(read,tcheck) scf=(maxcycle=1)
 ----------------------------------------------------------------------
 -----
 title
 -----
 Structure from the checkpoint file:  "Grambow2020_wb97xd3_006685_forward_mol1.chk"
 Charge =  0 Multiplicity = 1

                         Standard orientation:
 ---------------------------------------------------------------------
 Center     Atomic      Atomic             Coordinates (Angstroms)
 Number     Number       Type             X           Y           Z
 ---------------------------------------------------------------------
      1          6           0        1.707546    0.148435    1.202305
      2          6           0        0.405110   -0.242858   -0.333138
      3          8           0        1.223884    0.037293   -1.361278
      4          6           0       -0.332631   -1.457285   -0.090079
      5          6           0       -1.636548   -0.759808    0.276829
      6          6           0       -0.862972    0.537088    0.047029
      7          8           0       -1.108150    1.700254    0.005053
      8          1           0        2.675459   -0.257039    0.913254
      9          1           0        1.689863    1.235521    1.135205
     10          1           0        1.445047   -0.136505    2.227238
     11          1           0        1.483729    0.965142   -1.317674
     12          1           0       -0.098725   -2.462929   -0.395918
     13          1           0        0.691721   -0.858564    0.798542
     14          1           0       -2.474942   -0.858294   -0.422305
     15          1           0       -2.021045   -0.881150    1.293779
 ---------------------------------------------------------------------

 SCF Done:  E(RHF) =  -343.627396558     A.U. after    2 cycles

 The electronic state is 1-A.
 Alpha  occ. eigenvalues --  -20.63321 -20.59758 -11.39319 -11.36896 -11.26076
 Alpha  occ. eigenvalues --  -11.23780 -11.22362  -1.40936  -1.38677  -1.16792
 Alpha  occ. eigenvalues --   -0.97699  -0.91595  -0.84845  -0.80834  -0.71590
 Alpha  occ. eigenvalues --   -0.70218  -0.69319  -0.63883  -0.61241  -0.60286
 Alpha  occ. eigenvalues --   -0.57111  -0.55635  -0.54170  -0.53070  -0.48425
 Alpha  occ. eigenvalues --   -0.43584  -0.28098
 Alpha virt. eigenvalues --    0.03125   0.04208   0.04758   0.04882   0.05988
 Alpha virt. eigenvalues --    0.06689   0.07262   0.08166   0.09386   0.10434
 Alpha virt. eigenvalues --    0.11362   0.12650   0.13140   0.14082   0.14486

 Mulliken charges:
               1
     1  C    0.195719
     2  C   -0.558454
     3  O   -0.398202
     4  C    0.318921
     5  C    0.329317
     6  C    0.462823
     7  O   -0.437334
     8  H   -0.152265
     9  H   -0.202458
    10  H   -0.053242
    11  H    0.154039
    12  H   -0.307321
    13  H    0.739457
    14  H   -0.032181
    15  H   -0.058818
 Sum of Mulliken charges =  -0.00000

 Dipole moment (field-independent basis, Debye):
    X=              1.0379    Y=             -1.1004    Z=              0.6858  Tot=              1.6608

 Test job not archived.
 1\1\GINC-SE226\SP\RHF\Aug-CC-pVDZ\C5H8O2\OHZDE\09-Apr-2025\0\\#t hf au
 g-cc-pvdz iop(5/13=1,5/36=2,99/5=2) pseudo=read geom=check guess=(read
 ,tcheck) scf=(maxcycle=1)\\title\\0,1\C,0,-1.7056389,-0.66373384,0.031
 67867\C,0,-0.10818887,0.62273683,0.01812612\O,0,-0.78128481,1.76946055
 ,-0.17658773\C,0,0.82111834,0.30608578,1.07372697\C,0,1.86292179,-0.32
 714181,0.15996228\C,0,0.87917035,-0.02083361,-0.96767945\O,0,0.8720572
 7,-0.07998407,-2.15565259\H,0,-2.50028188,-0.18262888,0.59903708\H,0,-
 1.91092384,-0.65275315,-1.03804407\H,0,-1.56596488,-1.70474988,0.34370

 Normal termination of Gaussian 16 at Wed Apr  9 15:09:12 2025.
