 Gaussian 16, Revision C.01,

 ----------------------------------------------------------------------
 #t hf aug-cc-pvdz symm=none int=(grid=ultrafine) guess=(read,tcheck) s
 table=(opt,rrhf)
 ----------------------------------------------------------------------
 -----
 title
 -----
 Symbolic Z-matrix:
 Charge =  0 Multiplicity = 1

 SCF Done:  E(RHF) =  -289.035588441     A.U. after   15 cycles

 1\1\GINC-SE113\Stability\RHF\Aug-CC-pVDZ\C6H13N1\OHZDE\09-Apr-2025\0\\
 #t hf aug-cc-pvdz symm=none int=(grid=ultrafine) guess=(read,tcheck) s
 table=(opt,rrhf)\\title\\0,1\C,0,-1.37616429,1.7061658,0.72751751\C,0,
 -0.59387174,0.4717716,0.46715273\N,0,-0.66833374,-0.49633358,-0.446532
 55\C,0,-1.19818065,-1.71816004,-0.45548496\C,0,0.66145221,0.07619912,-
 0.228146\C,0,1.68923634,-0.74814572,0.51740502\C,0,1.2122462,0.8594432
 9,-1.3996681\H,0,-2.42623014,1.46258645,0.89712268\H,0,-0.99836795,2.1
 9873995,1.62368486\H,0,-1.31402214,2.41969022,-0.10119505\H,0,-0.90744

 Normal termination of Gaussian 16 at Wed Apr  9 17:05:11 2025.
 Gaussian 16:  ES64L-G16RevC.01  3-Jul-2019

 ----------------------------------------------------------------------
 #t hf aug-cc-pvdz iop(5/13=1,5/36=2,99/5=2) pseudo=read geom=check gue
 ss=(read,tcheck) scf=(maxcycle=1)
 ----------------------------------------------------------------------
 -----
 title
 -----
 Structure from the checkpoint file:  "Grambow2020_wb97xd3_009134_reverse_mol1.chk"
 Charge =  0 Multiplicity = 1

                         Standard orientation:
 ---------------------------------------------------------------------
 Center     Atomic      Atomic             Coordinates (Angstroms)
 Number     Number       Type             X           Y           Z
 ---------------------------------------------------------------------
      1          6           0        1.948143   -1.207185    0.294333
      2          6           0        0.802169   -0.264534    0.335020
      3          7           0        0.324031    0.648977   -0.510245
      4          6           0        0.451495    1.970946   -0.609386
      5          6           0       -0.659500   -0.277515    0.053755
      6          6           0       -1.617691    0.238696    1.105956
      7          6           0       -1.276827   -1.229777   -0.946952
      8          1           0        2.884731   -0.662324    0.165241
      9          1           0        2.007143   -1.755080    1.234973
     10          1           0        1.856171   -1.937889   -0.516442
     11          1           0        1.072137    1.028443    1.403763
     12          1           0       -0.426819    2.534324   -0.903153
     13          1           0        0.950517    1.864043    1.177259
     14          1           0        1.416769    2.352177   -0.919707
     15          1           0       -1.897504   -0.571230    1.782242
     16          1           0       -1.168565    1.035537    1.695818
     17          1           0       -2.534130    0.618323    0.646147
     18          1           0       -0.552911   -1.522237   -1.708145
     19          1           0       -2.139125   -0.778259   -1.444307
     20          1           0       -1.623368   -2.132454   -0.438326
 ---------------------------------------------------------------------

 SCF Done:  E(RHF) =  -289.127987864     A.U. after    2 cycles

 The electronic state is 1-A.
 Alpha  occ. eigenvalues --  -15.67360 -11.29148 -11.27715 -11.26675 -11.24145
 Alpha  occ. eigenvalues --  -11.22996 -11.22420  -1.30312  -1.05622  -1.00831
 Alpha  occ. eigenvalues --   -0.95367  -0.94158  -0.75890  -0.74521  -0.67086
 Alpha  occ. eigenvalues --   -0.65018  -0.62324  -0.60745  -0.57810  -0.56646
 Alpha  occ. eigenvalues --   -0.56366  -0.54596  -0.53832  -0.51050  -0.46957
 Alpha  occ. eigenvalues --   -0.44163  -0.39043  -0.26991
 Alpha virt. eigenvalues --    0.03378   0.03871   0.04280   0.04611   0.06369
 Alpha virt. eigenvalues --    0.06672   0.06792   0.07245   0.07764   0.08503
 Alpha virt. eigenvalues --    0.09328   0.09952   0.10278   0.10958   0.11562

 Mulliken charges:
               1
     1  C    0.501822
     2  C   -0.808990
     3  N   -0.219855
     4  C    0.528566
     5  C   -0.989235
     6  C    0.585363
     7  C    0.656229
     8  H    0.047807
     9  H    0.035199
    10  H    0.112419
    11  H    0.356824
    12  H   -0.347904
    13  H   -0.064667
    14  H   -0.375769
    15  H    0.029505
    16  H   -0.123806
    17  H    0.018463
    18  H   -0.045200
    19  H    0.009746
    20  H    0.093483
 Sum of Mulliken charges =   0.00000

 Dipole moment (field-independent basis, Debye):
    X=             -0.6186    Y=             -1.1879    Z=             -1.0730  Tot=              1.7161

 Test job not archived.
 1\1\GINC-SE113\SP\RHF\Aug-CC-pVDZ\C6H13N1\OHZDE\09-Apr-2025\0\\#t hf a
 ug-cc-pvdz iop(5/13=1,5/36=2,99/5=2) pseudo=read geom=check guess=(rea
 d,tcheck) scf=(maxcycle=1)\\title\\0,1\C,0,-1.37616429,1.7061658,0.727
 51751\C,0,-0.59387174,0.4717716,0.46715273\N,0,-0.66833374,-0.49633358
 ,-0.44653255\C,0,-1.19818065,-1.71816004,-0.45548496\C,0,0.66145221,0.
 07619912,-0.228146\C,0,1.68923634,-0.74814572,0.51740502\C,0,1.2122462
 ,0.85944329,-1.3996681\H,0,-2.42623014,1.46258645,0.89712268\H,0,-0.99
 836795,2.19873995,1.62368486\H,0,-1.31402214,2.41969022,-0.10119505\H,

 Normal termination of Gaussian 16 at Wed Apr  9 17:05:24 2025.
