 Gaussian 16, Revision C.01,

 ----------------------------------------------------------------------
 #t hf aug-cc-pvdz symm=none int=(grid=ultrafine) guess=(read,tcheck) s
 table=(opt,rrhf)
 ----------------------------------------------------------------------
 -----
 title
 -----
 Symbolic Z-matrix:
 Charge =  0 Multiplicity = 1

 SCF Done:  E(RHF) =  -344.884341189     A.U. after   13 cycles

 1\1\GINC-SE114\Stability\RHF\Aug-CC-pVDZ\C5H10O2\OHZDE\09-Apr-2025\0\\
 #t hf aug-cc-pvdz symm=none int=(grid=ultrafine) guess=(read,tcheck) s
 table=(opt,rrhf)\\title\\0,1\C,0,2.06992345,0.92292771,-0.4430931\O,0,
 0.73863679,0.94950569,0.00691776\C,0,0.01117225,-0.22542803,-0.2661299
 4\C,0,0.16942768,-1.19893799,0.91089307\O,0,-0.43865744,-2.4509948,0.6
 7310996\C,0,-1.43081048,0.10438036,-0.51451502\C,0,-1.95784776,1.31488
 7,-0.43599986\H,0,2.64460405,0.10481918,0.00717441\H,0,2.11843575,0.82
 537055,-1.53451204\H,0,2.52590403,1.86794964,-0.15123438\H,0,0.4094492

 Normal termination of Gaussian 16 at Wed Apr  9 14:58:01 2025.
 Gaussian 16:  ES64L-G16RevC.01  3-Jul-2019

 ----------------------------------------------------------------------
 #t hf aug-cc-pvdz iop(5/13=1,5/36=2,99/5=2) pseudo=read geom=check gue
 ss=(read,tcheck) scf=(maxcycle=1)
 ----------------------------------------------------------------------
 -----
 title
 -----
 Structure from the checkpoint file:  "Grambow2020_wb97xd3_006657_reverse_mol2.chk"
 Charge =  0 Multiplicity = 1

                         Standard orientation:
 ---------------------------------------------------------------------
 Center     Atomic      Atomic             Coordinates (Angstroms)
 Number     Number       Type             X           Y           Z
 ---------------------------------------------------------------------
      1          6           0       -2.115521   -1.139889    0.188043
      2          8           0       -1.280682   -0.129570   -0.319735
      3          6           0       -0.017128   -0.056833    0.298624
      4          6           0        0.965915   -0.960296   -0.460014
      5          8           0        2.233060   -1.033948    0.158752
      6          6           0        0.460685    1.364502    0.334498
      7          6           0       -0.182955    2.395881   -0.186312
      8          1           0       -1.673138   -2.137455    0.080992
      9          1           0       -2.344952   -0.970617    1.247182
     10          1           0       -3.041482   -1.108481   -0.384473
     11          1           0       -0.079080   -0.423512    1.334222
     12          1           0        1.035538   -0.605687   -1.494153
     13          1           0        0.571915   -1.978075   -0.481440
     14          1           0        1.412133    1.516107    0.837398
     15          1           0        0.226171    3.396993   -0.129302
     16          1           0        2.747581   -0.266882   -0.095505
     17          1           0       -1.139694    2.265565   -0.676095
 ---------------------------------------------------------------------

 SCF Done:  E(RHF) =  -344.995805401     A.U. after    2 cycles

 The electronic state is 1-A.
 Alpha  occ. eigenvalues --  -20.57824 -20.57568 -11.29506 -11.28770 -11.28731
 Alpha  occ. eigenvalues --  -11.24187 -11.23191  -1.34951  -1.32935  -1.06948
 Alpha  occ. eigenvalues --   -0.98626  -0.92626  -0.85877  -0.75949  -0.72520
 Alpha  occ. eigenvalues --   -0.68878  -0.67092  -0.65648  -0.61137  -0.60009
 Alpha  occ. eigenvalues --   -0.58473  -0.55931  -0.53768  -0.50003  -0.48911
 Alpha  occ. eigenvalues --   -0.47987  -0.43106  -0.36810
 Alpha virt. eigenvalues --    0.03463   0.04084   0.04824   0.04951   0.05992
 Alpha virt. eigenvalues --    0.06436   0.07092   0.07507   0.08545   0.08827
 Alpha virt. eigenvalues --    0.11209   0.12200   0.13024   0.14333   0.15196

 Mulliken charges:
               1
     1  C    0.700559
     2  O   -0.673226
     3  C    0.314880
     4  C    0.660513
     5  O   -0.532707
     6  C    0.531614
     7  C    0.599582
     8  H   -0.082554
     9  H   -0.090526
    10  H   -0.258187
    11  H   -0.024899
    12  H   -0.025124
    13  H   -0.260754
    14  H   -0.430915
    15  H   -0.325688
    16  H    0.172888
    17  H   -0.275457
 Sum of Mulliken charges =  -0.00000

 Dipole moment (field-independent basis, Debye):
    X=             -0.4161    Y=              0.1823    Z=              0.0360  Tot=              0.4557

 Test job not archived.
 1\1\GINC-SE114\SP\RHF\Aug-CC-pVDZ\C5H10O2\OHZDE\09-Apr-2025\0\\#t hf a
 ug-cc-pvdz iop(5/13=1,5/36=2,99/5=2) pseudo=read geom=check guess=(rea
 d,tcheck) scf=(maxcycle=1)\\title\\0,1\C,0,2.06992345,0.92292771,-0.44
 30931\O,0,0.73863679,0.94950569,0.00691776\C,0,0.01117225,-0.22542803,
 -0.26612994\C,0,0.16942768,-1.19893799,0.91089307\O,0,-0.43865744,-2.4
 509948,0.67310996\C,0,-1.43081048,0.10438036,-0.51451502\C,0,-1.957847
 76,1.314887,-0.43599986\H,0,2.64460405,0.10481918,0.00717441\H,0,2.118
 43575,0.82537055,-1.53451204\H,0,2.52590403,1.86794964,-0.15123438\H,0

 Normal termination of Gaussian 16 at Wed Apr  9 14:58:07 2025.
