 Gaussian 16, Revision C.01,

 ----------------------------------------------------------------------
 #t hf aug-cc-pvdz symm=none int=(grid=ultrafine) guess=(read,tcheck) s
 table=(opt,rrhf)
 ----------------------------------------------------------------------
 -----
 title
 -----
 Symbolic Z-matrix:
 Charge =  0 Multiplicity = 1

 SCF Done:  E(RHF) =  -304.583297504     A.U. after   15 cycles
 Normal termination of Gaussian 16 at Wed Apr  9 14:26:16 2025.
 Gaussian 16:  ES64L-G16RevC.01  3-Jul-2019

 ----------------------------------------------------------------------
 #t hf aug-cc-pvdz iop(5/13=1,5/36=2,99/5=2) pseudo=read geom=check gue
 ss=(read,tcheck) scf=(maxcycle=1)
 ----------------------------------------------------------------------
 -----
 title
 -----
 Structure from the checkpoint file:  "Grambow2020_wb97xd3_006273_forward_mol1.chk"
 Charge =  0 Multiplicity = 1

                         Standard orientation:
 ---------------------------------------------------------------------
 Center     Atomic      Atomic             Coordinates (Angstroms)
 Number     Number       Type             X           Y           Z
 ---------------------------------------------------------------------
      1          8           0        1.519374    0.825914   -0.007714
      2          6           0        1.533070   -0.407531   -0.153223
      3          8           0        0.561873   -1.195001    0.055376
      4          6           0       -0.894192   -0.172888    0.429925
      5          6           0       -2.073516   -0.280142   -0.298498
      6          6           0       -0.568541    1.137433    0.037778
      7          1           0        2.462789   -0.888210   -0.508118
      8          1           0       -0.917907   -0.400406    1.486705
      9          1           0       -2.098819   -0.053385   -1.354381
     10          1           0       -2.963765   -0.711057    0.141912
     11          1           0       -0.576206    1.405899   -1.006862
     12          1           0       -0.536995    1.938630    0.763555
 ---------------------------------------------------------------------

 SCF Done:  E(RHF) =  -304.680131406     A.U. after    2 cycles

 The electronic state is 1-A.
 Alpha  occ. eigenvalues --  -20.56054 -20.54753 -11.37205 -11.34657 -11.32267
 Alpha  occ. eigenvalues --  -11.25980  -1.38412  -1.27993  -1.13679  -0.92482
 Alpha  occ. eigenvalues --   -0.83858  -0.79593  -0.71674  -0.69492  -0.65905
 Alpha  occ. eigenvalues --   -0.62504  -0.60343  -0.59038  -0.55493  -0.51130
 Alpha  occ. eigenvalues --   -0.47830  -0.45645  -0.32155
 Alpha virt. eigenvalues --    0.03280   0.04315   0.04583   0.04981   0.06447
 Alpha virt. eigenvalues --    0.07112   0.08260   0.09822   0.10981   0.11778
 Alpha virt. eigenvalues --    0.13335   0.14069   0.14396   0.15215   0.15698

 Mulliken charges:
               1
     1  O   -0.516685
     2  C    0.639359
     3  O   -0.532367
     4  C    0.726356
     5  C    0.460889
     6  C    0.603882
     7  H   -0.237281
     8  H   -0.232600
     9  H   -0.244510
    10  H   -0.295882
    11  H   -0.153927
    12  H   -0.217234
 Sum of Mulliken charges =   0.00000

 Dipole moment (field-independent basis, Debye):
    X=             -2.2633    Y=              1.1614    Z=              0.0304  Tot=              2.5441

 Test job not archived.
 1\1\GINC-SE057\SP\RHF\Aug-CC-pVDZ\C4H6O2\OHZDE\09-Apr-2025\0\\#t hf au
 g-cc-pvdz iop(5/13=1,5/36=2,99/5=2) pseudo=read geom=check guess=(read
 ,tcheck) scf=(maxcycle=1)\\title\\0,1\O,0,1.51190474,1.12747476,0.7729
 8184\C,0,1.97151817,0.25819224,0.01413338\O,0,1.35439209,-0.76425493,-
 0.41084063\C,0,-0.370427,-0.62741807,0.14719135\C,0,-1.43605187,-0.667
 66355,-0.74484731\C,0,-0.54612159,0.70353473,0.56488112\H,0,3.00945319
 ,0.36804385,-0.34919018\H,0,-0.30139931,-1.39687362,0.90368574\H,0,-1.
 55046516,0.08568755,-1.51056239\H,0,-2.10541119,-1.51806316,-0.7760047

 Normal termination of Gaussian 16 at Wed Apr  9 14:26:20 2025.
