 Gaussian 16, Revision C.01,

 ----------------------------------------------------------------------
 #t hf aug-cc-pvdz symm=none int=(grid=ultrafine) guess=(read,tcheck) s
 table=(opt,rrhf)
 ----------------------------------------------------------------------
 -----
 title
 -----
 Symbolic Z-matrix:
 Charge =  0 Multiplicity = 1

 SCF Done:  E(RHF) =  -305.641299379     A.U. after   15 cycles
 Normal termination of Gaussian 16 at Wed Apr  9 14:24:24 2025.
 Gaussian 16:  ES64L-G16RevC.01  3-Jul-2019

 ----------------------------------------------------------------------
 #t hf aug-cc-pvdz iop(5/13=1,5/36=2,99/5=2) pseudo=read geom=check gue
 ss=(read,tcheck) scf=(maxcycle=1)
 ----------------------------------------------------------------------
 -----
 title
 -----
 Structure from the checkpoint file:  "Grambow2020_wb97xd3_006215_reverse_mol1.chk"
 Charge =  0 Multiplicity = 1

                         Standard orientation:
 ---------------------------------------------------------------------
 Center     Atomic      Atomic             Coordinates (Angstroms)
 Number     Number       Type             X           Y           Z
 ---------------------------------------------------------------------
      1          6           0        1.737478    0.163978    0.303078
      2          8           0        1.107079   -0.442553   -0.608215
      3          6           0       -0.172008   -0.970974   -0.418611
      4          6           0       -0.893642   -0.780273    0.869610
      5          6           0       -1.255543    0.203034   -0.234374
      6          8           0       -0.788218    1.409394   -0.298748
      7          1           0        1.521704   -0.027042    1.343373
      8          1           0        1.007673    1.928148    1.090195
      9          1           0        2.652727    0.648029   -0.009770
     10          1           0       -0.317879   -1.817023   -1.071730
     11          1           0       -0.385707   -0.390149    1.741921
     12          1           0       -1.610677   -1.558467    1.100154
     13          1           0       -2.210694   -0.022390   -0.723148
     14          1           0        0.294255    1.809579    0.666494
 ---------------------------------------------------------------------

 SCF Done:  E(RHF) =  -305.742175458     A.U. after    2 cycles

 The electronic state is 1-A.
 Alpha  occ. eigenvalues --  -20.71330 -20.46036 -11.43872 -11.30210 -11.28422
 Alpha  occ. eigenvalues --  -11.24157  -1.49688  -1.24607  -1.10711  -1.01481
 Alpha  occ. eigenvalues --   -0.86418  -0.81027  -0.77824  -0.72914  -0.71796
 Alpha  occ. eigenvalues --   -0.64426  -0.62190  -0.59412  -0.56289  -0.52654
 Alpha  occ. eigenvalues --   -0.48456  -0.46311  -0.35027  -0.31397
 Alpha virt. eigenvalues --    0.01406   0.03669   0.04007   0.04829   0.05594
 Alpha virt. eigenvalues --    0.06303   0.07262   0.07776   0.10203   0.11064
 Alpha virt. eigenvalues --    0.11608   0.11716   0.13247   0.14047   0.14723

 Mulliken charges:
               1
     1  C    0.793853
     2  O   -0.344966
     3  C    0.729070
     4  C    0.695881
     5  C    0.737783
     6  O   -0.906747
     7  H   -0.083139
     8  H   -0.357054
     9  H   -0.237130
    10  H   -0.493384
    11  H   -0.463397
    12  H   -0.273941
    13  H   -0.327941
    14  H    0.531113
 Sum of Mulliken charges =  -0.00000

 Dipole moment (field-independent basis, Debye):
    X=              4.2457    Y=             -4.5987    Z=              1.8323  Tot=              6.5216

 Test job not archived.
 1\1\GINC-SE057\SP\RHF\Aug-CC-pVDZ\C4H8O2\OHZDE\09-Apr-2025\0\\#t hf au
 g-cc-pvdz iop(5/13=1,5/36=2,99/5=2) pseudo=read geom=check guess=(read
 ,tcheck) scf=(maxcycle=1)\\title\\0,1\C,0,1.26109055,-0.27861912,-1.07
 089844\O,0,0.06766859,-0.63907443,-1.27474183\C,0,-0.85421722,-0.81838
 843,-0.24071298\C,0,-0.48576138,-0.52086416,1.17079458\C,0,-1.23066679
 ,0.58831127,0.44175902\O,0,-0.64753404,1.62832707,-0.06436713\H,0,1.73
 949555,-0.46796178,-0.12193099\H,0,1.67400121,1.56512728,-0.23749023\H
 ,0,1.83047714,-0.03766168,-1.95836562\H,0,-1.58844626,-1.55389336,-0.5

 Normal termination of Gaussian 16 at Wed Apr  9 14:24:28 2025.
