 Gaussian 16, Revision C.01,

 ----------------------------------------------------------------------
 #t hf aug-cc-pvdz symm=none int=(grid=ultrafine) guess=(read,tcheck) s
 table=(opt,rrhf)
 ----------------------------------------------------------------------
 -----
 title
 -----
 Symbolic Z-matrix:
 Charge =  0 Multiplicity = 1

 SCF Done:  E(RHF) =  -353.448889146     A.U. after   18 cycles
 Normal termination of Gaussian 16 at Wed Apr  9 03:46:13 2025.
 Gaussian 16:  ES64L-G16RevC.01  3-Jul-2019

 ----------------------------------------------------------------------
 #t hf aug-cc-pvdz iop(5/13=1,5/36=2,99/5=2) pseudo=read geom=check gue
 ss=(read,tcheck) scf=(maxcycle=1)
 ----------------------------------------------------------------------
 -----
 title
 -----
 Structure from the checkpoint file:  "Grambow2020_wb97xd3_007939_reverse_mol2.chk"
 Charge =  0 Multiplicity = 1

                         Standard orientation:
 ---------------------------------------------------------------------
 Center     Atomic      Atomic             Coordinates (Angstroms)
 Number     Number       Type             X           Y           Z
 ---------------------------------------------------------------------
      1          8           0       -1.678080   -1.094185   -0.340755
      2          6           0       -0.714014   -0.149076   -0.021296
      3          6           0        0.558181   -0.826866    0.289771
      4          7           0        1.675535   -0.235225    0.033266
      5          7           0        2.638647    0.302985   -0.195922
      6          6           0       -0.824275    1.223639   -0.428201
      7          7           0       -1.168682    1.037185    0.768922
      8          1           0       -2.543870   -0.712822   -0.173724
      9          1           0        0.603844   -1.802941    0.744248
     10          1           0       -0.773184    2.048443   -1.130002
 ---------------------------------------------------------------------

 SCF Done:  E(RHF) =  -353.554375464     A.U. after    2 cycles

 The electronic state is 1-A.
 Alpha  occ. eigenvalues --  -20.59992 -15.81082 -15.73383 -15.67205 -11.37345
 Alpha  occ. eigenvalues --  -11.32012 -11.28768  -1.42820  -1.38529  -1.28931
 Alpha  occ. eigenvalues --   -1.13342  -0.90886  -0.82250  -0.76420  -0.72579
 Alpha  occ. eigenvalues --   -0.70469  -0.67247  -0.65332  -0.64900  -0.58852
 Alpha  occ. eigenvalues --   -0.56445  -0.53506  -0.46713  -0.42147  -0.32100
 Alpha virt. eigenvalues --    0.02923   0.03837   0.05072   0.07469   0.08482
 Alpha virt. eigenvalues --    0.09195   0.09749   0.10852   0.11948   0.12498
 Alpha virt. eigenvalues --    0.12895   0.13557   0.14989   0.15675   0.16311

 Mulliken charges:
               1
     1  O   -0.587041
     2  C    0.674922
     3  C    0.732600
     4  N    0.074992
     5  N   -0.444963
     6  C    0.424621
     7  N   -0.599101
     8  H    0.126273
     9  H   -0.235945
    10  H   -0.166359
 Sum of Mulliken charges =  -0.00000

 Dipole moment (field-independent basis, Debye):
    X=             -0.8142    Y=              0.6013    Z=             -1.1730  Tot=              1.5494

 Test job not archived.
 1\1\GINC-SE393\SP\RHF\Aug-CC-pVDZ\C3H3N3O1\OHZDE\09-Apr-2025\0\\#t hf
 aug-cc-pvdz iop(5/13=1,5/36=2,99/5=2) pseudo=read geom=check guess=(re
 ad,tcheck) scf=(maxcycle=1)\\title\\0,1\O,0,1.72427338,-0.42419783,-0.
 45478706\C,0,0.4313746,-0.26892745,0.02376566\C,0,0.09266117,1.1653900
 6,0.07525143\N,0,-1.12966307,1.53887971,-0.10008513\N,0,-2.20464269,1.
 84069404,-0.25210157\C,0,-0.53487741,-1.33007529,-0.02518335\N,0,-0.00
 240759,-1.20279493,1.1091711\H,0,2.06392138,-1.26709367,-0.14318625\H,
 0,0.82462183,1.9314959,0.27190386\H,0,-1.25800358,-1.98028554,-0.50450

 Normal termination of Gaussian 16 at Wed Apr  9 03:46:17 2025.
