 Gaussian 16, Revision C.01,

 ----------------------------------------------------------------------
 #t hf aug-cc-pvdz symm=none int=(grid=ultrafine) guess=(read,tcheck) s
 table=(opt,rrhf)
 ----------------------------------------------------------------------
 -----
 title
 -----
 Symbolic Z-matrix:
 Charge =  0 Multiplicity = 1

 SCF Done:  E(RHF) =  -376.891921633     A.U. after   15 cycles
 Normal termination of Gaussian 16 at Wed Apr  9 03:58:44 2025.
 Gaussian 16:  ES64L-G16RevC.01  3-Jul-2019

 ----------------------------------------------------------------------
 #t hf aug-cc-pvdz iop(5/13=1,5/36=2,99/5=2) pseudo=read geom=check gue
 ss=(read,tcheck) scf=(maxcycle=1)
 ----------------------------------------------------------------------
 -----
 title
 -----
 Structure from the checkpoint file:  "Grambow2020_wb97xd3_008739_reverse_mol2.chk"
 Charge =  0 Multiplicity = 1

                         Standard orientation:
 ---------------------------------------------------------------------
 Center     Atomic      Atomic             Coordinates (Angstroms)
 Number     Number       Type             X           Y           Z
 ---------------------------------------------------------------------
      1          7           0       -2.292428   -0.818406    0.424640
      2          6           0       -1.182439   -0.298445   -0.308951
      3          8           0       -0.240291   -1.312097   -0.399925
      4          7           0       -0.571890    0.857198    0.366240
      5          6           0       -0.637129    1.961981   -0.232220
      6          6           0        2.575245   -0.063838    0.643597
      7          8           0        2.427588   -0.282246   -0.529186
      8          1           0       -1.990937   -1.078649    1.355598
      9          1           0       -3.030352   -0.132381    0.498958
     10          1           0       -1.542850    0.010438   -1.306111
     11          1           0       -0.214736    2.852739    0.229778
     12          1           0       -1.108288    2.081327   -1.216372
     13          1           0        1.736919   -0.145800    1.354879
     14          1           0        3.559050    0.235540    1.045998
     15          1           0        0.608979   -0.938201   -0.680556
 ---------------------------------------------------------------------

 SCF Done:  E(RHF) =  -377.011174924     A.U. after    2 cycles

 The electronic state is 1-A.
 Alpha  occ. eigenvalues --  -20.60119 -20.55879 -15.63547 -15.60535 -11.36015
 Alpha  occ. eigenvalues --  -11.34695 -11.29919  -1.38659  -1.34081  -1.20707
 Alpha  occ. eigenvalues --   -1.13464  -0.89881  -0.87442  -0.81346  -0.74270
 Alpha  occ. eigenvalues --   -0.71418  -0.69091  -0.67813  -0.63983  -0.62636
 Alpha  occ. eigenvalues --   -0.59660  -0.56667  -0.53578  -0.48686  -0.46628
 Alpha  occ. eigenvalues --   -0.46281  -0.41870  -0.38856
 Alpha virt. eigenvalues --    0.02871   0.03628   0.04366   0.04794   0.06193
 Alpha virt. eigenvalues --    0.07154   0.07784   0.08021   0.09194   0.09621
 Alpha virt. eigenvalues --    0.11848   0.12616   0.14703   0.15198   0.15533

 Mulliken charges:
               1
     1  N   -0.330089
     2  C    1.389904
     3  O   -0.495537
     4  N   -0.486952
     5  C    0.534736
     6  C    0.711193
     7  O   -0.407718
     8  H    0.009228
     9  H    0.007143
    10  H   -0.300006
    11  H   -0.289187
    12  H   -0.192807
    13  H   -0.124130
    14  H   -0.179108
    15  H    0.153329
 Sum of Mulliken charges =  -0.00000

 Dipole moment (field-independent basis, Debye):
    X=              0.7772    Y=              3.9320    Z=              1.9487  Tot=              4.4567

 Test job not archived.
 1\1\GINC-SE174\SP\RHF\Aug-CC-pVDZ\C3H8N2O2\OHZDE\09-Apr-2025\0\\#t hf
 aug-cc-pvdz iop(5/13=1,5/36=2,99/5=2) pseudo=read geom=check guess=(re
 ad,tcheck) scf=(maxcycle=1)\\title\\0,1\N,0,2.21549684,0.93209409,-0.1
 3245501\C,0,0.81889224,0.77651893,-0.38912706\O,0,0.14236437,1.550024,
 0.54222131\N,0,0.38767751,-0.62270799,-0.24636131\C,0,-0.03141458,-1.1
 9479462,-1.28560957\C,0,-2.05391307,-0.39274159,1.94805061\O,0,-2.4242
 1683,0.45365094,1.17901263\H,0,2.42811947,0.59572381,0.79864833\H,0,2.
 76642153,0.41352837,-0.80197514\H,0,0.61825621,1.11644173,-1.42054912\

 Normal termination of Gaussian 16 at Wed Apr  9 03:58:49 2025.
