 Gaussian 16, Revision C.01,

 ----------------------------------------------------------------------
 #t hf aug-cc-pvdz symm=none int=(grid=ultrafine) guess=(read,tcheck) s
 table=(opt,rrhf)
 ----------------------------------------------------------------------
 -----
 title
 -----
 Symbolic Z-matrix:
 Charge =  0 Multiplicity = 1

 SCF Done:  E(RHF) =  -322.686242516     A.U. after   13 cycles
 Normal termination of Gaussian 16 at Wed Apr  9 14:52:03 2025.
 Gaussian 16:  ES64L-G16RevC.01  3-Jul-2019

 ----------------------------------------------------------------------
 #t hf aug-cc-pvdz iop(5/13=1,5/36=2,99/5=2) pseudo=read geom=check gue
 ss=(read,tcheck) scf=(maxcycle=1)
 ----------------------------------------------------------------------
 -----
 title
 -----
 Structure from the checkpoint file:  "Grambow2020_wb97xd3_006632_reverse_mol2.chk"
 Charge =  0 Multiplicity = 1

                         Standard orientation:
 ---------------------------------------------------------------------
 Center     Atomic      Atomic             Coordinates (Angstroms)
 Number     Number       Type             X           Y           Z
 ---------------------------------------------------------------------
      1          8           0        3.297280   -0.169020   -0.298313
      2          6           0        2.864409    0.640857    0.348506
      3          6           0       -1.215052    1.276591   -0.210190
      4          6           0       -1.632124   -0.004965   -0.792421
      5          6           0       -0.590699   -1.083159   -0.550812
      6          6           0       -0.714781   -0.711793    0.941984
      7          7           0       -1.805519    0.273765    0.672789
      8          1           0       -0.157890    1.507106   -0.106455
      9          1           0       -1.857173    2.134293   -0.366617
     10          1           0       -2.482960   -0.087289   -1.458200
     11          1           0        0.372699   -0.949228   -1.045700
     12          1           0       -0.957165   -2.087055   -0.757773
     13          1           0        0.159177   -0.265106    1.422831
     14          1           0       -1.086813   -1.522108    1.566499
 ---------------------------------------------------------------------

 SCF Done:  E(RHF) =  -322.784530136     A.U. after    2 cycles

 The electronic state is 1-A.
 Alpha  occ. eigenvalues --  -20.68997 -15.62036 -11.38024 -11.26876 -11.26371
 Alpha  occ. eigenvalues --  -11.26276 -11.24012  -1.50155  -1.27340  -1.00507
 Alpha  occ. eigenvalues --   -0.92730  -0.82975  -0.82527  -0.74636  -0.68984
 Alpha  occ. eigenvalues --   -0.66809  -0.66704  -0.63680  -0.61213  -0.56441
 Alpha  occ. eigenvalues --   -0.55258  -0.54003  -0.48646  -0.45385  -0.42477
 Alpha  occ. eigenvalues --   -0.36692
 Alpha virt. eigenvalues --    0.03663   0.04200   0.04663   0.05388   0.06804
 Alpha virt. eigenvalues --    0.07136   0.07378   0.08360   0.10260   0.10481
 Alpha virt. eigenvalues --    0.11376   0.11936   0.13431   0.13955   0.14190

 Mulliken charges:
               1
     1  O   -0.214709
     2  C    0.202347
     3  C    1.034139
     4  C    0.448738
     5  C    0.464497
     6  C    0.803166
     7  N   -0.936700
     8  H   -0.323048
     9  H   -0.318074
    10  H   -0.370645
    11  H   -0.181640
    12  H   -0.133044
    13  H   -0.241147
    14  H   -0.233880
 Sum of Mulliken charges =  -0.00000

 Dipole moment (field-independent basis, Debye):
    X=              1.2083    Y=             -0.1117    Z=             -0.9053  Tot=              1.5140

 Test job not archived.
 1\1\GINC-SE226\SP\RHF\Aug-CC-pVDZ\C5H7N1O1\OHZDE\09-Apr-2025\0\\#t hf
 aug-cc-pvdz iop(5/13=1,5/36=2,99/5=2) pseudo=read geom=check guess=(re
 ad,tcheck) scf=(maxcycle=1)\\title\\0,1\O,0,1.97352807,0.32886312,3.14
 50768\C,0,1.59062946,1.28587154,2.69878581\C,0,0.29188795,0.93307182,-
 1.24419577\C,0,0.01932061,-0.50677356,-1.33296581\C,0,-0.09697184,-1.1
 3011556,0.04665887\C,0,-1.16134766,-0.04746364,0.32363927\N,0,-1.08531
 137,0.47671025,-1.07384424\H,0,0.82042436,1.33325388,-0.38280596\H,0,0
 .44756049,1.47475926,-2.1687396\H,0,0.08608399,-1.05073904,-2.26763393

 Normal termination of Gaussian 16 at Wed Apr  9 14:52:07 2025.
