 Gaussian 16, Revision C.01,

 ----------------------------------------------------------------------
 #t hf aug-cc-pvdz symm=none int=(grid=ultrafine) guess=(read,tcheck) s
 table=(opt,rrhf)
 ----------------------------------------------------------------------
 -----
 title
 -----
 Symbolic Z-matrix:
 Charge =  0 Multiplicity = 1

 SCF Done:  E(RHF) =  -268.626045327     A.U. after   16 cycles
 Normal termination of Gaussian 16 at Wed Apr  9 14:18:18 2025.
 Gaussian 16:  ES64L-G16RevC.01  3-Jul-2019

 ----------------------------------------------------------------------
 #t hf aug-cc-pvdz iop(5/13=1,5/36=2,99/5=2) pseudo=read geom=check gue
 ss=(read,tcheck) scf=(maxcycle=1)
 ----------------------------------------------------------------------
 -----
 title
 -----
 Structure from the checkpoint file:  "Grambow2020_b97d3_007086_forward_mol1.chk"
 Charge =  0 Multiplicity = 1

                         Standard orientation:
 ---------------------------------------------------------------------
 Center     Atomic      Atomic             Coordinates (Angstroms)
 Number     Number       Type             X           Y           Z
 ---------------------------------------------------------------------
      1          6           0        2.327589   -0.312854    0.018228
      2          6           0        1.091911    0.490006   -0.404278
      3          6           0       -0.124249    0.167788    0.485367
      4          8           0       -1.250936    1.078218    0.056718
      5          6           0       -0.698311   -1.180158    0.192820
      6          6           0       -1.838212   -0.620059   -0.291496
      7          1           0        2.620032   -0.074690    1.050983
      8          1           0        3.179474   -0.081308   -0.635435
      9          1           0        2.124382   -1.390036   -0.036259
     10          1           0        0.828204    0.278994   -1.450385
     11          1           0        1.280579    1.569599   -0.326567
     12          1           0        0.135799    0.347186    1.540566
     13          1           0       -2.206152    0.153561    0.547435
     14          1           0       -2.507200   -0.697389   -1.147931
 ---------------------------------------------------------------------

 SCF Done:  E(RHF) =  -268.704440882     A.U. after    2 cycles

 The electronic state is 1-A.
 Alpha  occ. eigenvalues --  -20.58883 -11.32365 -11.31394 -11.27034 -11.25244
 Alpha  occ. eigenvalues --  -11.23323  -1.30497  -1.07138  -1.03952  -0.92109
 Alpha  occ. eigenvalues --   -0.83042  -0.74283  -0.67799  -0.64507  -0.62122
 Alpha  occ. eigenvalues --   -0.59107  -0.56232  -0.51739  -0.50657  -0.48991
 Alpha  occ. eigenvalues --   -0.47587  -0.42160  -0.37355
 Alpha virt. eigenvalues --    0.03313   0.03781   0.04410   0.04723   0.05884
 Alpha virt. eigenvalues --    0.06505   0.06749   0.07723   0.08832   0.09406
 Alpha virt. eigenvalues --    0.11061   0.12288   0.13968   0.14308   0.14751

 Mulliken charges:
               1
     1  C    0.331030
     2  C    0.028013
     3  C    0.730557
     4  O   -0.950251
     5  C   -0.334826
     6  C    0.444613
     7  H   -0.036543
     8  H   -0.058444
     9  H   -0.037340
    10  H   -0.074324
    11  H   -0.010863
    12  H   -0.225374
    13  H    0.402539
    14  H   -0.208787
 Sum of Mulliken charges =   0.00000

 Dipole moment (field-independent basis, Debye):
    X=             -0.1191    Y=             -0.1166    Z=             -0.3711  Tot=              0.4068

 Test job not archived.
 1\1\GINC-SE026\SP\RHF\Aug-CC-pVDZ\C5H8O1\OHZDE\09-Apr-2025\0\\#t hf au
 g-cc-pvdz iop(5/13=1,5/36=2,99/5=2) pseudo=read geom=check guess=(read
 ,tcheck) scf=(maxcycle=1)\\title\\0,1\C,0,-1.69662485,1.05026035,-0.12
 002151\C,0,-0.93466284,-0.27985786,-0.10604363\C,0,0.50644947,-0.10162
 4,0.4094814\O,0,1.13309158,-1.47427852,0.48148662\C,0,1.38491218,0.578
 50069,-0.58942981\C,0,2.12108625,-0.55238352,-0.75312547\H,0,-1.773436
 5,1.47286655,0.89207127\H,0,-2.715798,0.90639846,-0.50366985\H,0,-1.18
 152082,1.78277202,-0.75458905\H,0,-0.89616313,-0.7182967,-1.11336567\H

 Normal termination of Gaussian 16 at Wed Apr  9 14:18:22 2025.
