 Gaussian 16, Revision C.01,

 ----------------------------------------------------------------------
 #t hf aug-cc-pvdz symm=none int=(grid=ultrafine) guess=(read,tcheck) s
 table=(opt,rrhf)
 ----------------------------------------------------------------------
 -----
 title
 -----
 Symbolic Z-matrix:
 Charge =  0 Multiplicity = 1

 SCF Done:  E(RHF) =  -270.879547047     A.U. after   14 cycles
 Normal termination of Gaussian 16 at Wed Apr  9 03:52:49 2025.
 Gaussian 16:  ES64L-G16RevC.01  3-Jul-2019

 ----------------------------------------------------------------------
 #t hf aug-cc-pvdz iop(5/13=1,5/36=2,99/5=2) pseudo=read geom=check gue
 ss=(read,tcheck) scf=(maxcycle=1)
 ----------------------------------------------------------------------
 -----
 title
 -----
 Structure from the checkpoint file:  "Grambow2020_wb97xd3_008385_reverse_mol2.chk"
 Charge =  0 Multiplicity = 1

                         Standard orientation:
 ---------------------------------------------------------------------
 Center     Atomic      Atomic             Coordinates (Angstroms)
 Number     Number       Type             X           Y           Z
 ---------------------------------------------------------------------
      1          6           0       -2.472338   -0.055734    0.224950
      2          6           0       -1.007382   -0.075699   -0.056917
      3          6           0        1.829500   -0.076543    0.784066
      4          6           0        1.228648    0.734956   -0.322813
      5          6           0       -0.207673    1.205084   -0.169796
      6          6           0        1.202958   -0.773567   -0.395409
      7          6           0       -0.227847   -1.142236   -0.220761
      8          1           0       -3.004528    0.546078   -0.517559
      9          1           0       -2.893868   -1.061203    0.217022
     10          1           0       -2.676673    0.391438    1.201969
     11          1           0        1.307920   -0.132706    1.732559
     12          1           0        2.910027   -0.080390    0.855885
     13          1           0        1.901305    1.303939   -0.950558
     14          1           0       -0.533527    1.786574   -1.039271
     15          1           0       -0.347487    1.848125    0.705875
     16          1           0        1.836186   -1.330742   -1.073966
     17          1           0       -0.574552   -2.168684   -0.191876
 ---------------------------------------------------------------------

 SCF Done:  E(RHF) =  -270.962196970     A.U. after    2 cycles

 The electronic state is 1-A.
 Alpha  occ. eigenvalues --  -11.23241 -11.23221 -11.23140 -11.23031 -11.22870
 Alpha  occ. eigenvalues --  -11.22779 -11.22154  -1.17105  -1.05180  -0.95131
 Alpha  occ. eigenvalues --   -0.93875  -0.80859  -0.76515  -0.71330  -0.68336
 Alpha  occ. eigenvalues --   -0.61471  -0.58450  -0.57917  -0.56026  -0.54581
 Alpha  occ. eigenvalues --   -0.51195  -0.49620  -0.46843  -0.44164  -0.40049
 Alpha  occ. eigenvalues --   -0.32177
 Alpha virt. eigenvalues --    0.03520   0.04070   0.04524   0.04720   0.05994
 Alpha virt. eigenvalues --    0.06297   0.06547   0.07207   0.08456   0.08894
 Alpha virt. eigenvalues --    0.10681   0.12038   0.13251   0.13974   0.14492

 Mulliken charges:
               1
     1  C    0.572366
     2  C   -1.124371
     3  C    0.837936
     4  C    0.721693
     5  C    0.035071
     6  C    0.311330
     7  C    0.579419
     8  H    0.047337
     9  H   -0.112609
    10  H    0.046880
    11  H   -0.357261
    12  H   -0.375279
    13  H   -0.388726
    14  H   -0.022857
    15  H    0.008452
    16  H   -0.376721
    17  H   -0.402661
 Sum of Mulliken charges =  -0.00000

 Dipole moment (field-independent basis, Debye):
    X=             -0.1249    Y=              0.2641    Z=             -0.0287  Tot=              0.2935

 Test job not archived.
 1\1\GINC-SE455\SP\RHF\Aug-CC-pVDZ\C7H10\OHZDE\09-Apr-2025\0\\#t hf aug
 -cc-pvdz iop(5/13=1,5/36=2,99/5=2) pseudo=read geom=check guess=(read,
 tcheck) scf=(maxcycle=1)\\title\\0,1\C,0,2.29307636,0.32796844,-0.5305
 3507\C,0,0.82428379,0.29815362,-0.2703344\C,0,-1.56210184,-0.62802386,
 1.21375146\C,0,-1.43018832,-0.50498898,-0.27359367\C,0,-0.06710087,-0.
 75373799,-0.89614408\C,0,-1.30964372,0.72322327,0.59734609\C,0,0.12247
 021,1.11698805,0.51004242\H,0,2.49832639,0.3845794,-1.60356363\H,0,2.7
 6691357,1.18173923,-0.04548687\H,0,2.77411082,-0.58282334,-0.16264258\

 Normal termination of Gaussian 16 at Wed Apr  9 03:52:55 2025.
