 Gaussian 16, Revision C.01,

 ----------------------------------------------------------------------
 #t hf aug-cc-pvdz symm=none int=(grid=ultrafine) guess=(read,tcheck) s
 table=(opt,rrhf)
 ----------------------------------------------------------------------
 -----
 title
 -----
 Symbolic Z-matrix:
 Charge =  0 Multiplicity = 1

 SCF Done:  E(RHF) =  -232.803835258     A.U. after   16 cycles
 Normal termination of Gaussian 16 at Wed Apr  9 03:07:04 2025.
 Gaussian 16:  ES64L-G16RevC.01  3-Jul-2019

 ----------------------------------------------------------------------
 #t hf aug-cc-pvdz iop(5/13=1,5/36=2,99/5=2) pseudo=read geom=check gue
 ss=(read,tcheck) scf=(maxcycle=1)
 ----------------------------------------------------------------------
 -----
 title
 -----
 Structure from the checkpoint file:  "Grambow2020_b97d3_006591_forward_mol1.chk"
 Charge =  0 Multiplicity = 1

                         Standard orientation:
 ---------------------------------------------------------------------
 Center     Atomic      Atomic             Coordinates (Angstroms)
 Number     Number       Type             X           Y           Z
 ---------------------------------------------------------------------
      1          6           0       -1.334536   -0.013399    0.930741
      2          6           0       -1.532237    0.005796   -0.585446
      3          6           0       -0.052509    0.004126   -0.775034
      4          6           0        0.854862   -1.072032   -0.276202
      5          6           0        1.372656   -0.003445    0.762437
      6          6           0        0.844453    1.079308   -0.257136
      7          1           0       -1.691070   -0.936915    1.395257
      8          1           0       -1.690942    0.897578    1.419684
      9          1           0       -2.016801    0.910355   -0.976078
     10          1           0       -2.027895   -0.881296   -1.000532
     11          1           0        1.660370   -1.253875   -1.006894
     12          1           0        0.401587   -2.026313    0.018358
     13          1           0        2.463196   -0.002753    0.954568
     14          1           0       -0.045307   -0.015407    1.323638
     15          1           0        1.649058    1.284277   -0.982526
     16          1           0        0.381671    2.022224    0.058368
 ---------------------------------------------------------------------

 SCF Done:  E(RHF) =  -232.871867453     A.U. after    2 cycles

 The electronic state is 1-A.
 Alpha  occ. eigenvalues --  -11.31568 -11.25818 -11.24694 -11.24661 -11.21799
 Alpha  occ. eigenvalues --  -11.21201  -1.16525  -1.02718  -0.91340  -0.86541
 Alpha  occ. eigenvalues --   -0.78816  -0.73086  -0.65761  -0.63883  -0.60780
 Alpha  occ. eigenvalues --   -0.54176  -0.54117  -0.53041  -0.48949  -0.48062
 Alpha  occ. eigenvalues --   -0.45394  -0.40761  -0.26197
 Alpha virt. eigenvalues --    0.03395   0.04334   0.04400   0.04536   0.06086
 Alpha virt. eigenvalues --    0.06557   0.06637   0.07148   0.07380   0.08936
 Alpha virt. eigenvalues --    0.08973   0.11226   0.13560   0.13621   0.13780

 Mulliken charges:
               1
     1  C    0.317149
     2  C    0.604001
     3  C   -0.983493
     4  C    0.719819
     5  C   -0.170153
     6  C    0.724769
     7  H   -0.188377
     8  H   -0.185825
     9  H   -0.074464
    10  H   -0.079261
    11  H   -0.117143
    12  H   -0.251307
    13  H   -0.301845
    14  H    0.360363
    15  H   -0.120082
    16  H   -0.254150
 Sum of Mulliken charges =   0.00000

 Dipole moment (field-independent basis, Debye):
    X=             -0.7314    Y=              0.0183    Z=             -2.1186  Tot=              2.2414

 Test job not archived.
 1\1\GINC-SE058\SP\RHF\Aug-CC-pVDZ\C6H10\OHZDE\09-Apr-2025\0\\#t hf aug
 -cc-pvdz iop(5/13=1,5/36=2,99/5=2) pseudo=read geom=check guess=(read,
 tcheck) scf=(maxcycle=1)\\title\\0,1\C,0,-1.09413457,0.36393253,1.0549
 3261\C,0,-1.58510144,0.02501586,-0.35303237\C,0,-0.1758148,-0.20322937
 ,-0.78587934\C,0,0.73280444,-1.22094983,-0.1784858\C,0,1.52033016,0.00
 374439,0.42870912\C,0,0.88020615,0.85099389,-0.73889137\H,0,-1.4171478
 3,-0.36297373,1.80529401\H,0,-1.28104009,1.40478271,1.33362154\H,0,-2.
 07125161,0.85402462,-0.88409262\H,0,-2.21502311,-0.87127213,-0.4221209

 Normal termination of Gaussian 16 at Wed Apr  9 03:07:10 2025.
