 Gaussian 16, Revision C.01,

 ----------------------------------------------------------------------
 #t hf aug-cc-pvdz symm=none int=(grid=ultrafine) guess=(read,tcheck) s
 table=(opt,rrhf)
 ----------------------------------------------------------------------
 -----
 title
 -----
 Symbolic Z-matrix:
 Charge =  0 Multiplicity = 1

 SCF Done:  E(RHF) =  -335.334205892     A.U. after   17 cycles
 Normal termination of Gaussian 16 at Wed Apr  9 13:52:41 2025.
 Gaussian 16:  ES64L-G16RevC.01  3-Jul-2019

 ----------------------------------------------------------------------
 #t hf aug-cc-pvdz iop(5/13=1,5/36=2,99/5=2) pseudo=read geom=check gue
 ss=(read,tcheck) scf=(maxcycle=1)
 ----------------------------------------------------------------------
 -----
 title
 -----
 Structure from the checkpoint file:  "Grambow2020_b97d3_006739_forward_mol1.chk"
 Charge =  0 Multiplicity = 1

                         Standard orientation:
 ---------------------------------------------------------------------
 Center     Atomic      Atomic             Coordinates (Angstroms)
 Number     Number       Type             X           Y           Z
 ---------------------------------------------------------------------
      1          8           0        1.985678   -0.275253    0.102460
      2          6           0        0.829055    0.059959   -0.016797
      3          7           0        0.217615    1.249516   -0.162168
      4          6           0       -1.765695    0.492203    0.159986
      5          7           0       -1.423518   -0.668322    0.009684
      6          8           0       -0.149824   -1.089129   -0.095985
      7          1           0        0.698127    2.026935    0.290041
      8          1           0       -1.323804    1.506795   -0.133594
 ---------------------------------------------------------------------

 SCF Done:  E(RHF) =  -335.436956298     A.U. after    2 cycles

 The electronic state is 1-A.
 Alpha  occ. eigenvalues --  -20.70071 -20.57227 -15.78181 -15.66685 -11.44829
 Alpha  occ. eigenvalues --  -11.40521  -1.48100  -1.37141  -1.22076  -1.18049
 Alpha  occ. eigenvalues --   -0.90404  -0.83924  -0.75871  -0.71471  -0.69586
 Alpha  occ. eigenvalues --   -0.66720  -0.58876  -0.57635  -0.52324  -0.49457
 Alpha  occ. eigenvalues --   -0.45421  -0.41971
 Alpha virt. eigenvalues --   -0.00529   0.02554   0.04909   0.06678   0.07441
 Alpha virt. eigenvalues --    0.09346   0.10385   0.11609   0.12390   0.13428
 Alpha virt. eigenvalues --    0.14470   0.16202   0.16537   0.18065   0.18938

 Mulliken charges:
               1
     1  O   -0.400490
     2  C    0.750613
     3  N   -0.502329
     4  C    0.418099
     5  N    0.095919
     6  O   -0.620741
     7  H    0.015585
     8  H    0.243343
 Sum of Mulliken charges =  -0.00000

 Dipole moment (field-independent basis, Debye):
    X=             -3.9595    Y=              3.5355    Z=              0.5539  Tot=              5.3371

 Test job not archived.
 1\1\GINC-SE054\SP\RHF\Aug-CC-pVDZ\C2H2N2O2\OHZDE\09-Apr-2025\0\\#t hf
 aug-cc-pvdz iop(5/13=1,5/36=2,99/5=2) pseudo=read geom=check guess=(re
 ad,tcheck) scf=(maxcycle=1)\\title\\0,1\O,0,2.21386242,0.18155064,0.14
 701164\C,0,1.01353753,0.02999866,0.12213435\N,0,-0.02055208,0.85075956
 ,-0.13680277\C,0,-1.53050486,-0.51110872,0.55325503\N,0,-0.77116434,-1
 .46499304,0.55227116\O,0,0.55804685,-1.39218707,0.35621555\H,0,0.14204
 525,1.82464832,0.11788563\H,0,-1.53616377,0.51452065,0.04442741\\Versi
 on=ES64L-G16RevC.01\State=1-A\HF=-335.4369563\RMSD=2.527e-03\Dipole=-1

 Normal termination of Gaussian 16 at Wed Apr  9 13:52:44 2025.
