 Gaussian 16, Revision C.01,

 ----------------------------------------------------------------------
 #t hf aug-cc-pvdz symm=none int=(grid=ultrafine) guess=(read,tcheck) s
 table=(opt,rrhf)
 ----------------------------------------------------------------------
 -----
 title
 -----
 Symbolic Z-matrix:
 Charge =  0 Multiplicity = 1

 SCF Done:  E(RHF) =  -306.634099076     A.U. after   14 cycles
 Normal termination of Gaussian 16 at Wed Apr  9 03:58:44 2025.
 Gaussian 16:  ES64L-G16RevC.01  3-Jul-2019

 ----------------------------------------------------------------------
 #t hf aug-cc-pvdz iop(5/13=1,5/36=2,99/5=2) pseudo=read geom=check gue
 ss=(read,tcheck) scf=(maxcycle=1)
 ----------------------------------------------------------------------
 -----
 title
 -----
 Structure from the checkpoint file:  "Grambow2020_wb97xd3_008777_reverse_mol2.chk"
 Charge =  0 Multiplicity = 1

                         Standard orientation:
 ---------------------------------------------------------------------
 Center     Atomic      Atomic             Coordinates (Angstroms)
 Number     Number       Type             X           Y           Z
 ---------------------------------------------------------------------
      1          8           0        0.357353   -1.504352    0.015906
      2          6           0       -0.760438   -0.792032    0.074056
      3          6           0        1.451262   -0.574263    0.240712
      4          6           0        1.215587    0.741925   -0.501782
      5          6           0        0.022329    1.541147    0.077035
      6          6           0       -1.055743    0.561967    0.545617
      7          6           0       -1.850656   -0.324469   -0.427839
      8          1           0        1.549191   -0.408938    1.318730
      9          1           0        2.338701   -1.090390   -0.121027
     10          1           0        2.132101    1.335743   -0.464467
     11          1           0        1.042295    0.504375   -1.555363
     12          1           0        0.365097    2.118986    0.939785
     13          1           0       -0.342081    2.260705   -0.661316
     14          1           0       -1.455574    0.733125    1.544826
     15          1           0       -2.622599   -0.344435   -1.175216
 ---------------------------------------------------------------------

 SCF Done:  E(RHF) =  -306.729983016     A.U. after    2 cycles

 The electronic state is 1-A.
 Alpha  occ. eigenvalues --  -20.60999 -11.30562 -11.30362 -11.24568 -11.24154
 Alpha  occ. eigenvalues --  -11.23774 -11.23232  -1.38497  -1.15808  -1.05900
 Alpha  occ. eigenvalues --   -0.93989  -0.86894  -0.78415  -0.73348  -0.69647
 Alpha  occ. eigenvalues --   -0.68498  -0.65913  -0.60590  -0.58717  -0.53925
 Alpha  occ. eigenvalues --   -0.53335  -0.50089  -0.49619  -0.45581  -0.40064
 Alpha  occ. eigenvalues --   -0.33454
 Alpha virt. eigenvalues --    0.03394   0.04136   0.04481   0.04845   0.06305
 Alpha virt. eigenvalues --    0.06835   0.06943   0.07336   0.08914   0.12103
 Alpha virt. eigenvalues --    0.12884   0.13017   0.13790   0.13948   0.14717

 Mulliken charges:
               1
     1  O   -0.670366
     2  C    0.007163
     3  C    0.868575
     4  C    0.002317
     5  C    0.117389
     6  C    0.480287
     7  C    0.482864
     8  H   -0.117676
     9  H   -0.203563
    10  H   -0.069309
    11  H   -0.068031
    12  H   -0.112689
    13  H   -0.073411
    14  H   -0.291142
    15  H   -0.352408
 Sum of Mulliken charges =  -0.00000

 Dipole moment (field-independent basis, Debye):
    X=              1.3577    Y=              1.5885    Z=             -0.1067  Tot=              2.0924

 Test job not archived.
 1\1\GINC-SE457\SP\RHF\Aug-CC-pVDZ\C6H8O1\OHZDE\09-Apr-2025\0\\#t hf au
 g-cc-pvdz iop(5/13=1,5/36=2,99/5=2) pseudo=read geom=check guess=(read
 ,tcheck) scf=(maxcycle=1)\\title\\0,1\O,0,0.05290249,-1.83627556,0.120
 99964\C,0,1.06478074,-0.97843057,0.0999851\C,0,-1.12797772,-1.09107097
 ,-0.2820287\C,0,-1.14755848,0.29739679,0.35903516\C,0,-0.02055231,1.21
 255445,-0.17947576\C,0,1.2211466,0.36443483,-0.46139743\C,0,2.02602258
 ,-0.32390265,0.65378706\H,0,-1.13820838,-1.02302475,-1.37487384\H,0,-1
 .9697567,-1.69961803,0.04334799\H,0,-2.12719234,0.7501069,0.18762537\H

 Normal termination of Gaussian 16 at Wed Apr  9 03:58:50 2025.
