 Gaussian 16, Revision C.01,

 ----------------------------------------------------------------------
 #t hf aug-cc-pvdz symm=none int=(grid=ultrafine) guess=(read,tcheck) s
 table=(opt,rrhf)
 ----------------------------------------------------------------------
 -----
 title
 -----
 Symbolic Z-matrix:
 Charge =  0 Multiplicity = 1

 SCF Done:  E(RHF) =  -358.588506217     A.U. after   14 cycles
 Normal termination of Gaussian 16 at Wed Apr  9 03:51:43 2025.
 Gaussian 16:  ES64L-G16RevC.01  3-Jul-2019

 ----------------------------------------------------------------------
 #t hf aug-cc-pvdz iop(5/13=1,5/36=2,99/5=2) pseudo=read geom=check gue
 ss=(read,tcheck) scf=(maxcycle=1)
 ----------------------------------------------------------------------
 -----
 title
 -----
 Structure from the checkpoint file:  "Grambow2020_wb97xd3_008316_forward_mol2.chk"
 Charge =  0 Multiplicity = 1

                         Standard orientation:
 ---------------------------------------------------------------------
 Center     Atomic      Atomic             Coordinates (Angstroms)
 Number     Number       Type             X           Y           Z
 ---------------------------------------------------------------------
      1          6           0        2.150086   -0.161918    0.000948
      2          6           0        0.672619   -0.219539   -0.001784
      3          6           0       -0.320318    0.695201   -0.000635
      4          8           0       -0.203915    2.035481   -0.000448
      5          7           0       -1.546859    0.074670    0.001174
      6          6           0       -1.255891   -1.180041    0.000762
      7          8           0        0.050275   -1.447590   -0.001029
      8          1           0        2.568986   -0.638657    0.889936
      9          1           0        2.573506   -0.653220   -0.877776
     10          1           0        2.462848    0.881479   -0.005562
     11          1           0       -1.092695    2.400458    0.000855
     12          1           0       -1.934482   -2.018095    0.000389
 ---------------------------------------------------------------------

 SCF Done:  E(RHF) =  -358.701145908     A.U. after    2 cycles

 The electronic state is 1-A.
 Alpha  occ. eigenvalues --  -20.65198 -20.60981 -15.63587 -11.35375 -11.32870
 Alpha  occ. eigenvalues --  -11.29240 -11.24670  -1.45736  -1.38074  -1.20794
 Alpha  occ. eigenvalues --   -1.06332  -0.95273  -0.86628  -0.81144  -0.76382
 Alpha  occ. eigenvalues --   -0.70005  -0.69102  -0.63647  -0.60253  -0.59689
 Alpha  occ. eigenvalues --   -0.57496  -0.56992  -0.55411  -0.46965  -0.44951
 Alpha  occ. eigenvalues --   -0.32123
 Alpha virt. eigenvalues --    0.03487   0.03978   0.04476   0.05875   0.06911
 Alpha virt. eigenvalues --    0.09084   0.09125   0.10090   0.11905   0.12921
 Alpha virt. eigenvalues --    0.13749   0.14349   0.15200   0.15355   0.15960

 Mulliken charges:
               1
     1  C    0.301379
     2  C   -0.049549
     3  C    0.661556
     4  O   -0.512212
     5  N   -0.534675
     6  C    0.690393
     7  O   -0.591653
     8  H    0.069280
     9  H    0.065843
    10  H    0.016404
    11  H    0.131453
    12  H   -0.248218
 Sum of Mulliken charges =  -0.00000

 Dipole moment (field-independent basis, Debye):
    X=             -0.0038    Y=             -0.6508    Z=              0.0041  Tot=              0.6508

 Test job not archived.
 1\1\GINC-SE109\SP\RHF\Aug-CC-pVDZ\C4H5N1O2\OHZDE\09-Apr-2025\0\\#t hf
 aug-cc-pvdz iop(5/13=1,5/36=2,99/5=2) pseudo=read geom=check guess=(re
 ad,tcheck) scf=(maxcycle=1)\\title\\0,1\C,0,-1.70516348,-0.60432193,0.
 16629719\C,0,-0.26567508,-0.27839806,0.07751138\C,0,0.45715927,0.86157
 374,0.05201815\O,0,0.00139862,2.12596789,0.11109065\N,0,1.7986762,0.57
 911812,-0.04807086\C,0,1.83974528,-0.70786228,-0.07897143\O,0,0.649071
 59,-1.30369267,-0.00869434\H,0,-2.0476884,-1.15333204,-0.71365741\H,0,
 -1.92737172,-1.20760487,1.04918541\H,0,-2.27369898,0.3224708,0.2323443

 Normal termination of Gaussian 16 at Wed Apr  9 03:51:51 2025.
