 Gaussian 16, Revision C.01,

 ----------------------------------------------------------------------
 #t hf aug-cc-pvdz symm=none int=(grid=ultrafine) guess=(read,tcheck) s
 table=(opt,rrhf)
 ----------------------------------------------------------------------
 -----
 title
 -----
 Symbolic Z-matrix:
 Charge =  0 Multiplicity = 1

 SCF Done:  E(RHF) =  -381.699922286     A.U. after   15 cycles

 1\1\GINC-SE114\Stability\RHF\Aug-CC-pVDZ\C4H10O3\OHZDE\09-Apr-2025\0\\
 #t hf aug-cc-pvdz symm=none int=(grid=ultrafine) guess=(read,tcheck) s
 table=(opt,rrhf)\\title\\0,1\C,0,1.75003024,0.85325582,-0.19551245\O,0
 ,1.10773329,-0.39096594,0.00581325\C,0,0.58664943,-1.07710824,-1.21369
 825\C,0,-0.61417704,-0.70897832,0.5479459\O,0,-0.48867626,-0.00507454,
 1.71931119\C,0,-1.7804604,-0.10496855,-0.19969446\O,0,-1.55681124,1.23
 821933,-0.55230642\H,0,2.03932644,1.26237545,0.77501942\H,0,1.08938368
 ,1.55003591,-0.7158888\H,0,2.63975127,0.6699564,-0.80703004\H,0,0.3479

 Normal termination of Gaussian 16 at Wed Apr  9 16:48:52 2025.
 Gaussian 16:  ES64L-G16RevC.01  3-Jul-2019

 ----------------------------------------------------------------------
 #t hf aug-cc-pvdz iop(5/13=1,5/36=2,99/5=2) pseudo=read geom=check gue
 ss=(read,tcheck) scf=(maxcycle=1)
 ----------------------------------------------------------------------
 -----
 title
 -----
 Structure from the checkpoint file:  "Grambow2020_wb97xd3_008926_forward_mol1.chk"
 Charge =  0 Multiplicity = 1

                         Standard orientation:
 ---------------------------------------------------------------------
 Center     Atomic      Atomic             Coordinates (Angstroms)
 Number     Number       Type             X           Y           Z
 ---------------------------------------------------------------------
      1          6           0       -1.780444    0.085007    1.031799
      2          8           0       -1.240497    0.229629   -0.267704
      3          6           0       -1.029412   -1.027376   -1.045463
      4          6           0        0.511589    0.462877   -0.753302
      5          8           0        0.679759    1.599214   -0.002447
      6          6           0        1.571649   -0.516158   -0.304109
      7          8           0        1.422319   -0.891146    1.043330
      8          1           0       -1.839711    1.069518    1.501084
      9          1           0       -1.162409   -0.583101    1.635465
     10          1           0       -2.782988   -0.342776    0.926625
     11          1           0       -0.854030   -1.826454   -0.317924
     12          1           0       -1.959293   -1.230664   -1.588442
     13          1           0        0.404829    0.629765   -1.814255
     14          1           0        0.077501    2.279308   -0.313854
     15          1           0        2.537196   -0.009628   -0.458942
     16          1           0        1.527518   -1.412168   -0.909935
     17          1           0        1.518444   -0.101481    1.581195
 ---------------------------------------------------------------------

 SCF Done:  E(RHF) =  -381.822183938     A.U. after    2 cycles

 The electronic state is 1-A.
 Alpha  occ. eigenvalues --  -20.62774 -20.59611 -20.58845 -11.41489 -11.30953
 Alpha  occ. eigenvalues --  -11.28203 -11.18789  -1.40607  -1.34129  -1.33117
 Alpha  occ. eigenvalues --   -1.03067  -0.94690  -0.86687  -0.82494  -0.78493
 Alpha  occ. eigenvalues --   -0.72770  -0.69847  -0.66103  -0.64250  -0.62564
 Alpha  occ. eigenvalues --   -0.62340  -0.59969  -0.56383  -0.53115  -0.52338
 Alpha  occ. eigenvalues --   -0.49301  -0.48242  -0.43888  -0.26438
 Alpha virt. eigenvalues --    0.02729   0.04321   0.04511   0.05117   0.06242
 Alpha virt. eigenvalues --    0.06473   0.06619   0.07209   0.09317   0.09845
 Alpha virt. eigenvalues --    0.10673   0.12293   0.13081   0.13302   0.13904

 Mulliken charges:
               1
     1  C    0.777796
     2  O   -0.716951
     3  C    0.413569
     4  C    0.936634
     5  O   -0.595494
     6  C    0.886640
     7  O   -0.517812
     8  H   -0.269509
     9  H   -0.052845
    10  H   -0.149007
    11  H   -0.239034
    12  H   -0.390780
    13  H   -0.234516
    14  H    0.184029
    15  H   -0.042737
    16  H   -0.166777
    17  H    0.176793
 Sum of Mulliken charges =  -0.00000

 Dipole moment (field-independent basis, Debye):
    X=              1.1590    Y=              3.5783    Z=              0.7011  Tot=              3.8261

 Test job not archived.
 1\1\GINC-SE114\SP\RHF\Aug-CC-pVDZ\C4H10O3\OHZDE\09-Apr-2025\0\\#t hf a
 ug-cc-pvdz iop(5/13=1,5/36=2,99/5=2) pseudo=read geom=check guess=(rea
 d,tcheck) scf=(maxcycle=1)\\title\\0,1\C,0,1.75003024,0.85325582,-0.19
 551245\O,0,1.10773329,-0.39096594,0.00581325\C,0,0.58664943,-1.0771082
 4,-1.21369825\C,0,-0.61417704,-0.70897832,0.5479459\O,0,-0.48867626,-0
 .00507454,1.71931119\C,0,-1.7804604,-0.10496855,-0.19969446\O,0,-1.556
 81124,1.23821933,-0.55230642\H,0,2.03932644,1.26237545,0.77501942\H,0,
 1.08938368,1.55003591,-0.7158888\H,0,2.63975127,0.6699564,-0.80703004\

 Normal termination of Gaussian 16 at Wed Apr  9 16:48:59 2025.
