 Gaussian 16, Revision C.01,

 ----------------------------------------------------------------------
 #t hf aug-cc-pvdz symm=none int=(grid=ultrafine) guess=(read,tcheck) s
 table=(opt,rrhf)
 ----------------------------------------------------------------------
 -----
 title
 -----
 Symbolic Z-matrix:
 Charge =  0 Multiplicity = 1

 SCF Done:  E(RHF) =  -343.634907068     A.U. after   15 cycles
 Normal termination of Gaussian 16 at Wed Apr  9 15:07:00 2025.
 Gaussian 16:  ES64L-G16RevC.01  3-Jul-2019

 ----------------------------------------------------------------------
 #t hf aug-cc-pvdz iop(5/13=1,5/36=2,99/5=2) pseudo=read geom=check gue
 ss=(read,tcheck) scf=(maxcycle=1)
 ----------------------------------------------------------------------
 -----
 title
 -----
 Structure from the checkpoint file:  "Grambow2020_wb97xd3_006677_forward_mol1.chk"
 Charge =  0 Multiplicity = 1

                         Standard orientation:
 ---------------------------------------------------------------------
 Center     Atomic      Atomic             Coordinates (Angstroms)
 Number     Number       Type             X           Y           Z
 ---------------------------------------------------------------------
      1          6           0       -2.206095    0.437637   -0.014804
      2          6           0       -0.837471   -0.156068   -0.005509
      3          8           0       -0.755260   -1.530224   -0.054659
      4          6           0        1.714460   -0.514101   -0.677950
      5          6           0        1.702785   -0.441734    0.688626
      6          6           0        0.257343    0.646401    0.025813
      7          8           0        0.540795    1.824237   -0.014527
      8          1           0       -2.749103    0.140464   -0.916769
      9          1           0       -2.790860    0.103512    0.850789
     10          1           0       -2.145312    1.523602    0.017206
     11          1           0       -1.463509   -1.894366    0.481483
     12          1           0        1.306977   -1.373477   -1.191092
     13          1           0        2.221398    0.238078   -1.266932
     14          1           0        1.305683   -1.259610    1.273640
     15          1           0        2.244316    0.336887    1.208099
 ---------------------------------------------------------------------

 SCF Done:  E(RHF) =  -343.743073181     A.U. after    2 cycles

 The electronic state is 1-A.
 Alpha  occ. eigenvalues --  -20.60673 -20.51094 -11.33977 -11.29863 -11.29307
 Alpha  occ. eigenvalues --  -11.28783 -11.23989  -1.36786  -1.31585  -1.09564
 Alpha  occ. eigenvalues --   -1.03148  -0.91696  -0.83984  -0.75945  -0.70748
 Alpha  occ. eigenvalues --   -0.68136  -0.64261  -0.63003  -0.62283  -0.58134
 Alpha  occ. eigenvalues --   -0.56619  -0.55148  -0.53582  -0.53224  -0.52121
 Alpha  occ. eigenvalues --   -0.38537  -0.29276
 Alpha virt. eigenvalues --    0.02865   0.04138   0.04597   0.05062   0.05858
 Alpha virt. eigenvalues --    0.06517   0.07340   0.07921   0.08983   0.09426
 Alpha virt. eigenvalues --    0.11626   0.12857   0.13711   0.13956   0.14386

 Mulliken charges:
               1
     1  C    0.450218
     2  C   -0.012642
     3  O   -0.611681
     4  C    0.782443
     5  C    0.794149
     6  C    0.107349
     7  O   -0.634566
     8  H    0.031517
     9  H   -0.021273
    10  H   -0.129419
    11  H    0.158141
    12  H   -0.237402
    13  H   -0.224893
    14  H   -0.228778
    15  H   -0.223164
 Sum of Mulliken charges =   0.00000

 Dipole moment (field-independent basis, Debye):
    X=             -0.4357    Y=             -4.1758    Z=              0.8492  Tot=              4.2835

 Test job not archived.
 1\1\GINC-SE114\SP\RHF\Aug-CC-pVDZ\C5H8O2\OHZDE\09-Apr-2025\0\\#t hf au
 g-cc-pvdz iop(5/13=1,5/36=2,99/5=2) pseudo=read geom=check guess=(read
 ,tcheck) scf=(maxcycle=1)\\title\\0,1\C,0,-1.93775964,-0.47184019,-0.8
 6097601\C,0,-0.68772284,0.06288241,-0.24682308\O,0,-0.66725525,1.40748
 475,0.05168245\C,0,1.39683978,0.21116659,1.40403303\C,0,1.9151555,0.35
 794488,0.14597581\C,0,0.35526911,-0.76569781,0.01619179\O,0,0.63230337
 ,-1.94490117,-0.02855105\H,0,-2.79434132,-0.30157727,-0.20219687\H,0,-
 2.15198126,0.01807839,-1.81854007\H,0,-1.84059981,-1.54035587,-1.04228

 Normal termination of Gaussian 16 at Wed Apr  9 15:07:05 2025.
