 Gaussian 16, Revision C.01,

 ----------------------------------------------------------------------
 #t hf aug-cc-pvdz symm=none int=(grid=ultrafine) guess=(read,tcheck) s
 table=(opt,rrhf)
 ----------------------------------------------------------------------
 -----
 title
 -----
 Symbolic Z-matrix:
 Charge =  0 Multiplicity = 1

 SCF Done:  E(RHF) =  -359.637101937     A.U. after   15 cycles
 Normal termination of Gaussian 16 at Wed Apr  9 03:51:39 2025.
 Gaussian 16:  ES64L-G16RevC.01  3-Jul-2019

 ----------------------------------------------------------------------
 #t hf aug-cc-pvdz iop(5/13=1,5/36=2,99/5=2) pseudo=read geom=check gue
 ss=(read,tcheck) scf=(maxcycle=1)
 ----------------------------------------------------------------------
 -----
 title
 -----
 Structure from the checkpoint file:  "Grambow2020_wb97xd3_008270_forward_mol1.chk"
 Charge =  0 Multiplicity = 1

                         Standard orientation:
 ---------------------------------------------------------------------
 Center     Atomic      Atomic             Coordinates (Angstroms)
 Number     Number       Type             X           Y           Z
 ---------------------------------------------------------------------
      1          6           0        1.839083   -0.879995   -0.531845
      2          6           0        1.161585    0.115342    0.387529
      3          6           0        0.459819    1.290608   -0.400022
      4          7           0       -0.972838    1.149488   -0.037798
      5          6           0       -1.275724   -0.131053   -0.106494
      6          8           0       -1.979381   -1.000882   -0.378012
      7          8           0        0.105415   -0.463599    1.111338
      8          1           0        1.125062   -1.293487   -1.249530
      9          1           0        2.256555   -1.706607    0.043065
     10          1           0        2.646820   -0.400529   -1.090288
     11          1           0        1.888598    0.530648    1.092626
     12          1           0        0.594323    1.193743   -1.477680
     13          1           0        0.781839    2.281815   -0.089761
     14          1           0       -0.600190    0.694442    1.074544
 ---------------------------------------------------------------------

 SCF Done:  E(RHF) =  -359.746299917     A.U. after    2 cycles

 The electronic state is 1-A.
 Alpha  occ. eigenvalues --  -20.65683 -20.56371 -15.66880 -11.47400 -11.30253
 Alpha  occ. eigenvalues --  -11.30016 -11.23601  -1.47379  -1.34838  -1.22306
 Alpha  occ. eigenvalues --   -1.04016  -0.95273  -0.81257  -0.79015  -0.75189
 Alpha  occ. eigenvalues --   -0.72250  -0.69264  -0.64418  -0.63667  -0.59500
 Alpha  occ. eigenvalues --   -0.57128  -0.55100  -0.54018  -0.52281  -0.46180
 Alpha  occ. eigenvalues --   -0.43857  -0.42479
 Alpha virt. eigenvalues --    0.02905   0.04216   0.04640   0.05212   0.06648
 Alpha virt. eigenvalues --    0.06904   0.07555   0.09292   0.10412   0.11425
 Alpha virt. eigenvalues --    0.12788   0.13628   0.14123   0.14211   0.14326

 Mulliken charges:
               1
     1  C    0.342427
     2  C    0.339431
     3  C    0.848363
     4  N   -0.729951
     5  C    0.247428
     6  O   -0.192483
     7  O   -1.036499
     8  H   -0.058368
     9  H   -0.057390
    10  H    0.003779
    11  H   -0.224031
    12  H   -0.250378
    13  H   -0.176971
    14  H    0.944642
 Sum of Mulliken charges =   0.00000

 Dipole moment (field-independent basis, Debye):
    X=              2.3809    Y=              2.1188    Z=             -1.1318  Tot=              3.3822

 Test job not archived.
 1\1\GINC-SE219\SP\RHF\Aug-CC-pVDZ\C4H7N1O2\OHZDE\09-Apr-2025\0\\#t hf
 aug-cc-pvdz iop(5/13=1,5/36=2,99/5=2) pseudo=read geom=check guess=(re
 ad,tcheck) scf=(maxcycle=1)\\title\\0,1\C,0,-1.37159328,-0.92339862,0.
 0518444\C,0,-0.34645406,-0.09656678,-0.69674528\C,0,0.04561574,1.22658
 121,0.07106015\N,0,1.49859651,1.0653305,0.32888004\C,0,1.69363784,-0.1
 696802,0.74475584\O,0,2.19696531,-0.95094092,1.42427794\O,0,0.88108745
 ,-0.76708172,-0.83135272\H,0,-1.01181927,-1.17290922,1.05393291\H,0,-1
 .5691491,-1.85555399,-0.47744769\H,0,-2.31065745,-0.37364967,0.1524418

 Normal termination of Gaussian 16 at Wed Apr  9 03:51:45 2025.
