 Gaussian 16, Revision C.01,

 ----------------------------------------------------------------------
 #t hf aug-cc-pvdz symm=none int=(grid=ultrafine) guess=(read,tcheck) s
 table=(opt,rrhf)
 ----------------------------------------------------------------------
 -----
 title
 -----
 Symbolic Z-matrix:
 Charge =  0 Multiplicity = 1

 SCF Done:  E(RHF) =  -304.547636660     A.U. after   15 cycles
 Normal termination of Gaussian 16 at Wed Apr  9 14:26:14 2025.
 Gaussian 16:  ES64L-G16RevC.01  3-Jul-2019

 ----------------------------------------------------------------------
 #t hf aug-cc-pvdz iop(5/13=1,5/36=2,99/5=2) pseudo=read geom=check gue
 ss=(read,tcheck) scf=(maxcycle=1)
 ----------------------------------------------------------------------
 -----
 title
 -----
 Structure from the checkpoint file:  "Grambow2020_wb97xd3_006268_reverse_mol1.chk"
 Charge =  0 Multiplicity = 1

                         Standard orientation:
 ---------------------------------------------------------------------
 Center     Atomic      Atomic             Coordinates (Angstroms)
 Number     Number       Type             X           Y           Z
 ---------------------------------------------------------------------
      1          8           0        1.944783    0.687065    0.238544
      2          6           0        1.630941   -0.459860   -0.251159
      3          8           0        0.396740   -0.881231   -0.180442
      4          6           0       -0.560921   -0.020467    0.440432
      5          6           0       -1.974493   -0.374010    0.164715
      6          6           0       -1.367315    0.864864   -0.441898
      7          1           0        2.786933   -0.020246   -0.274884
      8          1           0       -0.260821    0.322051    1.420388
      9          1           0       -2.145226   -1.214491   -0.494595
     10          1           0       -2.688665   -0.269298    0.969996
     11          1           0       -1.143143    0.836419   -1.499670
     12          1           0       -1.650532    1.835724   -0.058585
 ---------------------------------------------------------------------

 SCF Done:  E(RHF) =  -304.646961035     A.U. after    2 cycles

 The electronic state is 1-A.
 Alpha  occ. eigenvalues --  -20.63708 -20.60429 -11.37895 -11.31184 -11.24961
 Alpha  occ. eigenvalues --  -11.24864  -1.44648  -1.36046  -1.15238  -0.90092
 Alpha  occ. eigenvalues --   -0.84451  -0.79429  -0.76961  -0.71173  -0.69186
 Alpha  occ. eigenvalues --   -0.63671  -0.60810  -0.57054  -0.53513  -0.53159
 Alpha  occ. eigenvalues --   -0.45024  -0.43549  -0.38996
 Alpha virt. eigenvalues --    0.03706   0.04572   0.04729   0.05081   0.06503
 Alpha virt. eigenvalues --    0.07046   0.09467   0.09931   0.10996   0.12690
 Alpha virt. eigenvalues --    0.13573   0.14146   0.14802   0.15236   0.15912

 Mulliken charges:
               1
     1  O   -0.550298
     2  C    0.079913
     3  O   -0.514141
     4  C    0.918586
     5  C    0.753993
     6  C    0.430577
     7  H    0.433679
     8  H   -0.376411
     9  H   -0.294777
    10  H   -0.312577
    11  H   -0.291934
    12  H   -0.276611
 Sum of Mulliken charges =  -0.00000

 Dipole moment (field-independent basis, Debye):
    X=             -1.2754    Y=              0.2604    Z=              0.1825  Tot=              1.3144

 Test job not archived.
 1\1\GINC-SE037\SP\RHF\Aug-CC-pVDZ\C4H6O2\OHZDE\09-Apr-2025\0\\#t hf au
 g-cc-pvdz iop(5/13=1,5/36=2,99/5=2) pseudo=read geom=check guess=(read
 ,tcheck) scf=(maxcycle=1)\\title\\0,1\O,0,2.22899068,0.1952399,0.99303
 5\C,0,2.12522464,-0.03246518,-0.2683632\O,0,0.96792125,-0.36143874,-0.
 7765278\C,0,-0.14683638,-0.44051015,0.11486373\C,0,-1.46981961,-0.4482
 9533,-0.55510122\C,0,-1.02244708,0.75615681,0.23268413\H,0,3.19967502,
 0.26468403,0.26773327\H,0,0.03572594,-1.06335825,0.97882154\H,0,-1.468
 68861,-0.36193639,-1.63342786\H,0,-2.24039911,-1.0874223,-0.1461902\H,

 Normal termination of Gaussian 16 at Wed Apr  9 14:26:18 2025.
