 Gaussian 16, Revision C.01,

 ----------------------------------------------------------------------
 #t hf aug-cc-pvdz symm=none int=(grid=ultrafine) guess=(read,tcheck) s
 table=(opt,rrhf)
 ----------------------------------------------------------------------
 -----
 title
 -----
 Symbolic Z-matrix:
 Charge =  0 Multiplicity = 1

 SCF Done:  E(RHF) =  -302.087466366     A.U. after   17 cycles
 Normal termination of Gaussian 16 at Wed Apr  9 03:09:09 2025.
 Gaussian 16:  ES64L-G16RevC.01  3-Jul-2019

 ----------------------------------------------------------------------
 #t hf aug-cc-pvdz iop(5/13=1,5/36=2,99/5=2) pseudo=read geom=check gue
 ss=(read,tcheck) scf=(maxcycle=1)
 ----------------------------------------------------------------------
 -----
 title
 -----
 Structure from the checkpoint file:  "Grambow2020_b97d3_006713_forward_mol1.chk"
 Charge =  0 Multiplicity = 1

                         Standard orientation:
 ---------------------------------------------------------------------
 Center     Atomic      Atomic             Coordinates (Angstroms)
 Number     Number       Type             X           Y           Z
 ---------------------------------------------------------------------
      1          8           0       -1.849548   -0.669441   -0.094009
      2          6           0       -1.279632    0.392028   -0.150983
      3          6           0        0.472964    0.567932   -0.528170
      4          6           0        0.257912    0.767420    0.839451
      5          6           0        1.012294   -0.442747    0.656231
      6          8           0        1.635152   -0.284618   -0.577018
      7          1           0       -1.705465    1.379250   -0.388922
      8          1           0        0.639411   -1.454578    0.857959
 ---------------------------------------------------------------------

 SCF Done:  E(RHF) =  -302.177543949     A.U. after    2 cycles

 The electronic state is 1-A.
 Alpha  occ. eigenvalues --  -20.69593 -20.59991 -11.42885 -11.41308 -11.37489
 Alpha  occ. eigenvalues --  -11.29941  -1.48376  -1.38983  -1.15479  -0.92993
 Alpha  occ. eigenvalues --   -0.85989  -0.75724  -0.74221  -0.69821  -0.68647
 Alpha  occ. eigenvalues --   -0.61610  -0.59642  -0.56169  -0.46366  -0.42457
 Alpha  occ. eigenvalues --   -0.40736
 Alpha virt. eigenvalues --    0.01030   0.03783   0.04670   0.05990   0.07218
 Alpha virt. eigenvalues --    0.07720   0.09670   0.09968   0.10844   0.12346
 Alpha virt. eigenvalues --    0.13456   0.14942   0.14973   0.15324   0.15843

 Mulliken charges:
               1
     1  O   -0.519422
     2  C    0.558795
     3  C    0.351953
     4  C   -0.281580
     5  C    0.727298
     6  O   -0.615682
     7  H   -0.063983
     8  H   -0.157380
 Sum of Mulliken charges =  -0.00000

 Dipole moment (field-independent basis, Debye):
    X=              1.1120    Y=              0.5462    Z=              0.5480  Tot=              1.3547

 Test job not archived.
 1\1\GINC-SE044\SP\RHF\Aug-CC-pVDZ\C4H2O2\OHZDE\09-Apr-2025\0\\#t hf au
 g-cc-pvdz iop(5/13=1,5/36=2,99/5=2) pseudo=read geom=check guess=(read
 ,tcheck) scf=(maxcycle=1)\\title\\0,1\O,0,-1.37091976,0.49532721,1.127
 92738\C,0,-1.22454499,-0.1450403,0.11635933\C,0,0.34251328,-0.87729034
 ,-0.38657568\C,0,0.08002203,0.26080507,-1.15616449\C,0,1.22007055,0.51
 567251,-0.31801431\O,0,1.73416415,-0.74444228,-0.03222143\H,0,-1.98075
 917,-0.72495177,-0.435365\H,0,1.24045292,1.2228589,0.52044321\\Version
 =ES64L-G16RevC.01\State=1-A\HF=-302.1775439\RMSD=4.160e-03\Dipole=0.33

 Normal termination of Gaussian 16 at Wed Apr  9 03:09:12 2025.
