 Gaussian 16, Revision C.01,

 ----------------------------------------------------------------------
 #t hf aug-cc-pvdz symm=none int=(grid=ultrafine) guess=(read,tcheck) s
 table=(opt,rrhf)
 ----------------------------------------------------------------------
 -----
 title
 -----
 Symbolic Z-matrix:
 Charge =  0 Multiplicity = 1

 SCF Done:  E(RHF) =  -323.650198551     A.U. after   18 cycles
 Normal termination of Gaussian 16 at Wed Apr  9 15:16:11 2025.
 Gaussian 16:  ES64L-G16RevC.01  3-Jul-2019

 ----------------------------------------------------------------------
 #t hf aug-cc-pvdz iop(5/13=1,5/36=2,99/5=2) pseudo=read geom=check gue
 ss=(read,tcheck) scf=(maxcycle=1)
 ----------------------------------------------------------------------
 -----
 title
 -----
 Structure from the checkpoint file:  "Grambow2020_wb97xd3_006829_forward_mol1.chk"
 Charge =  0 Multiplicity = 1

                         Standard orientation:
 ---------------------------------------------------------------------
 Center     Atomic      Atomic             Coordinates (Angstroms)
 Number     Number       Type             X           Y           Z
 ---------------------------------------------------------------------
      1          6           0        0.277088    1.426446   -0.497913
      2          6           0       -1.136729    0.310118    0.950825
      3          6           0       -2.080968   -0.245505   -0.068388
      4          6           0       -0.857994   -0.860741   -0.763825
      5          6           0        0.064429    0.010083    0.208191
      6          7           0        1.240450   -0.406900    0.761862
      7          8           0        2.219959   -0.394742   -0.241994
      8          1           0       -0.572802    1.717791   -1.111133
      9          1           0        1.167171    1.272588   -1.113932
     10          1           0        0.485922    2.186854    0.252075
     11          1           0       -1.273148    0.551248    1.999781
     12          1           0       -2.774736   -0.992212    0.328549
     13          1           0       -2.669072    0.490066   -0.627128
     14          1           0       -0.699833   -0.683796   -1.825704
     15          1           0       -0.736273   -1.914616   -0.531471
     16          1           0        3.034992   -0.464097    0.258539
 ---------------------------------------------------------------------

 SCF Done:  E(RHF) =  -323.746022587     A.U. after    2 cycles

 The electronic state is 1-A.
 Alpha  occ. eigenvalues --  -20.55002 -15.57395 -11.33574 -11.27771 -11.27604
 Alpha  occ. eigenvalues --  -11.26191 -11.25227  -1.31290  -1.18922  -1.03669
 Alpha  occ. eigenvalues --   -0.94511  -0.91741  -0.86288  -0.74380  -0.66782
 Alpha  occ. eigenvalues --   -0.65960  -0.65398  -0.59340  -0.58480  -0.56371
 Alpha  occ. eigenvalues --   -0.53744  -0.52658  -0.52017  -0.48930  -0.46801
 Alpha  occ. eigenvalues --   -0.36241  -0.23595
 Alpha virt. eigenvalues --    0.00572   0.02634   0.04078   0.04316   0.05032
 Alpha virt. eigenvalues --    0.06352   0.06687   0.07233   0.07455   0.09044
 Alpha virt. eigenvalues --    0.10936   0.12094   0.13270   0.13964   0.14517

 Mulliken charges:
               1
     1  C    0.436419
     2  C    0.521487
     3  C    0.433456
     4  C    0.590343
     5  C   -0.000097
     6  N   -0.817017
     7  O   -0.530688
     8  H   -0.158133
     9  H    0.102150
    10  H   -0.029104
    11  H   -0.258131
    12  H   -0.114872
    13  H   -0.076643
    14  H   -0.182012
    15  H   -0.084628
    16  H    0.167468
 Sum of Mulliken charges =  -0.00000

 Dipole moment (field-independent basis, Debye):
    X=             -4.5500    Y=              1.6330    Z=             -0.2058  Tot=              4.8385

 Test job not archived.
 1\1\GINC-SE114\SP\RHF\Aug-CC-pVDZ\C5H9N1O1\OHZDE\09-Apr-2025\0\\#t hf
 aug-cc-pvdz iop(5/13=1,5/36=2,99/5=2) pseudo=read geom=check guess=(re
 ad,tcheck) scf=(maxcycle=1)\\title\\0,1\C,0,-0.67314736,-1.08560542,0.
 70076019\C,0,-0.47425592,0.05579045,-1.2996321\C,0,-0.87430149,1.41045
 937,-0.80573671\C,0,0.2311123,1.27462413,0.25134473\C,0,0.37503617,-0.
 25875629,-0.17532251\N,0,1.55065398,-0.94806445,-0.25425204\O,0,1.9748
 9209,-1.23157555,1.05225372\H,0,-1.55747393,-0.50368338,0.950892\H,0,-
 0.10734761,-1.34053619,1.60091584\H,0,-0.95171181,-1.9998022,0.1802202

 Normal termination of Gaussian 16 at Wed Apr  9 15:16:17 2025.
