 Gaussian 16, Revision C.01,

 ----------------------------------------------------------------------
 #t hf aug-cc-pvdz symm=none int=(grid=ultrafine) guess=(read,tcheck) s
 table=(opt,rrhf)
 ----------------------------------------------------------------------
 -----
 title
 -----
 Symbolic Z-matrix:
 Charge =  0 Multiplicity = 1

 SCF Done:  E(RHF) =  -353.496054070     A.U. after   15 cycles
 Normal termination of Gaussian 16 at Wed Apr  9 16:06:43 2025.
 Gaussian 16:  ES64L-G16RevC.01  3-Jul-2019

 ----------------------------------------------------------------------
 #t hf aug-cc-pvdz iop(5/13=1,5/36=2,99/5=2) pseudo=read geom=check gue
 ss=(read,tcheck) scf=(maxcycle=1)
 ----------------------------------------------------------------------
 -----
 title
 -----
 Structure from the checkpoint file:  "Grambow2020_wb97xd3_007771_reverse_mol2.chk"
 Charge =  0 Multiplicity = 1

                         Standard orientation:
 ---------------------------------------------------------------------
 Center     Atomic      Atomic             Coordinates (Angstroms)
 Number     Number       Type             X           Y           Z
 ---------------------------------------------------------------------
      1          8           0        0.053584   -1.261457    0.589302
      2          6           0       -1.022825   -0.955550   -0.181008
      3          7           0       -1.441870    0.223509   -0.367483
      4          6           0       -0.711412    1.264355    0.177614
      5          7           0        0.559175    1.391083    0.208094
      6          6           0        1.353643    0.372416   -0.268153
      7          7           0        1.234004   -0.893550   -0.160028
      8          1           0       -1.547473   -1.808706   -0.606246
      9          1           0       -1.313163    2.090271    0.548700
     10          1           0        2.256357    0.675463   -0.791664
 ---------------------------------------------------------------------

 SCF Done:  E(RHF) =  -353.599950078     A.U. after    2 cycles

 The electronic state is 1-A.
 Alpha  occ. eigenvalues --  -20.64382 -15.71079 -15.66110 -15.65550 -11.39630
 Alpha  occ. eigenvalues --  -11.36850 -11.34924  -1.43830  -1.28240  -1.23575
 Alpha  occ. eigenvalues --   -1.12848  -0.97334  -0.84818  -0.82507  -0.76187
 Alpha  occ. eigenvalues --   -0.71900  -0.67060  -0.66017  -0.57598  -0.55541
 Alpha  occ. eigenvalues --   -0.52023  -0.49184  -0.46875  -0.42020  -0.40926
 Alpha virt. eigenvalues --    0.03425   0.03934   0.04071   0.06031   0.07064
 Alpha virt. eigenvalues --    0.09529   0.09724   0.10020   0.11724   0.11874
 Alpha virt. eigenvalues --    0.13986   0.14780   0.15288   0.15607   0.16028

 Mulliken charges:
               1
     1  O   -0.691945
     2  C    0.767030
     3  N   -0.430035
     4  C    0.711927
     5  N   -0.448786
     6  C    0.780669
     7  N   -0.096790
     8  H   -0.177013
     9  H   -0.213564
    10  H   -0.201492
 Sum of Mulliken charges =  -0.00000

 Dipole moment (field-independent basis, Debye):
    X=             -1.1159    Y=              0.6171    Z=             -0.7976  Tot=              1.5040

 Test job not archived.
 1\1\GINC-SE041\SP\RHF\Aug-CC-pVDZ\C3H3N3O1\OHZDE\09-Apr-2025\0\\#t hf
 aug-cc-pvdz iop(5/13=1,5/36=2,99/5=2) pseudo=read geom=check guess=(re
 ad,tcheck) scf=(maxcycle=1)\\title\\0,1\O,0,0.88198414,-1.07786408,-0.
 63663102\C,0,1.35663425,-0.3370063,0.39847768\N,0,0.96581216,0.8374625
 7,0.66007256\C,0,-0.06214079,1.36294917,-0.10231623\N,0,-1.12091984,0.
 76763127,-0.49723894\C,0,-1.28155252,-0.57456217,-0.23573303\N,0,-0.43
 935468,-1.53292014,-0.26618397\H,0,2.14665987,-0.80578337,0.98162996\H
 ,0,0.03115331,2.42562319,-0.31199601\H,0,-2.2919669,-0.89790614,-0.000

 Normal termination of Gaussian 16 at Wed Apr  9 16:06:47 2025.
