 Gaussian 16, Revision C.01,

 ----------------------------------------------------------------------
 #t hf aug-cc-pvdz symm=none int=(grid=ultrafine) guess=(read,tcheck) s
 table=(opt,rrhf)
 ----------------------------------------------------------------------
 -----
 title
 -----
 Symbolic Z-matrix:
 Charge =  0 Multiplicity = 1

 SCF Done:  E(RHF) =  -283.551758258     A.U. after   15 cycles
 Normal termination of Gaussian 16 at Wed Apr  9 03:07:41 2025.
 Gaussian 16:  ES64L-G16RevC.01  3-Jul-2019

 ----------------------------------------------------------------------
 #t hf aug-cc-pvdz iop(5/13=1,5/36=2,99/5=2) pseudo=read geom=check gue
 ss=(read,tcheck) scf=(maxcycle=1)
 ----------------------------------------------------------------------
 -----
 title
 -----
 Structure from the checkpoint file:  "Grambow2020_b97d3_006652_reverse_mol1.chk"
 Charge =  0 Multiplicity = 1

                         Standard orientation:
 ---------------------------------------------------------------------
 Center     Atomic      Atomic             Coordinates (Angstroms)
 Number     Number       Type             X           Y           Z
 ---------------------------------------------------------------------
      1          7           0        2.743234    0.448832    0.104270
      2          6           0        1.729209   -0.109977   -0.061346
      3          6           0        0.437755   -0.776055   -0.241376
      4          6           0       -0.687856    0.040471    0.398062
      5          6           0       -1.351522    1.118687   -0.392215
      6          8           0       -2.017468   -0.503047    0.153124
      7          1           0        0.477707   -1.780163    0.207142
      8          1           0        0.232109   -0.886005   -1.315707
      9          1           0       -0.573368    0.159662    1.479365
     10          1           0       -1.827819    1.837550    0.301059
     11          1           0       -2.137031   -0.087254   -0.845497
 ---------------------------------------------------------------------

 SCF Done:  E(RHF) =  -283.634064968     A.U. after    2 cycles

 The electronic state is 1-A.
 Alpha  occ. eigenvalues --  -20.65257 -15.65640 -11.34775 -11.31186 -11.30941
 Alpha  occ. eigenvalues --  -11.30609  -1.39208  -1.19855  -1.08215  -0.96541
 Alpha  occ. eigenvalues --   -0.85559  -0.74972  -0.70009  -0.67447  -0.63807
 Alpha  occ. eigenvalues --   -0.60577  -0.56104  -0.54743  -0.51419  -0.46609
 Alpha  occ. eigenvalues --   -0.46458  -0.40533
 Alpha virt. eigenvalues --    0.03147   0.03845   0.04463   0.04885   0.06334
 Alpha virt. eigenvalues --    0.07824   0.08834   0.10669   0.11215   0.12113
 Alpha virt. eigenvalues --    0.13000   0.13837   0.14786   0.14838   0.15596

 Mulliken charges:
               1
     1  N   -0.215727
     2  C   -0.135638
     3  C    0.384855
     4  C    0.571692
     5  C   -0.145327
     6  O   -0.767196
     7  H    0.144132
     8  H    0.062494
     9  H   -0.304340
    10  H   -0.063209
    11  H    0.468264
 Sum of Mulliken charges =  -0.00000

 Dipole moment (field-independent basis, Debye):
    X=             -2.4171    Y=             -1.2441    Z=              0.2941  Tot=              2.7344

 Test job not archived.
 1\1\GINC-SE456\SP\RHF\Aug-CC-pVDZ\C4H5N1O1\OHZDE\09-Apr-2025\0\\#t hf
 aug-cc-pvdz iop(5/13=1,5/36=2,99/5=2) pseudo=read geom=check guess=(re
 ad,tcheck) scf=(maxcycle=1)\\title\\0,1\N,0,2.97160704,0.4413618,0.512
 54079\C,0,1.98448589,-0.0831821,0.16846271\C,0,0.7237024,-0.70988168,-
 0.23352645\C,0,-0.46896625,0.02936762,0.37774185\C,0,-1.04803131,1.204
 39869,-0.33746767\O,0,-1.76122895,-0.46723573,-0.07691841\H,0,0.719624
 35,-1.76283587,0.08626965\H,0,0.63685828,-0.68170144,-1.32907666\H,0,-
 0.4735433,0.01027538,1.47142559\H,0,-1.60062849,1.83427851,0.3851235\H

 Normal termination of Gaussian 16 at Wed Apr  9 03:07:44 2025.
