 Gaussian 16, Revision C.01,

 ----------------------------------------------------------------------
 #t hf aug-cc-pvdz symm=none int=(grid=ultrafine) guess=(read,tcheck) s
 table=(opt,rrhf)
 ----------------------------------------------------------------------
 -----
 title
 -----
 Symbolic Z-matrix:
 Charge =  0 Multiplicity = 1

 SCF Done:  E(RHF) =  -289.070371445     A.U. after   14 cycles

 1\1\GINC-SE220\Stability\RHF\Aug-CC-pVDZ\C6H13N1\OHZDE\09-Apr-2025\0\\
 #t hf aug-cc-pvdz symm=none int=(grid=ultrafine) guess=(read,tcheck) s
 table=(opt,rrhf)\\title\\0,1\C,0,-0.60318072,3.00908526,0.74639294\C,0
 ,-0.57379859,1.50711112,0.86935823\N,0,-0.55821097,-1.54048992,-0.9207
 0299\C,0,-0.49007236,-2.91454475,-0.46933171\C,0,0.28195271,-0.7069538
 7,-0.47068555\C,0,1.40318448,-1.0154044,0.48359692\C,0,0.13607175,0.70
 652108,-0.95388672\H,0,-1.32705762,3.46990674,0.06494781\H,0,-0.875683
 08,3.32430884,1.76181012\H,0,0.38688103,3.42862316,0.55534812\H,0,-1.5

 Normal termination of Gaussian 16 at Wed Apr  9 17:02:49 2025.
 Gaussian 16:  ES64L-G16RevC.01  3-Jul-2019

 ----------------------------------------------------------------------
 #t hf aug-cc-pvdz iop(5/13=1,5/36=2,99/5=2) pseudo=read geom=check gue
 ss=(read,tcheck) scf=(maxcycle=1)
 ----------------------------------------------------------------------
 -----
 title
 -----
 Structure from the checkpoint file:  "Grambow2020_wb97xd3_009129_forward_mol1.chk"
 Charge =  0 Multiplicity = 1

                         Standard orientation:
 ---------------------------------------------------------------------
 Center     Atomic      Atomic             Coordinates (Angstroms)
 Number     Number       Type             X           Y           Z
 ---------------------------------------------------------------------
      1          6           0        3.253423   -0.147386   -0.265815
      2          6           0        1.811418   -0.050070   -0.693670
      3          7           0       -1.523461   -0.824373    0.184668
      4          6           0       -2.777869   -0.543700   -0.481731
      5          6           0       -0.698083    0.120239    0.356813
      6          6           0       -0.910023    1.556751   -0.036216
      7          6           0        0.595554   -0.244515    1.024745
      8          1           0        3.632115   -1.107299    0.102804
      9          1           0        3.791761    0.071451   -1.196943
     10          1           0        3.531419    0.641520    0.436380
     11          1           0        1.504852   -0.953049   -1.251468
     12          1           0       -3.296401    0.326750   -0.064962
     13          1           0       -2.618800   -0.355439   -1.549060
     14          1           0       -3.433742   -1.408437   -0.389495
     15          1           0        0.018722    2.117040    0.030954
     16          1           0       -1.271364    1.629139   -1.062685
     17          1           0       -1.663275    2.015288    0.612046
     18          1           0        1.290750   -0.892822    0.361866
     19          1           0        0.418947   -1.044344    1.755851
     20          1           0        1.112716    0.582902    1.497279
 ---------------------------------------------------------------------

 SCF Done:  E(RHF) =  -289.160072725     A.U. after    2 cycles

 The electronic state is 1-A.
 Alpha  occ. eigenvalues --  -15.60681 -11.29074 -11.26879 -11.25353 -11.24926
 Alpha  occ. eigenvalues --  -11.23311 -11.23117  -1.20269  -1.05035  -1.00093
 Alpha  occ. eigenvalues --   -0.95764  -0.91231  -0.80038  -0.71438  -0.65127
 Alpha  occ. eigenvalues --   -0.63360  -0.61550  -0.59404  -0.58375  -0.56134
 Alpha  occ. eigenvalues --   -0.55529  -0.53900  -0.52567  -0.51160  -0.50643
 Alpha  occ. eigenvalues --   -0.38884  -0.38642  -0.33290
 Alpha virt. eigenvalues --    0.03379   0.03966   0.04487   0.04565   0.06021
 Alpha virt. eigenvalues --    0.06254   0.06571   0.07157   0.07380   0.08521
 Alpha virt. eigenvalues --    0.08973   0.09562   0.10781   0.11173   0.11721

 Mulliken charges:
               1
     1  C    0.436903
     2  C   -0.421391
     3  N   -0.729995
     4  C    0.815311
     5  C    0.042144
     6  C    0.450852
     7  C    0.386977
     8  H   -0.023379
     9  H   -0.054888
    10  H   -0.124558
    11  H   -0.104867
    12  H   -0.070710
    13  H   -0.094363
    14  H   -0.294847
    15  H   -0.218113
    16  H    0.107359
    17  H    0.051791
    18  H    0.108763
    19  H   -0.111823
    20  H   -0.151168
 Sum of Mulliken charges =  -0.00000

 Dipole moment (field-independent basis, Debye):
    X=              0.4377    Y=              0.6748    Z=              0.7411  Tot=              1.0937

 Test job not archived.
 1\1\GINC-SE220\SP\RHF\Aug-CC-pVDZ\C6H13N1\OHZDE\09-Apr-2025\0\\#t hf a
 ug-cc-pvdz iop(5/13=1,5/36=2,99/5=2) pseudo=read geom=check guess=(rea
 d,tcheck) scf=(maxcycle=1)\\title\\0,1\C,0,-0.60318072,3.00908526,0.74
 639294\C,0,-0.57379859,1.50711112,0.86935823\N,0,-0.55821097,-1.540489
 92,-0.92070299\C,0,-0.49007236,-2.91454475,-0.46933171\C,0,0.28195271,
 -0.70695387,-0.47068555\C,0,1.40318448,-1.0154044,0.48359692\C,0,0.136
 07175,0.70652108,-0.95388672\H,0,-1.32705762,3.46990674,0.06494781\H,0
 ,-0.87568308,3.32430884,1.76181012\H,0,0.38688103,3.42862316,0.5553481

 Normal termination of Gaussian 16 at Wed Apr  9 17:02:57 2025.
