 Gaussian 16, Revision C.01,

 ----------------------------------------------------------------------
 #t hf aug-cc-pvdz symm=none int=(grid=ultrafine) guess=(read,tcheck) s
 table=(opt,rrhf)
 ----------------------------------------------------------------------
 -----
 title
 -----
 Symbolic Z-matrix:
 Charge =  0 Multiplicity = 1

 SCF Done:  E(RHF) =  -339.866835201     A.U. after   14 cycles
 Normal termination of Gaussian 16 at Wed Apr  9 15:35:06 2025.
 Gaussian 16:  ES64L-G16RevC.01  3-Jul-2019

 ----------------------------------------------------------------------
 #t hf aug-cc-pvdz iop(5/13=1,5/36=2,99/5=2) pseudo=read geom=check gue
 ss=(read,tcheck) scf=(maxcycle=1)
 ----------------------------------------------------------------------
 -----
 title
 -----
 Structure from the checkpoint file:  "Grambow2020_wb97xd3_007004_reverse_mol2.chk"
 Charge =  0 Multiplicity = 1

                         Standard orientation:
 ---------------------------------------------------------------------
 Center     Atomic      Atomic             Coordinates (Angstroms)
 Number     Number       Type             X           Y           Z
 ---------------------------------------------------------------------
      1          6           0       -1.974775   -0.400492    0.963981
      2          6           0       -0.963612    0.043398   -0.049867
      3          8           0       -1.243568    1.342391   -0.461400
      4          6           0        1.788716   -0.613702    0.076560
      5          7           0        2.298474    0.724234    0.347470
      6          6           0        0.342805   -0.520877   -0.239054
      7          7           0       -0.492357   -0.920370   -1.092286
      8          1           0       -2.977273   -0.315132    0.540899
      9          1           0       -1.927822    0.229989    1.853321
     10          1           0       -1.799963   -1.436291    1.250563
     11          1           0       -0.537212    1.648932   -1.035236
     12          1           0        2.303522   -1.030926   -0.791481
     13          1           0        1.910382   -1.325330    0.906500
     14          1           0        3.298648    0.706361    0.487037
     15          1           0        1.876648    1.106265    1.183588
 ---------------------------------------------------------------------

 SCF Done:  E(RHF) =  -339.969219414     A.U. after    2 cycles

 The electronic state is 1-A.
 Alpha  occ. eigenvalues --  -20.57825 -15.64226 -15.63340 -11.33823 -11.29959
 Alpha  occ. eigenvalues --  -11.29855 -11.23036  -1.36125  -1.26754  -1.17820
 Alpha  occ. eigenvalues --   -0.99740  -0.95934  -0.80995  -0.76051  -0.71028
 Alpha  occ. eigenvalues --   -0.67388  -0.65998  -0.62676  -0.60005  -0.58127
 Alpha  occ. eigenvalues --   -0.56648  -0.55008  -0.53812  -0.49950  -0.43313
 Alpha  occ. eigenvalues --   -0.41170  -0.37206
 Alpha virt. eigenvalues --    0.02561   0.03811   0.04264   0.05027   0.06212
 Alpha virt. eigenvalues --    0.06817   0.07293   0.08132   0.11254   0.11317
 Alpha virt. eigenvalues --    0.12225   0.12603   0.13345   0.14404   0.14935

 Mulliken charges:
               1
     1  C    0.391469
     2  C    0.516511
     3  O   -0.660849
     4  C    0.836576
     5  N   -0.327399
     6  C   -0.339906
     7  N   -0.672396
     8  H    0.025387
     9  H    0.072463
    10  H    0.018763
    11  H    0.149204
    12  H   -0.088121
    13  H    0.067405
    14  H   -0.017846
    15  H    0.028738
 Sum of Mulliken charges =  -0.00000

 Dipole moment (field-independent basis, Debye):
    X=              3.2664    Y=             -0.4191    Z=              2.6514  Tot=              4.2279

 Test job not archived.
 1\1\GINC-SE097\SP\RHF\Aug-CC-pVDZ\C4H8N2O1\OHZDE\09-Apr-2025\0\\#t hf
 aug-cc-pvdz iop(5/13=1,5/36=2,99/5=2) pseudo=read geom=check guess=(re
 ad,tcheck) scf=(maxcycle=1)\\title\\0,1\C,0,1.07439575,1.97169798,-0.1
 095654\C,0,0.76104442,0.66094124,0.54702038\O,0,0.36078136,0.87320779,
 1.8622582\C,0,-0.52029852,-1.49506669,-0.7693617\N,0,-1.77457169,-1.46
 087448,-0.02845002\C,0,0.44005796,-0.56408504,-0.12914568\N,0,1.631038
 85,-0.52561531,0.27727775\H,0,1.83775275,2.49584422,0.46822705\H,0,0.1
 8543473,2.60331229,-0.14760895\H,0,1.44433089,1.81398757,-1.12141714\H

 Normal termination of Gaussian 16 at Wed Apr  9 15:35:12 2025.
