 Gaussian 16, Revision C.01,

 ----------------------------------------------------------------------
 #t hf aug-cc-pvdz symm=none int=(grid=ultrafine) guess=(read,tcheck) s
 table=(opt,rrhf)
 ----------------------------------------------------------------------
 -----
 title
 -----
 Symbolic Z-matrix:
 Charge =  0 Multiplicity = 1

 SCF Done:  E(RHF) =  -360.931993847     A.U. after   14 cycles
 Normal termination of Gaussian 16 at Wed Apr  9 14:46:51 2025.
 Gaussian 16:  ES64L-G16RevC.01  3-Jul-2019

 ----------------------------------------------------------------------
 #t hf aug-cc-pvdz iop(5/13=1,5/36=2,99/5=2) pseudo=read geom=check gue
 ss=(read,tcheck) scf=(maxcycle=1)
 ----------------------------------------------------------------------
 -----
 title
 -----
 Structure from the checkpoint file:  "Grambow2020_wb97xd3_006612_reverse_mol2.chk"
 Charge =  0 Multiplicity = 1

                         Standard orientation:
 ---------------------------------------------------------------------
 Center     Atomic      Atomic             Coordinates (Angstroms)
 Number     Number       Type             X           Y           Z
 ---------------------------------------------------------------------
      1          6           0        2.720665    0.079702    0.311169
      2          6           0        1.255007   -0.209659    0.373731
      3          8           0       -0.692749    2.385908   -0.585707
      4          6           0        0.624574   -0.904942   -0.567157
      5          7           0       -0.740275   -1.235889   -0.612719
      6          6           0       -1.737569   -0.762096    0.174451
      7          8           0       -1.611050    0.035349    1.076457
      8          1           0        3.235827   -0.340964    1.178203
      9          1           0        2.906957    1.156486    0.323213
     10          1           0        3.177652   -0.333575   -0.589692
     11          1           0        0.699557    0.164591    1.223753
     12          1           0       -1.095600    1.901686    0.143128
     13          1           0        0.081001    1.861063   -0.802331
     14          1           0        1.171234   -1.297395   -1.418264
     15          1           0       -1.024013   -1.858484   -1.348359
     16          1           0       -2.716358   -1.190271   -0.099785
 ---------------------------------------------------------------------

 SCF Done:  E(RHF) =  -361.048387154     A.U. after    2 cycles

 The electronic state is 1-A.
 Alpha  occ. eigenvalues --  -20.56356 -20.54705 -15.68682 -11.38592 -11.29592
 Alpha  occ. eigenvalues --  -11.24802 -11.24189  -1.37536  -1.28278  -1.23836
 Alpha  occ. eigenvalues --   -1.07251  -0.95865  -0.86829  -0.77993  -0.76127
 Alpha  occ. eigenvalues --   -0.70192  -0.68540  -0.64549  -0.62199  -0.60278
 Alpha  occ. eigenvalues --   -0.57857  -0.57063  -0.55490  -0.53133  -0.49760
 Alpha  occ. eigenvalues --   -0.48876  -0.46159  -0.34381
 Alpha virt. eigenvalues --    0.02140   0.03530   0.04229   0.05655   0.06387
 Alpha virt. eigenvalues --    0.06726   0.08157   0.08710   0.08826   0.09922
 Alpha virt. eigenvalues --    0.10645   0.11967   0.12771   0.13538   0.14447

 Mulliken charges:
               1
     1  C    0.180598
     2  C    0.440490
     3  O   -0.307792
     4  C    0.625763
     5  N   -0.314714
     6  C    0.697475
     7  O   -0.485619
     8  H    0.044303
     9  H    0.014427
    10  H   -0.124848
    11  H   -0.501968
    12  H    0.181996
    13  H    0.160095
    14  H   -0.348111
    15  H   -0.037401
    16  H   -0.224695
 Sum of Mulliken charges =  -0.00000

 Dipole moment (field-independent basis, Debye):
    X=              1.2279    Y=             -4.9193    Z=             -2.1878  Tot=              5.5220

 Test job not archived.
 1\1\GINC-SE113\SP\RHF\Aug-CC-pVDZ\C4H9N1O2\OHZDE\09-Apr-2025\0\\#t hf
 aug-cc-pvdz iop(5/13=1,5/36=2,99/5=2) pseudo=read geom=check guess=(re
 ad,tcheck) scf=(maxcycle=1)\\title\\0,1\C,0,-1.92741474,-1.3483656,-0.
 2371688\C,0,-0.5577401,-0.75262685,-0.3070672\O,0,-0.54133093,2.630258
 29,-0.39109173\C,0,0.22350036,-0.63351123,0.76139387\N,0,1.51971622,-0
 .09365151,0.81423004\C,0,2.17441945,0.59360058,-0.15414943\O,0,1.74337
 292,0.85151598,-1.25561158\H,0,-1.99985365,-2.2292538,-0.87973292\H,0,
 -2.68056104,-0.63789823,-0.58691055\H,0,-2.18867412,-1.64655459,0.7796

 Normal termination of Gaussian 16 at Wed Apr  9 14:46:57 2025.
