 Gaussian 16, Revision C.01,

 ----------------------------------------------------------------------
 #t hf aug-cc-pvdz symm=none int=(grid=ultrafine) guess=(read,tcheck) s
 table=(opt,rrhf)
 ----------------------------------------------------------------------
 -----
 title
 -----
 Symbolic Z-matrix:
 Charge =  0 Multiplicity = 1

 SCF Done:  E(RHF) =  -360.871389873     A.U. after   14 cycles
 Normal termination of Gaussian 16 at Wed Apr  9 16:35:11 2025.
 Gaussian 16:  ES64L-G16RevC.01  3-Jul-2019

 ----------------------------------------------------------------------
 #t hf aug-cc-pvdz iop(5/13=1,5/36=2,99/5=2) pseudo=read geom=check gue
 ss=(read,tcheck) scf=(maxcycle=1)
 ----------------------------------------------------------------------
 -----
 title
 -----
 Structure from the checkpoint file:  "Grambow2020_wb97xd3_008625_reverse_mol1.chk"
 Charge =  0 Multiplicity = 1

                         Standard orientation:
 ---------------------------------------------------------------------
 Center     Atomic      Atomic             Coordinates (Angstroms)
 Number     Number       Type             X           Y           Z
 ---------------------------------------------------------------------
      1          6           0       -2.407991   -0.802266    0.609781
      2          6           0       -1.697110    0.024242   -0.443618
      3          6           0       -1.116194    1.247080   -0.105104
      4          8           0        0.833293    1.090994    0.136550
      5          6           0        1.303266   -0.061984   -0.068946
      6          8           0        0.686361   -0.987649   -0.684027
      7          7           0        2.538833   -0.348134    0.419881
      8          1           0       -3.434822   -0.465463    0.776082
      9          1           0       -2.450176   -1.854731    0.324266
     10          1           0       -1.880956   -0.748984    1.565159
     11          1           0       -0.531220   -0.561714   -0.659786
     12          1           0       -2.101314   -0.028629   -1.453379
     13          1           0       -0.952252    2.000979   -0.862164
     14          1           0       -1.149276    1.620755    0.910614
     15          1           0        2.976222   -1.201464    0.125405
     16          1           0        3.102903    0.406992    0.761772
 ---------------------------------------------------------------------

 SCF Done:  E(RHF) =  -360.987893692     A.U. after    2 cycles

 The electronic state is 1-A.
 Alpha  occ. eigenvalues --  -20.54562 -20.54305 -15.63610 -11.40209 -11.32714
 Alpha  occ. eigenvalues --  -11.22753 -11.20885  -1.39187  -1.27773  -1.16718
 Alpha  occ. eigenvalues --   -1.07256  -0.93973  -0.81172  -0.80770  -0.71891
 Alpha  occ. eigenvalues --   -0.69592  -0.67091  -0.64133  -0.62814  -0.59950
 Alpha  occ. eigenvalues --   -0.59274  -0.54379  -0.52631  -0.50273  -0.48068
 Alpha  occ. eigenvalues --   -0.46279  -0.42723  -0.35243
 Alpha virt. eigenvalues --    0.03329   0.04018   0.04796   0.04922   0.06156
 Alpha virt. eigenvalues --    0.06367   0.06948   0.07734   0.09049   0.10236
 Alpha virt. eigenvalues --    0.11880   0.13640   0.13909   0.14981   0.15500

 Mulliken charges:
               1
     1  C    0.485953
     2  C   -0.156892
     3  C    0.777953
     4  O   -0.594546
     5  C    0.760659
     6  O   -0.654765
     7  N   -0.153934
     8  H   -0.043144
     9  H   -0.059874
    10  H   -0.100103
    11  H    0.466460
    12  H   -0.175391
    13  H   -0.253205
    14  H   -0.257114
    15  H   -0.018010
    16  H   -0.024046
 Sum of Mulliken charges =   0.00000

 Dipole moment (field-independent basis, Debye):
    X=             -0.0801    Y=              1.1478    Z=              0.6388  Tot=              1.3160

 Test job not archived.
 1\1\GINC-SE131\SP\RHF\Aug-CC-pVDZ\C4H9N1O2\OHZDE\09-Apr-2025\0\\#t hf
 aug-cc-pvdz iop(5/13=1,5/36=2,99/5=2) pseudo=read geom=check guess=(re
 ad,tcheck) scf=(maxcycle=1)\\title\\0,1\C,0,-2.09545687,-0.4991706,-0.
 57162922\C,0,-1.25632838,0.5785003,0.08609884\C,0,-0.53980586,0.299925
 16,1.25073549\O,0,1.3673048,-0.02742531,0.87786632\C,0,1.69771516,0.08
 221785,-0.33509253\O,0,0.99055138,0.65776042,-1.2207683\N,0,2.87310629
 ,-0.47240977,-0.73296667\H,0,-3.07757201,-0.60247205,-0.10231715\H,0,-
 2.25823632,-0.28307421,-1.62888387\H,0,-1.59530334,-1.46868575,-0.5147

 Normal termination of Gaussian 16 at Wed Apr  9 16:35:16 2025.
