 Gaussian 16, Revision C.01,

 ----------------------------------------------------------------------
 #t hf aug-cc-pvdz symm=none int=(grid=ultrafine) guess=(read,tcheck) s
 table=(opt,rrhf)
 ----------------------------------------------------------------------
 -----
 title
 -----
 Symbolic Z-matrix:
 Charge =  0 Multiplicity = 1

 SCF Done:  E(RHF) =  -343.546651822     A.U. after   16 cycles
 Normal termination of Gaussian 16 at Wed Apr  9 16:59:20 2025.
 Gaussian 16:  ES64L-G16RevC.01  3-Jul-2019

 ----------------------------------------------------------------------
 #t hf aug-cc-pvdz iop(5/13=1,5/36=2,99/5=2) pseudo=read geom=check gue
 ss=(read,tcheck) scf=(maxcycle=1)
 ----------------------------------------------------------------------
 -----
 title
 -----
 Structure from the checkpoint file:  "Grambow2020_wb97xd3_009102_forward_mol1.chk"
 Charge =  0 Multiplicity = 1

                         Standard orientation:
 ---------------------------------------------------------------------
 Center     Atomic      Atomic             Coordinates (Angstroms)
 Number     Number       Type             X           Y           Z
 ---------------------------------------------------------------------
      1          6           0        2.087973    0.067418   -0.588957
      2          6           0        1.198062    0.381501    0.375157
      3          8           0       -0.416693    1.587417   -0.165065
      4          6           0       -1.328718    0.749138    0.257867
      5          6           0       -1.395452   -0.542062   -0.599413
      6          8           0       -0.374484   -1.429467   -0.038303
      7          6           0        0.432730   -0.795890    0.762169
      8          1           0        1.903809   -0.743243   -1.282237
      9          1           0        3.008835    0.624452   -0.701080
     10          1           0        1.451837    1.089501    1.153436
     11          1           0       -2.316101    1.181172    0.492532
     12          1           0       -1.000314    0.255350    1.286167
     13          1           0       -2.318234   -1.119304   -0.526348
     14          1           0       -1.157039   -0.320731   -1.637459
     15          1           0        0.789055   -1.391423    1.601008
 ---------------------------------------------------------------------

 SCF Done:  E(RHF) =  -343.653584880     A.U. after    2 cycles

 The electronic state is 1-A.
 Alpha  occ. eigenvalues --  -20.65791 -20.46438 -11.42342 -11.30616 -11.29652
 Alpha  occ. eigenvalues --  -11.28381 -11.25271  -1.44548  -1.23950  -1.10615
 Alpha  occ. eigenvalues --   -1.00783  -0.92920  -0.83889  -0.77922  -0.75974
 Alpha  occ. eigenvalues --   -0.70725  -0.69625  -0.64196  -0.60936  -0.59007
 Alpha  occ. eigenvalues --   -0.55152  -0.54970  -0.53892  -0.50769  -0.42032
 Alpha  occ. eigenvalues --   -0.36145  -0.31852
 Alpha virt. eigenvalues --    0.02692   0.03375   0.04244   0.04708   0.04923
 Alpha virt. eigenvalues --    0.06214   0.06304   0.07075   0.07742   0.10255
 Alpha virt. eigenvalues --    0.11975   0.12479   0.13107   0.13598   0.13878

 Mulliken charges:
               1
     1  C    0.230723
     2  C    0.976375
     3  O   -0.785377
     4  C    0.408292
     5  C    0.771722
     6  O   -0.630247
     7  C    0.631164
     8  H   -0.286117
     9  H   -0.282602
    10  H   -0.360289
    11  H   -0.269623
    12  H    0.245925
    13  H   -0.200969
    14  H   -0.152282
    15  H   -0.296695
 Sum of Mulliken charges =   0.00000

 Dipole moment (field-independent basis, Debye):
    X=              0.8088    Y=             -4.0133    Z=              1.6403  Tot=              4.4104

 Test job not archived.
 1\1\GINC-SE454\SP\RHF\Aug-CC-pVDZ\C5H8O2\OHZDE\09-Apr-2025\0\\#t hf au
 g-cc-pvdz iop(5/13=1,5/36=2,99/5=2) pseudo=read geom=check guess=(read
 ,tcheck) scf=(maxcycle=1)\\title\\0,1\C,0,-1.82463515,0.00017101,1.098
 68793\C,0,-1.27155115,0.04663484,-0.13096453\O,0,0.08766522,1.58248342
 ,-0.51464064\C,0,1.05613642,0.78436259,-0.88671659\C,0,1.61681969,-0.0
 6069731,0.28720407\O,0,0.73856095,-1.2294149,0.37361985\C,0,-0.3530287
 ,-1.06855101,-0.31654311\H,0,-1.30374634,-0.45135513,1.9332668\H,0,-2.
 80329506,0.42183344,1.28649685\H,0,-1.85262977,0.36217713,-0.98779839\

 Normal termination of Gaussian 16 at Wed Apr  9 16:59:25 2025.
