 Gaussian 16, Revision C.01,

 ----------------------------------------------------------------------
 #t hf aug-cc-pvdz symm=none int=(grid=ultrafine) guess=(read,tcheck) s
 table=(opt,rrhf)
 ----------------------------------------------------------------------
 -----
 title
 -----
 Symbolic Z-matrix:
 Charge =  0 Multiplicity = 1

 SCF Done:  E(RHF) =  -269.482832657     A.U. after   16 cycles
 Normal termination of Gaussian 16 at Wed Apr  9 03:58:19 2025.
 Gaussian 16:  ES64L-G16RevC.01  3-Jul-2019

 ----------------------------------------------------------------------
 #t hf aug-cc-pvdz iop(5/13=1,5/36=2,99/5=2) pseudo=read geom=check gue
 ss=(read,tcheck) scf=(maxcycle=1)
 ----------------------------------------------------------------------
 -----
 title
 -----
 Structure from the checkpoint file:  "Grambow2020_wb97xd3_008708_reverse_mol1.chk"
 Charge =  0 Multiplicity = 1

                         Standard orientation:
 ---------------------------------------------------------------------
 Center     Atomic      Atomic             Coordinates (Angstroms)
 Number     Number       Type             X           Y           Z
 ---------------------------------------------------------------------
      1          6           0       -1.409639    1.291585   -0.017655
      2          6           0       -0.605212   -0.000604    0.002331
      3          6           0       -1.450050   -1.232017   -0.288941
      4          6           0        0.639827    0.067900   -0.748963
      5          6           0        1.862031    0.113975   -0.920474
      6          6           0        0.231066   -0.160883    1.298788
      7          6           0        1.494329   -0.114834    0.874347
      8          1           0       -0.774165    2.154086    0.181643
      9          1           0       -2.160218    1.236044    0.771747
     10          1           0       -1.914530    1.433161   -0.976038
     11          1           0       -1.967968   -1.143903   -1.246703
     12          1           0       -0.840440   -2.135097   -0.293990
     13          1           0       -2.190395   -1.329432    0.505944
     14          1           0        2.790827    0.192931   -1.439485
     15          1           0        2.482783   -0.198528    1.300286
 ---------------------------------------------------------------------

 SCF Done:  E(RHF) =  -269.563941290     A.U. after    2 cycles

 The electronic state is 1-A.
 Alpha  occ. eigenvalues --  -11.34134 -11.29643 -11.28061 -11.27368 -11.23820
 Alpha  occ. eigenvalues --  -11.23767 -11.20370  -1.19377  -1.06750  -0.97064
 Alpha  occ. eigenvalues --   -0.94541  -0.86445  -0.75753  -0.71740  -0.66074
 Alpha  occ. eigenvalues --   -0.61192  -0.60670  -0.55788  -0.55319  -0.53001
 Alpha  occ. eigenvalues --   -0.51780  -0.47409  -0.46093  -0.34049  -0.29564
 Alpha virt. eigenvalues --    0.02547   0.03650   0.04912   0.04994   0.06262
 Alpha virt. eigenvalues --    0.06665   0.07070   0.07929   0.08424   0.09544
 Alpha virt. eigenvalues --    0.10111   0.12174   0.13199   0.13521   0.13841

 Mulliken charges:
               1
     1  C    0.796945
     2  C   -1.761754
     3  C    0.806549
     4  C    0.126447
     5  C    0.810549
     6  C   -0.364920
     7  C    0.412437
     8  H   -0.015982
     9  H    0.030138
    10  H   -0.003476
    11  H   -0.003932
    12  H   -0.020071
    13  H    0.033586
    14  H   -0.514394
    15  H   -0.332123
 Sum of Mulliken charges =  -0.00000

 Dipole moment (field-independent basis, Debye):
    X=              1.3522    Y=              0.5363    Z=             -4.3219  Tot=              4.5601

 Test job not archived.
 1\1\GINC-SE029\SP\RHF\Aug-CC-pVDZ\C7H8\OHZDE\09-Apr-2025\0\\#t hf aug-
 cc-pvdz iop(5/13=1,5/36=2,99/5=2) pseudo=read geom=check guess=(read,t
 check) scf=(maxcycle=1)\\title\\0,1\C,0,-1.1487505,-0.736963,-1.056614
 91\C,0,-0.35578951,-0.00813279,0.01915203\C,0,-1.10944251,0.11177487,1
 .33543384\C,0,1.01932995,-0.46728612,0.1513702\C,0,2.24972814,-0.41001
 548,0.06102562\C,0,0.18877735,1.36028475,-0.46740062\C,0,1.51278587,1.
 20233583,-0.45490139\H,0,-0.57713729,-0.81692704,-1.98090893\H,0,-2.04
 877653,-0.15744073,-1.26570004\H,0,-1.44076028,-1.73738677,-0.72899066

 Normal termination of Gaussian 16 at Wed Apr  9 03:58:25 2025.
