 Gaussian 16, Revision C.01,

 ----------------------------------------------------------------------
 #t hf aug-cc-pvdz symm=none int=(grid=ultrafine) guess=(read,tcheck) s
 table=(opt,rrhf)
 ----------------------------------------------------------------------
 -----
 title
 -----
 Symbolic Z-matrix:
 Charge =  0 Multiplicity = 1

 SCF Done:  E(RHF) =  -344.888344388     A.U. after   12 cycles

 1\1\GINC-SE036\Stability\RHF\Aug-CC-pVDZ\C5H10O2\OHZDE\09-Apr-2025\0\\
 #t hf aug-cc-pvdz symm=none int=(grid=ultrafine) guess=(read,tcheck) s
 table=(opt,rrhf)\\title\\0,1\C,0,-2.68206522,-0.50231737,-0.31315116\C
 ,0,-1.37723763,0.18863436,-0.57422829\O,0,-0.81541696,0.92286189,0.507
 10005\C,0,-0.12237753,-0.23362058,0.03938392\C,0,1.22493495,0.0080427,
 -0.58151327\C,0,2.23409131,0.54671378,0.42568013\O,0,2.44778433,-0.337
 26133,1.51202014\H,0,-3.5034008,0.21663681,-0.31171125\H,0,-2.88198422
 ,-1.24423058,-1.08907985\H,0,-2.66457345,-1.00481433,0.65456453\H,0,-1

 Normal termination of Gaussian 16 at Wed Apr  9 03:33:31 2025.
 Gaussian 16:  ES64L-G16RevC.01  3-Jul-2019

 ----------------------------------------------------------------------
 #t hf aug-cc-pvdz iop(5/13=1,5/36=2,99/5=2) pseudo=read geom=check gue
 ss=(read,tcheck) scf=(maxcycle=1)
 ----------------------------------------------------------------------
 -----
 title
 -----
 Structure from the checkpoint file:  "Grambow2020_wb97xd3_007048_reverse_mol2.chk"
 Charge =  0 Multiplicity = 1

                         Standard orientation:
 ---------------------------------------------------------------------
 Center     Atomic      Atomic             Coordinates (Angstroms)
 Number     Number       Type             X           Y           Z
 ---------------------------------------------------------------------
      1          6           0       -2.877155   -0.336364   -0.351996
      2          6           0       -1.641623    0.387341    0.092820
      3          8           0       -0.798204   -0.294584    1.013486
      4          6           0       -0.298229   -0.028893   -0.296455
      5          6           0        0.868650    0.914737   -0.380842
      6          6           0        2.117673    0.345568    0.281719
      7          8           0        2.543817   -0.870188   -0.307815
      8          1           0       -3.636472   -0.316824    0.431933
      9          1           0       -3.296264    0.137401   -1.242143
     10          1           0       -2.650725   -1.377580   -0.584119
     11          1           0       -1.777862    1.440923    0.334611
     12          1           0        2.030632   -1.588189    0.065245
     13          1           0       -0.223164   -0.920104   -0.918870
     14          1           0        1.080306    1.125908   -1.432814
     15          1           0        0.612249    1.859727    0.106877
     16          1           0        1.934952    0.214751    1.353683
     17          1           0        2.945541    1.047835    0.168740
 ---------------------------------------------------------------------

 SCF Done:  E(RHF) =  -344.998485642     A.U. after    2 cycles

 The electronic state is 1-A.
 Alpha  occ. eigenvalues --  -20.58151 -20.57052 -11.29820 -11.29408 -11.28526
 Alpha  occ. eigenvalues --  -11.23826 -11.23744  -1.38194  -1.32323  -1.04015
 Alpha  occ. eigenvalues --   -1.01063  -0.91276  -0.83717  -0.80669  -0.71277
 Alpha  occ. eigenvalues --   -0.68721  -0.67065  -0.62309  -0.60112  -0.58504
 Alpha  occ. eigenvalues --   -0.57166  -0.56010  -0.52513  -0.51672  -0.48868
 Alpha  occ. eigenvalues --   -0.47148  -0.45687  -0.42511
 Alpha virt. eigenvalues --    0.03388   0.04167   0.04520   0.04732   0.05841
 Alpha virt. eigenvalues --    0.06381   0.06681   0.07660   0.08252   0.08889
 Alpha virt. eigenvalues --    0.11806   0.12242   0.13190   0.13994   0.14750

 Mulliken charges:
               1
     1  C    0.251962
     2  C    0.269411
     3  O   -0.786531
     4  C    0.951741
     5  C   -0.065827
     6  C    0.737697
     7  O   -0.542991
     8  H    0.048721
     9  H    0.045795
    10  H   -0.037457
    11  H   -0.360927
    12  H    0.160498
    13  H   -0.359362
    14  H   -0.055775
    15  H    0.009130
    16  H   -0.081609
    17  H   -0.184476
 Sum of Mulliken charges =  -0.00000

 Dipole moment (field-independent basis, Debye):
    X=             -1.7957    Y=              1.1779    Z=             -0.9123  Tot=              2.3333

 Test job not archived.
 1\1\GINC-SE036\SP\RHF\Aug-CC-pVDZ\C5H10O2\OHZDE\09-Apr-2025\0\\#t hf a
 ug-cc-pvdz iop(5/13=1,5/36=2,99/5=2) pseudo=read geom=check guess=(rea
 d,tcheck) scf=(maxcycle=1)\\title\\0,1\C,0,-2.68206522,-0.50231737,-0.
 31315116\C,0,-1.37723763,0.18863436,-0.57422829\O,0,-0.81541696,0.9228
 6189,0.50710005\C,0,-0.12237753,-0.23362058,0.03938392\C,0,1.22493495,
 0.0080427,-0.58151327\C,0,2.23409131,0.54671378,0.42568013\O,0,2.44778
 433,-0.33726133,1.51202014\H,0,-3.5034008,0.21663681,-0.31171125\H,0,-
 2.88198422,-1.24423058,-1.08907985\H,0,-2.66457345,-1.00481433,0.65456

 Normal termination of Gaussian 16 at Wed Apr  9 03:33:39 2025.
