 Gaussian 16, Revision C.01,

 ----------------------------------------------------------------------
 #t hf aug-cc-pvdz symm=none int=(grid=ultrafine) guess=(read,tcheck) s
 table=(opt,rrhf)
 ----------------------------------------------------------------------
 -----
 title
 -----
 Symbolic Z-matrix:
 Charge =  0 Multiplicity = 1

 SCF Done:  E(RHF) =  -283.583994347     A.U. after   16 cycles
 Normal termination of Gaussian 16 at Wed Apr  9 03:14:49 2025.
 Gaussian 16:  ES64L-G16RevC.01  3-Jul-2019

 ----------------------------------------------------------------------
 #t hf aug-cc-pvdz iop(5/13=1,5/36=2,99/5=2) pseudo=read geom=check gue
 ss=(read,tcheck) scf=(maxcycle=1)
 ----------------------------------------------------------------------
 -----
 title
 -----
 Structure from the checkpoint file:  "Grambow2020_b97d3_006995_forward_mol1.chk"
 Charge =  0 Multiplicity = 1

                         Standard orientation:
 ---------------------------------------------------------------------
 Center     Atomic      Atomic             Coordinates (Angstroms)
 Number     Number       Type             X           Y           Z
 ---------------------------------------------------------------------
      1          6           0        1.313816   -1.095966   -0.136462
      2          6           0        0.660017    0.245325   -0.074810
      3          8           0        1.006713    1.367857   -0.226525
      4          6           0       -1.466328   -0.146510   -0.981429
      5          6           0       -1.223448   -0.054759    0.365542
      6          7           0       -0.697291   -0.004609    1.456945
      7          1           0        1.821528   -1.185467   -1.106154
      8          1           0        0.603643   -1.912735   -0.007623
      9          1           0        2.069055   -1.137690    0.661124
     10          1           0       -1.682271   -1.117615   -1.422736
     11          1           0       -1.688971    0.754377   -1.548076
 ---------------------------------------------------------------------

 SCF Done:  E(RHF) =  -283.669349093     A.U. after    2 cycles

 The electronic state is 1-A.
 Alpha  occ. eigenvalues --  -20.63436 -15.65286 -11.46800 -11.32634 -11.30621
 Alpha  occ. eigenvalues --  -11.25468  -1.43313  -1.21117  -1.05912  -0.99914
 Alpha  occ. eigenvalues --   -0.79822  -0.70678  -0.69334  -0.67949  -0.66265
 Alpha  occ. eigenvalues --   -0.63022  -0.59147  -0.58122  -0.55627  -0.48372
 Alpha  occ. eigenvalues --   -0.45129  -0.31841
 Alpha virt. eigenvalues --    0.02591   0.04307   0.04772   0.05307   0.06887
 Alpha virt. eigenvalues --    0.07710   0.08447   0.10500   0.11354   0.11873
 Alpha virt. eigenvalues --    0.12771   0.13466   0.14155   0.14517   0.15197

 Mulliken charges:
               1
     1  C    0.441314
     2  C    0.067235
     3  O   -0.434018
     4  C    0.787182
     5  C   -0.061205
     6  N   -0.456434
     7  H    0.100288
     8  H   -0.080206
     9  H    0.087473
    10  H   -0.239673
    11  H   -0.211957
 Sum of Mulliken charges =  -0.00000

 Dipole moment (field-independent basis, Debye):
    X=              1.3918    Y=             -3.2050    Z=             -2.2493  Tot=              4.1555

 Test job not archived.
 1\1\GINC-SE162\SP\RHF\Aug-CC-pVDZ\C4H5N1O1\OHZDE\09-Apr-2025\0\\#t hf
 aug-cc-pvdz iop(5/13=1,5/36=2,99/5=2) pseudo=read geom=check guess=(re
 ad,tcheck) scf=(maxcycle=1)\\title\\0,1\C,0,-1.31129522,0.39941469,-0.
 43186517\C,0,-0.4222226,0.13675891,0.73897933\O,0,-0.57736016,-0.17580
 708,1.87102619\C,0,1.43422863,-0.92773439,-0.21876753\C,0,1.41959494,0
 .3987853,0.13033287\N,0,1.08337578,1.5169852,0.45759835\H,0,-1.9680998
 5,-0.4705656,-0.56538395\H,0,-0.75078247,0.59070981,-1.34690002\H,0,-1
 .9314306,1.27476021,-0.19212885\H,0,1.3998942,-1.20620076,-1.27029309\

 Normal termination of Gaussian 16 at Wed Apr  9 03:14:52 2025.
