 Gaussian 16, Revision C.01,

 ----------------------------------------------------------------------
 #t hf aug-cc-pvdz symm=none int=(grid=ultrafine) guess=(read,tcheck) s
 table=(opt,rrhf)
 ----------------------------------------------------------------------
 -----
 title
 -----
 Symbolic Z-matrix:
 Charge =  0 Multiplicity = 1

 SCF Done:  E(RHF) =  -338.610133686     A.U. after   15 cycles
 Normal termination of Gaussian 16 at Wed Apr  9 16:29:03 2025.
 Gaussian 16:  ES64L-G16RevC.01  3-Jul-2019

 ----------------------------------------------------------------------
 #t hf aug-cc-pvdz iop(5/13=1,5/36=2,99/5=2) pseudo=read geom=check gue
 ss=(read,tcheck) scf=(maxcycle=1)
 ----------------------------------------------------------------------
 -----
 title
 -----
 Structure from the checkpoint file:  "Grambow2020_wb97xd3_008473_forward_mol1.chk"
 Charge =  0 Multiplicity = 1

                         Standard orientation:
 ---------------------------------------------------------------------
 Center     Atomic      Atomic             Coordinates (Angstroms)
 Number     Number       Type             X           Y           Z
 ---------------------------------------------------------------------
      1          7           0       -1.408157   -1.504946   -0.077226
      2          6           0       -0.313756   -0.664800    0.009983
      3          6           0       -0.250937    0.746662    0.077756
      4          8           0       -1.377204    1.514919   -0.041312
      5          6           0        1.148122    1.226936   -0.031300
      6          6           0        1.825412    0.014464   -0.039265
      7          7           0        0.959308   -1.064708   -0.057397
      8          1           0       -2.271297   -0.984779   -0.109751
      9          1           0       -1.452572   -2.236659    0.615690
     10          1           0       -1.077799    2.381489   -0.333800
     11          1           0        0.383099    0.978245    1.107745
     12          1           0        2.887651   -0.176340   -0.031694
     13          1           0        1.237444   -2.033307   -0.078377
 ---------------------------------------------------------------------

 SCF Done:  E(RHF) =  -338.710779488     A.U. after    2 cycles

 The electronic state is 1-A.
 Alpha  occ. eigenvalues --  -20.59680 -15.70879 -15.66252 -11.34132 -11.30988
 Alpha  occ. eigenvalues --  -11.25333 -11.20027  -1.36569  -1.30560  -1.19256
 Alpha  occ. eigenvalues --   -1.06162  -0.96445  -0.82059  -0.81874  -0.74905
 Alpha  occ. eigenvalues --   -0.71276  -0.67074  -0.66037  -0.63552  -0.61366
 Alpha  occ. eigenvalues --   -0.56783  -0.53426  -0.47448  -0.41870  -0.33294
 Alpha  occ. eigenvalues --   -0.28100
 Alpha virt. eigenvalues --    0.01972   0.03259   0.04670   0.05463   0.06294
 Alpha virt. eigenvalues --    0.07549   0.09906   0.11240   0.11700   0.12444
 Alpha virt. eigenvalues --    0.13338   0.13703   0.14180   0.14574   0.15654

 Mulliken charges:
               1
     1  N   -0.273603
     2  C    0.334172
     3  C    1.014163
     4  O   -0.666012
     5  C   -0.957080
     6  C    0.752267
     7  N   -0.374874
     8  H    0.049790
     9  H   -0.012444
    10  H    0.174627
    11  H    0.377789
    12  H   -0.321828
    13  H   -0.096967
 Sum of Mulliken charges =  -0.00000

 Dipole moment (field-independent basis, Debye):
    X=             -1.7109    Y=             -4.9060    Z=              1.1642  Tot=              5.3246

 Test job not archived.
 1\1\GINC-SE057\SP\RHF\Aug-CC-pVDZ\C4H6N2O1\OHZDE\09-Apr-2025\0\\#t hf
 aug-cc-pvdz iop(5/13=1,5/36=2,99/5=2) pseudo=read geom=check guess=(re
 ad,tcheck) scf=(maxcycle=1)\\title\\0,1\N,0,1.88539704,0.64338417,-0.0
 8678368\C,0,0.53826153,0.33564005,-0.04574131\C,0,-0.10925169,-0.92152
 119,-0.01356467\O,0,0.59743972,-2.08820392,-0.1245251\C,0,-1.57696836,
 -0.77274314,-0.1671791\C,0,-1.68663086,0.61174913,-0.16185635\N,0,-0.4
 4944005,1.23113115,-0.13347992\H,0,2.45372942,-0.18910051,-0.11147309\
 H,0,2.20888583,1.28135819,0.62444984\H,0,-0.02652706,-2.74714514,-0.44

 Normal termination of Gaussian 16 at Wed Apr  9 16:29:08 2025.
