 Gaussian 16, Revision C.01,

 ----------------------------------------------------------------------
 #t hf aug-cc-pvdz symm=none int=(grid=ultrafine) guess=(read,tcheck) s
 table=(opt,rrhf)
 ----------------------------------------------------------------------
 -----
 title
 -----
 Symbolic Z-matrix:
 Charge =  0 Multiplicity = 1

 SCF Done:  E(RHF) =  -344.921270980     A.U. after   13 cycles

 1\1\GINC-SE037\Stability\RHF\Aug-CC-pVDZ\C5H10O2\OHZDE\09-Apr-2025\0\\
 #t hf aug-cc-pvdz symm=none int=(grid=ultrafine) guess=(read,tcheck) s
 table=(opt,rrhf)\\title\\0,1\C,0,2.08033406,-0.11094612,-0.46797205\C,
 0,0.76779097,0.26243557,0.17271379\O,0,0.02274839,1.10101797,-0.701989
 84\C,0,-1.28260879,1.20673177,-0.15082519\C,0,-1.5246901,-0.09371611,0
 .64345615\C,0,-0.21689013,-0.87385813,0.45778052\O,0,-0.28932251,-1.79
 883573,-0.60769854\H,0,2.6646752,0.78535196,-0.67700485\H,0,1.92234559
 ,-0.64884046,-1.40211179\H,0,2.65605999,-0.75245783,0.20094358\H,0,0.9

 Normal termination of Gaussian 16 at Wed Apr  9 15:48:10 2025.
 Gaussian 16:  ES64L-G16RevC.01  3-Jul-2019

 ----------------------------------------------------------------------
 #t hf aug-cc-pvdz iop(5/13=1,5/36=2,99/5=2) pseudo=read geom=check gue
 ss=(read,tcheck) scf=(maxcycle=1)
 ----------------------------------------------------------------------
 -----
 title
 -----
 Structure from the checkpoint file:  "Grambow2020_wb97xd3_007398_forward_mol2.chk"
 Charge =  0 Multiplicity = 1

                         Standard orientation:
 ---------------------------------------------------------------------
 Center     Atomic      Atomic             Coordinates (Angstroms)
 Number     Number       Type             X           Y           Z
 ---------------------------------------------------------------------
      1          6           0       -2.114738   -0.435985    0.084066
      2          6           0       -0.653489   -0.458612    0.454066
      3          8           0        0.081824   -1.189304   -0.520008
      4          6           0        1.457481   -0.961075   -0.247254
      5          6           0        1.542301    0.425433    0.424350
      6          6           0        0.079595    0.884475    0.481024
      7          8           0       -0.268808    1.706143   -0.614217
      8          1           0       -2.506420   -1.452352    0.038422
      9          1           0       -2.267293    0.039354   -0.884277
     10          1           0       -2.682800    0.121721    0.830200
     11          1           0       -0.526355   -0.936962    1.439175
     12          1           0        1.998575   -1.021824   -1.191909
     13          1           0        1.838252   -1.747063    0.415329
     14          1           0        1.964309    0.350464    1.427316
     15          1           0        2.140911    1.140500   -0.138397
     16          1           0       -0.146081    1.466140    1.375070
     17          1           0       -0.184124    1.179890   -1.414652
 ---------------------------------------------------------------------

 SCF Done:  E(RHF) =  -345.029059482     A.U. after    2 cycles

 The electronic state is 1-A.
 Alpha  occ. eigenvalues --  -20.57220 -20.57039 -11.29010 -11.28857 -11.28727
 Alpha  occ. eigenvalues --  -11.23486 -11.22472  -1.35729  -1.31829  -1.04172
 Alpha  occ. eigenvalues --   -1.03379  -0.91792  -0.82391  -0.80548  -0.72092
 Alpha  occ. eigenvalues --   -0.68262  -0.65338  -0.63971  -0.61192  -0.58915
 Alpha  occ. eigenvalues --   -0.54822  -0.53975  -0.52958  -0.50638  -0.49670
 Alpha  occ. eigenvalues --   -0.48119  -0.45780  -0.42155
 Alpha virt. eigenvalues --    0.03436   0.04355   0.04616   0.04863   0.06167
 Alpha virt. eigenvalues --    0.06518   0.06781   0.07266   0.07442   0.09500
 Alpha virt. eigenvalues --    0.11962   0.12385   0.13647   0.14113   0.14583

 Mulliken charges:
               1
     1  C    0.475963
     2  C    0.104482
     3  O   -0.741057
     4  C    0.893797
     5  C    0.273119
     6  C    0.433276
     7  O   -0.604925
     8  H    0.001477
     9  H    0.029270
    10  H    0.012440
    11  H   -0.261500
    12  H   -0.232683
    13  H   -0.186374
    14  H   -0.062666
    15  H   -0.094534
    16  H   -0.197406
    17  H    0.157320
 Sum of Mulliken charges =  -0.00000

 Dipole moment (field-independent basis, Debye):
    X=              1.0847    Y=             -0.6515    Z=              1.2339  Tot=              1.7674

 Test job not archived.
 1\1\GINC-SE037\SP\RHF\Aug-CC-pVDZ\C5H10O2\OHZDE\09-Apr-2025\0\\#t hf a
 ug-cc-pvdz iop(5/13=1,5/36=2,99/5=2) pseudo=read geom=check guess=(rea
 d,tcheck) scf=(maxcycle=1)\\title\\0,1\C,0,2.08033406,-0.11094612,-0.4
 6797205\C,0,0.76779097,0.26243557,0.17271379\O,0,0.02274839,1.10101797
 ,-0.70198984\C,0,-1.28260879,1.20673177,-0.15082519\C,0,-1.5246901,-0.
 09371611,0.64345615\C,0,-0.21689013,-0.87385813,0.45778052\O,0,-0.2893
 2251,-1.79883573,-0.60769854\H,0,2.6646752,0.78535196,-0.67700485\H,0,
 1.92234559,-0.64884046,-1.40211179\H,0,2.65605999,-0.75245783,0.200943

 Normal termination of Gaussian 16 at Wed Apr  9 15:48:16 2025.
