 Gaussian 16, Revision C.01,

 ----------------------------------------------------------------------
 #t hf aug-cc-pvdz symm=none int=(grid=ultrafine) guess=(read,tcheck) s
 table=(opt,rrhf)
 ----------------------------------------------------------------------
 -----
 title
 -----
 Symbolic Z-matrix:
 Charge =  0 Multiplicity = 1

 SCF Done:  E(RHF) =  -284.822806202     A.U. after   14 cycles
 Normal termination of Gaussian 16 at Wed Apr  9 03:05:25 2025.
 Gaussian 16:  ES64L-G16RevC.01  3-Jul-2019

 ----------------------------------------------------------------------
 #t hf aug-cc-pvdz iop(5/13=1,5/36=2,99/5=2) pseudo=read geom=check gue
 ss=(read,tcheck) scf=(maxcycle=1)
 ----------------------------------------------------------------------
 -----
 title
 -----
 Structure from the checkpoint file:  "Grambow2020_b97d3_006531_reverse_mol2.chk"
 Charge =  0 Multiplicity = 1

                         Standard orientation:
 ---------------------------------------------------------------------
 Center     Atomic      Atomic             Coordinates (Angstroms)
 Number     Number       Type             X           Y           Z
 ---------------------------------------------------------------------
      1          6           0        0.647654    1.084808    0.149768
      2          6           0        1.790739    0.170331   -0.324205
      3          8           0        1.001900   -1.026398   -0.086771
      4          6           0       -0.060996   -0.249029    0.514378
      5          7           0       -1.339982   -0.617374   -0.034385
      6          6           0       -2.217454    0.286329   -0.221658
      7          1           0        0.869013    1.762574    0.981790
      8          1           0        0.149912    1.636059   -0.656762
      9          1           0        2.083041    0.257834   -1.381122
     10          1           0        2.691103    0.201562    0.309074
     11          1           0       -0.119461   -0.435738    1.601975
     12          1           0       -2.069960    1.361895   -0.016905
     13          1           0       -3.198636   -0.006013   -0.612876
 ---------------------------------------------------------------------

 SCF Done:  E(RHF) =  -284.909579363     A.U. after    2 cycles

 The electronic state is 1-A.
 Alpha  occ. eigenvalues --  -20.56529 -15.64002 -11.32962 -11.30008 -11.29484
 Alpha  occ. eigenvalues --  -11.24896  -1.34483  -1.19881  -1.00868  -0.94848
 Alpha  occ. eigenvalues --   -0.83623  -0.75685  -0.70201  -0.68934  -0.65348
 Alpha  occ. eigenvalues --   -0.60805  -0.57892  -0.54796  -0.52276  -0.48351
 Alpha  occ. eigenvalues --   -0.44422  -0.42061  -0.40482
 Alpha virt. eigenvalues --    0.03020   0.04054   0.04383   0.05009   0.06327
 Alpha virt. eigenvalues --    0.07044   0.07379   0.09517   0.11011   0.11634
 Alpha virt. eigenvalues --    0.12422   0.13750   0.14432   0.14763   0.15309

 Mulliken charges:
               1
     1  C    0.185047
     2  C    0.910207
     3  O   -0.828206
     4  C    0.986146
     5  N   -0.531569
     6  C    0.589656
     7  H   -0.114407
     8  H   -0.219326
     9  H   -0.198444
    10  H   -0.200962
    11  H   -0.186666
    12  H   -0.140335
    13  H   -0.251141
 Sum of Mulliken charges =  -0.00000

 Dipole moment (field-independent basis, Debye):
    X=             -0.4022    Y=              3.9838    Z=              0.6008  Tot=              4.0489

 Test job not archived.
 1\1\GINC-SE042\SP\RHF\Aug-CC-pVDZ\C4H7N1O1\OHZDE\09-Apr-2025\0\\#t hf
 aug-cc-pvdz iop(5/13=1,5/36=2,99/5=2) pseudo=read geom=check guess=(re
 ad,tcheck) scf=(maxcycle=1)\\title\\0,1\C,0,-0.10909429,-0.63475249,0.
 75287233\C,0,-1.28912993,-1.2767984,0.00263414\O,0,-1.45276531,-0.1090
 5867,-0.84613516\C,0,-0.45580466,0.62174232,-0.09285739\N,0,0.49752583
 ,1.24545409,-0.97306682\C,0,1.72083117,1.2996051,-0.62335383\H,0,-0.20
 96033,-0.53409786,1.83933198\H,0,0.86776277,-1.0683638,0.50823942\H,0,
 -1.06356021,-2.17679633,-0.58837458\H,0,-2.17869598,-1.46037195,0.6252

 Normal termination of Gaussian 16 at Wed Apr  9 03:05:29 2025.
