 Gaussian 16, Revision C.01,

 ----------------------------------------------------------------------
 #t hf aug-cc-pvdz symm=none int=(grid=ultrafine) guess=(read,tcheck) s
 table=(opt,rrhf)
 ----------------------------------------------------------------------
 -----
 title
 -----
 Symbolic Z-matrix:
 Charge =  0 Multiplicity = 1

 SCF Done:  E(RHF) =  -344.692327875     A.U. after   15 cycles

 1\1\GINC-SE113\Stability\RHF\Aug-CC-pVDZ\C5H10O2\OHZDE\09-Apr-2025\0\\
 #t hf aug-cc-pvdz symm=none int=(grid=ultrafine) guess=(read,tcheck) s
 table=(opt,rrhf)\\title\\0,1\C,0,1.99996656,1.04737386,-0.31428335\O,0
 ,0.64735145,1.08434837,-0.56765026\C,0,0.12210459,-0.05692192,-0.88030
 302\C,0,0.77472399,-1.14190324,0.86406367\O,0,-0.60334455,-0.82719774,
 1.10134473\C,0,-1.13203751,-0.45589896,-0.16777307\C,0,-2.19647248,0.6
 0577024,-0.00214693\H,0,1.61786275,-0.18826065,0.51381728\H,0,2.583645
 81,0.55124952,-1.09572249\H,0,2.35923715,2.03186533,-0.03271322\H,0,0.

 Normal termination of Gaussian 16 at Wed Apr  9 14:57:09 2025.
 Gaussian 16:  ES64L-G16RevC.01  3-Jul-2019

 ----------------------------------------------------------------------
 #t hf aug-cc-pvdz iop(5/13=1,5/36=2,99/5=2) pseudo=read geom=check gue
 ss=(read,tcheck) scf=(maxcycle=1)
 ----------------------------------------------------------------------
 -----
 title
 -----
 Structure from the checkpoint file:  "Grambow2020_wb97xd3_006654_forward_mol1.chk"
 Charge =  0 Multiplicity = 1

                         Standard orientation:
 ---------------------------------------------------------------------
 Center     Atomic      Atomic             Coordinates (Angstroms)
 Number     Number       Type             X           Y           Z
 ---------------------------------------------------------------------
      1          6           0        2.224826   -0.486296   -0.303493
      2          8           0        0.957286   -0.990237   -0.117713
      3          6           0        0.257561   -0.380701    0.785052
      4          6           0        0.424454    1.604368   -0.038087
      5          8           0       -0.878934    1.141495   -0.414043
      6          6           0       -1.138405    0.017728    0.421338
      7          6           0       -1.974606   -1.003120   -0.317737
      8          1           0        1.485783    0.859850   -0.287616
      9          1           0        2.797047   -0.374060    0.622485
     10          1           0        2.735887   -1.028856   -1.092179
     11          1           0        0.693186   -0.236514    1.770425
     12          1           0        0.700626    2.346697   -0.793124
     13          1           0        0.414504    2.123172    0.927870
     14          1           0       -1.656150    0.343879    1.334381
     15          1           0       -2.245669   -1.829866    0.341239
     16          1           0       -2.888852   -0.531057   -0.678248
     17          1           0       -1.426162   -1.395169   -1.173625
 ---------------------------------------------------------------------

 SCF Done:  E(RHF) =  -344.803159188     A.U. after    2 cycles

 The electronic state is 1-A.
 Alpha  occ. eigenvalues --  -20.65005 -20.56914 -11.35022 -11.30930 -11.27384
 Alpha  occ. eigenvalues --  -11.26683 -11.23328  -1.43815  -1.33569  -1.05492
 Alpha  occ. eigenvalues --   -0.98068  -0.91176  -0.88998  -0.79767  -0.73579
 Alpha  occ. eigenvalues --   -0.70476  -0.68928  -0.63872  -0.63677  -0.60587
 Alpha  occ. eigenvalues --   -0.56687  -0.54293  -0.54082  -0.52176  -0.50338
 Alpha  occ. eigenvalues --   -0.45566  -0.42882  -0.28229
 Alpha virt. eigenvalues --    0.02982   0.04212   0.04429   0.04589   0.06146
 Alpha virt. eigenvalues --    0.06262   0.06759   0.06958   0.07378   0.08936
 Alpha virt. eigenvalues --    0.09045   0.11707   0.12967   0.13550   0.13925

 Mulliken charges:
               1
     1  C    0.367876
     2  O   -0.575236
     3  C    0.522549
     4  C    0.492804
     5  O   -0.731021
     6  C    0.589496
     7  C    0.466094
     8  H    0.380724
     9  H   -0.167742
    10  H   -0.357987
    11  H   -0.295112
    12  H   -0.274512
    13  H   -0.183666
    14  H   -0.260297
    15  H    0.003465
    16  H   -0.010266
    17  H    0.032829
 Sum of Mulliken charges =   0.00000

 Dipole moment (field-independent basis, Debye):
    X=             -0.0071    Y=             -0.8262    Z=              2.5497  Tot=              2.6802

 Test job not archived.
 1\1\GINC-SE113\SP\RHF\Aug-CC-pVDZ\C5H10O2\OHZDE\09-Apr-2025\0\\#t hf a
 ug-cc-pvdz iop(5/13=1,5/36=2,99/5=2) pseudo=read geom=check guess=(rea
 d,tcheck) scf=(maxcycle=1)\\title\\0,1\C,0,1.99996656,1.04737386,-0.31
 428335\O,0,0.64735145,1.08434837,-0.56765026\C,0,0.12210459,-0.0569219
 2,-0.88030302\C,0,0.77472399,-1.14190324,0.86406367\O,0,-0.60334455,-0
 .82719774,1.10134473\C,0,-1.13203751,-0.45589896,-0.16777307\C,0,-2.19
 647248,0.60577024,-0.00214693\H,0,1.61786275,-0.18826065,0.51381728\H,
 0,2.58364581,0.55124952,-1.09572249\H,0,2.35923715,2.03186533,-0.03271

 Normal termination of Gaussian 16 at Wed Apr  9 14:57:15 2025.
