 Gaussian 16, Revision C.01,

 ----------------------------------------------------------------------
 #t hf aug-cc-pvdz symm=none int=(grid=ultrafine) guess=(read,tcheck) s
 table=(opt,rrhf)
 ----------------------------------------------------------------------
 -----
 title
 -----
 Symbolic Z-matrix:
 Charge =  0 Multiplicity = 1

 SCF Done:  E(RHF) =  -269.951968113     A.U. after   13 cycles

 1\1\GINC-SE220\Stability\RHF\Aug-CC-pVDZ\C5H10O1\OHZDE\09-Apr-2025\0\\
 #t hf aug-cc-pvdz symm=none int=(grid=ultrafine) guess=(read,tcheck) s
 table=(opt,rrhf)\\title\\0,1\C,0,2.3914596,0.14047084,0.68233743\O,0,1
 .37559425,-0.83077213,0.51954788\C,0,0.15110965,-0.31996011,0.38856826
 \C,0,-0.39950214,0.90025271,0.36776234\C,0,-1.79374414,0.33221776,0.18
 21332\C,0,-1.12641309,-1.07935114,0.20364618\H,0,2.21674708,0.73212931
 ,1.58605777\H,0,2.42570917,0.8080882,-0.18397042\H,0,3.33261208,-0.396
 95713,0.76942971\H,0,-0.72744195,-0.06448584,-3.11775185\H,0,-0.023283

 Normal termination of Gaussian 16 at Wed Apr  9 14:23:26 2025.
 Gaussian 16:  ES64L-G16RevC.01  3-Jul-2019

 ----------------------------------------------------------------------
 #t hf aug-cc-pvdz iop(5/13=1,5/36=2,99/5=2) pseudo=read geom=check gue
 ss=(read,tcheck) scf=(maxcycle=1)
 ----------------------------------------------------------------------
 -----
 title
 -----
 Structure from the checkpoint file:  "Grambow2020_wb97xd3_006203_reverse_mol2.chk"
 Charge =  0 Multiplicity = 1

                         Standard orientation:
 ---------------------------------------------------------------------
 Center     Atomic      Atomic             Coordinates (Angstroms)
 Number     Number       Type             X           Y           Z
 ---------------------------------------------------------------------
      1          6           0       -2.306381    0.294465    0.018022
      2          8           0       -1.291348   -0.690979   -0.002122
      3          6           0       -0.057531   -0.198308   -0.113554
      4          6           0        0.503432    1.013146   -0.214665
      5          6           0        1.899688    0.425067   -0.289926
      6          6           0        1.221428   -0.975860   -0.164671
      7          1           0       -2.298992    0.873372   -0.910475
      8          1           0       -2.165969    0.971958    0.865763
      9          1           0       -3.254081   -0.228844    0.118991
     10          1           0        1.476116    0.081411    3.157697
     11          1           0        0.131302    2.027493   -0.241984
     12          1           0        1.074219    0.357593    2.592504
     13          1           0        2.567331    0.672198    0.538590
     14          1           0        2.431656    0.580011   -1.230886
     15          1           0        1.339322   -1.630831   -1.029319
     16          1           0        1.466066   -1.527591    0.744863
 ---------------------------------------------------------------------

 SCF Done:  E(RHF) =  -270.042986540     A.U. after    2 cycles

 The electronic state is 1-A.
 Alpha  occ. eigenvalues --  -20.60243 -11.29855 -11.29410 -11.23473 -11.23370
 Alpha  occ. eigenvalues --  -11.21981  -1.37985  -1.13879  -0.96796  -0.90020
 Alpha  occ. eigenvalues --   -0.85618  -0.73857  -0.69353  -0.67529  -0.66225
 Alpha  occ. eigenvalues --   -0.62622  -0.58165  -0.55667  -0.51617  -0.50505
 Alpha  occ. eigenvalues --   -0.49817  -0.48378  -0.46885  -0.33136
 Alpha virt. eigenvalues --    0.03560   0.04516   0.04747   0.05299   0.06226
 Alpha virt. eigenvalues --    0.06615   0.07209   0.07390   0.08051   0.09775
 Alpha virt. eigenvalues --    0.11644   0.12400   0.13548   0.13941   0.14147

 Mulliken charges:
               1
     1  C    0.812918
     2  O   -0.638958
     3  C   -0.142518
     4  C    0.433189
     5  C    0.483549
     6  C    0.333008
     7  H   -0.058636
     8  H   -0.068925
     9  H   -0.298878
    10  H   -0.030360
    11  H   -0.413783
    12  H    0.056532
    13  H   -0.143948
    14  H   -0.119716
    15  H   -0.098559
    16  H   -0.104916
 Sum of Mulliken charges =  -0.00000

 Dipole moment (field-independent basis, Debye):
    X=             -0.5733    Y=              0.9618    Z=             -0.1127  Tot=              1.1253

 Test job not archived.
 1\1\GINC-SE220\SP\RHF\Aug-CC-pVDZ\C5H10O1\OHZDE\09-Apr-2025\0\\#t hf a
 ug-cc-pvdz iop(5/13=1,5/36=2,99/5=2) pseudo=read geom=check guess=(rea
 d,tcheck) scf=(maxcycle=1)\\title\\0,1\C,0,2.3914596,0.14047084,0.6823
 3743\O,0,1.37559425,-0.83077213,0.51954788\C,0,0.15110965,-0.31996011,
 0.38856826\C,0,-0.39950214,0.90025271,0.36776234\C,0,-1.79374414,0.332
 21776,0.1821332\C,0,-1.12641309,-1.07935114,0.20364618\H,0,2.21674708,
 0.73212931,1.58605777\H,0,2.42570917,0.8080882,-0.18397042\H,0,3.33261
 208,-0.39695713,0.76942971\H,0,-0.72744195,-0.06448584,-3.11775185\H,0

 Normal termination of Gaussian 16 at Wed Apr  9 14:23:31 2025.
