 Gaussian 16, Revision C.01,

 ----------------------------------------------------------------------
 #t hf aug-cc-pvdz symm=none int=(grid=ultrafine) guess=(read,tcheck) s
 table=(opt,rrhf)
 ----------------------------------------------------------------------
 -----
 title
 -----
 Symbolic Z-matrix:
 Charge =  0 Multiplicity = 1

 SCF Done:  E(RHF) =  -341.260976114     A.U. after   19 cycles
 Normal termination of Gaussian 16 at Wed Apr  9 16:57:00 2025.
 Gaussian 16:  ES64L-G16RevC.01  3-Jul-2019

 ----------------------------------------------------------------------
 #t hf aug-cc-pvdz iop(5/13=1,5/36=2,99/5=2) pseudo=read geom=check gue
 ss=(read,tcheck) scf=(maxcycle=1)
 ----------------------------------------------------------------------
 -----
 title
 -----
 Structure from the checkpoint file:  "Grambow2020_wb97xd3_009087_forward_mol1.chk"
 Charge =  0 Multiplicity = 1

                         Standard orientation:
 ---------------------------------------------------------------------
 Center     Atomic      Atomic             Coordinates (Angstroms)
 Number     Number       Type             X           Y           Z
 ---------------------------------------------------------------------
      1          8           0       -1.833417   -0.981296   -0.100885
      2          6           0       -0.664107   -0.680269    0.172892
      3          6           0        0.580956   -1.359231   -0.088699
      4          6           0        1.699562   -0.468391   -0.055961
      5          6           0        1.319722    0.827803   -0.030114
      6          6           0       -0.145785    0.925869    0.031546
      7          8           0       -0.889053    1.837686   -0.071551
      8          1           0       -0.282274   -0.772880    1.297065
      9          1           0        0.641347   -2.419666   -0.301304
     10          1           0        2.725232   -0.807464    0.004734
     11          1           0        1.953365    1.674194    0.201009
 ---------------------------------------------------------------------

 SCF Done:  E(RHF) =  -341.363174859     A.U. after    2 cycles

 The electronic state is 1-A.
 Alpha  occ. eigenvalues --  -20.61205 -20.48832 -11.37782 -11.36026 -11.33788
 Alpha  occ. eigenvalues --  -11.32215 -11.31972  -1.40723  -1.29266  -1.19528
 Alpha  occ. eigenvalues --   -1.02404  -0.94684  -0.80839  -0.78233  -0.73556
 Alpha  occ. eigenvalues --   -0.67534  -0.65898  -0.64386  -0.62546  -0.59267
 Alpha  occ. eigenvalues --   -0.57337  -0.49583  -0.47521  -0.37768  -0.35645
 Alpha virt. eigenvalues --   -0.03557   0.01526   0.03147   0.04276   0.04947
 Alpha virt. eigenvalues --    0.08674   0.08922   0.09520   0.11182   0.11622
 Alpha virt. eigenvalues --    0.12663   0.13151   0.13527   0.14016   0.14869

 Mulliken charges:
               1
     1  O   -0.635813
     2  C    0.182065
     3  C    0.208896
     4  C    0.276346
     5  C    0.633197
     6  C    0.054120
     7  O   -0.351601
     8  H    0.444886
     9  H   -0.261649
    10  H   -0.288491
    11  H   -0.261956
 Sum of Mulliken charges =   0.00000

 Dipole moment (field-independent basis, Debye):
    X=              8.7537    Y=             -1.5036    Z=              1.0059  Tot=              8.9386

 Test job not archived.
 1\1\GINC-SE112\SP\RHF\Aug-CC-pVDZ\C5H4O2\OHZDE\09-Apr-2025\0\\#t hf au
 g-cc-pvdz iop(5/13=1,5/36=2,99/5=2) pseudo=read geom=check guess=(read
 ,tcheck) scf=(maxcycle=1)\\title\\0,1\O,0,-0.85190602,2.25262262,-0.36
 425195\C,0,-0.56065424,1.09260746,-0.04425827\C,0,-1.02217231,-0.17852
 892,-0.54507206\C,0,-0.10119797,-1.23644235,-0.26476358\C,0,1.08680866
 ,-0.77433066,0.18262701\C,0,1.04420395,0.68905234,0.3161384\O,0,1.8803
 6338,1.4949738,0.5301851\H,0,-0.97144547,0.64593969,0.9803764\H,0,-1.9
 5372479,-0.29688447,-1.08504742\H,0,-0.35986181,-2.2839185,-0.34563518

 Normal termination of Gaussian 16 at Wed Apr  9 16:57:04 2025.
