 Gaussian 16, Revision C.01,

 ----------------------------------------------------------------------
 #t hf aug-cc-pvdz symm=none int=(grid=ultrafine) guess=(read,tcheck) s
 table=(opt,rrhf)
 ----------------------------------------------------------------------
 -----
 title
 -----
 Symbolic Z-matrix:
 Charge =  0 Multiplicity = 1

 SCF Done:  E(RHF) =  -339.287146625     A.U. after   16 cycles
 Normal termination of Gaussian 16 at Wed Apr  9 14:11:55 2025.
 Gaussian 16:  ES64L-G16RevC.01  3-Jul-2019

 ----------------------------------------------------------------------
 #t hf aug-cc-pvdz iop(5/13=1,5/36=2,99/5=2) pseudo=read geom=check gue
 ss=(read,tcheck) scf=(maxcycle=1)
 ----------------------------------------------------------------------
 -----
 title
 -----
 Structure from the checkpoint file:  "Grambow2020_b97d3_006815_reverse_mol2.chk"
 Charge =  0 Multiplicity = 1

                         Standard orientation:
 ---------------------------------------------------------------------
 Center     Atomic      Atomic             Coordinates (Angstroms)
 Number     Number       Type             X           Y           Z
 ---------------------------------------------------------------------
      1          8           0        1.207448    0.856110    0.327169
      2          6           0        0.307669    1.413803   -0.474707
      3          6           0       -1.690108   -0.263079    0.383280
      4          8           0       -2.711041   -0.209836   -0.140538
      5          6           0        1.252926   -0.580108    0.400772
      6          8           0        1.372262   -1.280041   -0.556958
      7          1           0        0.560041    2.504262   -0.358133
      8          1           0        1.267681   -0.857820    1.464688
 ---------------------------------------------------------------------

 SCF Done:  E(RHF) =  -339.394682335     A.U. after    2 cycles

 The electronic state is 1-A.
 Alpha  occ. eigenvalues --  -20.67660 -20.67474 -20.62139 -11.43821 -11.37811
 Alpha  occ. eigenvalues --  -11.34426  -1.46778  -1.45886  -1.38799  -0.98803
 Alpha  occ. eigenvalues --   -0.81563  -0.80662  -0.75660  -0.71094  -0.67825
 Alpha  occ. eigenvalues --   -0.64282  -0.64058  -0.62595  -0.57046  -0.55814
 Alpha  occ. eigenvalues --   -0.51982  -0.39413
 Alpha virt. eigenvalues --    0.03191   0.04447   0.05112   0.06746   0.08257
 Alpha virt. eigenvalues --    0.09397   0.10063   0.10622   0.11402   0.13312
 Alpha virt. eigenvalues --    0.13723   0.14957   0.15329   0.16060   0.16967

 Mulliken charges:
               1
     1  O   -0.547374
     2  C    0.214764
     3  C    0.243156
     4  O   -0.271637
     5  C    0.925194
     6  O   -0.367536
     7  H   -0.085463
     8  H   -0.111103
 Sum of Mulliken charges =  -0.00000

 Dipole moment (field-independent basis, Debye):
    X=              1.1036    Y=              1.2074    Z=              3.0468  Tot=              3.4582

 Test job not archived.
 1\1\GINC-SE131\SP\RHF\Aug-CC-pVDZ\C3H2O3\OHZDE\09-Apr-2025\0\\#t hf au
 g-cc-pvdz iop(5/13=1,5/36=2,99/5=2) pseudo=read geom=check guess=(read
 ,tcheck) scf=(maxcycle=1)\\title\\0,1\O,0,-0.82971761,-0.69274527,0.61
 498126\C,0,-0.83355665,0.60125866,0.91359117\C,0,0.54500257,1.26615986
 ,-1.36602952\O,0,0.87858212,2.35658819,-1.504648\C,0,0.39771197,-1.276
 33677,0.14270448\O,0,1.42812,-1.20174439,0.73775852\H,0,-1.88377004,0.
 73211871,1.29609454\H,0,0.16295964,-1.857816,-0.76064146\\Version=ES64
 L-G16RevC.01\State=1-A\HF=-339.3946823\RMSD=2.326e-03\Dipole=-1.019017

 Normal termination of Gaussian 16 at Wed Apr  9 14:11:57 2025.
