 Gaussian 16, Revision C.01,

 ----------------------------------------------------------------------
 #t hf aug-cc-pvdz symm=none int=(grid=ultrafine) guess=(read,tcheck) s
 table=(opt,rrhf)
 ----------------------------------------------------------------------
 -----
 title
 -----
 Symbolic Z-matrix:
 Charge =  0 Multiplicity = 1

 SCF Done:  E(RHF) =  -307.726980360     A.U. after   15 cycles

 1\1\GINC-SE174\Stability\RHF\Aug-CC-pVDZ\C6H10O1\OHZDE\09-Apr-2025\0\\
 #t hf aug-cc-pvdz symm=none int=(grid=ultrafine) guess=(read,tcheck) s
 table=(opt,rrhf)\\title\\0,1\C,0,1.83310976,-0.49554593,-0.05524762\C,
 0,0.68961307,0.38402435,0.41513847\C,0,0.00712038,1.31655099,-0.593728
 36\C,0,-1.44980743,1.16702588,-0.11122411\O,0,-2.073457,0.09918617,-0.
 80289934\C,0,-1.38679066,-1.00938529,-0.25687028\C,0,-0.58682045,-0.31
 632281,0.85227595\H,0,2.17352278,-1.16207855,0.74124197\H,0,2.68274437
 ,0.11292522,-0.37098903\H,0,1.53527487,-1.11308783,-0.90617871\H,0,1.0

 Normal termination of Gaussian 16 at Wed Apr  9 16:31:18 2025.
 Gaussian 16:  ES64L-G16RevC.01  3-Jul-2019

 ----------------------------------------------------------------------
 #t hf aug-cc-pvdz iop(5/13=1,5/36=2,99/5=2) pseudo=read geom=check gue
 ss=(read,tcheck) scf=(maxcycle=1)
 ----------------------------------------------------------------------
 -----
 title
 -----
 Structure from the checkpoint file:  "Grambow2020_wb97xd3_008503_forward_mol1.chk"
 Charge =  0 Multiplicity = 1

                         Standard orientation:
 ---------------------------------------------------------------------
 Center     Atomic      Atomic             Coordinates (Angstroms)
 Number     Number       Type             X           Y           Z
 ---------------------------------------------------------------------
      1          6           0        2.189822   -0.429102   -0.399115
      2          6           0        1.088423    0.236738    0.404669
      3          6           0        0.227227    1.314062   -0.266845
      4          6           0       -1.136928    0.952689    0.354684
      5          8           0       -1.806087    0.019129   -0.474972
      6          6           0       -0.999715   -1.127349   -0.290736
      7          6           0       -0.079565   -0.636788    0.833171
      8          1           0        2.670515   -1.226820    0.172832
      9          1           0        2.957432    0.296191   -0.675764
     10          1           0        1.799960   -0.865114   -1.322179
     11          1           0        1.519032    0.662755    1.315431
     12          1           0        0.531052    2.339413   -0.060246
     13          1           0        0.170213    1.182590   -1.350417
     14          1           0       -0.902243    0.297904    1.398273
     15          1           0       -0.459383   -1.434710   -1.197942
     16          1           0       -1.632666   -1.962079    0.019792
     17          1           0        0.059194   -1.304658    1.685029
 ---------------------------------------------------------------------

 SCF Done:  E(RHF) =  -307.819606826     A.U. after    2 cycles

 The electronic state is 1-A.
 Alpha  occ. eigenvalues --  -20.57014 -11.30408 -11.29212 -11.28912 -11.25758
 Alpha  occ. eigenvalues --  -11.23869 -11.23135  -1.35823  -1.12365  -0.99156
 Alpha  occ. eigenvalues --   -0.98190  -0.88426  -0.83369  -0.72059  -0.70806
 Alpha  occ. eigenvalues --   -0.66702  -0.64450  -0.61515  -0.58712  -0.56340
 Alpha  occ. eigenvalues --   -0.55030  -0.53084  -0.51963  -0.48426  -0.46881
 Alpha  occ. eigenvalues --   -0.43729  -0.30156
 Alpha virt. eigenvalues --    0.02736   0.03907   0.04198   0.04951   0.06250
 Alpha virt. eigenvalues --    0.06278   0.06724   0.07174   0.07670   0.09325
 Alpha virt. eigenvalues --    0.10049   0.12173   0.12725   0.13486   0.13816

 Mulliken charges:
               1
     1  C    0.605424
     2  C   -0.761876
     3  C    0.750172
     4  C   -0.173293
     5  O   -0.708043
     6  C    1.055587
     7  C   -0.105696
     8  H   -0.026547
     9  H    0.000589
    10  H   -0.054745
    11  H   -0.151620
    12  H   -0.144637
    13  H   -0.084045
    14  H    0.489059
    15  H   -0.210192
    16  H   -0.192804
    17  H   -0.287332
 Sum of Mulliken charges =  -0.00000

 Dipole moment (field-independent basis, Debye):
    X=              3.4819    Y=             -2.3725    Z=              0.5952  Tot=              4.2552

 Test job not archived.
 1\1\GINC-SE174\SP\RHF\Aug-CC-pVDZ\C6H10O1\OHZDE\09-Apr-2025\0\\#t hf a
 ug-cc-pvdz iop(5/13=1,5/36=2,99/5=2) pseudo=read geom=check guess=(rea
 d,tcheck) scf=(maxcycle=1)\\title\\0,1\C,0,1.83310976,-0.49554593,-0.0
 5524762\C,0,0.68961307,0.38402435,0.41513847\C,0,0.00712038,1.31655099
 ,-0.59372836\C,0,-1.44980743,1.16702588,-0.11122411\O,0,-2.073457,0.09
 918617,-0.80289934\C,0,-1.38679066,-1.00938529,-0.25687028\C,0,-0.5868
 2045,-0.31632281,0.85227595\H,0,2.17352278,-1.16207855,0.74124197\H,0,
 2.68274437,0.11292522,-0.37098903\H,0,1.53527487,-1.11308783,-0.906178

 Normal termination of Gaussian 16 at Wed Apr  9 16:31:24 2025.
