 Gaussian 16, Revision C.01,

 ----------------------------------------------------------------------
 #t hf aug-cc-pvdz symm=none int=(grid=ultrafine) guess=(read,tcheck) s
 table=(opt,rrhf)
 ----------------------------------------------------------------------
 -----
 title
 -----
 Symbolic Z-matrix:
 Charge =  0 Multiplicity = 1

 SCF Done:  E(RHF) =  -301.603764971     A.U. after   17 cycles
 Normal termination of Gaussian 16 at Wed Apr  9 03:46:32 2025.
 Gaussian 16:  ES64L-G16RevC.01  3-Jul-2019

 ----------------------------------------------------------------------
 #t hf aug-cc-pvdz iop(5/13=1,5/36=2,99/5=2) pseudo=read geom=check gue
 ss=(read,tcheck) scf=(maxcycle=1)
 ----------------------------------------------------------------------
 -----
 title
 -----
 Structure from the checkpoint file:  "Grambow2020_wb97xd3_007934_forward_mol1.chk"
 Charge =  0 Multiplicity = 1

                         Standard orientation:
 ---------------------------------------------------------------------
 Center     Atomic      Atomic             Coordinates (Angstroms)
 Number     Number       Type             X           Y           Z
 ---------------------------------------------------------------------
      1          6           0        1.077161    0.843600    0.437913
      2          6           0        1.746583   -0.477643   -0.033396
      3          6           0        0.439630   -0.919476   -0.504434
      4          7           0       -0.582140   -1.295989    0.059478
      5          6           0       -1.614611   -0.471220    0.266083
      6          6           0       -1.300610    0.844044   -0.103944
      7          7           0       -0.074247    1.211615   -0.406385
      8          1           0        1.789889    1.666181    0.389248
      9          1           0        0.760659    0.700577    1.475359
     10          1           0        2.459221   -0.313126   -0.836531
     11          1           0        2.183617   -1.071366    0.772258
     12          1           0       -2.579477   -0.855161    0.558120
     13          1           0       -2.108115    1.547677   -0.303439
 ---------------------------------------------------------------------

 SCF Done:  E(RHF) =  -301.691505640     A.U. after    2 cycles

 The electronic state is 1-A.
 Alpha  occ. eigenvalues --  -15.68580 -15.61333 -11.33672 -11.29217 -11.28522
 Alpha  occ. eigenvalues --  -11.28115 -11.27333  -1.29877  -1.16782  -1.09326
 Alpha  occ. eigenvalues --   -0.95643  -0.90946  -0.78860  -0.73415  -0.69616
 Alpha  occ. eigenvalues --   -0.67702  -0.63738  -0.58374  -0.57180  -0.54720
 Alpha  occ. eigenvalues --   -0.54204  -0.48415  -0.41735  -0.36044  -0.31120
 Alpha virt. eigenvalues --    0.03299   0.03735   0.04514   0.04700   0.06197
 Alpha virt. eigenvalues --    0.07334   0.07797   0.09314   0.10448   0.10943
 Alpha virt. eigenvalues --    0.11994   0.12136   0.12981   0.14155   0.14798

 Mulliken charges:
               1
     1  C    0.633334
     2  C    0.459282
     3  C   -0.113405
     4  N   -0.329425
     5  C    0.490972
     6  C    0.623713
     7  N   -0.773771
     8  H   -0.166537
     9  H   -0.146076
    10  H   -0.095398
    11  H   -0.010043
    12  H   -0.318629
    13  H   -0.254017
 Sum of Mulliken charges =  -0.00000

 Dipole moment (field-independent basis, Debye):
    X=              1.1814    Y=             -0.7193    Z=              1.6374  Tot=              2.1434

 Test job not archived.
 1\1\GINC-SE094\SP\RHF\Aug-CC-pVDZ\C5H6N2\OHZDE\09-Apr-2025\0\\#t hf au
 g-cc-pvdz iop(5/13=1,5/36=2,99/5=2) pseudo=read geom=check guess=(read
 ,tcheck) scf=(maxcycle=1)\\title\\0,1\C,0,-1.11167635,-0.4609018,0.077
 67724\C,0,-1.30302237,1.07804698,-0.02702905\C,0,0.11618991,1.18818564
 ,-0.3415513\N,0,1.14279828,1.06680311,0.31808013\C,0,1.85393668,-0.065
 94032,0.30801814\C,0,1.19745104,-1.07567811,-0.40954155\N,0,-0.0464346
 4,-0.94763053,-0.81807279\H,0,-2.03016302,-0.97546222,-0.20267886\H,0,
 -0.87114306,-0.69271987,1.1194678\H,0,-1.94899459,1.35611186,-0.854885

 Normal termination of Gaussian 16 at Wed Apr  9 03:46:36 2025.
