 Gaussian 16, Revision C.01,

 ----------------------------------------------------------------------
 #t hf aug-cc-pvdz symm=none int=(grid=ultrafine) guess=(read,tcheck) s
 table=(opt,rrhf)
 ----------------------------------------------------------------------
 -----
 title
 -----
 Symbolic Z-matrix:
 Charge =  0 Multiplicity = 1

 SCF Done:  E(RHF) =  -322.616831941     A.U. after   17 cycles
 Normal termination of Gaussian 16 at Wed Apr  9 14:53:18 2025.
 Gaussian 16:  ES64L-G16RevC.01  3-Jul-2019

 ----------------------------------------------------------------------
 #t hf aug-cc-pvdz iop(5/13=1,5/36=2,99/5=2) pseudo=read geom=check gue
 ss=(read,tcheck) scf=(maxcycle=1)
 ----------------------------------------------------------------------
 -----
 title
 -----
 Structure from the checkpoint file:  "Grambow2020_wb97xd3_006636_reverse_mol2.chk"
 Charge =  0 Multiplicity = 1

                         Standard orientation:
 ---------------------------------------------------------------------
 Center     Atomic      Atomic             Coordinates (Angstroms)
 Number     Number       Type             X           Y           Z
 ---------------------------------------------------------------------
      1          8           0        1.200732    0.971130    0.024549
      2          6           0       -0.008148    1.396453   -0.244260
      3          6           0       -1.195883    0.725548   -0.077610
      4          6           0       -0.925128   -0.864469   -0.305719
      5          6           0        0.517461   -1.308539   -0.467645
      6          6           0        1.370244   -0.407914    0.410351
      7          7           0       -1.350432   -0.391142    0.874457
      8          1           0        0.011512    2.396260   -0.671679
      9          1           0       -2.074099    1.186370   -0.527626
     10          1           0       -1.598283   -1.137164   -1.138103
     11          1           0        0.837571   -1.282555   -1.512891
     12          1           0        0.623039   -2.336107   -0.108882
     13          1           0        2.436729   -0.594365    0.303007
     14          1           0        1.059419   -0.509954    1.447887
 ---------------------------------------------------------------------

 SCF Done:  E(RHF) =  -322.712494912     A.U. after    2 cycles

 The electronic state is 1-A.
 Alpha  occ. eigenvalues --  -20.64264 -15.55826 -11.36403 -11.30935 -11.30437
 Alpha  occ. eigenvalues --  -11.27414 -11.25152  -1.42369  -1.22247  -1.07234
 Alpha  occ. eigenvalues --   -0.98397  -0.92423  -0.80054  -0.75531  -0.74043
 Alpha  occ. eigenvalues --   -0.68774  -0.67448  -0.61838  -0.60122  -0.57855
 Alpha  occ. eigenvalues --   -0.52745  -0.52014  -0.50063  -0.48515  -0.34818
 Alpha  occ. eigenvalues --   -0.30623
 Alpha virt. eigenvalues --    0.02952   0.03830   0.04115   0.05158   0.05938
 Alpha virt. eigenvalues --    0.06825   0.07105   0.07923   0.10490   0.11326
 Alpha virt. eigenvalues --    0.12141   0.12984   0.13877   0.14283   0.14641

 Mulliken charges:
               1
     1  O   -0.512621
     2  C    0.478306
     3  C    0.918564
     4  C    0.124468
     5  C    0.099056
     6  C    0.994244
     7  N   -1.018391
     8  H   -0.330826
     9  H   -0.268549
    10  H   -0.149362
    11  H   -0.090302
    12  H    0.071392
    13  H   -0.209446
    14  H   -0.106532
 Sum of Mulliken charges =   0.00000

 Dipole moment (field-independent basis, Debye):
    X=              2.3155    Y=              0.3406    Z=             -2.9353  Tot=              3.7541

 Test job not archived.
 1\1\GINC-SE100\SP\RHF\Aug-CC-pVDZ\C5H7N1O1\OHZDE\09-Apr-2025\0\\#t hf
 aug-cc-pvdz iop(5/13=1,5/36=2,99/5=2) pseudo=read geom=check guess=(re
 ad,tcheck) scf=(maxcycle=1)\\title\\0,1\O,0,0.3810897,0.74718359,1.369
 15746\C,0,0.85428237,1.27360894,0.26756131\C,0,0.41135578,1.08007517,-
 1.01889176\C,0,-0.17387144,-0.43536395,-1.13910546\C,0,-0.28659151,-1.
 24151562,0.14225833\C,0,-0.63376238,-0.27129945,1.25912579\N,0,-0.9607
 6547,0.63372989,-1.32771466\H,0,1.71521569,1.90616598,0.47091391\H,0,1
 .05146834,1.46829323,-1.80988981\H,0,0.43587782,-0.89882269,-1.9352051

 Normal termination of Gaussian 16 at Wed Apr  9 14:53:23 2025.
