 Gaussian 16, Revision C.01,

 ----------------------------------------------------------------------
 #t hf aug-cc-pvdz symm=none int=(grid=ultrafine) guess=(read,tcheck) s
 table=(opt,rrhf)
 ----------------------------------------------------------------------
 -----
 title
 -----
 Symbolic Z-matrix:
 Charge =  0 Multiplicity = 1

 SCF Done:  E(RHF) =  -345.860011814     A.U. after   15 cycles

 1\1\GINC-SE163\Stability\RHF\Aug-CC-pVDZ\C5H12O2\OHZDE\09-Apr-2025\0\\
 #t hf aug-cc-pvdz symm=none int=(grid=ultrafine) guess=(read,tcheck) s
 table=(opt,rrhf)\\title\\0,1\C,0,2.87175277,0.83018217,-0.39713499\C,0
 ,1.64588245,0.04308982,-0.05303419\O,0,1.45221893,-1.03854526,-0.86373
 208\C,0,0.33995227,-1.68597509,-0.71257814\C,0,-1.02433783,0.3130492,-
 0.51117354\O,0,-1.60325075,-0.16347137,0.67857747\C,0,-2.90739339,0.30
 845009,0.8889179\H,0,2.90167506,1.05623376,-1.46422631\H,0,3.80063001,
 0.31648913,-0.12867484\H,0,2.85123241,1.77662686,0.14561913\H,0,0.3013

 Normal termination of Gaussian 16 at Wed Apr  9 17:09:48 2025.
 Gaussian 16:  ES64L-G16RevC.01  3-Jul-2019

 ----------------------------------------------------------------------
 #t hf aug-cc-pvdz iop(5/13=1,5/36=2,99/5=2) pseudo=read geom=check gue
 ss=(read,tcheck) scf=(maxcycle=1)
 ----------------------------------------------------------------------
 -----
 title
 -----
 Structure from the checkpoint file:  "Grambow2020_wb97xd3_009170_forward_mol1.chk"
 Charge =  0 Multiplicity = 1

                         Standard orientation:
 ---------------------------------------------------------------------
 Center     Atomic      Atomic             Coordinates (Angstroms)
 Number     Number       Type             X           Y           Z
 ---------------------------------------------------------------------
      1          6           0        2.778632   -1.115630    0.021418
      2          6           0        1.525352   -0.372447   -0.321580
      3          8           0        1.547077    0.935154    0.071332
      4          6           0        0.445116    1.602282   -0.069286
      5          6           0       -0.975544   -0.193594    0.739729
      6          8           0       -1.799260   -0.096376   -0.395947
      7          6           0       -3.127678   -0.475235   -0.151996
      8          1           0        3.045867   -0.964543    1.068527
      9          1           0        3.633547   -0.823129   -0.596908
     10          1           0        2.612710   -2.183256   -0.131568
     11          1           0        0.271207   -0.500745    0.346731
     12          1           0        1.154770   -0.499921   -1.341771
     13          1           0        0.420599    2.547759    0.456914
     14          1           0       -0.188201    1.427699   -0.931782
     15          1           0       -1.089588   -1.191023    1.196326
     16          1           0       -1.253567    0.532007    1.509752
     17          1           0       -3.589514    0.153919    0.620442
     18          1           0       -3.191763   -1.522316    0.173142
     19          1           0       -3.683880   -0.358932   -1.082589
 ---------------------------------------------------------------------

 SCF Done:  E(RHF) =  -345.975469383     A.U. after    2 cycles

 The electronic state is 1-A.
 Alpha  occ. eigenvalues --  -20.65277 -20.56095 -11.33269 -11.27349 -11.26217
 Alpha  occ. eigenvalues --  -11.26011 -11.22306  -1.43169  -1.32571  -1.03456
 Alpha  occ. eigenvalues --   -0.95568  -0.92007  -0.85753  -0.82336  -0.72003
 Alpha  occ. eigenvalues --   -0.69006  -0.68362  -0.65695  -0.64079  -0.62084
 Alpha  occ. eigenvalues --   -0.56491  -0.54910  -0.54286  -0.53820  -0.50914
 Alpha  occ. eigenvalues --   -0.48896  -0.43623  -0.42080  -0.26507
 Alpha virt. eigenvalues --    0.03382   0.04331   0.04491   0.04762   0.06006
 Alpha virt. eigenvalues --    0.06302   0.06626   0.06922   0.07091   0.08011
 Alpha virt. eigenvalues --    0.09228   0.09497   0.11432   0.11897   0.12848

 Mulliken charges:
               1
     1  C    0.170425
     2  C    0.222239
     3  O   -0.469821
     4  C    0.774622
     5  C    0.612711
     6  O   -0.627016
     7  C    0.741614
     8  H   -0.008325
     9  H   -0.027596
    10  H    0.020882
    11  H    0.039153
    12  H   -0.291276
    13  H   -0.349194
    14  H   -0.030370
    15  H   -0.100071
    16  H   -0.193626
    17  H   -0.077529
    18  H   -0.125781
    19  H   -0.281041
 Sum of Mulliken charges =  -0.00000

 Dipole moment (field-independent basis, Debye):
    X=             -0.6232    Y=              0.6054    Z=              0.2118  Tot=              0.8942

 Test job not archived.
 1\1\GINC-SE163\SP\RHF\Aug-CC-pVDZ\C5H12O2\OHZDE\09-Apr-2025\0\\#t hf a
 ug-cc-pvdz iop(5/13=1,5/36=2,99/5=2) pseudo=read geom=check guess=(rea
 d,tcheck) scf=(maxcycle=1)\\title\\0,1\C,0,2.87175277,0.83018217,-0.39
 713499\C,0,1.64588245,0.04308982,-0.05303419\O,0,1.45221893,-1.0385452
 6,-0.86373208\C,0,0.33995227,-1.68597509,-0.71257814\C,0,-1.02433783,0
 .3130492,-0.51117354\O,0,-1.60325075,-0.16347137,0.67857747\C,0,-2.907
 39339,0.30845009,0.8889179\H,0,2.90167506,1.05623376,-1.46422631\H,0,3
 .80063001,0.31648913,-0.12867484\H,0,2.85123241,1.77662686,0.14561913\

 Normal termination of Gaussian 16 at Wed Apr  9 17:09:55 2025.
