 Gaussian 16, Revision C.01,

 ----------------------------------------------------------------------
 #t hf aug-cc-pvdz symm=none int=(grid=ultrafine) guess=(read,tcheck) s
 table=(opt,rrhf)
 ----------------------------------------------------------------------
 -----
 title
 -----
 Symbolic Z-matrix:
 Charge =  0 Multiplicity = 1

 SCF Done:  E(RHF) =  -375.686228435     A.U. after   15 cycles
 Normal termination of Gaussian 16 at Wed Apr  9 03:45:28 2025.
 Gaussian 16:  ES64L-G16RevC.01  3-Jul-2019

 ----------------------------------------------------------------------
 #t hf aug-cc-pvdz iop(5/13=1,5/36=2,99/5=2) pseudo=read geom=check gue
 ss=(read,tcheck) scf=(maxcycle=1)
 ----------------------------------------------------------------------
 -----
 title
 -----
 Structure from the checkpoint file:  "Grambow2020_wb97xd3_007859_reverse_mol1.chk"
 Charge =  0 Multiplicity = 1

                         Standard orientation:
 ---------------------------------------------------------------------
 Center     Atomic      Atomic             Coordinates (Angstroms)
 Number     Number       Type             X           Y           Z
 ---------------------------------------------------------------------
      1          7           0        2.038605    0.028933    0.090509
      2          6           0        0.731380    0.073933   -0.129250
      3          8           0       -0.495673   -0.870730    1.098918
      4          6           0       -0.105216    1.319991    0.053134
      5          8           0       -1.392339    0.797408   -0.160953
      6          6           0       -1.119870   -0.614242   -0.041762
      7          7           0        0.043065   -0.730239   -1.023257
      8          1           0        2.528105   -0.841566   -0.019246
      9          1           0        2.446677    0.696180    0.720955
     10          1           0        0.136321    2.061381   -0.714264
     11          1           0        0.029285    1.747793    1.049646
     12          1           0       -2.026180   -1.160562   -0.311375
     13          1           0        0.380432   -1.685605   -0.992933
 ---------------------------------------------------------------------

 SCF Done:  E(RHF) =  -375.801029351     A.U. after    2 cycles

 The electronic state is 1-A.
 Alpha  occ. eigenvalues --  -20.56837 -20.48926 -15.69768 -15.64121 -11.41011
 Alpha  occ. eigenvalues --  -11.35998 -11.31160  -1.40236  -1.27993  -1.24023
 Alpha  occ. eigenvalues --   -1.15400  -0.99989  -0.84375  -0.83721  -0.77810
 Alpha  occ. eigenvalues --   -0.74600  -0.68839  -0.64668  -0.61649  -0.60412
 Alpha  occ. eigenvalues --   -0.57314  -0.54816  -0.52010  -0.47158  -0.45625
 Alpha  occ. eigenvalues --   -0.41214  -0.37813
 Alpha virt. eigenvalues --    0.01848   0.03408   0.04477   0.05278   0.06472
 Alpha virt. eigenvalues --    0.07314   0.10409   0.10968   0.11752   0.12140
 Alpha virt. eigenvalues --    0.12972   0.14312   0.14448   0.15077   0.16770

 Mulliken charges:
               1
     1  N   -0.183537
     2  C    0.392797
     3  O   -0.829781
     4  C    0.955935
     5  O   -0.709986
     6  C    1.304075
     7  N   -0.695288
     8  H    0.000466
     9  H    0.016748
    10  H   -0.062388
    11  H   -0.086711
    12  H   -0.148871
    13  H    0.046541
 Sum of Mulliken charges =  -0.00000

 Dipole moment (field-independent basis, Debye):
    X=              5.4826    Y=              0.5982    Z=             -1.2643  Tot=              5.6581

 Test job not archived.
 1\1\GINC-SE090\SP\RHF\Aug-CC-pVDZ\C3H6N2O2\OHZDE\09-Apr-2025\0\\#t hf
 aug-cc-pvdz iop(5/13=1,5/36=2,99/5=2) pseudo=read geom=check guess=(re
 ad,tcheck) scf=(maxcycle=1)\\title\\0,1\N,0,-1.24255442,-0.46945388,-1
 .22917723\C,0,-0.24543936,-0.17688313,-0.40496779\O,0,-0.46415732,1.28
 405201,0.90814836\C,0,0.1964564,-1.07728488,0.72632389\O,0,1.15134177,
 -0.25527111,1.34930079\C,0,0.82453701,1.01666702,0.75216322\N,0,0.8456
 7412,0.61661251,-0.7204921\H,0,-1.50502352,0.18992979,-1.94033722\H,0,
 -1.95876569,-1.10113395,-0.91737007\H,0,0.67121953,-1.98196352,0.33510

 Normal termination of Gaussian 16 at Wed Apr  9 03:45:32 2025.
