 Gaussian 16, Revision C.01,

 ----------------------------------------------------------------------
 #t hf aug-cc-pvdz symm=none int=(grid=ultrafine) guess=(read,tcheck) s
 table=(opt,rrhf)
 ----------------------------------------------------------------------
 -----
 title
 -----
 Symbolic Z-matrix:
 Charge =  0 Multiplicity = 1

 SCF Done:  E(RHF) =  -284.769222965     A.U. after   14 cycles
 Normal termination of Gaussian 16 at Wed Apr  9 14:20:13 2025.
 Gaussian 16:  ES64L-G16RevC.01  3-Jul-2019

 ----------------------------------------------------------------------
 #t hf aug-cc-pvdz iop(5/13=1,5/36=2,99/5=2) pseudo=read geom=check gue
 ss=(read,tcheck) scf=(maxcycle=1)
 ----------------------------------------------------------------------
 -----
 title
 -----
 Structure from the checkpoint file:  "Grambow2020_b97d3_007213_reverse_mol2.chk"
 Charge =  0 Multiplicity = 1

                         Standard orientation:
 ---------------------------------------------------------------------
 Center     Atomic      Atomic             Coordinates (Angstroms)
 Number     Number       Type             X           Y           Z
 ---------------------------------------------------------------------
      1          6           0       -2.761051   -0.472115   -0.001417
      2          6           0       -1.603622    0.514400    0.003901
      3          8           0       -0.396350   -0.275939    0.002329
      4          6           0        3.090275   -0.323195    0.002594
      5          6           0        1.832358    0.071148   -0.001748
      6          7           0        0.714164    0.614331   -0.007582
      7          1           0       -2.729571   -1.116714    0.886706
      8          1           0       -3.712437    0.077224    0.001232
      9          1           0       -2.729269   -1.107761   -0.895992
     10          1           0       -1.626199    1.153852    0.899701
     11          1           0       -1.623751    1.161302   -0.886428
     12          1           0        3.622419   -0.512266   -0.930440
     13          1           0        3.622697   -0.489869    0.939680
 ---------------------------------------------------------------------

 SCF Done:  E(RHF) =  -284.858301243     A.U. after    2 cycles

 The electronic state is 1-A.
 Alpha  occ. eigenvalues --  -20.62091 -15.70352 -11.32353 -11.29420 -11.26933
 Alpha  occ. eigenvalues --  -11.23413  -1.37726  -1.16832  -1.02384  -0.99000
 Alpha  occ. eigenvalues --   -0.84119  -0.74593  -0.68175  -0.67732  -0.64783
 Alpha  occ. eigenvalues --   -0.62776  -0.56659  -0.54669  -0.52263  -0.50141
 Alpha  occ. eigenvalues --   -0.49362  -0.40884  -0.37344
 Alpha virt. eigenvalues --    0.03636   0.04103   0.04652   0.05259   0.06280
 Alpha virt. eigenvalues --    0.06631   0.08202   0.09578   0.10160   0.11413
 Alpha virt. eigenvalues --    0.12374   0.13301   0.14609   0.14808   0.15358

 Mulliken charges:
               1
     1  C    0.107554
     2  C    0.721136
     3  O   -0.649388
     4  C    0.736717
     5  C   -0.204560
     6  N   -0.061627
     7  H   -0.028363
     8  H   -0.004856
     9  H   -0.028149
    10  H   -0.131033
    11  H   -0.129909
    12  H   -0.163895
    13  H   -0.163626
 Sum of Mulliken charges =  -0.00000

 Dipole moment (field-independent basis, Debye):
    X=              0.1141    Y=             -0.0590    Z=              0.0111  Tot=              0.1289

 Test job not archived.
 1\1\GINC-SE220\SP\RHF\Aug-CC-pVDZ\C4H7N1O1\OHZDE\09-Apr-2025\0\\#t hf
 aug-cc-pvdz iop(5/13=1,5/36=2,99/5=2) pseudo=read geom=check guess=(re
 ad,tcheck) scf=(maxcycle=1)\\title\\0,1\C,0,-2.22624937,-1.03667935,-0
 .09383185\C,0,-0.97548931,-0.68891795,-0.88600906\O,0,-0.1031237,0.016
 58607,0.02139668\C,0,2.94898947,1.62955181,0.51306045\C,0,1.93984371,0
 .97157594,-0.0222631\N,0,1.08968461,0.34802575,-0.68094021\H,0,-2.7197
 7369,-0.1285814,0.27637426\H,0,-2.9318746,-1.57733357,-0.73935692\H,0,
 -1.98071687,-1.675731,0.76445027\H,0,-1.2125299,-0.0453014,-1.74707536

 Normal termination of Gaussian 16 at Wed Apr  9 14:20:17 2025.
