 Gaussian 16, Revision C.01,

 ----------------------------------------------------------------------
 #t hf aug-cc-pvdz symm=none int=(grid=ultrafine) guess=(read,tcheck) s
 table=(opt,rrhf)
 ----------------------------------------------------------------------
 -----
 title
 -----
 Symbolic Z-matrix:
 Charge =  0 Multiplicity = 1

 SCF Done:  E(RHF) =  -359.656435025     A.U. after   15 cycles
 Normal termination of Gaussian 16 at Wed Apr  9 04:05:44 2025.
 Gaussian 16:  ES64L-G16RevC.01  3-Jul-2019

 ----------------------------------------------------------------------
 #t hf aug-cc-pvdz iop(5/13=1,5/36=2,99/5=2) pseudo=read geom=check gue
 ss=(read,tcheck) scf=(maxcycle=1)
 ----------------------------------------------------------------------
 -----
 title
 -----
 Structure from the checkpoint file:  "Grambow2020_wb97xd3_009386_forward_mol1.chk"
 Charge =  0 Multiplicity = 1

                         Standard orientation:
 ---------------------------------------------------------------------
 Center     Atomic      Atomic             Coordinates (Angstroms)
 Number     Number       Type             X           Y           Z
 ---------------------------------------------------------------------
      1          6           0        2.022930    1.134269    0.007830
      2          7           0        0.131717    0.113955   -0.007206
      3          6           0        0.798039   -1.003372    0.000626
      4          8           0        2.039009   -0.914431   -0.014851
      5          6           0       -1.242322    0.292208   -0.002178
      6          8           0       -1.705000    1.407593   -0.004365
      7          6           0       -2.129392   -0.936438    0.002433
      8          1           0        2.997397    0.918430   -0.404245
      9          1           0        1.440167    1.841751   -0.560180
     10          1           0        1.993111    1.281232    1.076768
     11          1           0        0.331122   -1.991712    0.025525
     12          1           0       -1.935940   -1.558869   -0.873137
     13          1           0       -3.167095   -0.613669   -0.006759
     14          1           0       -1.948385   -1.540153    0.893932
 ---------------------------------------------------------------------

 SCF Done:  E(RHF) =  -359.771358534     A.U. after    2 cycles

 The electronic state is 1-A.
 Alpha  occ. eigenvalues --  -20.56963 -20.53993 -15.61416 -11.36673 -11.36648
 Alpha  occ. eigenvalues --  -11.36135 -11.24648  -1.37154  -1.34840  -1.17330
 Alpha  occ. eigenvalues --   -1.00092  -0.97690  -0.86433  -0.77506  -0.69468
 Alpha  occ. eigenvalues --   -0.69277  -0.65622  -0.62646  -0.61885  -0.61797
 Alpha  occ. eigenvalues --   -0.57506  -0.57211  -0.52052  -0.47679  -0.45570
 Alpha  occ. eigenvalues --   -0.40681  -0.39537
 Alpha virt. eigenvalues --    0.02646   0.03450   0.04662   0.05149   0.06334
 Alpha virt. eigenvalues --    0.06623   0.07345   0.08142   0.09821   0.10900
 Alpha virt. eigenvalues --    0.12144   0.12717   0.13099   0.13712   0.13878

 Mulliken charges:
               1
     1  C    0.751701
     2  N   -0.389911
     3  C    0.611757
     4  O   -0.554605
     5  C    0.194526
     6  O   -0.495617
     7  C    0.293484
     8  H   -0.072596
     9  H   -0.026207
    10  H    0.005794
    11  H   -0.288276
    12  H    0.052671
    13  H   -0.140063
    14  H    0.057342
 Sum of Mulliken charges =  -0.00000

 Dipole moment (field-independent basis, Debye):
    X=              1.4491    Y=             -1.4295    Z=              0.1375  Tot=              2.0401

 Test job not archived.
 1\1\GINC-SE435\SP\RHF\Aug-CC-pVDZ\C4H7N1O2\OHZDE\09-Apr-2025\0\\#t hf
 aug-cc-pvdz iop(5/13=1,5/36=2,99/5=2) pseudo=read geom=check guess=(re
 ad,tcheck) scf=(maxcycle=1)\\title\\0,1\C,0,-2.30368401,-0.64872457,-0
 .16076663\N,0,-0.21685667,-0.13987251,-0.09617023\C,0,-0.53722548,0.83
 635968,0.7018264\O,0,-1.74648285,0.97254799,0.96126213\C,0,1.0429926,-
 0.50019963,-0.54642371\O,0,1.17050396,-1.44604466,-1.28620511\C,0,2.23
 372021,0.31912519,-0.09105597\H,0,-3.21897462,-0.07764731,-0.11501492\
 H,0,-2.01220973,-0.95400714,-1.15304858\H,0,-2.19377769,-1.41091544,0.

 Normal termination of Gaussian 16 at Wed Apr  9 04:05:48 2025.
