 Gaussian 16, Revision C.01,

 ----------------------------------------------------------------------
 #t hf aug-cc-pvdz symm=none int=(grid=ultrafine) guess=(read,tcheck) s
 table=(opt,rrhf)
 ----------------------------------------------------------------------
 -----
 title
 -----
 Symbolic Z-matrix:
 Charge =  0 Multiplicity = 1

 SCF Done:  E(RHF) =  -381.873513512     A.U. after   12 cycles

 1\1\GINC-SE113\Stability\RHF\Aug-CC-pVDZ\C4H10O3\OHZDE\09-Apr-2025\0\\
 #t hf aug-cc-pvdz symm=none int=(grid=ultrafine) guess=(read,tcheck) s
 table=(opt,rrhf)\\title\\0,1\C,0,2.0974484,1.04288654,-0.40796187\O,0,
 1.12686631,0.32620219,0.32101283\C,0,0.34038343,-0.49932592,-0.5049531
 9\C,0,-0.65711785,-1.22704088,0.34087573\O,0,-1.87346334,-0.55178752,0
 .63555247\C,0,-1.92393638,-1.67907738,-0.22297945\O,0,-1.08685764,2.31
 271999,0.25995451\H,0,2.67171615,1.63144778,0.30535118\H,0,1.62656118,
 1.71575285,-1.13431539\H,0,2.7744862,0.36247158,-0.938607\H,0,-0.18457

 Normal termination of Gaussian 16 at Wed Apr  9 16:48:45 2025.
 Gaussian 16:  ES64L-G16RevC.01  3-Jul-2019

 ----------------------------------------------------------------------
 #t hf aug-cc-pvdz iop(5/13=1,5/36=2,99/5=2) pseudo=read geom=check gue
 ss=(read,tcheck) scf=(maxcycle=1)
 ----------------------------------------------------------------------
 -----
 title
 -----
 Structure from the checkpoint file:  "Grambow2020_wb97xd3_008925_reverse_mol2.chk"
 Charge =  0 Multiplicity = 1

                         Standard orientation:
 ---------------------------------------------------------------------
 Center     Atomic      Atomic             Coordinates (Angstroms)
 Number     Number       Type             X           Y           Z
 ---------------------------------------------------------------------
      1          6           0       -2.505794   -0.634606    0.116233
      2          8           0       -1.242001   -0.516132   -0.496843
      3          6           0       -0.192159   -0.875148    0.369881
      4          6           0        1.109593   -0.728617   -0.353979
      5          8           0        1.705952    0.562349   -0.361830
      6          6           0        2.343759   -0.465844    0.377378
      7          8           0       -0.657378    2.328623    0.148242
      8          1           0       -3.254596   -0.363611   -0.625967
      9          1           0       -2.590491    0.039573    0.976688
     10          1           0       -2.687708   -1.663470    0.449813
     11          1           0       -0.192436   -0.234049    1.261754
     12          1           0       -0.311255   -1.919554    0.694132
     13          1           0        1.167532   -1.243261   -1.309848
     14          1           0        0.290456    2.164041    0.131103
     15          1           0        3.290631   -0.808135   -0.027614
     16          1           0        2.308977   -0.348265    1.457109
     17          1           0       -1.006089    1.603295   -0.380798
 ---------------------------------------------------------------------

 SCF Done:  E(RHF) =  -381.998407692     A.U. after    2 cycles

 The electronic state is 1-A.
 Alpha  occ. eigenvalues --  -20.60109 -20.59130 -20.54072 -11.31159 -11.30940
 Alpha  occ. eigenvalues --  -11.30565 -11.29310  -1.40200  -1.35818  -1.27701
 Alpha  occ. eigenvalues --   -1.02903  -0.94043  -0.89952  -0.83939  -0.73607
 Alpha  occ. eigenvalues --   -0.70710  -0.69608  -0.68025  -0.66742  -0.62507
 Alpha  occ. eigenvalues --   -0.59482  -0.56865  -0.55092  -0.53895  -0.51703
 Alpha  occ. eigenvalues --   -0.49341  -0.47605  -0.47357  -0.45637
 Alpha virt. eigenvalues --    0.02935   0.03872   0.04331   0.04953   0.06000
 Alpha virt. eigenvalues --    0.06535   0.07169   0.08068   0.09008   0.10069
 Alpha virt. eigenvalues --    0.11231   0.11591   0.13045   0.13843   0.14607

 Mulliken charges:
               1
     1  C    0.691852
     2  O   -0.723363
     3  C    0.504142
     4  C    0.678271
     5  O   -0.714953
     6  C    0.851027
     7  O   -0.312860
     8  H   -0.220213
     9  H   -0.062306
    10  H   -0.075484
    11  H   -0.126200
    12  H   -0.084148
    13  H   -0.338050
    14  H    0.175868
    15  H   -0.212372
    16  H   -0.240994
    17  H    0.209784
 Sum of Mulliken charges =  -0.00000

 Dipole moment (field-independent basis, Debye):
    X=              0.8334    Y=             -4.7436    Z=              1.3025  Tot=              4.9893

 Test job not archived.
 1\1\GINC-SE113\SP\RHF\Aug-CC-pVDZ\C4H10O3\OHZDE\09-Apr-2025\0\\#t hf a
 ug-cc-pvdz iop(5/13=1,5/36=2,99/5=2) pseudo=read geom=check guess=(rea
 d,tcheck) scf=(maxcycle=1)\\title\\0,1\C,0,2.0974484,1.04288654,-0.407
 96187\O,0,1.12686631,0.32620219,0.32101283\C,0,0.34038343,-0.49932592,
 -0.50495319\C,0,-0.65711785,-1.22704088,0.34087573\O,0,-1.87346334,-0.
 55178752,0.63555247\C,0,-1.92393638,-1.67907738,-0.22297945\O,0,-1.086
 85764,2.31271999,0.25995451\H,0,2.67171615,1.63144778,0.30535118\H,0,1
 .62656118,1.71575285,-1.13431539\H,0,2.7744862,0.36247158,-0.938607\H,

 Normal termination of Gaussian 16 at Wed Apr  9 16:48:59 2025.
