 Gaussian 16, Revision C.01,

 ----------------------------------------------------------------------
 #t hf aug-cc-pvdz symm=none int=(grid=ultrafine) guess=(read,tcheck) s
 table=(opt,rrhf)
 ----------------------------------------------------------------------
 -----
 title
 -----
 Symbolic Z-matrix:
 Charge =  0 Multiplicity = 1

 SCF Done:  E(RHF) =  -322.430597138     A.U. after   16 cycles
 Normal termination of Gaussian 16 at Wed Apr  9 04:04:47 2025.
 Gaussian 16:  ES64L-G16RevC.01  3-Jul-2019

 ----------------------------------------------------------------------
 #t hf aug-cc-pvdz iop(5/13=1,5/36=2,99/5=2) pseudo=read geom=check gue
 ss=(read,tcheck) scf=(maxcycle=1)
 ----------------------------------------------------------------------
 -----
 title
 -----
 Structure from the checkpoint file:  "Grambow2020_wb97xd3_009202_reverse_mol1.chk"
 Charge =  0 Multiplicity = 1

                         Standard orientation:
 ---------------------------------------------------------------------
 Center     Atomic      Atomic             Coordinates (Angstroms)
 Number     Number       Type             X           Y           Z
 ---------------------------------------------------------------------
      1          8           0        2.052971    1.024446    0.084782
      2          6           0        2.524271   -0.256000   -0.040373
      3          6           0        1.180597   -0.824856   -0.079828
      4          6           0       -0.046161   -0.881559   -0.073845
      5          6           0       -1.138654   -0.069348   -0.012960
      6          6           0       -2.416367    0.214993   -0.663280
      7          7           0       -2.210576    0.132092    0.791184
      8          1           0        0.581137    1.415696    0.021463
      9          1           0        3.089293   -0.457480   -0.961258
     10          1           0        3.103227   -0.615570    0.821411
     11          1           0       -0.255978    1.483370   -0.005608
     12          1           0       -2.890955   -0.611391   -1.182715
     13          1           0       -2.641575    1.208771   -1.027472
     14          1           0       -2.557002   -0.642990    1.339343
 ---------------------------------------------------------------------

 SCF Done:  E(RHF) =  -322.530821568     A.U. after    2 cycles

 The electronic state is 1-A.
 Alpha  occ. eigenvalues --  -20.50289 -15.70194 -11.40798 -11.33882 -11.30945
 Alpha  occ. eigenvalues --  -11.29630 -11.25022  -1.34233  -1.25221  -1.08273
 Alpha  occ. eigenvalues --   -0.95933  -0.93824  -0.87160  -0.80225  -0.70546
 Alpha  occ. eigenvalues --   -0.67818  -0.63406  -0.61188  -0.60373  -0.56235
 Alpha  occ. eigenvalues --   -0.54844  -0.48259  -0.41206  -0.39923  -0.39499
 Alpha  occ. eigenvalues --   -0.36668
 Alpha virt. eigenvalues --    0.01755   0.02812   0.03799   0.04600   0.04970
 Alpha virt. eigenvalues --    0.06539   0.07727   0.09511   0.09700   0.10013
 Alpha virt. eigenvalues --    0.11466   0.12265   0.12934   0.13477   0.13886

 Mulliken charges:
               1
     1  O   -0.803752
     2  C    0.872993
     3  C   -0.935857
     4  C    0.139988
     5  C    0.237733
     6  C    1.032134
     7  N   -0.442510
     8  H    0.200755
     9  H    0.032212
    10  H    0.025016
    11  H    0.112954
    12  H   -0.199967
    13  H   -0.252575
    14  H   -0.019125
 Sum of Mulliken charges =  -0.00000

 Dipole moment (field-independent basis, Debye):
    X=             -5.4379    Y=             -3.4837    Z=             -0.6740  Tot=              6.4932

 Test job not archived.
 1\1\GINC-SE015\SP\RHF\Aug-CC-pVDZ\C5H7N1O1\OHZDE\09-Apr-2025\0\\#t hf
 aug-cc-pvdz iop(5/13=1,5/36=2,99/5=2) pseudo=read geom=check guess=(re
 ad,tcheck) scf=(maxcycle=1)\\title\\0,1\O,0,2.16816711,0.38170211,1.17
 682256\C,0,2.62968649,-0.36928589,0.12784859\C,0,1.28333064,-0.6359906
 3,-0.3689505\C,0,0.05755737,-0.61437201,-0.44105648\C,0,-1.02637869,-0
 .08335108,0.19142524\C,0,-2.26191319,0.66179757,-0.04208062\N,0,-2.139
 14419,-0.5140841,0.83365795\H,0,0.70722142,0.75661002,1.396962\H,0,3.2
 4294395,0.17656013,-0.60279485\H,0,3.15480847,-1.28878638,0.42096633\H

 Normal termination of Gaussian 16 at Wed Apr  9 04:04:51 2025.
