 Gaussian 16, Revision C.01,

 ----------------------------------------------------------------------
 #t hf aug-cc-pvdz symm=none int=(grid=ultrafine) guess=(read,tcheck) s
 table=(opt,rrhf)
 ----------------------------------------------------------------------
 -----
 title
 -----
 Symbolic Z-matrix:
 Charge =  0 Multiplicity = 1

 SCF Done:  E(RHF) =  -271.842806069     A.U. after   17 cycles
 Normal termination of Gaussian 16 at Wed Apr  9 15:53:34 2025.
 Gaussian 16:  ES64L-G16RevC.01  3-Jul-2019

 ----------------------------------------------------------------------
 #t hf aug-cc-pvdz iop(5/13=1,5/36=2,99/5=2) pseudo=read geom=check gue
 ss=(read,tcheck) scf=(maxcycle=1)
 ----------------------------------------------------------------------
 -----
 title
 -----
 Structure from the checkpoint file:  "Grambow2020_wb97xd3_007442_reverse_mol1.chk"
 Charge =  0 Multiplicity = 1

                         Standard orientation:
 ---------------------------------------------------------------------
 Center     Atomic      Atomic             Coordinates (Angstroms)
 Number     Number       Type             X           Y           Z
 ---------------------------------------------------------------------
      1          6           0        2.841507    0.039744   -0.061630
      2          6           0        1.408218   -0.347344   -0.264334
      3          6           0        0.280897    0.257510    0.464050
      4          6           0       -0.744785    1.355170   -0.180182
      5          6           0       -1.938764    0.537439    0.029107
      6          6           0       -1.762594   -0.817856   -0.488064
      7          6           0       -0.611283   -0.969451    0.518624
      8          1           0        3.511801   -0.720726   -0.465865
      9          1           0        3.075755    0.174917    0.996052
     10          1           0        3.077797    0.979975   -0.578717
     11          1           0        1.163308   -0.592172   -1.298726
     12          1           0        0.484866   -1.593921    0.136227
     13          1           0        0.563233    0.623203    1.450986
     14          1           0       -0.492089    1.509199   -1.229695
     15          1           0       -0.736627    2.308624    0.343150
     16          1           0       -2.611881    0.716159    0.858545
     17          1           0       -2.577761   -1.512230   -0.302838
     18          1           0       -1.428577   -0.886755   -1.526124
     19          1           0       -0.869004   -1.337545    1.511576
 ---------------------------------------------------------------------

 SCF Done:  E(RHF) =  -271.924387870     A.U. after    2 cycles

 The electronic state is 1-A.
 Alpha  occ. eigenvalues --  -11.25507 -11.24689 -11.24211 -11.24103 -11.23887
 Alpha  occ. eigenvalues --  -11.23598 -11.22521  -1.14919  -1.03681  -0.96009
 Alpha  occ. eigenvalues --   -0.94868  -0.80973  -0.77362  -0.74543  -0.68245
 Alpha  occ. eigenvalues --   -0.62067  -0.59841  -0.58358  -0.56308  -0.55870
 Alpha  occ. eigenvalues --   -0.52537  -0.50437  -0.49962  -0.46525  -0.45660
 Alpha  occ. eigenvalues --   -0.39474  -0.22298
 Alpha virt. eigenvalues --    0.03438   0.04104   0.04288   0.04648   0.05131
 Alpha virt. eigenvalues --    0.06182   0.06454   0.06641   0.06822   0.07434
 Alpha virt. eigenvalues --    0.08876   0.09078   0.09634   0.12318   0.13083

 Mulliken charges:
               1
     1  C    0.204924
     2  C   -0.221564
     3  C    0.112006
     4  C    0.605581
     5  C    0.399624
     6  C    0.657780
     7  C   -0.003806
     8  H   -0.028843
     9  H   -0.021752
    10  H    0.044413
    11  H   -0.372009
    12  H    0.388759
    13  H   -0.303527
    14  H   -0.129106
    15  H   -0.273985
    16  H   -0.378003
    17  H   -0.171191
    18  H   -0.171826
    19  H   -0.337477
 Sum of Mulliken charges =   0.00000

 Dipole moment (field-independent basis, Debye):
    X=             -0.0927    Y=              0.4866    Z=              0.2346  Tot=              0.5481

 Test job not archived.
 1\1\GINC-SE163\SP\RHF\Aug-CC-pVDZ\C7H12\OHZDE\09-Apr-2025\0\\#t hf aug
 -cc-pvdz iop(5/13=1,5/36=2,99/5=2) pseudo=read geom=check guess=(read,
 tcheck) scf=(maxcycle=1)\\title\\0,1\C,0,2.60408534,0.1978154,-0.69611
 7\C,0,1.13494082,-0.09687153,-0.70037585\C,0,0.2726015,-0.00241214,0.4
 8903207\C,0,-0.77404969,1.2215832,0.76880435\C,0,-1.95235874,0.3577185
 5,0.82709327\C,0,-2.02699401,-0.53263344,-0.32920608\C,0,-0.68748417,-
 1.12437481,0.13713628\H,0,3.08766349,-0.21705649,-1.58214644\H,0,3.094
 66593,-0.21628279,0.18688305\H,0,2.79396142,1.27997889,-0.70687264\H,0

 Normal termination of Gaussian 16 at Wed Apr  9 15:53:42 2025.
