 Gaussian 16, Revision C.01,

 ----------------------------------------------------------------------
 #t hf aug-cc-pvdz symm=none int=(grid=ultrafine) guess=(read,tcheck) s
 table=(opt,rrhf)
 ----------------------------------------------------------------------
 -----
 title
 -----
 Symbolic Z-matrix:
 Charge =  0 Multiplicity = 1

 SCF Done:  E(RHF) =  -344.676785847     A.U. after   16 cycles

 1\1\GINC-SE094\Stability\RHF\Aug-CC-pVDZ\C5H10O2\OHZDE\09-Apr-2025\0\\
 #t hf aug-cc-pvdz symm=none int=(grid=ultrafine) guess=(read,tcheck) s
 table=(opt,rrhf)\\title\\0,1\C,0,1.94230564,0.35572712,-0.75467578\C,0
 ,1.0027537,-0.80091806,-0.75211156\C,0,0.39699894,-0.32513223,1.553878
 35\O,0,-0.31417164,0.7367988,0.89468809\C,0,-1.03657565,-0.10230729,0.
 08200977\C,0,-2.38499404,0.37399835,-0.33685499\O,0,-0.29213855,-0.651
 89138,-0.96145938\H,0,1.93370775,0.84953664,-1.73248897\H,0,2.95589993
 ,-0.00630194,-0.57679576\H,0,1.69296736,1.12173097,-0.01712216\H,0,1.3

 Normal termination of Gaussian 16 at Wed Apr  9 03:34:09 2025.
 Gaussian 16:  ES64L-G16RevC.01  3-Jul-2019

 ----------------------------------------------------------------------
 #t hf aug-cc-pvdz iop(5/13=1,5/36=2,99/5=2) pseudo=read geom=check gue
 ss=(read,tcheck) scf=(maxcycle=1)
 ----------------------------------------------------------------------
 -----
 title
 -----
 Structure from the checkpoint file:  "Grambow2020_wb97xd3_007115_forward_mol1.chk"
 Charge =  0 Multiplicity = 1

                         Standard orientation:
 ---------------------------------------------------------------------
 Center     Atomic      Atomic             Coordinates (Angstroms)
 Number     Number       Type             X           Y           Z
 ---------------------------------------------------------------------
      1          6           0       -2.047489   -0.376686    0.673946
      2          6           0       -1.236612   -0.679629   -0.539024
      3          6           0       -0.310477    1.567986   -0.501641
      4          8           0        0.419350    0.989188    0.593958
      5          6           0        0.949061   -0.033346   -0.154535
      6          6           0        2.277957   -0.553559    0.274369
      7          8           0        0.031697   -1.037770   -0.462165
      8          1           0       -2.107616   -1.259022    1.320404
      9          1           0       -3.063434   -0.120323    0.370278
     10          1           0       -1.634194    0.428915    1.284774
     11          1           0       -1.743813   -1.181855   -1.358877
     12          1           0       -1.341314    1.818362   -0.257837
     13          1           0        0.217418    2.463057   -0.837940
     14          1           0        0.431699    0.726325   -1.245867
     15          1           0        2.248357   -0.883426    1.317051
     16          1           0        2.571481   -1.392523   -0.354205
     17          1           0        3.018397    0.240547    0.189191
 ---------------------------------------------------------------------

 SCF Done:  E(RHF) =  -344.787611040     A.U. after    2 cycles

 The electronic state is 1-A.
 Alpha  occ. eigenvalues --  -20.63329 -20.58582 -11.34699 -11.32270 -11.29116
 Alpha  occ. eigenvalues --  -11.23706 -11.23680  -1.43245  -1.34491  -1.05191
 Alpha  occ. eigenvalues --   -0.99382  -0.90463  -0.88985  -0.79908  -0.72035
 Alpha  occ. eigenvalues --   -0.69958  -0.68376  -0.63797  -0.59827  -0.58568
 Alpha  occ. eigenvalues --   -0.56690  -0.55453  -0.55124  -0.54097  -0.50851
 Alpha  occ. eigenvalues --   -0.47387  -0.42574  -0.26510
 Alpha virt. eigenvalues --    0.03386   0.04341   0.04565   0.04792   0.06104
 Alpha virt. eigenvalues --    0.06402   0.06682   0.07434   0.07616   0.08421
 Alpha virt. eigenvalues --    0.09128   0.11331   0.12964   0.13921   0.14416

 Mulliken charges:
               1
     1  C    0.341939
     2  C    0.465636
     3  C    0.785276
     4  O   -0.724958
     5  C    0.034634
     6  C    0.347410
     7  O   -0.507637
     8  H   -0.059478
     9  H   -0.028071
    10  H   -0.165893
    11  H   -0.407202
    12  H   -0.319815
    13  H   -0.333177
    14  H    0.474487
    15  H    0.067056
    16  H   -0.004643
    17  H    0.034434
 Sum of Mulliken charges =  -0.00000

 Dipole moment (field-independent basis, Debye):
    X=             -0.7033    Y=             -0.4590    Z=             -0.3278  Tot=              0.9015

 Test job not archived.
 1\1\GINC-SE094\SP\RHF\Aug-CC-pVDZ\C5H10O2\OHZDE\09-Apr-2025\0\\#t hf a
 ug-cc-pvdz iop(5/13=1,5/36=2,99/5=2) pseudo=read geom=check guess=(rea
 d,tcheck) scf=(maxcycle=1)\\title\\0,1\C,0,1.94230564,0.35572712,-0.75
 467578\C,0,1.0027537,-0.80091806,-0.75211156\C,0,0.39699894,-0.3251322
 3,1.55387835\O,0,-0.31417164,0.7367988,0.89468809\C,0,-1.03657565,-0.1
 0230729,0.08200977\C,0,-2.38499404,0.37399835,-0.33685499\O,0,-0.29213
 855,-0.65189138,-0.96145938\H,0,1.93370775,0.84953664,-1.73248897\H,0,
 2.95589993,-0.00630194,-0.57679576\H,0,1.69296736,1.12173097,-0.017122

 Normal termination of Gaussian 16 at Wed Apr  9 03:34:15 2025.
