 Gaussian 16, Revision C.01,

 ----------------------------------------------------------------------
 #t hf aug-cc-pvdz symm=none int=(grid=ultrafine) guess=(read,tcheck) s
 table=(opt,rrhf)
 ----------------------------------------------------------------------
 -----
 title
 -----
 Symbolic Z-matrix:
 Charge =  0 Multiplicity = 1

 SCF Done:  E(RHF) =  -339.740453106     A.U. after   18 cycles
 Normal termination of Gaussian 16 at Wed Apr  9 14:27:49 2025.
 Gaussian 16:  ES64L-G16RevC.01  3-Jul-2019

 ----------------------------------------------------------------------
 #t hf aug-cc-pvdz iop(5/13=1,5/36=2,99/5=2) pseudo=read geom=check gue
 ss=(read,tcheck) scf=(maxcycle=1)
 ----------------------------------------------------------------------
 -----
 title
 -----
 Structure from the checkpoint file:  "Grambow2020_wb97xd3_006551_forward_mol1.chk"
 Charge =  0 Multiplicity = 1

                         Standard orientation:
 ---------------------------------------------------------------------
 Center     Atomic      Atomic             Coordinates (Angstroms)
 Number     Number       Type             X           Y           Z
 ---------------------------------------------------------------------
      1          6           0        2.410161   -1.087376   -0.180002
      2          7           0        1.245861   -0.511650    0.472288
      3          6           0       -0.543165    0.106766   -0.433493
      4          6           0       -1.830766    0.226984    0.282883
      5          8           0       -2.838723   -0.645739   -0.153904
      6          6           0        0.670979    0.771195   -0.019613
      7          7           0        1.059980    1.921141   -0.082469
      8          1           0        3.322428   -0.550334    0.090145
      9          1           0        2.520255   -2.140036    0.082421
     10          1           0        2.281933   -1.003883   -1.260064
     11          1           0        1.237304   -0.604645    1.480859
     12          1           0       -0.558983   -0.405011   -1.395353
     13          1           0       -2.168035    1.252261    0.082429
     14          1           0       -1.665816    0.177310    1.366738
     15          1           0       -2.643452   -1.531599    0.156669
 ---------------------------------------------------------------------

 SCF Done:  E(RHF) =  -339.844186648     A.U. after    2 cycles

 The electronic state is 1-A.
 Alpha  occ. eigenvalues --  -20.61981 -15.65376 -15.53928 -11.37596 -11.34724
 Alpha  occ. eigenvalues --  -11.27418 -11.26912  -1.37801  -1.21734  -1.10295
 Alpha  occ. eigenvalues --   -1.05560  -0.94172  -0.89379  -0.77139  -0.76643
 Alpha  occ. eigenvalues --   -0.69068  -0.66374  -0.65787  -0.62046  -0.58744
 Alpha  occ. eigenvalues --   -0.57137  -0.54795  -0.52708  -0.47697  -0.39137
 Alpha  occ. eigenvalues --   -0.38361  -0.28979
 Alpha virt. eigenvalues --    0.01697   0.03203   0.03299   0.03688   0.05064
 Alpha virt. eigenvalues --    0.06255   0.06456   0.06942   0.08877   0.10825
 Alpha virt. eigenvalues --    0.11204   0.12020   0.12367   0.13944   0.14652

 Mulliken charges:
               1
     1  C    0.824469
     2  N   -0.536082
     3  C    0.231683
     4  C    0.740472
     5  O   -0.476557
     6  C    0.436902
     7  N   -0.667296
     8  H   -0.093581
     9  H   -0.191023
    10  H   -0.159655
    11  H   -0.069146
    12  H   -0.314026
    13  H    0.104897
    14  H    0.018857
    15  H    0.150085
 Sum of Mulliken charges =  -0.00000

 Dipole moment (field-independent basis, Debye):
    X=             -2.2467    Y=             -6.3499    Z=              1.0704  Tot=              6.8202

 Test job not archived.
 1\1\GINC-SE220\SP\RHF\Aug-CC-pVDZ\C4H8N2O1\OHZDE\09-Apr-2025\0\\#t hf
 aug-cc-pvdz iop(5/13=1,5/36=2,99/5=2) pseudo=read geom=check guess=(re
 ad,tcheck) scf=(maxcycle=1)\\title\\0,1\C,0,-2.25577032,0.54826284,0.6
 3946035\N,0,-1.00869155,-0.19815269,0.65350917\C,0,0.65031222,0.073942
 15,-0.60234171\C,0,2.02314107,-0.35315158,-0.25811224\O,0,2.9542807,0.
 68767585,-0.12371828\C,0,-0.4904944,-0.81232155,-0.60045006\N,0,-0.871
 79507,-1.68878269,-1.35149889\H,0,-3.11796138,-0.12057418,0.5855382\H,
 0,-2.3414189,1.17620565,1.52683269\H,0,-2.2717287,1.1843689,-0.2465772

 Normal termination of Gaussian 16 at Wed Apr  9 14:27:54 2025.
