 Gaussian 16, Revision C.01,

 ----------------------------------------------------------------------
 #t hf aug-cc-pvdz symm=none int=(grid=ultrafine) guess=(read,tcheck) s
 table=(opt,rrhf)
 ----------------------------------------------------------------------
 -----
 title
 -----
 Symbolic Z-matrix:
 Charge =  0 Multiplicity = 1

 SCF Done:  E(RHF) =  -260.128307732     A.U. after   17 cycles
 Normal termination of Gaussian 16 at Wed Apr  9 03:02:32 2025.
 Gaussian 16:  ES64L-G16RevC.01  3-Jul-2019

 ----------------------------------------------------------------------
 #t hf aug-cc-pvdz iop(5/13=1,5/36=2,99/5=2) pseudo=read geom=check gue
 ss=(read,tcheck) scf=(maxcycle=1)
 ----------------------------------------------------------------------
 -----
 title
 -----
 Structure from the checkpoint file:  "Grambow2020_b97d3_006470_forward_mol1.chk"
 Charge =  0 Multiplicity = 1

                         Standard orientation:
 ---------------------------------------------------------------------
 Center     Atomic      Atomic             Coordinates (Angstroms)
 Number     Number       Type             X           Y           Z
 ---------------------------------------------------------------------
      1          6           0        0.092706    0.302329   -0.000091
      2          6           0       -0.992761    1.036956   -0.000075
      3          6           0       -2.267417   -0.250006    0.000285
      4          7           0       -1.132780   -0.759012   -0.000217
      5          6           0        1.451016    0.032896    0.000051
      6          7           0        2.604029   -0.202853    0.000072
 ---------------------------------------------------------------------

 SCF Done:  E(RHF) =  -260.197166141     A.U. after    2 cycles

 The electronic state is 1-A.
 Alpha  occ. eigenvalues --  -15.75923 -15.71404 -11.39773 -11.39453 -11.37782
 Alpha  occ. eigenvalues --  -11.35934  -1.35063  -1.23961  -1.10160  -0.93931
 Alpha  occ. eigenvalues --   -0.79628  -0.63762  -0.63237  -0.60710  -0.54527
 Alpha  occ. eigenvalues --   -0.54283  -0.51544  -0.48832  -0.41512
 Alpha virt. eigenvalues --    0.02007   0.02322   0.05008   0.06283   0.07391
 Alpha virt. eigenvalues --    0.07857   0.09757   0.09930   0.10264   0.11017
 Alpha virt. eigenvalues --    0.11738   0.13913   0.14208   0.15198   0.16755

 Mulliken charges:
               1
     1  C    1.448563
     2  C   -0.409507
     3  C    0.156853
     4  N   -0.597638
     5  C   -0.496336
     6  N   -0.101934
 Sum of Mulliken charges =  -0.00000

 Dipole moment (field-independent basis, Debye):
    X=             -0.4996    Y=              0.2777    Z=             -0.0001  Tot=              0.5716

 Test job not archived.
 1\1\GINC-SE229\SP\RHF\Aug-CC-pVDZ\C4N2\OHZDE\09-Apr-2025\0\\#t hf aug-
 cc-pvdz iop(5/13=1,5/36=2,99/5=2) pseudo=read geom=check guess=(read,t
 check) scf=(maxcycle=1)\\title\\0,1\C,0,-0.17104195,0.00567534,0.25380
 426\C,0,0.78863322,0.01412632,1.14647768\C,0,2.24585223,-0.01582457,0.
 07100665\N,0,1.20292302,-0.02030007,-0.60631657\C,0,-1.4717854,0.00742
 01,-0.22123627\N,0,-2.57485213,0.00867087,-0.63142975\\Version=ES64L-G
 16RevC.01\State=1-A\HF=-260.1971661\RMSD=8.389e-03\Dipole=0.177443,0.0
 010409,0.1381554\Quadrupole=-5.2992363,3.1508658,2.1483705,0.0204234,-

 Normal termination of Gaussian 16 at Wed Apr  9 03:02:35 2025.
