 Gaussian 16, Revision C.01,

 ----------------------------------------------------------------------
 #t hf aug-cc-pvdz symm=none int=(grid=ultrafine) guess=(read,tcheck) s
 table=(opt,rrhf)
 ----------------------------------------------------------------------
 -----
 title
 -----
 Symbolic Z-matrix:
 Charge =  0 Multiplicity = 1

 SCF Done:  E(RHF) =  -267.456477501     A.U. after   17 cycles
 Normal termination of Gaussian 16 at Wed Apr  9 14:14:03 2025.
 Gaussian 16:  ES64L-G16RevC.01  3-Jul-2019

 ----------------------------------------------------------------------
 #t hf aug-cc-pvdz iop(5/13=1,5/36=2,99/5=2) pseudo=read geom=check gue
 ss=(read,tcheck) scf=(maxcycle=1)
 ----------------------------------------------------------------------
 -----
 title
 -----
 Structure from the checkpoint file:  "Grambow2020_b97d3_006836_forward_mol1.chk"
 Charge =  0 Multiplicity = 1

                         Standard orientation:
 ---------------------------------------------------------------------
 Center     Atomic      Atomic             Coordinates (Angstroms)
 Number     Number       Type             X           Y           Z
 ---------------------------------------------------------------------
      1          6           0       -2.946815   -0.039032    0.201672
      2          6           0       -1.653876    0.116840   -0.518801
      3          6           0       -0.435748   -0.115485   -0.116439
      4          6           0        0.940459   -0.052589   -0.055503
      5          6           0        2.278060   -0.598661   -0.028227
      6          8           0        1.931654    0.855430    0.144326
      7          1           0       -3.501085    0.912331    0.150484
      8          1           0       -3.578908   -0.770932   -0.326470
      9          1           0       -2.882849   -0.338161    1.264758
     10          1           0       -0.061511   -0.627497    0.950276
     11          1           0        2.798625   -0.819802   -0.963813
     12          1           0        2.680015   -1.065815    0.873945
 ---------------------------------------------------------------------

 SCF Done:  E(RHF) =  -267.538959174     A.U. after    2 cycles

 The electronic state is 1-A.
 Alpha  occ. eigenvalues --  -20.65732 -11.41393 -11.36250 -11.26370 -11.23248
 Alpha  occ. eigenvalues --  -11.22553  -1.44709  -1.08609  -0.99547  -0.96973
 Alpha  occ. eigenvalues --   -0.86145  -0.78244  -0.73280  -0.65736  -0.59360
 Alpha  occ. eigenvalues --   -0.58171  -0.55884  -0.55097  -0.54174  -0.50956
 Alpha  occ. eigenvalues --   -0.37276  -0.29033
 Alpha virt. eigenvalues --    0.02443   0.03801   0.04664   0.05902   0.06447
 Alpha virt. eigenvalues --    0.07043   0.07458   0.09071   0.10763   0.11447
 Alpha virt. eigenvalues --    0.12498   0.13107   0.13489   0.14330   0.15265

 Mulliken charges:
               1
     1  C    0.314471
     2  C   -1.139560
     3  C    0.843862
     4  C   -0.106694
     5  C    0.845968
     6  O   -0.625659
     7  H    0.038651
     8  H    0.077556
     9  H   -0.141803
    10  H    0.121410
    11  H   -0.098141
    12  H   -0.130060
 Sum of Mulliken charges =  -0.00000

 Dipole moment (field-independent basis, Debye):
    X=              2.9924    Y=             -2.7850    Z=              1.8590  Tot=              4.4907

 Test job not archived.
 1\1\GINC-SE056\SP\RHF\Aug-CC-pVDZ\C5H6O1\OHZDE\09-Apr-2025\0\\#t hf au
 g-cc-pvdz iop(5/13=1,5/36=2,99/5=2) pseudo=read geom=check guess=(read
 ,tcheck) scf=(maxcycle=1)\\title\\0,1\C,0,-2.59453818,0.12896903,0.363
 87837\C,0,-1.33340851,-0.65169614,0.24065947\C,0,-0.0937694,-0.2479990
 9,0.23524372\C,0,1.26636614,-0.25048988,0.00799847\C,0,2.65823827,-0.1
 4196715,0.38086508\O,0,2.14746841,-0.30249921,-1.02537008\H,0,-3.25531
 321,-0.12430992,-0.48119712\H,0,-3.14162545,-0.19148167,1.26507876\H,0
 ,-2.48889427,1.22970672,0.39446948\H,0,0.34467109,0.89545138,0.4361941

 Normal termination of Gaussian 16 at Wed Apr  9 14:14:07 2025.
