 Gaussian 16, Revision C.01,

 ----------------------------------------------------------------------
 #t hf aug-cc-pvdz symm=none int=(grid=ultrafine) guess=(read,tcheck) s
 table=(opt,rrhf)
 ----------------------------------------------------------------------
 -----
 title
 -----
 Symbolic Z-matrix:
 Charge =  0 Multiplicity = 1

 SCF Done:  E(RHF) =  -375.757267212     A.U. after   13 cycles
 Normal termination of Gaussian 16 at Wed Apr  9 03:45:33 2025.
 Gaussian 16:  ES64L-G16RevC.01  3-Jul-2019

 ----------------------------------------------------------------------
 #t hf aug-cc-pvdz iop(5/13=1,5/36=2,99/5=2) pseudo=read geom=check gue
 ss=(read,tcheck) scf=(maxcycle=1)
 ----------------------------------------------------------------------
 -----
 title
 -----
 Structure from the checkpoint file:  "Grambow2020_wb97xd3_007867_reverse_mol2.chk"
 Charge =  0 Multiplicity = 1

                         Standard orientation:
 ---------------------------------------------------------------------
 Center     Atomic      Atomic             Coordinates (Angstroms)
 Number     Number       Type             X           Y           Z
 ---------------------------------------------------------------------
      1          7           0       -2.609188   -0.693406    0.003633
      2          6           0       -1.731883    0.326053    0.000973
      3          8           0       -2.003647    1.505618    0.006368
      4          6           0       -0.266678   -0.125443   -0.010504
      5          8           0        0.042953   -1.287165   -0.009331
      6          6           0        3.371990   -0.352866    0.013535
      7          7           0        2.904391    0.819251   -0.005555
      8          1           0       -3.595041   -0.506054    0.010850
      9          1           0       -2.264206   -1.637438    0.000362
     10          1           0        0.473146    0.691721   -0.019563
     11          1           0        4.440944   -0.587607    0.010822
     12          1           0        2.677697   -1.192686    0.034932
     13          1           0        3.646013    1.517062   -0.024265
 ---------------------------------------------------------------------

 SCF Done:  E(RHF) =  -375.875839019     A.U. after    2 cycles

 The electronic state is 1-A.
 Alpha  occ. eigenvalues --  -20.60436 -20.55842 -15.66101 -15.63390 -11.37846
 Alpha  occ. eigenvalues --  -11.35869 -11.29918  -1.39594  -1.36421  -1.19624
 Alpha  occ. eigenvalues --   -1.18810  -0.93073  -0.84155  -0.80492  -0.75991
 Alpha  occ. eigenvalues --   -0.70390  -0.69381  -0.67329  -0.63779  -0.61657
 Alpha  occ. eigenvalues --   -0.60691  -0.54919  -0.52379  -0.45655  -0.44610
 Alpha  occ. eigenvalues --   -0.43084  -0.42007
 Alpha virt. eigenvalues --    0.03154   0.03500   0.04747   0.05738   0.06329
 Alpha virt. eigenvalues --    0.06717   0.08487   0.08911   0.10885   0.11694
 Alpha virt. eigenvalues --    0.12490   0.13656   0.13861   0.15645   0.16023

 Mulliken charges:
               1
     1  N   -0.070529
     2  C    0.334636
     3  O   -0.468672
     4  C    0.813702
     5  O   -0.493856
     6  C    0.650766
     7  N   -0.248792
     8  H   -0.005219
     9  H    0.036975
    10  H   -0.169879
    11  H   -0.185981
    12  H   -0.202293
    13  H    0.009142
 Sum of Mulliken charges =  -0.00000

 Dipole moment (field-independent basis, Debye):
    X=              1.3437    Y=             -2.5745    Z=             -0.0065  Tot=              2.9040

 Test job not archived.
 1\1\GINC-SE195\SP\RHF\Aug-CC-pVDZ\C3H6N2O2\OHZDE\09-Apr-2025\0\\#t hf
 aug-cc-pvdz iop(5/13=1,5/36=2,99/5=2) pseudo=read geom=check guess=(re
 ad,tcheck) scf=(maxcycle=1)\\title\\0,1\N,0,-3.01880432,0.51269746,-0.
 06786731\C,0,-2.11393941,-0.463242,0.12637376\O,0,-2.35326554,-1.63001
 205,0.34231432\C,0,-0.66173511,0.02316883,0.05347707\O,0,-0.38403199,1
 .17224606,-0.16555199\C,0,2.96941748,0.34366313,-0.0114399\N,0,2.53399
 246,-0.81667529,0.22707922\H,0,-3.99910052,0.29983499,-0.0401713\H,0,-
 2.69982702,1.44985616,-0.24166934\H,0,0.10012583,-0.75678955,0.2159921

 Normal termination of Gaussian 16 at Wed Apr  9 03:45:40 2025.
