 Gaussian 16, Revision C.01,

 ----------------------------------------------------------------------
 #t hf aug-cc-pvdz symm=none int=(grid=ultrafine) guess=(read,tcheck) s
 table=(opt,rrhf)
 ----------------------------------------------------------------------
 -----
 title
 -----
 Symbolic Z-matrix:
 Charge =  0 Multiplicity = 1

 SCF Done:  E(RHF) =  -245.539982620     A.U. after   17 cycles
 Normal termination of Gaussian 16 at Wed Apr  9 14:20:01 2025.
 Gaussian 16:  ES64L-G16RevC.01  3-Jul-2019

 ----------------------------------------------------------------------
 #t hf aug-cc-pvdz iop(5/13=1,5/36=2,99/5=2) pseudo=read geom=check gue
 ss=(read,tcheck) scf=(maxcycle=1)
 ----------------------------------------------------------------------
 -----
 title
 -----
 Structure from the checkpoint file:  "Grambow2020_b97d3_007205_forward_mol1.chk"
 Charge =  0 Multiplicity = 1

                         Standard orientation:
 ---------------------------------------------------------------------
 Center     Atomic      Atomic             Coordinates (Angstroms)
 Number     Number       Type             X           Y           Z
 ---------------------------------------------------------------------
      1          8           0        1.998542   -0.307917   -0.270251
      2          6           0        0.985051    0.082145    0.200815
      3          6           0       -0.351937   -0.185416    0.654034
      4          6           0       -1.050282    0.672699   -0.411653
      5          7           0       -1.558507   -0.614571   -0.065983
      6          1           0        0.521562    1.898587    0.363886
      7          1           0       -0.553055    0.189294    1.658432
      8          1           0       -0.479301    1.857301    0.153579
      9          1           0       -0.559615    0.726772   -1.402606
     10          1           0       -1.505369   -1.323190   -0.808574
 ---------------------------------------------------------------------

 SCF Done:  E(RHF) =  -245.614312107     A.U. after    2 cycles

 The electronic state is 1-A.
 Alpha  occ. eigenvalues --  -20.66331 -15.70161 -11.44970 -11.32168 -11.31221
 Alpha  occ. eigenvalues --   -1.44457  -1.29263  -1.02156  -0.86445  -0.81562
 Alpha  occ. eigenvalues --   -0.75182  -0.69878  -0.65520  -0.62015  -0.57935
 Alpha  occ. eigenvalues --   -0.56747  -0.49495  -0.38399  -0.33834
 Alpha virt. eigenvalues --    0.03026   0.03717   0.04289   0.05260   0.06340
 Alpha virt. eigenvalues --    0.08273   0.09921   0.10279   0.10660   0.11791
 Alpha virt. eigenvalues --    0.12750   0.13883   0.14920   0.15451   0.15857

 Mulliken charges:
               1
     1  O   -0.268786
     2  C    0.025401
     3  C    0.740324
     4  C    0.061488
     5  N   -0.539908
     6  H   -0.180011
     7  H   -0.120662
     8  H    0.429661
     9  H   -0.185984
    10  H    0.038478
 Sum of Mulliken charges =   0.00000

 Dipole moment (field-independent basis, Debye):
    X=             -1.3710    Y=             -1.5049    Z=             -0.4709  Tot=              2.0895

 Test job not archived.
 1\1\GINC-SE056\SP\RHF\Aug-CC-pVDZ\C3H5N1O1\OHZDE\09-Apr-2025\0\\#t hf
 aug-cc-pvdz iop(5/13=1,5/36=2,99/5=2) pseudo=read geom=check guess=(re
 ad,tcheck) scf=(maxcycle=1)\\title\\0,1\O,0,1.70456973,-0.60332267,1.4
 8677333\C,0,1.11310037,-0.31855251,0.50174239\C,0,0.38544162,0.6532519
 2,-0.26678866\C,0,-0.95756568,-0.09123479,-0.22428805\N,0,-0.9014803,1
 .32060017,-0.02827729\H,0,0.49349496,-1.56795715,-0.76156777\H,0,0.748
 22639,0.75757385,-1.29010492\H,0,-0.40665149,-1.15080854,-1.01332813\H
 ,0,-1.16889885,-0.67835382,0.69020451\H,0,-1.16071474,1.64554954,0.911

 Normal termination of Gaussian 16 at Wed Apr  9 14:20:04 2025.
