 Gaussian 16, Revision C.01,

 ----------------------------------------------------------------------
 #t hf aug-cc-pvdz symm=none int=(grid=ultrafine) guess=(read,tcheck) s
 table=(opt,rrhf)
 ----------------------------------------------------------------------
 -----
 title
 -----
 Symbolic Z-matrix:
 Charge =  0 Multiplicity = 1

 SCF Done:  E(RHF) =  -283.615190345     A.U. after   16 cycles
 Normal termination of Gaussian 16 at Wed Apr  9 13:42:36 2025.
 Gaussian 16:  ES64L-G16RevC.01  3-Jul-2019

 ----------------------------------------------------------------------
 #t hf aug-cc-pvdz iop(5/13=1,5/36=2,99/5=2) pseudo=read geom=check gue
 ss=(read,tcheck) scf=(maxcycle=1)
 ----------------------------------------------------------------------
 -----
 title
 -----
 Structure from the checkpoint file:  "Grambow2020_b97d3_006658_reverse_mol2.chk"
 Charge =  0 Multiplicity = 1

                         Standard orientation:
 ---------------------------------------------------------------------
 Center     Atomic      Atomic             Coordinates (Angstroms)
 Number     Number       Type             X           Y           Z
 ---------------------------------------------------------------------
      1          7           0       -1.487048    0.117250   -0.094110
      2          6           0       -0.659251    1.000946   -0.298019
      3          6           0        0.782311    0.994207    0.139093
      4          6           0        1.373035   -0.402591    0.290937
      5          6           0       -2.485220   -0.690302    0.029832
      6          8           0        2.398050   -0.772661   -0.247640
      7          1           0        0.802079    1.492911    1.124720
      8          1           0        1.402389    1.592167   -0.539646
      9          1           0        0.756869   -1.087440    0.921620
     10          1           0       -3.136377   -0.608393    0.898295
     11          1           0       -2.665270   -1.442271   -0.736157
 ---------------------------------------------------------------------

 SCF Done:  E(RHF) =  -283.703217074     A.U. after    2 cycles

 The electronic state is 1-A.
 Alpha  occ. eigenvalues --  -20.58674 -15.72390 -11.35993 -11.30721 -11.30028
 Alpha  occ. eigenvalues --  -11.28436  -1.36449  -1.26714  -1.07236  -0.98826
 Alpha  occ. eigenvalues --   -0.82553  -0.75023  -0.70063  -0.67628  -0.66199
 Alpha  occ. eigenvalues --   -0.64037  -0.59889  -0.54978  -0.53503  -0.47385
 Alpha  occ. eigenvalues --   -0.45158  -0.31220
 Alpha virt. eigenvalues --    0.02944   0.03847   0.04463   0.04925   0.06742
 Alpha virt. eigenvalues --    0.07649   0.08733   0.10342   0.10568   0.11618
 Alpha virt. eigenvalues --    0.12329   0.13078   0.13511   0.15077   0.15490

 Mulliken charges:
               1
     1  N   -0.078023
     2  C   -0.295026
     3  C   -0.005259
     4  C    0.630326
     5  C    0.597097
     6  O   -0.464683
     7  H    0.154480
     8  H   -0.012308
     9  H   -0.071251
    10  H   -0.224226
    11  H   -0.231127
 Sum of Mulliken charges =   0.00000

 Dipole moment (field-independent basis, Debye):
    X=             -2.6827    Y=             -0.1207    Z=              2.1959  Tot=              3.4689

 Test job not archived.
 1\1\GINC-SE054\SP\RHF\Aug-CC-pVDZ\C4H5N1O1\OHZDE\09-Apr-2025\0\\#t hf
 aug-cc-pvdz iop(5/13=1,5/36=2,99/5=2) pseudo=read geom=check guess=(re
 ad,tcheck) scf=(maxcycle=1)\\title\\0,1\N,0,0.4468393,1.09764894,-0.37
 887393\C,0,0.98760063,0.02034662,-0.61284031\C,0,0.62188644,-1.3126893
 8,-0.01410551\C,0,-0.83828196,-1.41718239,0.41020956\C,0,0.01485845,2.
 30669675,-0.25459151\O,0,-1.59054712,-2.30378274,0.05565405\H,0,1.2571
 5854,-1.42626658,0.88260306\H,0,0.87404555,-2.13334618,-0.69651087\H,0
 ,-1.18149134,-0.57569085,1.05870052\H,0,0.44233454,2.95272193,0.510169

 Normal termination of Gaussian 16 at Wed Apr  9 13:42:40 2025.
