 Gaussian 16, Revision C.01,

 ----------------------------------------------------------------------
 #t hf aug-cc-pvdz symm=none int=(grid=ultrafine) guess=(read,tcheck) s
 table=(opt,rrhf)
 ----------------------------------------------------------------------
 -----
 title
 -----
 Symbolic Z-matrix:
 Charge =  0 Multiplicity = 1

 SCF Done:  E(RHF) =  -354.618926569     A.U. after   15 cycles
 Normal termination of Gaussian 16 at Wed Apr  9 15:44:44 2025.
 Gaussian 16:  ES64L-G16RevC.01  3-Jul-2019

 ----------------------------------------------------------------------
 #t hf aug-cc-pvdz iop(5/13=1,5/36=2,99/5=2) pseudo=read geom=check gue
 ss=(read,tcheck) scf=(maxcycle=1)
 ----------------------------------------------------------------------
 -----
 title
 -----
 Structure from the checkpoint file:  "Grambow2020_wb97xd3_007323_reverse_mol2.chk"
 Charge =  0 Multiplicity = 1

                         Standard orientation:
 ---------------------------------------------------------------------
 Center     Atomic      Atomic             Coordinates (Angstroms)
 Number     Number       Type             X           Y           Z
 ---------------------------------------------------------------------
      1          8           0        2.144553    0.739339    0.783516
      2          6           0        2.117242    0.115177   -0.462135
      3          6           0       -0.108523   -0.648913   -0.111046
      4          7           0       -1.142090   -0.826343    0.540732
      5          7           0       -2.231629    0.018752    0.271006
      6          6           0       -2.209579    0.999581   -0.565918
      7          7           0        0.923639   -0.665027   -0.725988
      8          1           0        2.296685    0.082511    1.466463
      9          1           0        2.968197   -0.556454   -0.604195
     10          1           0        2.160391    0.902543   -1.214142
     11          1           0       -3.009871   -0.275695    0.849220
     12          1           0       -3.216101    1.445642   -0.531128
 ---------------------------------------------------------------------

 SCF Done:  E(RHF) =  -354.727462924     A.U. after    2 cycles

 The electronic state is 1-A.
 Alpha  occ. eigenvalues --  -20.59862 -15.72912 -15.67397 -15.65842 -11.37563
 Alpha  occ. eigenvalues --  -11.35293 -11.26433  -1.36639  -1.32622  -1.24057
 Alpha  occ. eigenvalues --   -1.13431  -0.96961  -0.89972  -0.77335  -0.75096
 Alpha  occ. eigenvalues --   -0.70115  -0.67055  -0.64353  -0.61198  -0.58802
 Alpha  occ. eigenvalues --   -0.54768  -0.52477  -0.50771  -0.42315  -0.37669
 Alpha  occ. eigenvalues --   -0.36726
 Alpha virt. eigenvalues --    0.03136   0.03253   0.04797   0.05667   0.06525
 Alpha virt. eigenvalues --    0.08236   0.08930   0.11278   0.11718   0.12719
 Alpha virt. eigenvalues --    0.12940   0.13601   0.14855   0.16145   0.16349

 Mulliken charges:
               1
     1  O   -0.505138
     2  C    1.127328
     3  C   -0.062647
     4  N   -0.021528
     5  N   -0.018461
     6  C    0.032552
     7  N   -0.205930
     8  H    0.143292
     9  H   -0.141222
    10  H   -0.156168
    11  H    0.026139
    12  H   -0.218217
 Sum of Mulliken charges =  -0.00000

 Dipole moment (field-independent basis, Debye):
    X=             -0.0333    Y=             -1.2633    Z=              1.5505  Tot=              2.0003

 Test job not archived.
 1\1\GINC-SE219\SP\RHF\Aug-CC-pVDZ\C3H5N3O1\OHZDE\09-Apr-2025\0\\#t hf
 aug-cc-pvdz iop(5/13=1,5/36=2,99/5=2) pseudo=read geom=check guess=(re
 ad,tcheck) scf=(maxcycle=1)\\title\\0,1\O,0,-2.09764303,0.78481792,0.4
 5892116\C,0,-2.0472603,-0.482908,-0.1175371\C,0,0.16307111,-0.11120299
 ,-0.91590799\N,0,1.17982333,0.5564643,-1.12802477\N,0,2.28264189,0.343
 99671,-0.28381983\C,0,2.288404,-0.45500032,0.72836794\N,0,-0.8548202,-
 0.74945661,-0.89860311\H,0,-2.27115864,1.43847796,-0.22196503\H,0,-2.9
 0060082,-0.66978292,-0.77501854\H,0,-2.06623676,-1.20496449,0.69830364

 Normal termination of Gaussian 16 at Wed Apr  9 15:44:48 2025.
