 Gaussian 16, Revision C.01,

 ----------------------------------------------------------------------
 #t hf aug-cc-pvdz symm=none int=(grid=ultrafine) guess=(read,tcheck) s
 table=(opt,rrhf)
 ----------------------------------------------------------------------
 -----
 title
 -----
 Symbolic Z-matrix:
 Charge =  0 Multiplicity = 1

 SCF Done:  E(RHF) =  -320.200107211     A.U. after   21 cycles
 Normal termination of Gaussian 16 at Wed Apr  9 04:05:28 2025.
 Gaussian 16:  ES64L-G16RevC.01  3-Jul-2019

 ----------------------------------------------------------------------
 #t hf aug-cc-pvdz iop(5/13=1,5/36=2,99/5=2) pseudo=read geom=check gue
 ss=(read,tcheck) scf=(maxcycle=1)
 ----------------------------------------------------------------------
 -----
 title
 -----
 Structure from the checkpoint file:  "Grambow2020_wb97xd3_009368_forward_mol1.chk"
 Charge =  0 Multiplicity = 1

                         Standard orientation:
 ---------------------------------------------------------------------
 Center     Atomic      Atomic             Coordinates (Angstroms)
 Number     Number       Type             X           Y           Z
 ---------------------------------------------------------------------
      1          6           0        2.790747   -0.150946   -0.186390
      2          6           0        1.601063   -0.101611   -0.010835
      3          6           0        0.217222   -0.012232    0.205433
      4          6           0       -0.662798   -1.140606    0.163468
      5          8           0       -1.828548   -1.116826   -0.162867
      6          7           0       -1.491628    1.350381   -0.303148
      7          6           0       -0.404679    1.331666    0.262677
      8          1           0        3.843185   -0.207363   -0.338264
      9          1           0       -0.193932   -2.064691    0.549537
     10          1           0        0.171202    2.196363    0.607583
 ---------------------------------------------------------------------

 SCF Done:  E(RHF) =  -320.296074532     A.U. after    2 cycles

 The electronic state is 1-A.
 Alpha  occ. eigenvalues --  -20.56950 -15.74976 -11.35524 -11.34920 -11.30700
 Alpha  occ. eigenvalues --  -11.27638 -11.26773  -1.36167  -1.26470  -1.09565
 Alpha  occ. eigenvalues --   -1.00490  -0.86947  -0.79614  -0.76598  -0.71426
 Alpha  occ. eigenvalues --   -0.65917  -0.65029  -0.61436  -0.57836  -0.53030
 Alpha  occ. eigenvalues --   -0.46792  -0.45572  -0.42392  -0.32008
 Alpha virt. eigenvalues --   -0.02236   0.02723   0.03634   0.04760   0.07609
 Alpha virt. eigenvalues --    0.08653   0.08835   0.09596   0.10238   0.10906
 Alpha virt. eigenvalues --    0.11126   0.12615   0.14134   0.14795   0.15350

 Mulliken charges:
               1
     1  C    0.543197
     2  C   -0.139122
     3  C   -0.027568
     4  C    0.471440
     5  O   -0.491063
     6  N   -0.310360
     7  C    0.718609
     8  H   -0.458438
     9  H   -0.145367
    10  H   -0.161328
 Sum of Mulliken charges =   0.00000

 Dipole moment (field-independent basis, Debye):
    X=              3.8320    Y=              2.2015    Z=              1.3308  Tot=              4.6154

 Test job not archived.
 1\1\GINC-SE454\SP\RHF\Aug-CC-pVDZ\C5H3N1O1\OHZDE\09-Apr-2025\0\\#t hf
 aug-cc-pvdz iop(5/13=1,5/36=2,99/5=2) pseudo=read geom=check guess=(re
 ad,tcheck) scf=(maxcycle=1)\\title\\0,1\C,0,2.33884383,0.10876678,0.45
 807628\C,0,1.1614024,0.0915947,0.20920183\C,0,-0.20637012,0.04524144,-
 0.10196416\C,0,-1.13156472,1.07930214,0.2503999\O,0,-2.3092277,0.92488
 027,0.4855524\N,0,-1.88127378,-1.44721321,-0.15501882\C,0,-0.77104326,
 -1.22209198,-0.62264612\H,0,3.38010111,0.13715044,0.67910085\H,0,-0.68
 25487,2.08898118,0.20856383\H,0,-0.14597106,-1.91582776,-1.19388598\\V

 Normal termination of Gaussian 16 at Wed Apr  9 04:05:31 2025.
