 Gaussian 16, Revision C.01,

 ----------------------------------------------------------------------
 #t hf aug-cc-pvdz symm=none int=(grid=ultrafine) guess=(read,tcheck) s
 table=(opt,rrhf)
 ----------------------------------------------------------------------
 -----
 title
 -----
 Symbolic Z-matrix:
 Charge =  0 Multiplicity = 1

 SCF Done:  E(RHF) =  -375.632695191     A.U. after   16 cycles
 Normal termination of Gaussian 16 at Wed Apr  9 03:45:29 2025.
 Gaussian 16:  ES64L-G16RevC.01  3-Jul-2019

 ----------------------------------------------------------------------
 #t hf aug-cc-pvdz iop(5/13=1,5/36=2,99/5=2) pseudo=read geom=check gue
 ss=(read,tcheck) scf=(maxcycle=1)
 ----------------------------------------------------------------------
 -----
 title
 -----
 Structure from the checkpoint file:  "Grambow2020_wb97xd3_007858_forward_mol1.chk"
 Charge =  0 Multiplicity = 1

                         Standard orientation:
 ---------------------------------------------------------------------
 Center     Atomic      Atomic             Coordinates (Angstroms)
 Number     Number       Type             X           Y           Z
 ---------------------------------------------------------------------
      1          7           0        0.968605    1.367882   -0.080020
      2          6           0        1.303008    0.064081    0.056269
      3          8           0        2.397940   -0.380258   -0.207124
      4          6           0        0.193514   -0.838657    0.592715
      5          8           0       -0.851390   -1.070678   -0.381007
      6          6           0       -1.957675   -0.365233   -0.394243
      7          7           0       -1.933196    0.787987    0.317530
      8          1           0        1.672588    2.009718   -0.397749
      9          1           0        0.070649    1.699644    0.230088
     10          1           0       -0.233602   -0.428435    1.508901
     11          1           0        0.628634   -1.816302    0.774758
     12          1           0       -2.100076    0.758988   -0.969423
     13          1           0       -2.891540    1.131648    0.367464
 ---------------------------------------------------------------------

 SCF Done:  E(RHF) =  -375.748989434     A.U. after    2 cycles

 The electronic state is 1-A.
 Alpha  occ. eigenvalues --  -20.63403 -20.54343 -15.69512 -15.65076 -11.37131
 Alpha  occ. eigenvalues --  -11.35537 -11.31798  -1.41930  -1.35722  -1.23441
 Alpha  occ. eigenvalues --   -1.18684  -1.01660  -0.85045  -0.79829  -0.74544
 Alpha  occ. eigenvalues --   -0.73313  -0.72295  -0.66791  -0.64411  -0.60606
 Alpha  occ. eigenvalues --   -0.58105  -0.57866  -0.54143  -0.51371  -0.44588
 Alpha  occ. eigenvalues --   -0.42260  -0.36989
 Alpha virt. eigenvalues --    0.02327   0.03889   0.04172   0.04964   0.06865
 Alpha virt. eigenvalues --    0.07294   0.08732   0.10127   0.10798   0.11693
 Alpha virt. eigenvalues --    0.13070   0.14092   0.14350   0.14903   0.15944

 Mulliken charges:
               1
     1  N   -0.106429
     2  C    0.415166
     3  O   -0.484235
     4  C    0.863519
     5  O   -0.458004
     6  C    0.036898
     7  N   -0.421728
     8  H   -0.048929
     9  H    0.048479
    10  H   -0.018975
    11  H   -0.200139
    12  H    0.313434
    13  H    0.060942
 Sum of Mulliken charges =  -0.00000

 Dipole moment (field-independent basis, Debye):
    X=             -3.5162    Y=              3.9047    Z=              1.7203  Tot=              5.5290

 Test job not archived.
 1\1\GINC-SE036\SP\RHF\Aug-CC-pVDZ\C3H6N2O2\OHZDE\09-Apr-2025\0\\#t hf
 aug-cc-pvdz iop(5/13=1,5/36=2,99/5=2) pseudo=read geom=check guess=(re
 ad,tcheck) scf=(maxcycle=1)\\title\\0,1\N,0,-1.41067098,0.48910707,-0.
 71241704\C,0,-1.41967684,-0.00687798,0.54623897\O,0,-2.35133678,0.1139
 5535,1.30984839\C,0,-0.15766261,-0.76433755,0.95521583\O,0,0.9720133,0
 .11473687,1.16700055\C,0,1.86760039,0.332293,0.23303701\N,0,1.51291413
 ,-0.03102664,-1.0236789\H,0,-2.22997504,0.96715605,-1.04212532\H,0,-0.
 64452766,0.29055038,-1.33383227\H,0,0.09524202,-1.5269754,0.21729431\H

 Normal termination of Gaussian 16 at Wed Apr  9 03:45:34 2025.
