 Gaussian 16, Revision C.01,

 ----------------------------------------------------------------------
 #t hf aug-cc-pvdz symm=none int=(grid=ultrafine) guess=(read,tcheck) s
 table=(opt,rrhf)
 ----------------------------------------------------------------------
 -----
 title
 -----
 Symbolic Z-matrix:
 Charge =  0 Multiplicity = 1

 SCF Done:  E(RHF) =  -358.388090446     A.U. after   17 cycles
 Normal termination of Gaussian 16 at Wed Apr  9 03:28:38 2025.
 Gaussian 16:  ES64L-G16RevC.01  3-Jul-2019

 ----------------------------------------------------------------------
 #t hf aug-cc-pvdz iop(5/13=1,5/36=2,99/5=2) pseudo=read geom=check gue
 ss=(read,tcheck) scf=(maxcycle=1)
 ----------------------------------------------------------------------
 -----
 title
 -----
 Structure from the checkpoint file:  "Grambow2020_wb97xd3_006791_forward_mol1.chk"
 Charge =  0 Multiplicity = 1

                         Standard orientation:
 ---------------------------------------------------------------------
 Center     Atomic      Atomic             Coordinates (Angstroms)
 Number     Number       Type             X           Y           Z
 ---------------------------------------------------------------------
      1          8           0        2.354220   -1.142055   -0.173206
      2          6           0        1.374765   -0.575938   -0.086337
      3          6           0        0.801179    0.969635    0.366950
      4          6           0       -0.116551    1.438388   -0.678649
      5          7           0       -0.488706    1.062951    0.667627
      6          6           0       -1.438462   -0.856882    0.413366
      7          8           0       -2.287647   -0.832577   -0.429625
      8          1           0       -0.331106   -1.025649    0.102260
      9          1           0        1.661335    1.351253    0.906381
     10          1           0       -0.358423    0.726797   -1.476893
     11          1           0       -0.166014    2.485580   -0.956789
     12          1           0       -1.643015   -1.032790    1.482319
 ---------------------------------------------------------------------

 SCF Done:  E(RHF) =  -358.497679509     A.U. after    2 cycles

 The electronic state is 1-A.
 Alpha  occ. eigenvalues --  -20.72645 -20.55278 -15.63152 -11.45054 -11.34947
 Alpha  occ. eigenvalues --  -11.34331 -11.29088  -1.53211  -1.34968  -1.28876
 Alpha  occ. eigenvalues --   -0.92643  -0.87588  -0.85792  -0.82745  -0.74164
 Alpha  occ. eigenvalues --   -0.70762  -0.70286  -0.66322  -0.65164  -0.62188
 Alpha  occ. eigenvalues --   -0.58449  -0.54549  -0.51695  -0.42152  -0.40817
 Alpha  occ. eigenvalues --   -0.36198
 Alpha virt. eigenvalues --    0.00953   0.03381   0.03924   0.04722   0.05378
 Alpha virt. eigenvalues --    0.07155   0.07731   0.08924   0.09795   0.10881
 Alpha virt. eigenvalues --    0.11447   0.12771   0.13578   0.13886   0.14326

 Mulliken charges:
               1
     1  O   -0.190594
     2  C    0.107464
     3  C    0.573989
     4  C    0.985849
     5  N   -0.684194
     6  C    0.792445
     7  O   -0.480631
     8  H   -0.151570
     9  H   -0.288532
    10  H   -0.282207
    11  H   -0.291973
    12  H   -0.090046
 Sum of Mulliken charges =  -0.00000

 Dipole moment (field-independent basis, Debye):
    X=              4.7575    Y=              0.5175    Z=              0.9280  Tot=              4.8747

 Test job not archived.
 1\1\GINC-SE143\SP\RHF\Aug-CC-pVDZ\C4H5N1O2\OHZDE\09-Apr-2025\0\\#t hf
 aug-cc-pvdz iop(5/13=1,5/36=2,99/5=2) pseudo=read geom=check guess=(re
 ad,tcheck) scf=(maxcycle=1)\\title\\0,1\O,0,2.62368186,-0.35268371,-0.
 77815264\C,0,1.55092721,-0.20426474,-0.43971806\C,0,0.67129783,0.62187
 724,0.7714831\C,0,-0.43533293,1.33557249,0.12245148\N,0,-0.5648356,0.1
 9753535,1.00563566\C,0,-1.04427702,-1.42723388,-0.32954431\O,0,-1.9565
 9799,-1.16011684,-1.05663434\H,0,0.03285601,-1.10387035,-0.62403755\H,
 0,1.46490822,0.84712956,1.4757054\H,0,-0.57943622,1.1511803,-0.9486648

 Normal termination of Gaussian 16 at Wed Apr  9 03:28:42 2025.
