 Gaussian 16, Revision C.01,

 ----------------------------------------------------------------------
 #t hf aug-cc-pvdz symm=none int=(grid=ultrafine) guess=(read,tcheck) s
 table=(opt,rrhf)
 ----------------------------------------------------------------------
 -----
 title
 -----
 Symbolic Z-matrix:
 Charge =  0 Multiplicity = 1

 SCF Done:  E(RHF) =  -281.211731287     A.U. after   17 cycles
 Normal termination of Gaussian 16 at Wed Apr  9 03:03:34 2025.
 Gaussian 16:  ES64L-G16RevC.01  3-Jul-2019

 ----------------------------------------------------------------------
 #t hf aug-cc-pvdz iop(5/13=1,5/36=2,99/5=2) pseudo=read geom=check gue
 ss=(read,tcheck) scf=(maxcycle=1)
 ----------------------------------------------------------------------
 -----
 title
 -----
 Structure from the checkpoint file:  "Grambow2020_b97d3_006501_forward_mol1.chk"
 Charge =  0 Multiplicity = 1

                         Standard orientation:
 ---------------------------------------------------------------------
 Center     Atomic      Atomic             Coordinates (Angstroms)
 Number     Number       Type             X           Y           Z
 ---------------------------------------------------------------------
      1          8           0       -0.669224    1.553425   -0.000761
      2          6           0       -0.215574    0.451979    0.008139
      3          6           0        1.119874   -0.009318    0.000988
      4          6           0        2.285580   -0.360803   -0.002994
      5          6           0       -1.301792   -0.948412    0.646773
      6          7           0       -1.326824   -0.937555   -0.555776
      7          1           0        3.313029   -0.665193   -0.020906
 ---------------------------------------------------------------------

 SCF Done:  E(RHF) =  -281.294215720     A.U. after    2 cycles

 The electronic state is 1-A.
 Alpha  occ. eigenvalues --  -20.66005 -15.69568 -11.48731 -11.33263 -11.31661
 Alpha  occ. eigenvalues --  -11.31420  -1.45108  -1.25206  -1.10368  -0.95277
 Alpha  occ. eigenvalues --   -0.78321  -0.75349  -0.70564  -0.69072  -0.60691
 Alpha  occ. eigenvalues --   -0.52234  -0.49952  -0.48878  -0.46556  -0.45707
 Alpha virt. eigenvalues --    0.00318   0.02377   0.06881   0.07649   0.07994
 Alpha virt. eigenvalues --    0.08478   0.08954   0.10092   0.12022   0.12343
 Alpha virt. eigenvalues --    0.13092   0.13876   0.14757   0.15565   0.16303

 Mulliken charges:
               1
     1  O   -0.391506
     2  C    0.240693
     3  C    0.062111
     4  C    0.717518
     5  C    0.089085
     6  N   -0.325871
     7  H   -0.392031
 Sum of Mulliken charges =  -0.00000

 Dipole moment (field-independent basis, Debye):
    X=              4.1461    Y=             -1.0206    Z=             -0.1137  Tot=              4.2713

 Test job not archived.
 1\1\GINC-SE128\SP\RHF\Aug-CC-pVDZ\C4H1N1O1\OHZDE\09-Apr-2025\0\\#t hf
 aug-cc-pvdz iop(5/13=1,5/36=2,99/5=2) pseudo=read geom=check guess=(re
 ad,tcheck) scf=(maxcycle=1)\\title\\0,1\O,0,-1.09190563,-1.05970943,1.
 33533241\C,0,-0.66066929,-0.38239813,0.45536286\C,0,0.66386957,-0.0405
 841,0.10176974\C,0,1.8211776,0.22509518,-0.16745365\C,0,-1.74941377,-0
 .09254058,-1.05441603\N,0,-1.82092217,0.85722318,-0.31977123\H,0,2.840
 77469,0.46746586,-0.3917381\\Version=ES64L-G16RevC.01\State=1-A\HF=-28
 1.2942157\RMSD=7.311e-03\Dipole=1.6197465,0.3484186,-0.2810963\Quadrup

 Normal termination of Gaussian 16 at Wed Apr  9 03:03:36 2025.
