 Gaussian 16, Revision C.01,

 ----------------------------------------------------------------------
 #t hf aug-cc-pvdz symm=none int=(grid=ultrafine) guess=(read,tcheck) s
 table=(opt,rrhf)
 ----------------------------------------------------------------------
 -----
 title
 -----
 Symbolic Z-matrix:
 Charge =  0 Multiplicity = 1

 SCF Done:  E(RHF) =  -323.726951261     A.U. after   15 cycles
 Normal termination of Gaussian 16 at Wed Apr  9 03:40:36 2025.
 Gaussian 16:  ES64L-G16RevC.01  3-Jul-2019

 ----------------------------------------------------------------------
 #t hf aug-cc-pvdz iop(5/13=1,5/36=2,99/5=2) pseudo=read geom=check gue
 ss=(read,tcheck) scf=(maxcycle=1)
 ----------------------------------------------------------------------
 -----
 title
 -----
 Structure from the checkpoint file:  "Grambow2020_wb97xd3_007535_reverse_mol1.chk"
 Charge =  0 Multiplicity = 1

                         Standard orientation:
 ---------------------------------------------------------------------
 Center     Atomic      Atomic             Coordinates (Angstroms)
 Number     Number       Type             X           Y           Z
 ---------------------------------------------------------------------
      1          6           0       -2.805874   -0.389585    0.016928
      2          8           0       -1.641868    0.126442   -0.276197
      3          6           0       -0.505688   -0.480543   -0.082996
      4          6           0        0.717436    0.326838   -0.428390
      5          6           0        0.760353    1.690032    0.272257
      6          6           0        1.907025   -0.464102   -0.097376
      7          7           0        2.841803   -1.075893    0.161395
      8          1           0       -3.633936    0.283445   -0.140906
      9          1           0       -2.004388   -0.678283    1.760610
     10          1           0       -2.926721   -1.464342   -0.035293
     11          1           0       -0.485902   -1.563102   -0.144403
     12          1           0       -1.203612   -0.717187    1.742630
     13          1           0        0.759248    0.490666   -1.514279
     14          1           0        1.641725    2.252067   -0.036094
     15          1           0       -0.128364    2.263008    0.011374
     16          1           0        0.784759    1.557609    1.353633
 ---------------------------------------------------------------------

 SCF Done:  E(RHF) =  -323.831807701     A.U. after    2 cycles

 The electronic state is 1-A.
 Alpha  occ. eigenvalues --  -20.70625 -15.64051 -11.32744 -11.31768 -11.31072
 Alpha  occ. eigenvalues --  -11.28847 -11.25553  -1.47867  -1.20283  -1.11597
 Alpha  occ. eigenvalues --   -1.01961  -0.92570  -0.84953  -0.76028  -0.73153
 Alpha  occ. eigenvalues --   -0.71874  -0.68614  -0.63628  -0.59121  -0.56928
 Alpha  occ. eigenvalues --   -0.55897  -0.54766  -0.53982  -0.51680  -0.46684
 Alpha  occ. eigenvalues --   -0.46323  -0.28299
 Alpha virt. eigenvalues --    0.02857   0.03441   0.04317   0.04997   0.05676
 Alpha virt. eigenvalues --    0.06291   0.06772   0.07480   0.08380   0.09428
 Alpha virt. eigenvalues --    0.10099   0.11646   0.12379   0.13363   0.14158

 Mulliken charges:
               1
     1  C    0.744846
     2  O   -0.303556
     3  C    0.491032
     4  C    0.127504
     5  C    0.616988
     6  C   -0.499453
     7  N   -0.151650
     8  H   -0.371890
     9  H   -0.005296
    10  H   -0.225171
    11  H   -0.484946
    12  H    0.181022
    13  H    0.036230
    14  H   -0.081173
    15  H   -0.049623
    16  H   -0.024865
 Sum of Mulliken charges =  -0.00000

 Dipole moment (field-independent basis, Debye):
    X=             -3.4274    Y=              1.5925    Z=             -1.7957  Tot=              4.1842

 Test job not archived.
 1\1\GINC-SE338\SP\RHF\Aug-CC-pVDZ\C5H9N1O1\OHZDE\09-Apr-2025\0\\#t hf
 aug-cc-pvdz iop(5/13=1,5/36=2,99/5=2) pseudo=read geom=check guess=(re
 ad,tcheck) scf=(maxcycle=1)\\title\\0,1\C,0,2.40756695,0.5872739,0.171
 73589\O,0,1.10658649,0.70742319,0.18314822\C,0,0.28751476,-0.26073166,
 0.48057243\C,0,-1.17448749,0.07971354,0.36292795\C,0,-1.55560168,0.644
 64734,-1.0106256\C,0,-1.95883565,-1.1217943,0.66534156\N,0,-2.57865563
 ,-2.05809734,0.89819651\H,0,2.92446994,1.47017205,-0.17012701\H,0,2.04
 744719,-0.93176308,-0.98108434\H,0,2.87103774,-0.11799955,0.85012924\H

 Normal termination of Gaussian 16 at Wed Apr  9 03:40:41 2025.
