 Gaussian 16, Revision C.01,

 ----------------------------------------------------------------------
 #t hf aug-cc-pvdz symm=none int=(grid=ultrafine) guess=(read,tcheck) s
 table=(opt,rrhf)
 ----------------------------------------------------------------------
 -----
 title
 -----
 Symbolic Z-matrix:
 Charge =  0 Multiplicity = 1

 SCF Done:  E(RHF) =  -307.726659918     A.U. after   17 cycles

 1\1\GINC-SE454\Stability\RHF\Aug-CC-pVDZ\C6H10O1\OHZDE\09-Apr-2025\0\\
 #t hf aug-cc-pvdz symm=none int=(grid=ultrafine) guess=(read,tcheck) s
 table=(opt,rrhf)\\title\\0,1\O,0,1.49207838,-0.16155052,1.18646035\C,0
 ,1.33560721,-0.4904593,-0.14670458\C,0,0.15224572,-1.39148184,-0.47481
 038\C,0,-1.18679107,-0.76116728,-0.07283906\C,0,-1.15402105,0.73008751
 ,0.04156337\C,0,-0.13004597,1.50092786,-0.4869004\C,0,1.11392213,0.921
 40716,-0.5476597\H,0,0.24901074,0.43522508,1.68591649\H,0,2.25478587,-
 0.9134007,-0.57075858\H,0,0.28388717,-2.34779665,0.0341542\H,0,0.16660

 Normal termination of Gaussian 16 at Wed Apr  9 16:27:24 2025.
 Gaussian 16:  ES64L-G16RevC.01  3-Jul-2019

 ----------------------------------------------------------------------
 #t hf aug-cc-pvdz iop(5/13=1,5/36=2,99/5=2) pseudo=read geom=check gue
 ss=(read,tcheck) scf=(maxcycle=1)
 ----------------------------------------------------------------------
 -----
 title
 -----
 Structure from the checkpoint file:  "Grambow2020_wb97xd3_008428_forward_mol1.chk"
 Charge =  0 Multiplicity = 1

                         Standard orientation:
 ---------------------------------------------------------------------
 Center     Atomic      Atomic             Coordinates (Angstroms)
 Number     Number       Type             X           Y           Z
 ---------------------------------------------------------------------
      1          8           0       -1.442333   -0.029306    1.007940
      2          6           0       -1.169204    0.308293   -0.304089
      3          6           0       -0.124723    1.398195   -0.506605
      4          6           0        1.237203    1.014723    0.085007
      5          6           0        1.445409   -0.458228    0.243336
      6          6           0        0.647767   -1.400876   -0.386884
      7          6           0       -0.657871   -1.047411   -0.626395
      8          1           0       -0.192763   -0.395472    1.682708
      9          1           0       -2.082796    0.560438   -0.856686
     10          1           0       -0.484455    2.322097   -0.050635
     11          1           0       -0.031066    1.585018   -1.580763
     12          1           0        1.409144    1.502050    1.044769
     13          1           0        2.048709    1.362252   -0.566323
     14          1           0        2.411720   -0.763214    0.633000
     15          1           0        0.627105   -0.582492    1.885828
     16          1           0        0.950321   -2.440310   -0.396290
     17          1           0       -1.388752   -1.804099   -0.885346
 ---------------------------------------------------------------------

 SCF Done:  E(RHF) =  -307.820516857     A.U. after    2 cycles

 The electronic state is 1-A.
 Alpha  occ. eigenvalues --  -20.49753 -11.33666 -11.30699 -11.27859 -11.26150
 Alpha  occ. eigenvalues --  -11.24179 -11.23643  -1.25506  -1.13137  -1.03698
 Alpha  occ. eigenvalues --   -0.99221  -0.86727  -0.83719  -0.72997  -0.70405
 Alpha  occ. eigenvalues --   -0.65978  -0.62787  -0.60624  -0.59760  -0.58653
 Alpha  occ. eigenvalues --   -0.53342  -0.52510  -0.49955  -0.49000  -0.42110
 Alpha  occ. eigenvalues --   -0.36123  -0.34645
 Alpha virt. eigenvalues --    0.02487   0.02905   0.04098   0.04302   0.05319
 Alpha virt. eigenvalues --    0.05792   0.05913   0.07212   0.08284   0.09242
 Alpha virt. eigenvalues --    0.10177   0.11989   0.12811   0.13407   0.13670

 Mulliken charges:
               1
     1  O   -0.992076
     2  C    0.801260
     3  C    0.304965
     4  C    0.165626
     5  C   -0.131039
     6  C    0.729783
     7  C    0.225669
     8  H    0.151115
     9  H   -0.190848
    10  H    0.002567
    11  H   -0.075868
    12  H   -0.082256
    13  H    0.025390
    14  H   -0.363680
    15  H    0.173394
    16  H   -0.355807
    17  H   -0.388193
 Sum of Mulliken charges =   0.00000

 Dipole moment (field-independent basis, Debye):
    X=              3.7215    Y=             -0.1989    Z=             -3.3482  Tot=              5.0099

 Test job not archived.
 1\1\GINC-SE454\SP\RHF\Aug-CC-pVDZ\C6H10O1\OHZDE\09-Apr-2025\0\\#t hf a
 ug-cc-pvdz iop(5/13=1,5/36=2,99/5=2) pseudo=read geom=check guess=(rea
 d,tcheck) scf=(maxcycle=1)\\title\\0,1\O,0,1.49207838,-0.16155052,1.18
 646035\C,0,1.33560721,-0.4904593,-0.14670458\C,0,0.15224572,-1.3914818
 4,-0.47481038\C,0,-1.18679107,-0.76116728,-0.07283906\C,0,-1.15402105,
 0.73008751,0.04156337\C,0,-0.13004597,1.50092786,-0.4869004\C,0,1.1139
 2213,0.92140716,-0.5476597\H,0,0.24901074,0.43522508,1.68591649\H,0,2.
 25478587,-0.9134007,-0.57075858\H,0,0.28388717,-2.34779665,0.0341542\H

 Normal termination of Gaussian 16 at Wed Apr  9 16:27:30 2025.
