 Gaussian 16, Revision C.01,

 ----------------------------------------------------------------------
 #t hf aug-cc-pvdz symm=none int=(grid=ultrafine) guess=(read,tcheck) s
 table=(opt,rrhf)
 ----------------------------------------------------------------------
 -----
 title
 -----
 Symbolic Z-matrix:
 Charge =  0 Multiplicity = 1

 SCF Done:  E(RHF) =  -306.636544059     A.U. after   14 cycles
 Normal termination of Gaussian 16 at Wed Apr  9 16:28:08 2025.
 Gaussian 16:  ES64L-G16RevC.01  3-Jul-2019

 ----------------------------------------------------------------------
 #t hf aug-cc-pvdz iop(5/13=1,5/36=2,99/5=2) pseudo=read geom=check gue
 ss=(read,tcheck) scf=(maxcycle=1)
 ----------------------------------------------------------------------
 -----
 title
 -----
 Structure from the checkpoint file:  "Grambow2020_wb97xd3_008430_reverse_mol2.chk"
 Charge =  0 Multiplicity = 1

                         Standard orientation:
 ---------------------------------------------------------------------
 Center     Atomic      Atomic             Coordinates (Angstroms)
 Number     Number       Type             X           Y           Z
 ---------------------------------------------------------------------
      1          6           0       -0.965165   -0.134267    1.068473
      2          6           0       -0.777493    0.971763    0.000070
      3          6           0        0.665668    1.423964   -0.000217
      4          8           0        1.505487    0.432842    0.000160
      5          6           0        1.096977   -0.972151   -0.000182
      6          6           0       -0.406296   -1.093747   -0.000116
      7          6           0       -0.965598   -0.134103   -1.068340
      8          1           0       -0.420452   -0.033125    2.009238
      9          1           0       -2.019873   -0.316232    1.272066
     10          1           0       -1.442727    1.830784   -0.000217
     11          1           0       -0.420678   -0.033149   -2.009081
     12          1           0        1.553251   -1.411909    0.888094
     13          1           0        1.553802   -1.411294   -0.888464
     14          1           0       -0.715460   -2.139594    0.000012
     15          1           0       -2.020325   -0.316979   -1.271063
 ---------------------------------------------------------------------

 SCF Done:  E(RHF) =  -306.727622955     A.U. after    2 cycles

 The electronic state is 1-A.
 Alpha  occ. eigenvalues --  -20.62526 -11.30746 -11.29315 -11.25929 -11.24947
 Alpha  occ. eigenvalues --  -11.24939 -11.24138  -1.39844  -1.15838  -1.02959
 Alpha  occ. eigenvalues --   -0.91761  -0.88070  -0.84831  -0.71943  -0.70988
 Alpha  occ. eigenvalues --   -0.67586  -0.65143  -0.60039  -0.58453  -0.56104
 Alpha  occ. eigenvalues --   -0.55130  -0.50026  -0.47525  -0.46567  -0.45685
 Alpha  occ. eigenvalues --   -0.32675
 Alpha virt. eigenvalues --    0.02718   0.04029   0.04121   0.04794   0.06315
 Alpha virt. eigenvalues --    0.06366   0.06596   0.07747   0.09762   0.11074
 Alpha virt. eigenvalues --    0.11919   0.12428   0.12824   0.13256   0.14152

 Mulliken charges:
               1
     1  C    0.549936
     2  C    0.394758
     3  C   -0.092009
     4  O   -0.515908
     5  C    1.013033
     6  C    0.019491
     7  C    0.548826
     8  H   -0.236899
     9  H   -0.247894
    10  H   -0.329271
    11  H   -0.236420
    12  H   -0.171839
    13  H   -0.172127
    14  H   -0.276300
    15  H   -0.247377
 Sum of Mulliken charges =   0.00000

 Dipole moment (field-independent basis, Debye):
    X=             -2.2441    Y=             -3.6998    Z=              0.0003  Tot=              4.3272

 Test job not archived.
 1\1\GINC-SE037\SP\RHF\Aug-CC-pVDZ\C6H8O1\OHZDE\09-Apr-2025\0\\#t hf au
 g-cc-pvdz iop(5/13=1,5/36=2,99/5=2) pseudo=read geom=check guess=(read
 ,tcheck) scf=(maxcycle=1)\\title\\0,1\C,0,0.69593508,1.07341645,0.0790
 0671\C,0,1.2463445,-0.37357497,0.02178964\C,0,0.82953169,-1.114614,1.2
 7252065\O,0,-0.42755725,-0.95517145,1.55874501\C,0,-1.34270262,-0.1448
 1818,0.75455384\C,0,-0.62589733,0.46245927,-0.42528426\C,0,0.21118191,
 -0.64220562,-1.09896952\H,0,0.69596285,1.58189134,1.04515049\H,0,1.166
 87394,1.70840327,-0.67064581\H,0,2.30192001,-0.5346565,-0.17887669\H,0

 Normal termination of Gaussian 16 at Wed Apr  9 16:28:14 2025.
