 Gaussian 16, Revision C.01,

 ----------------------------------------------------------------------
 #t hf aug-cc-pvdz symm=none int=(grid=ultrafine) guess=(read,tcheck) s
 table=(opt,rrhf)
 ----------------------------------------------------------------------
 -----
 title
 -----
 Symbolic Z-matrix:
 Charge =  0 Multiplicity = 1

 SCF Done:  E(RHF) =  -355.924719528     A.U. after   13 cycles
 Normal termination of Gaussian 16 at Wed Apr  9 16:51:07 2025.
 Gaussian 16:  ES64L-G16RevC.01  3-Jul-2019

 ----------------------------------------------------------------------
 #t hf aug-cc-pvdz iop(5/13=1,5/36=2,99/5=2) pseudo=read geom=check gue
 ss=(read,tcheck) scf=(maxcycle=1)
 ----------------------------------------------------------------------
 -----
 title
 -----
 Structure from the checkpoint file:  "Grambow2020_wb97xd3_008991_reverse_mol2.chk"
 Charge =  0 Multiplicity = 1

                         Standard orientation:
 ---------------------------------------------------------------------
 Center     Atomic      Atomic             Coordinates (Angstroms)
 Number     Number       Type             X           Y           Z
 ---------------------------------------------------------------------
      1          6           0       -3.437221   -0.715584   -0.005593
      2          7           0       -2.223235   -0.383512    0.011546
      3          6           0        1.774902   -1.072133   -0.000741
      4          8           0        2.933043   -0.739415    0.001789
      5          7           0        0.707302   -0.216127   -0.002494
      6          6           0        0.849623    1.155048   -0.002511
      7          7           0       -0.165225    1.914494   -0.001518
      8          1           0       -3.703378   -1.772798   -0.020191
      9          1           0       -4.263499    0.000749   -0.007655
     10          1           0        1.458207   -2.128455   -0.002042
     11          1           0       -2.077194    0.629430    0.022183
     12          1           0       -0.244363   -0.587763   -0.002027
     13          1           0        1.889966    1.479339   -0.002650
     14          1           0        0.120199    2.886858   -0.001596
 ---------------------------------------------------------------------

 SCF Done:  E(RHF) =  -356.035933747     A.U. after    2 cycles

 The electronic state is 1-A.
 Alpha  occ. eigenvalues --  -20.55636 -15.66313 -15.63550 -15.61504 -11.37640
 Alpha  occ. eigenvalues --  -11.33978 -11.30645  -1.36902  -1.25192  -1.19197
 Alpha  occ. eigenvalues --   -1.15018  -0.90237  -0.85433  -0.80777  -0.74335
 Alpha  occ. eigenvalues --   -0.69780  -0.68163  -0.65136  -0.63085  -0.61036
 Alpha  occ. eigenvalues --   -0.60605  -0.50668  -0.47039  -0.46216  -0.43925
 Alpha  occ. eigenvalues --   -0.42844  -0.38278
 Alpha virt. eigenvalues --    0.03024   0.03390   0.04223   0.05819   0.06710
 Alpha virt. eigenvalues --    0.07440   0.08382   0.08686   0.10382   0.10666
 Alpha virt. eigenvalues --    0.11435   0.13649   0.13830   0.14712   0.15157

 Mulliken charges:
               1
     1  C    0.477428
     2  N   -0.024361
     3  C    0.634951
     4  O   -0.463173
     5  N   -0.172907
     6  C    0.755035
     7  N   -0.257364
     8  H   -0.304155
     9  H   -0.221714
    10  H   -0.198534
    11  H    0.017600
    12  H    0.028152
    13  H   -0.276944
    14  H    0.005987
 Sum of Mulliken charges =  -0.00000

 Dipole moment (field-independent basis, Debye):
    X=             -4.0864    Y=              0.0649    Z=             -0.0203  Tot=              4.0870

 Test job not archived.
 1\1\GINC-SE168\SP\RHF\Aug-CC-pVDZ\C3H7N3O1\OHZDE\09-Apr-2025\0\\#t hf
 aug-cc-pvdz iop(5/13=1,5/36=2,99/5=2) pseudo=read geom=check guess=(re
 ad,tcheck) scf=(maxcycle=1)\\title\\0,1\C,0,2.39851003,0.09118817,1.74
 904088\N,0,1.3909069,0.07441209,0.99486448\C,0,-0.52289322,0.13621805,
 -2.58186518\O,0,-1.49551388,0.10481056,-3.29251449\N,0,-0.53904749,0.0
 4478218,-1.21661842\C,0,-1.70277415,-0.09780008,-0.49150735\N,0,-1.675
 75255,-0.17642717,0.77331096\H,0,3.39303318,0.18649851,1.31247009\H,0,
 2.34381808,0.01412118,2.83851036\H,0,0.50087873,0.24463014,-2.97715012

 Normal termination of Gaussian 16 at Wed Apr  9 16:51:11 2025.
