 Gaussian 16, Revision C.01,

 ----------------------------------------------------------------------
 #t hf aug-cc-pvdz symm=none int=(grid=ultrafine) guess=(read,tcheck) s
 table=(opt,rrhf)
 ----------------------------------------------------------------------
 -----
 title
 -----
 Symbolic Z-matrix:
 Charge =  0 Multiplicity = 1

 SCF Done:  E(RHF) =  -245.629533348     A.U. after   15 cycles
 Normal termination of Gaussian 16 at Wed Apr  9 03:20:49 2025.
 Gaussian 16:  ES64L-G16RevC.01  3-Jul-2019

 ----------------------------------------------------------------------
 #t hf aug-cc-pvdz iop(5/13=1,5/36=2,99/5=2) pseudo=read geom=check gue
 ss=(read,tcheck) scf=(maxcycle=1)
 ----------------------------------------------------------------------
 -----
 title
 -----
 Structure from the checkpoint file:  "Grambow2020_wb97xd3_006123_forward_mol1.chk"
 Charge =  0 Multiplicity = 1

                         Standard orientation:
 ---------------------------------------------------------------------
 Center     Atomic      Atomic             Coordinates (Angstroms)
 Number     Number       Type             X           Y           Z
 ---------------------------------------------------------------------
      1          6           0        1.196030    0.529653    0.051573
      2          6           0       -0.727556    0.887439    0.035914
      3          7           0       -1.460031   -0.405597   -0.357233
      4          6           0       -0.486495   -0.626288    0.389225
      5          8           0        1.162656   -0.729663   -0.254639
      6          1           0        1.552733    1.234157   -0.704411
      7          1           0        1.445540    0.832511    1.078191
      8          1           0       -1.164356    1.478350    0.831091
      9          1           0       -0.550633    1.402356   -0.897427
     10          1           0       -0.256189   -1.015717    1.370029
 ---------------------------------------------------------------------

 SCF Done:  E(RHF) =  -245.702329125     A.U. after    2 cycles

 The electronic state is 1-A.
 Alpha  occ. eigenvalues --  -20.56225 -15.63424 -11.38746 -11.36720 -11.29684
 Alpha  occ. eigenvalues --   -1.35831  -1.26871  -0.94495  -0.85042  -0.84665
 Alpha  occ. eigenvalues --   -0.69696  -0.67986  -0.65564  -0.62006  -0.56135
 Alpha  occ. eigenvalues --   -0.53087  -0.45792  -0.39114  -0.37901
 Alpha virt. eigenvalues --    0.02671   0.03677   0.04714   0.05498   0.07059
 Alpha virt. eigenvalues --    0.08774   0.10297   0.10717   0.11356   0.12771
 Alpha virt. eigenvalues --    0.14080   0.14520   0.15681   0.16416   0.17081

 Mulliken charges:
               1
     1  C    0.728345
     2  C    0.464651
     3  N   -0.589587
     4  C    0.851728
     5  O   -0.706225
     6  H   -0.190871
     7  H   -0.124305
     8  H   -0.230795
     9  H   -0.074773
    10  H   -0.128168
 Sum of Mulliken charges =  -0.00000

 Dipole moment (field-independent basis, Debye):
    X=              0.9780    Y=              3.0058    Z=              2.6306  Tot=              4.1124

 Test job not archived.
 1\1\GINC-SE105\SP\RHF\Aug-CC-pVDZ\C3H5N1O1\OHZDE\09-Apr-2025\0\\#t hf
 aug-cc-pvdz iop(5/13=1,5/36=2,99/5=2) pseudo=read geom=check guess=(re
 ad,tcheck) scf=(maxcycle=1)\\title\\0,1\C,0,-0.4900596,-1.03129826,0.0
 3651182\C,0,-0.27963919,0.91023246,0.15742888\N,0,1.15812757,1.2170324
 2,0.60656863\C,0,1.10987152,0.26073564,-0.19145608\O,0,0.71670229,-1.3
 7868285,0.3587014\H,0,-1.28791435,-1.20754083,0.76276245\H,0,-0.823534
 14,-1.12989733,-1.00607931\H,0,-0.6978074,1.53911459,-0.6184064\H,0,-0
 .84915658,0.84205335,1.07316236\H,0,1.44341088,-0.02174919,-1.17919377

 Normal termination of Gaussian 16 at Wed Apr  9 03:20:52 2025.
