 Gaussian 16, Revision C.01,

 ----------------------------------------------------------------------
 #t hf aug-cc-pvdz symm=none int=(grid=ultrafine) guess=(read,tcheck) s
 table=(opt,rrhf)
 ----------------------------------------------------------------------
 -----
 title
 -----
 Symbolic Z-matrix:
 Charge =  0 Multiplicity = 1

 SCF Done:  E(RHF) =  -344.646645345     A.U. after   16 cycles

 1\1\GINC-SE100\Stability\RHF\Aug-CC-pVDZ\C5H10O2\OHZDE\09-Apr-2025\0\\
 #t hf aug-cc-pvdz symm=none int=(grid=ultrafine) guess=(read,tcheck) s
 table=(opt,rrhf)\\title\\0,1\C,0,1.37459332,1.41757554,0.05086025\O,0,
 0.22387244,0.75114953,-0.47732062\C,0,0.29053095,-0.75964199,-0.747959
 01\C,0,0.42227184,-1.61441116,0.50461499\O,0,-0.95575298,-1.98624452,0
 .44445758\C,0,-1.08615817,-1.17934054,-0.75328299\C,0,-1.42816663,1.06
 58789,0.17298161\H,0,1.71240703,0.948394,0.97834571\H,0,2.17672439,1.4
 0176174,-0.68758067\H,0,1.09793842,2.45257419,0.24501291\H,0,0.9953800

 Normal termination of Gaussian 16 at Wed Apr  9 14:59:46 2025.
 Gaussian 16:  ES64L-G16RevC.01  3-Jul-2019

 ----------------------------------------------------------------------
 #t hf aug-cc-pvdz iop(5/13=1,5/36=2,99/5=2) pseudo=read geom=check gue
 ss=(read,tcheck) scf=(maxcycle=1)
 ----------------------------------------------------------------------
 -----
 title
 -----
 Structure from the checkpoint file:  "Grambow2020_wb97xd3_006658_reverse_mol1.chk"
 Charge =  0 Multiplicity = 1

                         Standard orientation:
 ---------------------------------------------------------------------
 Center     Atomic      Atomic             Coordinates (Angstroms)
 Number     Number       Type             X           Y           Z
 ---------------------------------------------------------------------
      1          6           0       -2.099486   -0.793473   -0.148156
      2          8           0       -1.070647    0.061495    0.359562
      3          6           0        0.301201   -0.538460    0.703458
      4          6           0        1.081276   -1.046995   -0.500620
      5          8           0        1.932988    0.099798   -0.483780
      6          6           0        1.198402    0.586357    0.667882
      7          6           0       -0.736419    1.673065   -0.376858
      8          1           0       -1.762568   -1.333105   -1.036842
      9          1           0       -2.400667   -1.501143    0.624795
     10          1           0       -2.953932   -0.168481   -0.402642
     11          1           0        0.091370   -1.173568    1.561897
     12          1           0        0.532283   -1.155558   -1.442289
     13          1           0        1.642776   -1.962634   -0.296411
     14          1           0        1.801024    0.969413    1.485665
     15          1           0       -0.571311    2.462840    0.339541
     16          1           0        0.010928    1.622061   -1.158156
     17          1           0       -1.758473    1.666876   -0.756050
 ---------------------------------------------------------------------

 SCF Done:  E(RHF) =  -344.756500504     A.U. after    2 cycles

 The electronic state is 1-A.
 Alpha  occ. eigenvalues --  -20.62791 -20.52863 -11.32685 -11.30956 -11.28220
 Alpha  occ. eigenvalues --  -11.27842 -11.19804  -1.36336  -1.30779  -1.01228
 Alpha  occ. eigenvalues --   -0.96940  -0.92029  -0.88415  -0.74546  -0.70998
 Alpha  occ. eigenvalues --   -0.67180  -0.66851  -0.64874  -0.60997  -0.59618
 Alpha  occ. eigenvalues --   -0.58469  -0.56912  -0.52769  -0.51067  -0.47639
 Alpha  occ. eigenvalues --   -0.45475  -0.43671  -0.23076
 Alpha virt. eigenvalues --    0.02620   0.04085   0.04553   0.04872   0.06098
 Alpha virt. eigenvalues --    0.06198   0.06750   0.07366   0.07775   0.09134
 Alpha virt. eigenvalues --    0.11316   0.12273   0.12776   0.13417   0.14089

 Mulliken charges:
               1
     1  C    0.780663
     2  O   -0.597324
     3  C    0.830534
     4  C    0.769948
     5  O   -0.855702
     6  C    0.518056
     7  C    0.746069
     8  H   -0.066281
     9  H   -0.178834
    10  H   -0.229236
    11  H   -0.432883
    12  H   -0.251224
    13  H   -0.183168
    14  H   -0.503988
    15  H   -0.076633
    16  H    0.047883
    17  H   -0.317880
 Sum of Mulliken charges =  -0.00000

 Dipole moment (field-independent basis, Debye):
    X=             -4.9694    Y=             -1.2190    Z=             -0.4361  Tot=              5.1353

 Test job not archived.
 1\1\GINC-SE100\SP\RHF\Aug-CC-pVDZ\C5H10O2\OHZDE\09-Apr-2025\0\\#t hf a
 ug-cc-pvdz iop(5/13=1,5/36=2,99/5=2) pseudo=read geom=check guess=(rea
 d,tcheck) scf=(maxcycle=1)\\title\\0,1\C,0,1.37459332,1.41757554,0.050
 86025\O,0,0.22387244,0.75114953,-0.47732062\C,0,0.29053095,-0.75964199
 ,-0.74795901\C,0,0.42227184,-1.61441116,0.50461499\O,0,-0.95575298,-1.
 98624452,0.44445758\C,0,-1.08615817,-1.17934054,-0.75328299\C,0,-1.428
 16663,1.0658789,0.17298161\H,0,1.71240703,0.948394,0.97834571\H,0,2.17
 672439,1.40176174,-0.68758067\H,0,1.09793842,2.45257419,0.24501291\H,0

 Normal termination of Gaussian 16 at Wed Apr  9 14:59:53 2025.
