 Gaussian 16, Revision C.01,

 ----------------------------------------------------------------------
 #t hf aug-cc-pvdz symm=none int=(grid=ultrafine) guess=(read,tcheck) s
 table=(opt,rrhf)
 ----------------------------------------------------------------------
 -----
 title
 -----
 Symbolic Z-matrix:
 Charge =  0 Multiplicity = 1

 SCF Done:  E(RHF) =  -268.816255162     A.U. after   14 cycles
 Normal termination of Gaussian 16 at Wed Apr  9 14:26:25 2025.
 Gaussian 16:  ES64L-G16RevC.01  3-Jul-2019

 ----------------------------------------------------------------------
 #t hf aug-cc-pvdz iop(5/13=1,5/36=2,99/5=2) pseudo=read geom=check gue
 ss=(read,tcheck) scf=(maxcycle=1)
 ----------------------------------------------------------------------
 -----
 title
 -----
 Structure from the checkpoint file:  "Grambow2020_wb97xd3_006263_reverse_mol2.chk"
 Charge =  0 Multiplicity = 1

                         Standard orientation:
 ---------------------------------------------------------------------
 Center     Atomic      Atomic             Coordinates (Angstroms)
 Number     Number       Type             X           Y           Z
 ---------------------------------------------------------------------
      1          6           0        1.727453   -1.188443   -0.253891
      2          6           0        1.063183   -0.066537    0.505490
      3          6           0        1.022696    1.342385   -0.085075
      4          6           0       -0.183548    0.521987    0.026747
      5          6           0       -1.470036    0.405394   -0.197949
      6          8           0       -2.165284   -0.725230    0.131032
      7          1           0        1.581811   -1.063509   -1.328705
      8          1           0        2.801253   -1.215494   -0.054946
      9          1           0        1.304063   -2.154008    0.028600
     10          1           0        1.186795   -0.108333    1.584528
     11          1           0        1.465458    1.482550   -1.066280
     12          1           0        1.151955    2.181574    0.589864
     13          1           0       -3.082939   -0.615548   -0.117697
     14          1           0       -2.044609    1.205892   -0.655555
 ---------------------------------------------------------------------

 SCF Done:  E(RHF) =  -268.903235979     A.U. after    2 cycles

 The electronic state is 1-A.
 Alpha  occ. eigenvalues --  -20.59452 -11.29780 -11.24276 -11.23726 -11.22848
 Alpha  occ. eigenvalues --  -11.22303  -1.35493  -1.14423  -0.98113  -0.94115
 Alpha  occ. eigenvalues --   -0.79831  -0.74515  -0.72904  -0.67227  -0.62579
 Alpha  occ. eigenvalues --   -0.58392  -0.56972  -0.55367  -0.54449  -0.50036
 Alpha  occ. eigenvalues --   -0.42932  -0.41476  -0.33672
 Alpha virt. eigenvalues --    0.03216   0.04152   0.04763   0.05111   0.06296
 Alpha virt. eigenvalues --    0.06832   0.07197   0.07893   0.10748   0.11688
 Alpha virt. eigenvalues --    0.12336   0.13325   0.14236   0.14639   0.15703

 Mulliken charges:
               1
     1  C    0.325736
     2  C    0.035282
     3  C    0.672487
     4  C   -1.022923
     5  C    1.365748
     6  O   -0.646702
     7  H   -0.057855
     8  H   -0.015510
     9  H    0.023358
    10  H   -0.236929
    11  H   -0.159879
    12  H   -0.141044
    13  H    0.202847
    14  H   -0.344618
 Sum of Mulliken charges =  -0.00000

 Dipole moment (field-independent basis, Debye):
    X=             -0.8651    Y=              0.9729    Z=             -0.6528  Tot=              1.4564

 Test job not archived.
 1\1\GINC-SE009\SP\RHF\Aug-CC-pVDZ\C5H8O1\OHZDE\09-Apr-2025\0\\#t hf au
 g-cc-pvdz iop(5/13=1,5/36=2,99/5=2) pseudo=read geom=check guess=(read
 ,tcheck) scf=(maxcycle=1)\\title\\0,1\C,0,-1.48842643,-0.96811775,-0.5
 1736521\C,0,-0.73104743,0.33561867,-0.46047784\C,0,-0.60120636,1.09158
 153,0.86131179\C,0,0.54515228,0.42641773,0.24163484\C,0,1.81542619,0.1
 0961244,0.31356113\O,0,2.43417405,-0.63477001,-0.6523338\H,0,-1.354954
 69,-1.53040064,0.40895553\H,0,-2.55737504,-0.79534775,-0.66178403\H,0,
 -1.12986921,-1.59121194,-1.33868537\H,0,-0.83651785,0.96483871,-1.3404

 Normal termination of Gaussian 16 at Wed Apr  9 14:26:29 2025.
