 Gaussian 16, Revision C.01,

 ----------------------------------------------------------------------
 #t hf aug-cc-pvdz symm=none int=(grid=ultrafine) guess=(read,tcheck) s
 table=(opt,rrhf)
 ----------------------------------------------------------------------
 -----
 title
 -----
 Symbolic Z-matrix:
 Charge =  0 Multiplicity = 1

 SCF Done:  E(RHF) =  -193.853940817     A.U. after   14 cycles
 Normal termination of Gaussian 16 at Wed Apr  9 03:05:20 2025.
 Gaussian 16:  ES64L-G16RevC.01  3-Jul-2019

 ----------------------------------------------------------------------
 #t hf aug-cc-pvdz iop(5/13=1,5/36=2,99/5=2) pseudo=read geom=check gue
 ss=(read,tcheck) scf=(maxcycle=1)
 ----------------------------------------------------------------------
 -----
 title
 -----
 Structure from the checkpoint file:  "Grambow2020_b97d3_006546_reverse_mol2.chk"
 Charge =  0 Multiplicity = 1

                         Standard orientation:
 ---------------------------------------------------------------------
 Center     Atomic      Atomic             Coordinates (Angstroms)
 Number     Number       Type             X           Y           Z
 ---------------------------------------------------------------------
      1          6           0        0.823238   -1.147081    0.076268
      2          6           0        0.879142    0.001818   -0.793289
      3          6           0       -1.741324   -0.003965   -0.108457
      4          6           0       -0.306898   -0.000301    0.394902
      5          6           0        0.813262    1.151088    0.076956
      6          1           0        1.415138   -1.274897    1.004537
      7          1           0        0.485925   -2.096316   -0.352436
      8          1           0       -1.772021    0.010526   -1.201695
      9          1           0       -2.266513   -0.900323    0.252857
     10          1           0       -2.278874    0.875233    0.276511
     11          1           0       -0.265305   -0.004579    1.491653
     12          1           0        0.470092    2.097741   -0.352761
     13          1           0        1.407037    1.283263    1.003059
 ---------------------------------------------------------------------

 SCF Done:  E(RHF) =  -193.912616493     A.U. after    2 cycles

 The electronic state is 1-A.
 Alpha  occ. eigenvalues --  -11.29246 -11.26187 -11.26130 -11.23822 -11.23296
 Alpha  occ. eigenvalues --   -1.17912  -0.97876  -0.92577  -0.79588  -0.75284
 Alpha  occ. eigenvalues --   -0.65214  -0.59626  -0.57467  -0.57036  -0.52099
 Alpha  occ. eigenvalues --   -0.51483  -0.48186  -0.42704  -0.31651
 Alpha virt. eigenvalues --    0.03207   0.04455   0.04502   0.05180   0.06811
 Alpha virt. eigenvalues --    0.06876   0.07460   0.07640   0.09260   0.12432
 Alpha virt. eigenvalues --    0.13274   0.13560   0.14051   0.14634   0.15657

 Mulliken charges:
               1
     1  C    0.789577
     2  C   -0.204403
     3  C    0.181658
     4  C   -0.548492
     5  C    0.797087
     6  H   -0.199318
     7  H   -0.272252
     8  H    0.047536
     9  H    0.012346
    10  H    0.014585
    11  H   -0.145061
    12  H   -0.273745
    13  H   -0.199520
 Sum of Mulliken charges =  -0.00000

 Dipole moment (field-independent basis, Debye):
    X=             -0.7638    Y=             -0.0098    Z=              2.7302  Tot=              2.8350

 Test job not archived.
 1\1\GINC-SE457\SP\RHF\Aug-CC-pVDZ\C5H8\OHZDE\09-Apr-2025\0\\#t hf aug-
 cc-pvdz iop(5/13=1,5/36=2,99/5=2) pseudo=read geom=check guess=(read,t
 check) scf=(maxcycle=1)\\title\\0,1\C,0,-0.57423534,1.40067325,0.00187
 678\C,0,0.3067344,0.89217144,1.02390497\C,0,-0.74910252,-1.40719884,0.
 05748029\C,0,-0.0171101,-0.11766752,-0.2775724\C,0,1.43790811,0.336996
 93,0.32054522\H,0,-0.25964242,2.01766102,-0.86341139\H,0,-1.63277314,1
 .52174078,0.25378146\H,0,-0.94129762,-1.47981416,1.13177492\H,0,-1.706
 9976,-1.44920896,-0.48150049\H,0,-0.15045865,-2.27431414,-0.25856818\H

 Normal termination of Gaussian 16 at Wed Apr  9 03:05:24 2025.
