 Gaussian 16, Revision C.01,

 ----------------------------------------------------------------------
 #t hf aug-cc-pvdz symm=none int=(grid=ultrafine) guess=(read,tcheck) s
 table=(opt,rrhf)
 ----------------------------------------------------------------------
 -----
 title
 -----
 Symbolic Z-matrix:
 Charge =  0 Multiplicity = 1

 SCF Done:  E(RHF) =  -308.917610393     A.U. after   15 cycles

 1\1\GINC-SE126\Stability\RHF\Aug-CC-pVDZ\C6H12O1\OHZDE\09-Apr-2025\0\\
 #t hf aug-cc-pvdz symm=none int=(grid=ultrafine) guess=(read,tcheck) s
 table=(opt,rrhf)\\title\\0,1\C,0,2.61694194,-0.79961622,0.10929687\O,0
 ,1.21360654,-0.91885965,-0.04471933\C,0,0.49341084,-0.05070002,0.67144
 56\C,0,-0.18607465,1.59603922,-0.45647299\C,0,-1.41060717,1.18284499,0
 .33600621\C,0,-1.01081029,-0.27436135,0.5904109\C,0,-1.4747852,-1.2019
 0596,-0.53089076\H,0,2.88215528,-0.76225398,1.16732832\H,0,2.97503755,
 0.10782698,-0.38694335\H,0,3.06623049,-1.67081761,-0.36488774\H,0,0.75

 Normal termination of Gaussian 16 at Wed Apr  9 03:54:07 2025.
 Gaussian 16:  ES64L-G16RevC.01  3-Jul-2019

 ----------------------------------------------------------------------
 #t hf aug-cc-pvdz iop(5/13=1,5/36=2,99/5=2) pseudo=read geom=check gue
 ss=(read,tcheck) scf=(maxcycle=1)
 ----------------------------------------------------------------------
 -----
 title
 -----
 Structure from the checkpoint file:  "Grambow2020_wb97xd3_008398_reverse_mol1.chk"
 Charge =  0 Multiplicity = 1

                         Standard orientation:
 ---------------------------------------------------------------------
 Center     Atomic      Atomic             Coordinates (Angstroms)
 Number     Number       Type             X           Y           Z
 ---------------------------------------------------------------------
      1          6           0        2.651439   -0.149583    0.015977
      2          8           0        1.362050    0.431399    0.100977
      3          6           0        0.412409   -0.203157   -0.592417
      4          6           0       -0.794234   -1.453527    0.601836
      5          6           0       -1.797823   -0.721194   -0.266916
      6          6           0       -0.936393    0.503952   -0.590900
      7          6           0       -1.094254    1.609491    0.451113
      8          1           0        2.912480   -0.346669   -1.025263
      9          1           0        2.680969   -1.086399    0.581172
     10          1           0        3.351482    0.558937    0.456025
     11          1           0        0.271752   -1.376007   -0.356657
     12          1           0       -0.840827   -2.541354    0.651770
     13          1           0       -0.615296   -1.013501    1.579305
     14          1           0       -2.759483   -0.491855    0.198703
     15          1           0       -1.994592   -1.298629   -1.172687
     16          1           0       -1.128585    0.938449   -1.577293
     17          1           0       -2.096641    2.038712    0.382863
     18          1           0       -0.953722    1.241092    1.468953
     19          1           0       -0.370801    2.410145    0.293133
 ---------------------------------------------------------------------

 SCF Done:  E(RHF) =  -309.015757719     A.U. after    2 cycles

 The electronic state is 1-A.
 Alpha  occ. eigenvalues --  -20.59644 -11.29019 -11.28652 -11.24432 -11.23382
 Alpha  occ. eigenvalues --  -11.23099 -11.21487  -1.37228  -1.10802  -0.97634
 Alpha  occ. eigenvalues --   -0.96037  -0.86336  -0.84933  -0.74617  -0.68640
 Alpha  occ. eigenvalues --   -0.67165  -0.65572  -0.63715  -0.56836  -0.55201
 Alpha  occ. eigenvalues --   -0.53786  -0.53773  -0.52133  -0.50820  -0.47030
 Alpha  occ. eigenvalues --   -0.46322  -0.45759  -0.27898
 Alpha virt. eigenvalues --    0.03467   0.04259   0.04438   0.04783   0.06112
 Alpha virt. eigenvalues --    0.06382   0.06603   0.07016   0.07172   0.08744
 Alpha virt. eigenvalues --    0.09321   0.10060   0.10992   0.12700   0.13476

 Mulliken charges:
               1
     1  C    0.750214
     2  O   -0.613004
     3  C    0.122102
     4  C    0.428122
     5  C    0.586002
     6  C   -0.434942
     7  C    0.583996
     8  H   -0.053408
     9  H   -0.086007
    10  H   -0.262907
    11  H    0.171907
    12  H   -0.257122
    13  H   -0.259106
    14  H   -0.225028
    15  H   -0.081857
    16  H   -0.182178
    17  H   -0.077388
    18  H   -0.046521
    19  H   -0.062874
 Sum of Mulliken charges =  -0.00000

 Dipole moment (field-independent basis, Debye):
    X=              0.3245    Y=             -0.7758    Z=              0.4959  Tot=              0.9762

 Test job not archived.
 1\1\GINC-SE126\SP\RHF\Aug-CC-pVDZ\C6H12O1\OHZDE\09-Apr-2025\0\\#t hf a
 ug-cc-pvdz iop(5/13=1,5/36=2,99/5=2) pseudo=read geom=check guess=(rea
 d,tcheck) scf=(maxcycle=1)\\title\\0,1\C,0,2.61694194,-0.79961622,0.10
 929687\O,0,1.21360654,-0.91885965,-0.04471933\C,0,0.49341084,-0.050700
 02,0.6714456\C,0,-0.18607465,1.59603922,-0.45647299\C,0,-1.41060717,1.
 18284499,0.33600621\C,0,-1.01081029,-0.27436135,0.5904109\C,0,-1.47478
 52,-1.20190596,-0.53089076\H,0,2.88215528,-0.76225398,1.16732832\H,0,2
 .97503755,0.10782698,-0.38694335\H,0,3.06623049,-1.67081761,-0.3648877

 Normal termination of Gaussian 16 at Wed Apr  9 03:54:15 2025.
