 Gaussian 16, Revision C.01,

 ----------------------------------------------------------------------
 #t hf aug-cc-pvdz symm=none int=(grid=ultrafine) guess=(read,tcheck) s
 table=(opt,rrhf)
 ----------------------------------------------------------------------
 -----
 title
 -----
 Symbolic Z-matrix:
 Charge =  0 Multiplicity = 1

 SCF Done:  E(RHF) =  -338.643266831     A.U. after   15 cycles
 Normal termination of Gaussian 16 at Wed Apr  9 03:26:48 2025.
 Gaussian 16:  ES64L-G16RevC.01  3-Jul-2019

 ----------------------------------------------------------------------
 #t hf aug-cc-pvdz iop(5/13=1,5/36=2,99/5=2) pseudo=read geom=check gue
 ss=(read,tcheck) scf=(maxcycle=1)
 ----------------------------------------------------------------------
 -----
 title
 -----
 Structure from the checkpoint file:  "Grambow2020_wb97xd3_006692_forward_mol1.chk"
 Charge =  0 Multiplicity = 1

                         Standard orientation:
 ---------------------------------------------------------------------
 Center     Atomic      Atomic             Coordinates (Angstroms)
 Number     Number       Type             X           Y           Z
 ---------------------------------------------------------------------
      1          6           0       -2.384712   -0.072933    0.318389
      2          6           0       -0.937392   -0.066501   -0.114824
      3          6           0       -0.207544    1.094938    0.144717
      4          7           0        1.158533    1.301056   -0.440456
      5          6           0        1.494961    0.246217    0.038994
      6          7           0        1.868654   -0.930718    0.395099
      7          8           0       -0.466238   -1.097553   -0.663192
      8          1           0       -2.560691   -0.921018    0.981721
      9          1           0       -2.684036    0.847892    0.819162
     10          1           0       -3.008092   -0.213682   -0.566177
     11          1           0       -0.557962    1.925911    0.735492
     12          1           0        1.114759   -1.594920    0.118811
     13          1           0        2.443733   -1.066461    1.210365
 ---------------------------------------------------------------------

 SCF Done:  E(RHF) =  -338.744656947     A.U. after    2 cycles

 The electronic state is 1-A.
 Alpha  occ. eigenvalues --  -20.50621 -15.71798 -15.70138 -11.41806 -11.31072
 Alpha  occ. eigenvalues --  -11.25518 -11.22343  -1.33862  -1.28279  -1.24889
 Alpha  occ. eigenvalues --   -1.00809  -0.92033  -0.84191  -0.78324  -0.74041
 Alpha  occ. eigenvalues --   -0.66035  -0.65305  -0.63321  -0.57883  -0.56475
 Alpha  occ. eigenvalues --   -0.55190  -0.52288  -0.48337  -0.47063  -0.41188
 Alpha  occ. eigenvalues --   -0.30668
 Alpha virt. eigenvalues --    0.01915   0.04186   0.04791   0.06480   0.06636
 Alpha virt. eigenvalues --    0.07305   0.07966   0.09816   0.11352   0.12182
 Alpha virt. eigenvalues --    0.12747   0.13175   0.13703   0.14803   0.15204

 Mulliken charges:
               1
     1  C    0.473417
     2  C   -0.072022
     3  C    0.850246
     4  N   -0.326602
     5  C   -0.127397
     6  N    0.045559
     7  O   -0.787272
     8  H    0.011757
     9  H   -0.111813
    10  H    0.038445
    11  H   -0.335592
    12  H    0.273509
    13  H    0.067767
 Sum of Mulliken charges =   0.00000

 Dipole moment (field-independent basis, Debye):
    X=              2.4974    Y=             -0.2083    Z=              3.8375  Tot=              4.5833

 Test job not archived.
 1\1\GINC-SE102\SP\RHF\Aug-CC-pVDZ\C4H6N2O1\OHZDE\09-Apr-2025\0\\#t hf
 aug-cc-pvdz iop(5/13=1,5/36=2,99/5=2) pseudo=read geom=check guess=(re
 ad,tcheck) scf=(maxcycle=1)\\title\\0,1\C,0,-1.9487324,0.53773511,-0.2
 1765077\C,0,-0.54574393,0.13910172,0.17625684\C,0,-0.13216003,-1.14538
 854,-0.18153497\N,0,1.14337741,-1.72772187,0.3522907\C,0,1.72944314,-0
 .75786449,-0.06200928\N,0,2.38315103,0.31158618,-0.34586446\O,0,0.1730
 0362,0.97721316,0.7818416\H,0,-1.91197881,1.44910135,-0.81622198\H,0,-
 2.47314368,-0.24024152,-0.77265704\H,0,-2.50990109,0.76430708,0.690438

 Normal termination of Gaussian 16 at Wed Apr  9 03:26:53 2025.
