 Gaussian 16, Revision C.01,

 ----------------------------------------------------------------------
 #t hf aug-cc-pvdz symm=none int=(grid=ultrafine) guess=(read,tcheck) s
 table=(opt,rrhf)
 ----------------------------------------------------------------------
 -----
 title
 -----
 Symbolic Z-matrix:
 Charge =  0 Multiplicity = 1

 SCF Done:  E(RHF) =  -333.622851953     A.U. after   15 cycles
 Normal termination of Gaussian 16 at Wed Apr  9 15:33:41 2025.
 Gaussian 16:  ES64L-G16RevC.01  3-Jul-2019

 ----------------------------------------------------------------------
 #t hf aug-cc-pvdz iop(5/13=1,5/36=2,99/5=2) pseudo=read geom=check gue
 ss=(read,tcheck) scf=(maxcycle=1)
 ----------------------------------------------------------------------
 -----
 title
 -----
 Structure from the checkpoint file:  "Grambow2020_wb97xd3_006985_reverse_mol2.chk"
 Charge =  0 Multiplicity = 1

                         Standard orientation:
 ---------------------------------------------------------------------
 Center     Atomic      Atomic             Coordinates (Angstroms)
 Number     Number       Type             X           Y           Z
 ---------------------------------------------------------------------
      1          7           0       -2.089345   -0.003352   -0.439383
      2          6           0       -0.751696    0.027046   -0.120697
      3          6           0        0.319822    1.043770    0.034542
      4          7           0        1.583580    0.570532   -0.454670
      5          6           0        1.441666   -0.675844   -0.283674
      6          7           0        0.188344   -1.050383    0.293866
      7          7           0       -0.172278    0.164839    1.145767
      8          1           0       -2.277351   -0.260685   -1.395126
      9          1           0       -2.639544   -0.541251    0.214353
     10          1           0        0.127056    2.103107    0.125394
     11          1           0        2.158981   -1.442445   -0.544709
 ---------------------------------------------------------------------

 SCF Done:  E(RHF) =  -333.713819505     A.U. after    2 cycles

 The electronic state is 1-A.
 Alpha  occ. eigenvalues --  -15.69445 -15.68719 -15.65378 -15.63906 -11.36546
 Alpha  occ. eigenvalues --  -11.33180 -11.33077  -1.42835  -1.22480  -1.17403
 Alpha  occ. eigenvalues --   -1.07783  -0.86822  -0.82728  -0.82193  -0.73752
 Alpha  occ. eigenvalues --   -0.69605  -0.67318  -0.59827  -0.54615  -0.53246
 Alpha  occ. eigenvalues --   -0.49891  -0.47469  -0.44291  -0.42445  -0.38131
 Alpha virt. eigenvalues --    0.02676   0.03726   0.04322   0.05079   0.08522
 Alpha virt. eigenvalues --    0.09722   0.10441   0.11101   0.12238   0.13035
 Alpha virt. eigenvalues --    0.13674   0.14184   0.15015   0.15672   0.16841

 Mulliken charges:
               1
     1  N   -0.320250
     2  C    0.925612
     3  C    1.038518
     4  N   -0.605659
     5  C    0.654178
     6  N   -0.760229
     7  N   -0.705141
     8  H    0.057744
     9  H    0.055988
    10  H   -0.172178
    11  H   -0.168583
 Sum of Mulliken charges =  -0.00000

 Dipole moment (field-independent basis, Debye):
    X=             -1.8168    Y=             -0.7926    Z=             -1.8308  Tot=              2.6983

 Test job not archived.
 1\1\GINC-SE113\SP\RHF\Aug-CC-pVDZ\C3H4N4\OHZDE\09-Apr-2025\0\\#t hf au
 g-cc-pvdz iop(5/13=1,5/36=2,99/5=2) pseudo=read geom=check guess=(read
 ,tcheck) scf=(maxcycle=1)\\title\\0,1\N,0,1.79015606,-0.59410755,-0.31
 061106\C,0,0.49503204,-0.15623694,-0.15990424\C,0,-0.20713582,1.110265
 05,0.17010725\N,0,-1.36117565,0.88523204,0.99346651\C,0,-1.66638959,-0
 .29179579,0.64092815\N,0,-0.80906672,-0.84580842,-0.36042817\N,0,-0.34
 833436,0.38658674,-1.1359769\H,0,2.15299879,-1.08463546,0.49109948\H,0
 ,1.9372276,-1.10628331,-1.16820678\H,0,0.26949946,2.07968091,0.1443984

 Normal termination of Gaussian 16 at Wed Apr  9 15:33:45 2025.
