 Gaussian 16, Revision C.01,

 ----------------------------------------------------------------------
 #t hf aug-cc-pvdz symm=none int=(grid=ultrafine) guess=(read,tcheck) s
 table=(opt,rrhf)
 ----------------------------------------------------------------------
 -----
 title
 -----
 Symbolic Z-matrix:
 Charge =  0 Multiplicity = 1

 SCF Done:  E(RHF) =  -323.720749445     A.U. after   16 cycles
 Normal termination of Gaussian 16 at Wed Apr  9 15:39:09 2025.
 Gaussian 16:  ES64L-G16RevC.01  3-Jul-2019

 ----------------------------------------------------------------------
 #t hf aug-cc-pvdz iop(5/13=1,5/36=2,99/5=2) pseudo=read geom=check gue
 ss=(read,tcheck) scf=(maxcycle=1)
 ----------------------------------------------------------------------
 -----
 title
 -----
 Structure from the checkpoint file:  "Grambow2020_wb97xd3_007248_reverse_mol1.chk"
 Charge =  0 Multiplicity = 1

                         Standard orientation:
 ---------------------------------------------------------------------
 Center     Atomic      Atomic             Coordinates (Angstroms)
 Number     Number       Type             X           Y           Z
 ---------------------------------------------------------------------
      1          6           0        2.072859   -0.195789   -0.046324
      2          6           0        0.603838   -0.297828    0.124091
      3          6           0       -0.078065    1.683577   -0.499079
      4          6           0       -0.338883   -0.992913   -0.857387
      5          8           0       -1.563516   -0.519770   -0.305240
      6          6           0       -1.039713    0.234298    0.709178
      7          7           0        0.024832   -0.300641    1.354573
      8          1           0        2.453095    0.658245    0.510660
      9          1           0        2.366293   -0.126316   -1.093082
     10          1           0        2.504390   -1.098120    0.397206
     11          1           0        0.684548    1.656602   -1.277967
     12          1           0       -1.010053    2.020644   -0.953108
     13          1           0        0.243109    2.354359    0.298004
     14          1           0       -0.268272   -0.661278   -1.891897
     15          1           0       -0.247138   -2.079499   -0.782263
     16          1           0       -1.711884    0.949936    1.169479
 ---------------------------------------------------------------------

 SCF Done:  E(RHF) =  -323.819458969     A.U. after    2 cycles

 The electronic state is 1-A.
 Alpha  occ. eigenvalues --  -20.61294 -15.56997 -11.40212 -11.36306 -11.31521
 Alpha  occ. eigenvalues --  -11.25912 -11.21065  -1.42380  -1.21942  -1.05135
 Alpha  occ. eigenvalues --   -0.97637  -0.91767  -0.82657  -0.78578  -0.72213
 Alpha  occ. eigenvalues --   -0.70097  -0.63210  -0.62661  -0.60767  -0.56929
 Alpha  occ. eigenvalues --   -0.54416  -0.53635  -0.51961  -0.51114  -0.48790
 Alpha  occ. eigenvalues --   -0.40063  -0.29299
 Alpha virt. eigenvalues --    0.02969   0.04012   0.04423   0.04693   0.06412
 Alpha virt. eigenvalues --    0.06720   0.07015   0.07748   0.08275   0.09566
 Alpha virt. eigenvalues --    0.11218   0.12028   0.12343   0.13376   0.13820

 Mulliken charges:
               1
     1  C    0.623969
     2  C   -1.027413
     3  C    0.549904
     4  C    1.051686
     5  O   -0.685670
     6  C    1.213971
     7  N   -0.858025
     8  H    0.100198
     9  H   -0.003165
    10  H    0.086806
    11  H   -0.289346
    12  H   -0.193915
    13  H   -0.113326
    14  H   -0.106482
    15  H   -0.104987
    16  H   -0.244207
 Sum of Mulliken charges =   0.00000

 Dipole moment (field-independent basis, Debye):
    X=              1.5175    Y=             -0.2959    Z=             -2.2823  Tot=              2.7567

 Test job not archived.
 1\1\GINC-SE141\SP\RHF\Aug-CC-pVDZ\C5H9N1O1\OHZDE\09-Apr-2025\0\\#t hf
 aug-cc-pvdz iop(5/13=1,5/36=2,99/5=2) pseudo=read geom=check guess=(re
 ad,tcheck) scf=(maxcycle=1)\\title\\0,1\C,0,1.13160001,1.15285959,0.85
 621751\C,0,-0.13154749,0.55497617,0.36178104\C,0,0.5751315,-0.81773208
 ,-1.18598375\C,0,-0.90450347,-0.5551045,1.07271445\O,0,-1.80407485,-0.
 86333598,0.01242213\C,0,-1.34016586,0.04078304,-0.90375981\N,0,-1.0000
 4954,1.25743957,-0.41384202\H,0,1.68836119,1.58396201,0.02654772\H,0,1
 .74913266,0.43456192,1.39411725\H,0,0.8511564,1.9709755,1.52642391\H,0

 Normal termination of Gaussian 16 at Wed Apr  9 15:39:16 2025.
