 Gaussian 16, Revision C.01,

 ----------------------------------------------------------------------
 #t hf aug-cc-pvdz symm=none int=(grid=ultrafine) guess=(read,tcheck) s
 table=(opt,rrhf)
 ----------------------------------------------------------------------
 -----
 title
 -----
 Symbolic Z-matrix:
 Charge =  0 Multiplicity = 1

 SCF Done:  E(RHF) =  -306.720810182     A.U. after   14 cycles
 Normal termination of Gaussian 16 at Wed Apr  9 16:25:05 2025.
 Gaussian 16:  ES64L-G16RevC.01  3-Jul-2019

 ----------------------------------------------------------------------
 #t hf aug-cc-pvdz iop(5/13=1,5/36=2,99/5=2) pseudo=read geom=check gue
 ss=(read,tcheck) scf=(maxcycle=1)
 ----------------------------------------------------------------------
 -----
 title
 -----
 Structure from the checkpoint file:  "Grambow2020_wb97xd3_008207_reverse_mol2.chk"
 Charge =  0 Multiplicity = 1

                         Standard orientation:
 ---------------------------------------------------------------------
 Center     Atomic      Atomic             Coordinates (Angstroms)
 Number     Number       Type             X           Y           Z
 ---------------------------------------------------------------------
      1          6           0       -1.688467    0.002940   -0.366713
      2          8           0       -1.836015    0.037798    1.033342
      3          6           0        0.574436    1.180389   -0.302777
      4          6           0        1.646030    0.731662    0.357661
      5          6           0        1.642092   -0.736637    0.334119
      6          6           0        0.570548   -1.162427   -0.344993
      7          6           0       -0.225857    0.021107   -0.821841
      8          1           0       -2.180716   -0.882732   -0.790507
      9          1           0       -2.207547    0.883356   -0.751135
     10          1           0        0.286177    2.213387   -0.440568
     11          1           0        2.399160    1.337309    0.843105
     12          1           0        2.402000   -1.360943    0.785319
     13          1           0        0.298069   -2.190290   -0.545184
     14          1           0       -1.192428   -0.561752    1.420284
     15          1           0       -0.229289    0.037075   -1.920793
 ---------------------------------------------------------------------

 SCF Done:  E(RHF) =  -306.814441570     A.U. after    2 cycles

 The electronic state is 1-A.
 Alpha  occ. eigenvalues --  -20.56591 -11.29125 -11.24820 -11.24732 -11.24077
 Alpha  occ. eigenvalues --  -11.24005 -11.23879  -1.32276  -1.15474  -1.00122
 Alpha  occ. eigenvalues --   -0.97126  -0.88014  -0.75800  -0.74500  -0.71137
 Alpha  occ. eigenvalues --   -0.67489  -0.64403  -0.61552  -0.57306  -0.54215
 Alpha  occ. eigenvalues --   -0.53051  -0.51617  -0.48898  -0.45682  -0.42311
 Alpha  occ. eigenvalues --   -0.32074
 Alpha virt. eigenvalues --    0.03305   0.03986   0.04247   0.05389   0.05723
 Alpha virt. eigenvalues --    0.05944   0.07158   0.08172   0.09237   0.11522
 Alpha virt. eigenvalues --    0.12465   0.13114   0.14204   0.14394   0.14728

 Mulliken charges:
               1
     1  C    1.002469
     2  O   -0.556388
     3  C    0.688920
     4  C    0.149284
     5  C    0.223204
     6  C    0.490012
     7  C   -0.607214
     8  H   -0.120322
     9  H   -0.156733
    10  H   -0.344419
    11  H   -0.319365
    12  H   -0.320121
    13  H   -0.325254
    14  H    0.188887
    15  H    0.007042
 Sum of Mulliken charges =  -0.00000

 Dipole moment (field-independent basis, Debye):
    X=              1.1697    Y=             -0.7942    Z=             -1.1538  Tot=              1.8248

 Test job not archived.
 1\1\GINC-SE113\SP\RHF\Aug-CC-pVDZ\C6H8O1\OHZDE\09-Apr-2025\0\\#t hf au
 g-cc-pvdz iop(5/13=1,5/36=2,99/5=2) pseudo=read geom=check guess=(read
 ,tcheck) scf=(maxcycle=1)\\title\\0,1\C,0,-1.58713211,-0.16966874,-0.6
 7132264\O,0,-0.98393523,-0.84293619,-1.75113972\C,0,0.20327427,-0.9198
 3528,0.98484681\C,0,1.50900561,-0.66443889,0.85961003\C,0,1.68074924,0
 .6446346,0.21672212\C,0,0.47689419,1.17132329,-0.03631346\C,0,-0.59468
 294,0.22317088,0.42750475\H,0,-2.11056623,0.73251454,-1.01542526\H,0,-
 2.33796718,-0.85142708,-0.26658996\H,0,-0.24354257,-1.81344787,1.39833

 Normal termination of Gaussian 16 at Wed Apr  9 16:25:10 2025.
