 Gaussian 16, Revision C.01,

 ----------------------------------------------------------------------
 #t hf aug-cc-pvdz symm=none int=(grid=ultrafine) guess=(read,tcheck) s
 table=(opt,rrhf)
 ----------------------------------------------------------------------
 -----
 title
 -----
 Symbolic Z-matrix:
 Charge =  0 Multiplicity = 1

 SCF Done:  E(RHF) =  -394.307585029     A.U. after   15 cycles
 Normal termination of Gaussian 16 at Wed Apr  9 15:36:45 2025.
 Gaussian 16:  ES64L-G16RevC.01  3-Jul-2019

 ----------------------------------------------------------------------
 #t hf aug-cc-pvdz iop(5/13=1,5/36=2,99/5=2) pseudo=read geom=check gue
 ss=(read,tcheck) scf=(maxcycle=1)
 ----------------------------------------------------------------------
 -----
 title
 -----
 Structure from the checkpoint file:  "Grambow2020_wb97xd3_007200_reverse_mol1.chk"
 Charge =  0 Multiplicity = 1

                         Standard orientation:
 ---------------------------------------------------------------------
 Center     Atomic      Atomic             Coordinates (Angstroms)
 Number     Number       Type             X           Y           Z
 ---------------------------------------------------------------------
      1          7           0        2.182758    0.186817    0.187021
      2          6           0        0.964834    0.016606   -0.014619
      3          8           0        0.275155   -1.054175   -0.492208
      4          6           0       -1.043038   -0.666186   -0.128386
      5          8           0       -1.117549   -0.282147    1.100026
      6          6           0       -0.116729    1.047596    0.124803
      7          8           0       -1.046026    0.863793   -0.751453
      8          1           0        2.725785   -0.651265   -0.005692
      9          1           0       -1.787987   -1.283421   -0.627245
     10          1           0        0.059853    2.019103    0.582083
 ---------------------------------------------------------------------

 SCF Done:  E(RHF) =  -394.430152529     A.U. after    2 cycles

 The electronic state is 1-A.
 Alpha  occ. eigenvalues --  -20.65081 -20.63267 -20.56739 -15.65386 -11.45624
 Alpha  occ. eigenvalues --  -11.44376 -11.39654  -1.51024  -1.39327  -1.31528
 Alpha  occ. eigenvalues --   -1.22128  -1.00627  -0.90899  -0.85028  -0.77989
 Alpha  occ. eigenvalues --   -0.73290  -0.71220  -0.69612  -0.69226  -0.62320
 Alpha  occ. eigenvalues --   -0.60744  -0.54517  -0.50383  -0.47729  -0.46546
 Alpha  occ. eigenvalues --   -0.44962
 Alpha virt. eigenvalues --    0.03419   0.03971   0.04363   0.05008   0.08641
 Alpha virt. eigenvalues --    0.09481   0.10010   0.10764   0.11794   0.12323
 Alpha virt. eigenvalues --    0.13722   0.14255   0.14804   0.16412   0.17097

 Mulliken charges:
               1
     1  N   -0.271868
     2  C    0.525983
     3  O   -0.648544
     4  C    1.121357
     5  O   -0.652056
     6  C    0.879628
     7  O   -0.683473
     8  H    0.032023
     9  H   -0.096286
    10  H   -0.206763
 Sum of Mulliken charges =  -0.00000

 Dipole moment (field-independent basis, Debye):
    X=              0.7448    Y=              0.0954    Z=             -1.2468  Tot=              1.4554

 Test job not archived.
 1\1\GINC-SE138\SP\RHF\Aug-CC-pVDZ\C3H3N1O3\OHZDE\09-Apr-2025\0\\#t hf
 aug-cc-pvdz iop(5/13=1,5/36=2,99/5=2) pseudo=read geom=check guess=(re
 ad,tcheck) scf=(maxcycle=1)\\title\\0,1\N,0,-1.00372968,1.5274558,-1.0
 0353958\C,0,-0.36473762,0.58121403,-0.50425385\O,0,0.80935787,-0.00063
 528,-0.86931603\C,0,1.08114375,-0.7431692,0.31191719\O,0,0.9610583,-0.
 02718073,1.37726855\C,0,-0.80170528,-0.28778443,0.63857544\O,0,-0.3781
 2147,-1.49732021,0.48757552\H,0,-0.51771204,1.94641533,-1.79262637\H,0
 ,1.87116079,-1.47334713,0.14608359\H,0,-1.67200162,-0.05413821,1.24858

 Normal termination of Gaussian 16 at Wed Apr  9 15:36:49 2025.
