 Gaussian 16, Revision C.01,

 ----------------------------------------------------------------------
 #t hf aug-cc-pvdz symm=none int=(grid=ultrafine) guess=(read,tcheck) s
 table=(opt,rrhf)
 ----------------------------------------------------------------------
 -----
 title
 -----
 Symbolic Z-matrix:
 Charge =  0 Multiplicity = 1

 SCF Done:  E(RHF) =  -302.746750476     A.U. after   17 cycles
 Normal termination of Gaussian 16 at Wed Apr  9 16:16:57 2025.
 Gaussian 16:  ES64L-G16RevC.01  3-Jul-2019

 ----------------------------------------------------------------------
 #t hf aug-cc-pvdz iop(5/13=1,5/36=2,99/5=2) pseudo=read geom=check gue
 ss=(read,tcheck) scf=(maxcycle=1)
 ----------------------------------------------------------------------
 -----
 title
 -----
 Structure from the checkpoint file:  "Grambow2020_wb97xd3_008043_reverse_mol1.chk"
 Charge =  0 Multiplicity = 1

                         Standard orientation:
 ---------------------------------------------------------------------
 Center     Atomic      Atomic             Coordinates (Angstroms)
 Number     Number       Type             X           Y           Z
 ---------------------------------------------------------------------
      1          6           0       -1.548671   -1.456550   -0.015752
      2          6           0       -1.225468   -0.035648   -0.372526
      3          6           0       -0.766464    0.916999    0.744418
      4          7           0        0.184068    1.663439   -0.043671
      5          6           0        0.832718    0.660357   -0.836649
      6          6           0        1.447093   -0.423648   -0.096215
      7          7           0        2.087864   -1.260443    0.378128
      8          1           0       -0.694411   -1.946399    0.456176
      9          1           0       -2.373139   -1.464974    0.702987
     10          1           0       -1.854400   -2.034892   -0.887031
     11          1           0       -1.972539    0.445668   -1.010038
     12          1           0       -0.313989    0.341687    1.564955
     13          1           0       -1.577017    1.532062    1.141756
     14          1           0        0.798258    2.348295    0.369176
     15          1           0       -0.351524   -0.011479   -1.218837
 ---------------------------------------------------------------------

 SCF Done:  E(RHF) =  -302.834564937     A.U. after    2 cycles

 The electronic state is 1-A.
 Alpha  occ. eigenvalues --  -15.64476 -15.63988 -11.33768 -11.30924 -11.29709
 Alpha  occ. eigenvalues --  -11.28126 -11.25634  -1.25098  -1.18679  -1.07177
 Alpha  occ. eigenvalues --   -0.96857  -0.93044  -0.83641  -0.72193  -0.67141
 Alpha  occ. eigenvalues --   -0.65237  -0.62387  -0.61118  -0.55624  -0.55062
 Alpha  occ. eigenvalues --   -0.54472  -0.52177  -0.49353  -0.46512  -0.42185
 Alpha  occ. eigenvalues --   -0.34106
 Alpha virt. eigenvalues --    0.02539   0.03471   0.04179   0.04544   0.05545
 Alpha virt. eigenvalues --    0.06620   0.06806   0.07739   0.07868   0.10066
 Alpha virt. eigenvalues --    0.11559   0.12170   0.13441   0.13786   0.14430

 Mulliken charges:
               1
     1  C    0.480079
     2  C   -0.449359
     3  C    1.120054
     4  N   -0.453811
     5  C    0.145845
     6  C   -0.027943
     7  N   -0.277664
     8  H   -0.058606
     9  H   -0.001982
    10  H   -0.060085
    11  H   -0.137528
    12  H   -0.218888
    13  H   -0.139062
    14  H   -0.063692
    15  H    0.142643
 Sum of Mulliken charges =  -0.00000

 Dipole moment (field-independent basis, Debye):
    X=             -4.3748    Y=              1.4763    Z=              1.2308  Tot=              4.7784

 Test job not archived.
 1\1\GINC-SE037\SP\RHF\Aug-CC-pVDZ\C5H8N2\OHZDE\09-Apr-2025\0\\#t hf au
 g-cc-pvdz iop(5/13=1,5/36=2,99/5=2) pseudo=read geom=check guess=(read
 ,tcheck) scf=(maxcycle=1)\\title\\0,1\C,0,1.66829897,-0.45011722,-0.41
 825876\C,0,0.68841547,0.29042286,0.4432162\C,0,-0.40667135,1.12667846,
 -0.24033883\N,0,-1.45333349,0.85670791,0.71537018\C,0,-1.29340114,-0.5
 3680751,1.01247504\C,0,-1.33251449,-1.42952663,-0.12870327\N,0,-1.4816
 0696,-2.24830872,-0.93068968\H,0,1.15494642,-1.13524999,-1.09611592\H,
 0,2.21966098,0.26934391,-1.03045028\H,0,2.38944074,-1.01046487,0.17591

 Normal termination of Gaussian 16 at Wed Apr  9 16:17:03 2025.
