 Gaussian 16, Revision C.01,

 ----------------------------------------------------------------------
 #t hf aug-cc-pvdz symm=none int=(grid=ultrafine) guess=(read,tcheck) s
 table=(opt,rrhf)
 ----------------------------------------------------------------------
 -----
 title
 -----
 Symbolic Z-matrix:
 Charge =  0 Multiplicity = 1

 SCF Done:  E(RHF) =  -232.944903688     A.U. after   15 cycles
 Normal termination of Gaussian 16 at Wed Apr  9 14:17:24 2025.
 Gaussian 16:  ES64L-G16RevC.01  3-Jul-2019

 ----------------------------------------------------------------------
 #t hf aug-cc-pvdz iop(5/13=1,5/36=2,99/5=2) pseudo=read geom=check gue
 ss=(read,tcheck) scf=(maxcycle=1)
 ----------------------------------------------------------------------
 -----
 title
 -----
 Structure from the checkpoint file:  "Grambow2020_b97d3_006951_reverse_mol2.chk"
 Charge =  0 Multiplicity = 1

                         Standard orientation:
 ---------------------------------------------------------------------
 Center     Atomic      Atomic             Coordinates (Angstroms)
 Number     Number       Type             X           Y           Z
 ---------------------------------------------------------------------
      1          6           0       -2.144830   -0.060486   -0.115132
      2          6           0       -0.701911   -0.036427    0.391660
      3          6           0        0.119666    1.214606   -0.033620
      4          6           0        1.579490    0.926769   -0.097861
      5          6           0        1.618501   -0.561429    0.014430
      6          6           0        0.200552   -1.172496   -0.128873
      7          1           0       -2.670422   -0.970065    0.209803
      8          1           0       -2.166852   -0.033006   -1.215532
      9          1           0       -2.711129    0.806191    0.255802
     10          1           0       -0.706361   -0.070627    1.495087
     11          1           0       -0.029634    1.370723   -1.132667
     12          1           0       -0.160662    2.171937    0.429473
     13          1           0        1.925397   -0.602900    1.089165
     14          1           0        2.434702   -1.056371   -0.531015
     15          1           0       -0.011505   -1.359454   -1.194449
     16          1           0        0.067657   -2.119653    0.410703
 ---------------------------------------------------------------------

 SCF Done:  E(RHF) =  -233.012303057     A.U. after    2 cycles

 The electronic state is 1-A.
 Alpha  occ. eigenvalues --  -11.26218 -11.24515 -11.24159 -11.23970 -11.23789
 Alpha  occ. eigenvalues --  -11.23376  -1.13051  -1.00663  -0.96166  -0.89206
 Alpha  occ. eigenvalues --   -0.77918  -0.71458  -0.65516  -0.61277  -0.58586
 Alpha  occ. eigenvalues --   -0.56480  -0.55352  -0.52348  -0.48473  -0.47566
 Alpha  occ. eigenvalues --   -0.46955  -0.46396  -0.34456
 Alpha virt. eigenvalues --    0.03316   0.04280   0.04369   0.04802   0.06483
 Alpha virt. eigenvalues --    0.06648   0.06714   0.07245   0.07536   0.09083
 Alpha virt. eigenvalues --    0.09740   0.11147   0.12324   0.14223   0.14473

 Mulliken charges:
               1
     1  C    0.698835
     2  C   -0.932235
     3  C    0.483977
     4  C   -0.655521
     5  C    0.254700
     6  C    0.594791
     7  H   -0.014617
     8  H   -0.028749
     9  H   -0.030028
    10  H   -0.173219
    11  H    0.126379
    12  H   -0.112201
    13  H    0.105807
    14  H   -0.091693
    15  H   -0.126214
    16  H   -0.100012
 Sum of Mulliken charges =  -0.00000

 Dipole moment (field-independent basis, Debye):
    X=             -1.9487    Y=             -1.6005    Z=              0.3137  Tot=              2.5411

 Test job not archived.
 1\1\GINC-SE048\SP\RHF\Aug-CC-pVDZ\C6H10\OHZDE\09-Apr-2025\0\\#t hf aug
 -cc-pvdz iop(5/13=1,5/36=2,99/5=2) pseudo=read geom=check guess=(read,
 tcheck) scf=(maxcycle=1)\\title\\0,1\C,0,1.93333594,-0.1303909,0.01489
 057\C,0,0.44928843,-0.2859399,0.35080598\C,0,-0.38196444,-1.06801934,-
 0.70669337\C,0,-1.81528818,-0.66356731,-0.69860353\C,0,-1.80005854,0.5
 5523833,0.16345429\C,0,-0.34971257,1.02925544,0.43972186\H,0,2.4648645
 9,0.43635813,0.79298894\H,0,2.05808326,0.40650004,-0.93816045\H,0,2.42
 384357,-1.10984886,-0.08246458\H,0,0.35087487,-0.82090386,1.31146652\H

 Normal termination of Gaussian 16 at Wed Apr  9 14:17:29 2025.
