 Gaussian 16, Revision C.01,

 ----------------------------------------------------------------------
 #t hf aug-cc-pvdz symm=none int=(grid=ultrafine) guess=(read,tcheck) s
 table=(opt,rrhf)
 ----------------------------------------------------------------------
 -----
 title
 -----
 Symbolic Z-matrix:
 Charge =  0 Multiplicity = 1

 SCF Done:  E(RHF) =  -394.456065445     A.U. after   13 cycles
 Normal termination of Gaussian 16 at Wed Apr  9 15:36:44 2025.
 Gaussian 16:  ES64L-G16RevC.01  3-Jul-2019

 ----------------------------------------------------------------------
 #t hf aug-cc-pvdz iop(5/13=1,5/36=2,99/5=2) pseudo=read geom=check gue
 ss=(read,tcheck) scf=(maxcycle=1)
 ----------------------------------------------------------------------
 -----
 title
 -----
 Structure from the checkpoint file:  "Grambow2020_wb97xd3_007194_reverse_mol2.chk"
 Charge =  0 Multiplicity = 1

                         Standard orientation:
 ---------------------------------------------------------------------
 Center     Atomic      Atomic             Coordinates (Angstroms)
 Number     Number       Type             X           Y           Z
 ---------------------------------------------------------------------
      1          7           0        2.307627   -0.531569    0.000052
      2          6           0        1.120791   -0.155229    0.000402
      3          8           0        0.009426   -0.959902   -0.000064
      4          6           0       -1.127563   -0.189582   -0.000213
      5          8           0       -2.221521   -0.628370    0.000237
      6          6           0        0.617040    1.259939    0.000182
      7          8           0       -0.797282    1.109622   -0.000367
      8          1           0        2.393913   -1.544217   -0.001051
      9          1           0        0.933774    1.801115   -0.891117
     10          1           0        0.932334    1.802522    0.891128
 ---------------------------------------------------------------------

 SCF Done:  E(RHF) =  -394.581890037     A.U. after    2 cycles

 The electronic state is 1-A.
 Alpha  occ. eigenvalues --  -20.67922 -20.66543 -20.59029 -15.64688 -11.47959
 Alpha  occ. eigenvalues --  -11.39959 -11.35518  -1.52666  -1.40671  -1.39138
 Alpha  occ. eigenvalues --   -1.22401  -1.04247  -0.90740  -0.88655  -0.77268
 Alpha  occ. eigenvalues --   -0.76451  -0.73759  -0.69255  -0.66186  -0.62955
 Alpha  occ. eigenvalues --   -0.61641  -0.60476  -0.53628  -0.51529  -0.47469
 Alpha  occ. eigenvalues --   -0.45429
 Alpha virt. eigenvalues --    0.02922   0.04218   0.04346   0.07124   0.08817
 Alpha virt. eigenvalues --    0.10080   0.10705   0.11130   0.11676   0.13201
 Alpha virt. eigenvalues --    0.13463   0.13785   0.15099   0.16050   0.17664

 Mulliken charges:
               1
     1  N   -0.343725
     2  C    0.396239
     3  O   -0.588558
     4  C    0.706241
     5  O   -0.351463
     6  C    0.739304
     7  O   -0.520545
     8  H    0.008993
     9  H   -0.023070
    10  H   -0.023418
 Sum of Mulliken charges =   0.00000

 Dipole moment (field-independent basis, Debye):
    X=              2.8555    Y=              1.5304    Z=             -0.0016  Tot=              3.2397

 Test job not archived.
 1\1\GINC-SE037\SP\RHF\Aug-CC-pVDZ\C3H3N1O3\OHZDE\09-Apr-2025\0\\#t hf
 aug-cc-pvdz iop(5/13=1,5/36=2,99/5=2) pseudo=read geom=check guess=(re
 ad,tcheck) scf=(maxcycle=1)\\title\\0,1\N,0,-0.98843885,1.1954475,-1.3
 0893342\C,0,-0.33443537,0.50509432,-0.50525116\O,0,0.91103025,0.793247
 49,-0.00683868\C,0,1.31368835,-0.19948179,0.85251653\O,0,2.34608375,-0
 .20087013,1.42123337\C,0,-0.74318534,-0.80257393,0.11069624\O,0,0.3640
 108,-1.14186177,0.93646933\H,0,-0.49675904,2.04128389,-1.58409544\H,0,
 -0.89469557,-1.57433292,-0.64365147\H,0,-1.64209598,-0.70095567,0.7183

 Normal termination of Gaussian 16 at Wed Apr  9 15:36:49 2025.
