 Gaussian 16, Revision C.01,

 ----------------------------------------------------------------------
 #t hf aug-cc-pvdz symm=none int=(grid=ultrafine) guess=(read,tcheck) s
 table=(opt,rrhf)
 ----------------------------------------------------------------------
 -----
 title
 -----
 Symbolic Z-matrix:
 Charge =  0 Multiplicity = 1

 SCF Done:  E(RHF) =  -231.641956033     A.U. after   17 cycles
 Normal termination of Gaussian 16 at Wed Apr  9 14:15:18 2025.
 Gaussian 16:  ES64L-G16RevC.01  3-Jul-2019

 ----------------------------------------------------------------------
 #t hf aug-cc-pvdz iop(5/13=1,5/36=2,99/5=2) pseudo=read geom=check gue
 ss=(read,tcheck) scf=(maxcycle=1)
 ----------------------------------------------------------------------
 -----
 title
 -----
 Structure from the checkpoint file:  "Grambow2020_b97d3_006870_forward_mol1.chk"
 Charge =  0 Multiplicity = 1

                         Standard orientation:
 ---------------------------------------------------------------------
 Center     Atomic      Atomic             Coordinates (Angstroms)
 Number     Number       Type             X           Y           Z
 ---------------------------------------------------------------------
      1          6           0        0.635525    1.286481   -0.068878
      2          6           0       -0.778190    0.770749   -0.391507
      3          6           0       -0.774571   -0.774332   -0.391203
      4          6           0        0.641725   -1.283751   -0.068804
      5          6           0        1.314829    0.003214    0.294579
      6          6           0       -1.333484   -0.002830    0.695484
      7          1           0        0.560735    2.015551    0.754314
      8          1           0        1.166037    1.811921   -0.896242
      9          1           0       -1.383809    1.336724   -1.107912
     10          1           0       -1.377410   -1.343397   -1.107497
     11          1           0        0.570872   -2.014432    0.753520
     12          1           0        1.175000   -1.806381   -0.896328
     13          1           0        2.412006    0.005876    0.301543
     14          1           0       -1.358433   -0.003045    1.780577
 ---------------------------------------------------------------------

 SCF Done:  E(RHF) =  -231.708739475     A.U. after    2 cycles

 The electronic state is 1-A.
 Alpha  occ. eigenvalues --  -11.29191 -11.25272 -11.25262 -11.24976 -11.24904
 Alpha  occ. eigenvalues --  -11.24863  -1.17792  -1.02143  -0.97525  -0.80430
 Alpha  occ. eigenvalues --   -0.76668  -0.75275  -0.68663  -0.62543  -0.58373
 Alpha  occ. eigenvalues --   -0.57784  -0.53799  -0.50763  -0.49391  -0.43617
 Alpha  occ. eigenvalues --   -0.40525  -0.22305
 Alpha virt. eigenvalues --    0.01271   0.03383   0.04380   0.04583   0.04779
 Alpha virt. eigenvalues --    0.06590   0.06639   0.06833   0.07088   0.10216
 Alpha virt. eigenvalues --    0.12125   0.13200   0.14349   0.14516   0.14723

 Mulliken charges:
               1
     1  C    0.239192
     2  C    0.357961
     3  C    0.358670
     4  C    0.239322
     5  C    0.026954
     6  C    0.195779
     7  H    0.037224
     8  H   -0.088155
     9  H   -0.286486
    10  H   -0.286685
    11  H    0.036236
    12  H   -0.088190
    13  H   -0.266215
    14  H   -0.475607
 Sum of Mulliken charges =  -0.00000

 Dipole moment (field-independent basis, Debye):
    X=              1.4648    Y=              0.0035    Z=             -0.6070  Tot=              1.5856

 Test job not archived.
 1\1\GINC-SE212\SP\RHF\Aug-CC-pVDZ\C6H8\OHZDE\09-Apr-2025\0\\#t hf aug-
 cc-pvdz iop(5/13=1,5/36=2,99/5=2) pseudo=read geom=check guess=(read,t
 check) scf=(maxcycle=1)\\title\\0,1\C,0,-1.23028203,-0.25871164,0.5979
 0229\C,0,-0.51875821,1.07234341,0.29676463\C,0,0.9243401,0.78854092,-0
 .17674763\C,0,1.17043561,-0.73087401,-0.18933711\C,0,-0.21401792,-1.23
 042495,0.08476496\C,0,-0.12663074,1.17495176,-1.09033095\H,0,-2.190604
 31,-0.27029005,0.05713508\H,0,-1.4785355,-0.45056771,1.66730575\H,0,-0
 .74865448,1.93614388,0.93027536\H,0,1.7545938,1.44376787,0.10905209\H,

 Normal termination of Gaussian 16 at Wed Apr  9 14:15:22 2025.
