 Gaussian 16, Revision C.01,

 ----------------------------------------------------------------------
 #t hf aug-cc-pvdz symm=none int=(grid=ultrafine) guess=(read,tcheck) s
 table=(opt,rrhf)
 ----------------------------------------------------------------------
 -----
 title
 -----
 Symbolic Z-matrix:
 Charge =  0 Multiplicity = 1

 SCF Done:  E(RHF) =  -269.909331641     A.U. after   16 cycles

 1\1\GINC-SE393\Stability\RHF\Aug-CC-pVDZ\C5H10O1\OHZDE\09-Apr-2025\0\\
 #t hf aug-cc-pvdz symm=none int=(grid=ultrafine) guess=(read,tcheck) s
 table=(opt,rrhf)\\title\\0,1\C,0,2.39598802,0.00324299,-0.11250694\C,0
 ,0.99768596,0.43609014,-0.53127424\C,0,-0.09502431,-0.58752781,0.22785
 394\O,0,0.08681348,-0.66519827,1.50351914\C,0,-1.36275967,-0.19356501,
 -0.37099404\C,0,-2.44974836,0.23546836,0.51650103\H,0,3.13018108,0.763
 66562,-0.41879871\H,0,2.42892987,-0.11578984,0.97645711\H,0,2.6723879,
 -0.95393428,-0.57699142\H,0,0.85967792,0.40794173,-1.61968726\H,0,0.76

 Normal termination of Gaussian 16 at Wed Apr  9 03:10:04 2025.
 Gaussian 16:  ES64L-G16RevC.01  3-Jul-2019

 ----------------------------------------------------------------------
 #t hf aug-cc-pvdz iop(5/13=1,5/36=2,99/5=2) pseudo=read geom=check gue
 ss=(read,tcheck) scf=(maxcycle=1)
 ----------------------------------------------------------------------
 -----
 title
 -----
 Structure from the checkpoint file:  "Grambow2020_b97d3_006743_forward_mol1.chk"
 Charge =  0 Multiplicity = 1

                         Standard orientation:
 ---------------------------------------------------------------------
 Center     Atomic      Atomic             Coordinates (Angstroms)
 Number     Number       Type             X           Y           Z
 ---------------------------------------------------------------------
      1          6           0        2.455405   -0.039734   -0.102049
      2          6           0        1.121176   -0.755494   -0.261709
      3          6           0       -0.059082    0.219348    0.427318
      4          8           0       -0.039126    1.430341   -0.019357
      5          6           0       -1.241170   -0.629295    0.368572
      6          6           0       -2.430785   -0.121008   -0.324047
      7          1           0        3.222858   -0.538833   -0.712796
      8          1           0        2.351088    1.001100   -0.428972
      9          1           0        2.787279   -0.045069    0.945883
     10          1           0        1.121079   -1.748803    0.205002
     11          1           0        0.843077   -0.852635   -1.317506
     12          1           0        0.288067    0.081297    1.502268
     13          1           0       -1.222932   -1.617169    0.834227
     14          1           0       -2.100019    0.332689   -1.278878
     15          1           0       -3.230789   -0.852900   -0.475066
     16          1           0       -2.819954    0.754701    0.232183
 ---------------------------------------------------------------------

 SCF Done:  E(RHF) =  -269.992892760     A.U. after    2 cycles

 The electronic state is 1-A.
 Alpha  occ. eigenvalues --  -20.43974 -11.36305 -11.28956 -11.27666 -11.25787
 Alpha  occ. eigenvalues --  -11.21759  -1.23114  -1.08990  -1.02051  -0.93807
 Alpha  occ. eigenvalues --   -0.82622  -0.76410  -0.69397  -0.62603  -0.60997
 Alpha  occ. eigenvalues --   -0.59929  -0.57955  -0.55360  -0.53030  -0.50765
 Alpha  occ. eigenvalues --   -0.48793  -0.48339  -0.35988  -0.33123
 Alpha virt. eigenvalues --    0.00992   0.02080   0.03818   0.04448   0.04908
 Alpha virt. eigenvalues --    0.06179   0.06648   0.06785   0.07782   0.09032
 Alpha virt. eigenvalues --    0.09542   0.11273   0.12473   0.13174   0.13922

 Mulliken charges:
               1
     1  C    0.316352
     2  C    0.059609
     3  C    0.381295
     4  O   -0.912102
     5  C    0.293409
     6  C    0.176729
     7  H   -0.026756
     8  H    0.018116
     9  H   -0.064974
    10  H   -0.160668
    11  H   -0.152651
    12  H    0.101447
    13  H   -0.322254
    14  H    0.157849
    15  H   -0.034869
    16  H    0.169469
 Sum of Mulliken charges =   0.00000

 Dipole moment (field-independent basis, Debye):
    X=             -3.0368    Y=             -5.8270    Z=              0.7401  Tot=              6.6124

 Test job not archived.
 1\1\GINC-SE393\SP\RHF\Aug-CC-pVDZ\C5H10O1\OHZDE\09-Apr-2025\0\\#t hf a
 ug-cc-pvdz iop(5/13=1,5/36=2,99/5=2) pseudo=read geom=check guess=(rea
 d,tcheck) scf=(maxcycle=1)\\title\\0,1\C,0,2.39598802,0.00324299,-0.11
 250694\C,0,0.99768596,0.43609014,-0.53127424\C,0,-0.09502431,-0.587527
 81,0.22785394\O,0,0.08681348,-0.66519827,1.50351914\C,0,-1.36275967,-0
 .19356501,-0.37099404\C,0,-2.44974836,0.23546836,0.51650103\H,0,3.1301
 8108,0.76366562,-0.41879871\H,0,2.42892987,-0.11578984,0.97645711\H,0,
 2.6723879,-0.95393428,-0.57699142\H,0,0.85967792,0.40794173,-1.6196872

 Normal termination of Gaussian 16 at Wed Apr  9 03:10:09 2025.
