 Gaussian 16, Revision C.01,

 ----------------------------------------------------------------------
 #t hf aug-cc-pvdz symm=none int=(grid=ultrafine) guess=(read,tcheck) s
 table=(opt,rrhf)
 ----------------------------------------------------------------------
 -----
 title
 -----
 Symbolic Z-matrix:
 Charge =  0 Multiplicity = 1

 SCF Done:  E(RHF) =  -307.780463876     A.U. after   15 cycles

 1\1\GINC-SE174\Stability\RHF\Aug-CC-pVDZ\C6H10O1\OHZDE\09-Apr-2025\0\\
 #t hf aug-cc-pvdz symm=none int=(grid=ultrafine) guess=(read,tcheck) s
 table=(opt,rrhf)\\title\\0,1\C,0,2.09670341,0.22919129,0.40049582\C,0,
 0.63243187,-0.05637515,0.30957389\C,0,-0.01752101,-1.23911569,0.622342
 48\C,0,-1.34939169,-1.16709905,0.18301984\C,0,-1.68341579,0.30322258,0
 .09882764\C,0,-0.32027703,0.77843499,-0.31501613\O,0,-0.13378807,2.078
 22613,-0.65783822\H,0,2.29840512,1.157395,0.94383814\H,0,2.55227808,0.
 31573731,-0.590834\H,0,2.61288407,-0.57480275,0.9243979\H,0,0.47618458

 Normal termination of Gaussian 16 at Wed Apr  9 16:05:16 2025.
 Gaussian 16:  ES64L-G16RevC.01  3-Jul-2019

 ----------------------------------------------------------------------
 #t hf aug-cc-pvdz iop(5/13=1,5/36=2,99/5=2) pseudo=read geom=check gue
 ss=(read,tcheck) scf=(maxcycle=1)
 ----------------------------------------------------------------------
 -----
 title
 -----
 Structure from the checkpoint file:  "Grambow2020_wb97xd3_007737_reverse_mol1.chk"
 Charge =  0 Multiplicity = 1

                         Standard orientation:
 ---------------------------------------------------------------------
 Center     Atomic      Atomic             Coordinates (Angstroms)
 Number     Number       Type             X           Y           Z
 ---------------------------------------------------------------------
      1          6           0       -2.006470   -0.914353   -0.045048
      2          6           0       -0.555301   -0.558207   -0.079313
      3          6           0        0.526049   -1.424111   -0.084806
      4          6           0        1.708182   -0.691750    0.110843
      5          6           0        1.404326    0.719607   -0.332157
      6          6           0       -0.034103    0.742306    0.098714
      7          8           0       -0.741894    1.898055    0.027742
      8          1           0       -2.572839   -0.393727   -0.823278
      9          1           0       -2.458924   -0.667262    0.920356
     10          1           0       -2.143118   -1.983971   -0.201788
     11          1           0        0.449916   -2.503332   -0.041241
     12          1           0        2.701161   -1.119568    0.069081
     13          1           0        1.325230   -0.174606    1.480389
     14          1           0        2.019683    1.493008    0.123427
     15          1           0        1.450879    0.791342   -1.423468
     16          1           0        0.585633    0.425517    1.546833
     17          1           0       -1.678560    1.707203    0.118356
 ---------------------------------------------------------------------

 SCF Done:  E(RHF) =  -307.876503790     A.U. after    2 cycles

 The electronic state is 1-A.
 Alpha  occ. eigenvalues --  -20.60554 -11.31945 -11.24521 -11.24375 -11.24047
 Alpha  occ. eigenvalues --  -11.23627 -11.23436  -1.37032  -1.16133  -1.02146
 Alpha  occ. eigenvalues --   -0.95220  -0.90632  -0.79002  -0.77768  -0.69763
 Alpha  occ. eigenvalues --   -0.67223  -0.65148  -0.59197  -0.58426  -0.57333
 Alpha  occ. eigenvalues --   -0.56198  -0.53188  -0.51838  -0.49368  -0.48623
 Alpha  occ. eigenvalues --   -0.34877  -0.31512
 Alpha virt. eigenvalues --    0.03234   0.03976   0.04510   0.05005   0.06132
 Alpha virt. eigenvalues --    0.06324   0.06670   0.07765   0.09080   0.09526
 Alpha virt. eigenvalues --    0.11638   0.11884   0.12338   0.13159   0.14083

 Mulliken charges:
               1
     1  C    0.453412
     2  C   -0.331657
     3  C    0.808980
     4  C   -0.224217
     5  C    0.556827
     6  C   -0.516262
     7  O   -0.541549
     8  H    0.071875
     9  H    0.073503
    10  H   -0.148365
    11  H   -0.425356
    12  H   -0.279809
    13  H    0.353759
    14  H   -0.115285
    15  H   -0.046604
    16  H    0.186182
    17  H    0.124567
 Sum of Mulliken charges =   0.00000

 Dipole moment (field-independent basis, Debye):
    X=             -1.2557    Y=             -1.0607    Z=             -0.6100  Tot=              1.7533

 Test job not archived.
 1\1\GINC-SE174\SP\RHF\Aug-CC-pVDZ\C6H10O1\OHZDE\09-Apr-2025\0\\#t hf a
 ug-cc-pvdz iop(5/13=1,5/36=2,99/5=2) pseudo=read geom=check guess=(rea
 d,tcheck) scf=(maxcycle=1)\\title\\0,1\C,0,2.09670341,0.22919129,0.400
 49582\C,0,0.63243187,-0.05637515,0.30957389\C,0,-0.01752101,-1.2391156
 9,0.62234248\C,0,-1.34939169,-1.16709905,0.18301984\C,0,-1.68341579,0.
 30322258,0.09882764\C,0,-0.32027703,0.77843499,-0.31501613\O,0,-0.1337
 8807,2.07822613,-0.65783822\H,0,2.29840512,1.157395,0.94383814\H,0,2.5
 5227808,0.31573731,-0.590834\H,0,2.61288407,-0.57480275,0.9243979\H,0,

 Normal termination of Gaussian 16 at Wed Apr  9 16:05:23 2025.
