 Gaussian 16, Revision C.01,

 ----------------------------------------------------------------------
 #t hf aug-cc-pvdz symm=none int=(grid=ultrafine) guess=(read,tcheck) s
 table=(opt,rrhf)
 ----------------------------------------------------------------------
 -----
 title
 -----
 Symbolic Z-matrix:
 Charge =  0 Multiplicity = 1

 SCF Done:  E(RHF) =  -322.645773576     A.U. after   15 cycles
 Normal termination of Gaussian 16 at Wed Apr  9 04:05:46 2025.
 Gaussian 16:  ES64L-G16RevC.01  3-Jul-2019

 ----------------------------------------------------------------------
 #t hf aug-cc-pvdz iop(5/13=1,5/36=2,99/5=2) pseudo=read geom=check gue
 ss=(read,tcheck) scf=(maxcycle=1)
 ----------------------------------------------------------------------
 -----
 title
 -----
 Structure from the checkpoint file:  "Grambow2020_wb97xd3_009318_reverse_mol2.chk"
 Charge =  0 Multiplicity = 1

                         Standard orientation:
 ---------------------------------------------------------------------
 Center     Atomic      Atomic             Coordinates (Angstroms)
 Number     Number       Type             X           Y           Z
 ---------------------------------------------------------------------
      1          6           0       -2.029336   -1.157219    0.180777
      2          6           0       -0.626208   -1.088056   -0.405467
      3          6           0        0.227545   -0.007079    0.242418
      4          6           0        2.563914   -0.566667    0.173007
      5          8           0        1.545898    0.000785   -0.377403
      6          6           0       -0.345377    1.332215    0.076248
      7          7           0       -0.823334    2.366817   -0.043557
      8          1           0       -2.003750   -1.341372    1.256965
      9          1           0       -2.589335   -1.969597   -0.281647
     10          1           0       -2.579683   -0.230817    0.008848
     11          1           0       -0.101696   -2.035509   -0.258422
     12          1           0       -0.660221   -0.898501   -1.480168
     13          1           0        0.364092   -0.201594    1.311437
     14          1           0        2.223515   -0.975773    1.165206
 ---------------------------------------------------------------------

 SCF Done:  E(RHF) =  -322.745262854     A.U. after    2 cycles

 The electronic state is 1-A.
 Alpha  occ. eigenvalues --  -20.67327 -15.66338 -11.37874 -11.33070 -11.30557
 Alpha  occ. eigenvalues --  -11.28083 -11.25798  -1.44454  -1.22033  -1.12169
 Alpha  occ. eigenvalues --   -1.01439  -0.88828  -0.87493  -0.78266  -0.70965
 Alpha  occ. eigenvalues --   -0.68244  -0.63458  -0.61622  -0.59239  -0.56911
 Alpha  occ. eigenvalues --   -0.55253  -0.53964  -0.52797  -0.49549  -0.48111
 Alpha  occ. eigenvalues --   -0.37903
 Alpha virt. eigenvalues --    0.02429   0.03536   0.04390   0.05086   0.06166
 Alpha virt. eigenvalues --    0.06712   0.07466   0.08333   0.09204   0.10423
 Alpha virt. eigenvalues --    0.11223   0.12392   0.13011   0.13710   0.14187

 Mulliken charges:
               1
     1  C    0.431891
     2  C    0.057306
     3  C    0.980531
     4  C    0.153194
     5  O   -0.516727
     6  C   -0.505486
     7  N   -0.119797
     8  H   -0.035164
     9  H   -0.052717
    10  H   -0.086227
    11  H   -0.054044
    12  H   -0.042327
    13  H   -0.113006
    14  H   -0.097427
 Sum of Mulliken charges =  -0.00000

 Dipole moment (field-independent basis, Debye):
    X=             -2.2538    Y=             -3.7539    Z=              1.8457  Tot=              4.7516

 Test job not archived.
 1\1\GINC-SE038\SP\RHF\Aug-CC-pVDZ\C5H7N1O1\OHZDE\09-Apr-2025\0\\#t hf
 aug-cc-pvdz iop(5/13=1,5/36=2,99/5=2) pseudo=read geom=check guess=(re
 ad,tcheck) scf=(maxcycle=1)\\title\\0,1\C,0,-1.79785106,0.30550878,0.1
 3496153\C,0,-0.57428568,-0.59803039,0.19610697\C,0,0.70703681,0.122144
 07,-0.19977492\C,0,2.62820619,-0.83334337,0.88314933\O,0,1.82510833,-0
 .80875436,-0.12468905\C,0,0.65646957,0.64028378,-1.57037226\N,0,0.5862
 8079,1.05849191,-2.63497181\H,0,-1.68258177,1.17799842,0.78166263\H,0,
 -2.68238828,-0.23815336,0.46574534\H,0,-1.98242876,0.65900207,-0.88073

 Normal termination of Gaussian 16 at Wed Apr  9 04:05:51 2025.
