 Gaussian 16, Revision C.01,

 ----------------------------------------------------------------------
 #t hf aug-cc-pvdz symm=none int=(grid=ultrafine) guess=(read,tcheck) s
 table=(opt,rrhf)
 ----------------------------------------------------------------------
 -----
 title
 -----
 Symbolic Z-matrix:
 Charge =  0 Multiplicity = 1

 SCF Done:  E(RHF) =  -231.989187427     A.U. after   15 cycles

 1\1\GINC-SE461\Stability\RHF\Aug-CC-pVDZ\C4H10O1\OHZDE\09-Apr-2025\0\\
 #t hf aug-cc-pvdz symm=none int=(grid=ultrafine) guess=(read,tcheck) s
 table=(opt,rrhf)\\title\\0,1\C,0,1.6964112,-0.75137382,-0.77685679\O,0
 ,0.93984333,-0.62733954,0.32933371\C,0,-0.16892626,0.12679993,0.342702
 6\C,0,-1.11180503,0.04777459,-0.83153749\C,0,-0.74926473,0.2947448,1.7
 1781909\H,0,1.60446171,1.07594549,-0.80199783\H,0,1.18871522,-0.925134
 82,-1.72668963\H,0,2.61715037,-1.29299049,-0.57466544\H,0,0.97005728,1
 .42285111,-0.37635514\H,0,-1.4759646,-0.99012616,-0.95775882\H,0,-0.65

 Normal termination of Gaussian 16 at Wed Apr  9 03:06:51 2025.
 Gaussian 16:  ES64L-G16RevC.01  3-Jul-2019

 ----------------------------------------------------------------------
 #t hf aug-cc-pvdz iop(5/13=1,5/36=2,99/5=2) pseudo=read geom=check gue
 ss=(read,tcheck) scf=(maxcycle=1)
 ----------------------------------------------------------------------
 -----
 title
 -----
 Structure from the checkpoint file:  "Grambow2020_b97d3_006611_reverse_mol1.chk"
 Charge =  0 Multiplicity = 1

                         Standard orientation:
 ---------------------------------------------------------------------
 Center     Atomic      Atomic             Coordinates (Angstroms)
 Number     Number       Type             X           Y           Z
 ---------------------------------------------------------------------
      1          6           0        1.902683   -0.200597   -0.051017
      2          8           0        0.662456   -0.681681   -0.255552
      3          6           0       -0.427842   -0.006216    0.135946
      4          6           0       -0.484244    1.480762   -0.108637
      5          6           0       -1.693583   -0.803373    0.000351
      6          1           0        1.310208    0.039972    1.663417
      7          1           0        2.087473    0.850196   -0.278648
      8          1           0        2.664592   -0.929836   -0.315015
      9          1           0        0.478492    0.073473    1.768822
     10          1           0       -0.393266    1.691815   -1.191671
     11          1           0        0.307571    2.042059    0.402803
     12          1           0       -1.450379    1.878211    0.226289
     13          1           0       -2.438597   -0.443591    0.723248
     14          1           0       -1.504168   -1.866471    0.190611
     15          1           0       -2.143659   -0.705838   -1.005299
 ---------------------------------------------------------------------

 SCF Done:  E(RHF) =  -232.067098653     A.U. after    2 cycles

 The electronic state is 1-A.
 Alpha  occ. eigenvalues --  -20.65474 -11.33039 -11.28634 -11.25016 -11.24658
 Alpha  occ. eigenvalues --   -1.41761  -1.06594  -0.96636  -0.92626  -0.77875
 Alpha  occ. eigenvalues --   -0.69797  -0.68777  -0.67616  -0.57897  -0.56912
 Alpha  occ. eigenvalues --   -0.56213  -0.55488  -0.54128  -0.50936  -0.47779
 Alpha  occ. eigenvalues --   -0.26455
 Alpha virt. eigenvalues --    0.03443   0.04516   0.04634   0.05089   0.06384
 Alpha virt. eigenvalues --    0.06986   0.07290   0.08035   0.08424   0.09367
 Alpha virt. eigenvalues --    0.10077   0.12370   0.13708   0.13887   0.14962

 Mulliken charges:
               1
     1  C    0.582054
     2  O   -0.440776
     3  C   -0.464757
     4  C    0.450282
     5  C    0.341622
     6  H   -0.071102
     7  H   -0.225045
     8  H   -0.331911
     9  H    0.294491
    10  H    0.112286
    11  H   -0.191003
    12  H   -0.072152
    13  H    0.028422
    14  H   -0.081843
    15  H    0.069431
 Sum of Mulliken charges =  -0.00000

 Dipole moment (field-independent basis, Debye):
    X=             -1.4898    Y=              1.0636    Z=             -1.1001  Tot=              2.1356

 Test job not archived.
 1\1\GINC-SE461\SP\RHF\Aug-CC-pVDZ\C4H10O1\OHZDE\09-Apr-2025\0\\#t hf a
 ug-cc-pvdz iop(5/13=1,5/36=2,99/5=2) pseudo=read geom=check guess=(rea
 d,tcheck) scf=(maxcycle=1)\\title\\0,1\C,0,1.6964112,-0.75137382,-0.77
 685679\O,0,0.93984333,-0.62733954,0.32933371\C,0,-0.16892626,0.1267999
 3,0.3427026\C,0,-1.11180503,0.04777459,-0.83153749\C,0,-0.74926473,0.2
 947448,1.71781909\H,0,1.60446171,1.07594549,-0.80199783\H,0,1.18871522
 ,-0.92513482,-1.72668963\H,0,2.61715037,-1.29299049,-0.57466544\H,0,0.
 97005728,1.42285111,-0.37635514\H,0,-1.4759646,-0.99012616,-0.95775882

 Normal termination of Gaussian 16 at Wed Apr  9 03:06:55 2025.
