 Gaussian 16, Revision C.01,

 ----------------------------------------------------------------------
 #t hf aug-cc-pvdz symm=none int=(grid=ultrafine) guess=(read,tcheck) s
 table=(opt,rrhf)
 ----------------------------------------------------------------------
 -----
 title
 -----
 Symbolic Z-matrix:
 Charge =  0 Multiplicity = 1

 SCF Done:  E(RHF) =  -265.052790384     A.U. after   14 cycles
 Normal termination of Gaussian 16 at Wed Apr  9 03:07:38 2025.
 Gaussian 16:  ES64L-G16RevC.01  3-Jul-2019

 ----------------------------------------------------------------------
 #t hf aug-cc-pvdz iop(5/13=1,5/36=2,99/5=2) pseudo=read geom=check gue
 ss=(read,tcheck) scf=(maxcycle=1)
 ----------------------------------------------------------------------
 -----
 title
 -----
 Structure from the checkpoint file:  "Grambow2020_b97d3_006624_forward_mol2.chk"
 Charge =  0 Multiplicity = 1

                         Standard orientation:
 ---------------------------------------------------------------------
 Center     Atomic      Atomic             Coordinates (Angstroms)
 Number     Number       Type             X           Y           Z
 ---------------------------------------------------------------------
      1          6           0       -2.086296    0.516642    0.105094
      2          6           0       -1.101077   -0.571214   -0.333541
      3          6           0        0.270259   -0.476687    0.367205
      4          7           0        1.116270   -1.615225   -0.018200
      5          6           0        0.910172    0.834278    0.088372
      6          7           0        1.462581    1.832400   -0.177637
      7          1           0       -1.704126    1.519444   -0.129689
      8          1           0       -2.270381    0.468905    1.188206
      9          1           0       -3.049779    0.392447   -0.406861
     10          1           0       -1.493576   -1.572762   -0.110362
     11          1           0       -0.939422   -0.519693   -1.421433
     12          1           0        0.108024   -0.536464    1.454706
     13          1           0        1.317277   -1.547893   -1.020205
     14          1           0        2.021672   -1.542325    0.453718
 ---------------------------------------------------------------------

 SCF Done:  E(RHF) =  -265.132286793     A.U. after    2 cycles

 The electronic state is 1-A.
 Alpha  occ. eigenvalues --  -15.64662 -15.64215 -11.32714 -11.29126 -11.26075
 Alpha  occ. eigenvalues --  -11.24296  -1.20765  -1.16850  -1.05508  -0.94378
 Alpha  occ. eigenvalues --   -0.84953  -0.72971  -0.67836  -0.63781  -0.61590
 Alpha  occ. eigenvalues --   -0.57465  -0.55393  -0.52560  -0.51909  -0.50554
 Alpha  occ. eigenvalues --   -0.46989  -0.45263  -0.42634
 Alpha virt. eigenvalues --    0.03206   0.03810   0.03816   0.05474   0.06503
 Alpha virt. eigenvalues --    0.06634   0.07813   0.09274   0.09330   0.11104
 Alpha virt. eigenvalues --    0.13063   0.13604   0.14645   0.14851   0.14969

 Mulliken charges:
               1
     1  C    0.329325
     2  C    0.313041
     3  C    0.599895
     4  N   -0.413853
     5  C   -0.318031
     6  N   -0.225083
     7  H   -0.065960
     8  H   -0.027542
     9  H   -0.046251
    10  H    0.015094
    11  H   -0.127917
    12  H   -0.125666
    13  H    0.068212
    14  H    0.024738
 Sum of Mulliken charges =   0.00000

 Dipole moment (field-independent basis, Debye):
    X=             -1.4388    Y=             -2.4191    Z=              0.3400  Tot=              2.8351

 Test job not archived.
 1\1\GINC-SE195\SP\RHF\Aug-CC-pVDZ\C4H8N2\OHZDE\09-Apr-2025\0\\#t hf au
 g-cc-pvdz iop(5/13=1,5/36=2,99/5=2) pseudo=read geom=check guess=(read
 ,tcheck) scf=(maxcycle=1)\\title\\0,1\C,0,-1.83251121,0.19744033,0.107
 11253\C,0,-0.5760637,-0.60441004,-0.24624839\C,0,0.71683063,-0.0182880
 3,0.35825823\N,0,1.85633477,-0.9014967,0.07187658\C,0,0.93349345,1.371
 34304,-0.11907439\N,0,1.15979657,2.44105575,-0.53939178\H,0,-1.7695975
 6,1.22611544,-0.27322693\H,0,-1.97583851,0.24678368,1.19629531\H,0,-2.
 72404251,-0.2717387,-0.32976867\H,0,-0.64940612,-1.63650536,0.12302559

 Normal termination of Gaussian 16 at Wed Apr  9 03:07:42 2025.
