 Gaussian 16, Revision C.01,

 ----------------------------------------------------------------------
 #t hf aug-cc-pvdz symm=none int=(grid=ultrafine) guess=(read,tcheck) s
 table=(opt,rrhf)
 ----------------------------------------------------------------------
 -----
 title
 -----
 Symbolic Z-matrix:
 Charge =  0 Multiplicity = 1

 SCF Done:  E(RHF) =  -307.909799884     A.U. after   13 cycles

 1\1\GINC-SE226\Stability\RHF\Aug-CC-pVDZ\C6H10O1\OHZDE\09-Apr-2025\0\\
 #t hf aug-cc-pvdz symm=none int=(grid=ultrafine) guess=(read,tcheck) s
 table=(opt,rrhf)\\title\\0,1\C,0,1.87219031,-0.54483787,0.08530207\C,0
 ,0.55900936,0.09688263,0.49473095\C,0,0.11741357,1.29602174,-0.3649498
 5\C,0,-1.38360445,1.21604079,-0.31527122\C,0,-1.80802854,0.06479545,0.
 19132603\C,0,-0.65896481,-0.8596605,0.49928834\O,0,-0.58825115,-1.9179
 8389,-0.44830749\H,0,1.82243052,-0.93342396,-0.93320097\H,0,2.68809476
 ,0.17968997,0.13288819\H,0,2.12386856,-1.38083422,0.74031246\H,0,0.650

 Normal termination of Gaussian 16 at Wed Apr  9 16:09:12 2025.
 Gaussian 16:  ES64L-G16RevC.01  3-Jul-2019

 ----------------------------------------------------------------------
 #t hf aug-cc-pvdz iop(5/13=1,5/36=2,99/5=2) pseudo=read geom=check gue
 ss=(read,tcheck) scf=(maxcycle=1)
 ----------------------------------------------------------------------
 -----
 title
 -----
 Structure from the checkpoint file:  "Grambow2020_wb97xd3_007813_forward_mol2.chk"
 Charge =  0 Multiplicity = 1

                         Standard orientation:
 ---------------------------------------------------------------------
 Center     Atomic      Atomic             Coordinates (Angstroms)
 Number     Number       Type             X           Y           Z
 ---------------------------------------------------------------------
      1          6           0       -2.062274   -0.453355   -0.036116
      2          6           0       -0.632256   -0.500235    0.470571
      3          6           0        0.308858   -1.441612   -0.304094
      4          6           0        1.645072   -0.761997   -0.183362
      5          6           0        1.537878    0.475477    0.284944
      6          6           0        0.096966    0.865927    0.487739
      7          8           0       -0.329071    1.780730   -0.514566
      8          1           0       -2.105081   -0.104482   -1.069208
      9          1           0       -2.520554   -1.443816    0.007133
     10          1           0       -2.670732    0.227049    0.562299
     11          1           0       -0.638274   -0.843958    1.509994
     12          1           0        0.018226   -1.541711   -1.356866
     13          1           0        0.312061   -2.452437    0.110489
     14          1           0        2.576722   -1.238192   -0.466034
     15          1           0        2.355525    1.170540    0.431031
     16          1           0       -0.082584    1.391882    1.427454
     17          1           0        0.021797    1.484051   -1.357857
 ---------------------------------------------------------------------

 SCF Done:  E(RHF) =  -308.003981003     A.U. after    2 cycles

 The electronic state is 1-A.
 Alpha  occ. eigenvalues --  -20.56585 -11.28641 -11.24505 -11.23606 -11.23377
 Alpha  occ. eigenvalues --  -11.23354 -11.21956  -1.32125  -1.12703  -1.01274
 Alpha  occ. eigenvalues --   -0.94863  -0.89682  -0.78146  -0.75204  -0.69852
 Alpha  occ. eigenvalues --   -0.65132  -0.63230  -0.60271  -0.57777  -0.56040
 Alpha  occ. eigenvalues --   -0.54017  -0.52058  -0.48698  -0.48509  -0.46809
 Alpha  occ. eigenvalues --   -0.43099  -0.36634
 Alpha virt. eigenvalues --    0.03306   0.04245   0.04485   0.04773   0.05985
 Alpha virt. eigenvalues --    0.06367   0.06667   0.07204   0.08050   0.08911
 Alpha virt. eigenvalues --    0.11959   0.12317   0.13694   0.14268   0.14477

 Mulliken charges:
               1
     1  C    0.813248
     2  C   -1.070303
     3  C    0.446529
     4  C    0.232589
     5  C    0.358107
     6  C    0.758574
     7  O   -0.620439
     8  H   -0.012803
     9  H   -0.038675
    10  H   -0.052320
    11  H   -0.106284
    12  H   -0.053466
    13  H   -0.042139
    14  H   -0.308056
    15  H   -0.293194
    16  H   -0.165678
    17  H    0.154308
 Sum of Mulliken charges =  -0.00000

 Dipole moment (field-independent basis, Debye):
    X=              0.9022    Y=             -1.7901    Z=             -0.2226  Tot=              2.0169

 Test job not archived.
 1\1\GINC-SE226\SP\RHF\Aug-CC-pVDZ\C6H10O1\OHZDE\09-Apr-2025\0\\#t hf a
 ug-cc-pvdz iop(5/13=1,5/36=2,99/5=2) pseudo=read geom=check guess=(rea
 d,tcheck) scf=(maxcycle=1)\\title\\0,1\C,0,1.87219031,-0.54483787,0.08
 530207\C,0,0.55900936,0.09688263,0.49473095\C,0,0.11741357,1.29602174,
 -0.36494985\C,0,-1.38360445,1.21604079,-0.31527122\C,0,-1.80802854,0.0
 6479545,0.19132603\C,0,-0.65896481,-0.8596605,0.49928834\O,0,-0.588251
 15,-1.91798389,-0.44830749\H,0,1.82243052,-0.93342396,-0.93320097\H,0,
 2.68809476,0.17968997,0.13288819\H,0,2.12386856,-1.38083422,0.74031246

 Normal termination of Gaussian 16 at Wed Apr  9 16:09:18 2025.
