 Gaussian 16, Revision C.01,

 ----------------------------------------------------------------------
 #t hf aug-cc-pvdz symm=none int=(grid=ultrafine) guess=(read,tcheck) s
 table=(opt,rrhf)
 ----------------------------------------------------------------------
 -----
 title
 -----
 Symbolic Z-matrix:
 Charge =  0 Multiplicity = 1

 SCF Done:  E(RHF) =  -353.260158228     A.U. after   18 cycles
 Normal termination of Gaussian 16 at Wed Apr  9 16:05:46 2025.
 Gaussian 16:  ES64L-G16RevC.01  3-Jul-2019

 ----------------------------------------------------------------------
 #t hf aug-cc-pvdz iop(5/13=1,5/36=2,99/5=2) pseudo=read geom=check gue
 ss=(read,tcheck) scf=(maxcycle=1)
 ----------------------------------------------------------------------
 -----
 title
 -----
 Structure from the checkpoint file:  "Grambow2020_wb97xd3_007761_forward_mol1.chk"
 Charge =  0 Multiplicity = 1

                         Standard orientation:
 ---------------------------------------------------------------------
 Center     Atomic      Atomic             Coordinates (Angstroms)
 Number     Number       Type             X           Y           Z
 ---------------------------------------------------------------------
      1          8           0       -1.573338    1.089911   -0.042145
      2          6           0       -2.052609   -1.058050   -0.234061
      3          7           0       -0.798803   -0.898324    0.137317
      4          6           0        2.684444   -0.650992   -0.197315
      5          7           0        1.767055    0.117246   -0.003010
      6          6           0        0.755181    0.875645    0.040419
      7          7           0       -0.542628    0.328118    0.066923
      8          1           0       -2.727460   -1.419721    0.557094
      9          1           0        3.207531   -1.080399    0.658974
     10          1           0        0.805171    1.951945    0.058221
 ---------------------------------------------------------------------

 SCF Done:  E(RHF) =  -353.364919227     A.U. after    2 cycles

 The electronic state is 1-A.
 Alpha  occ. eigenvalues --  -20.57726 -15.84212 -15.74952 -15.73264 -11.36744
 Alpha  occ. eigenvalues --  -11.34892 -11.32283  -1.49223  -1.31125  -1.26189
 Alpha  occ. eigenvalues --   -1.13203  -1.01294  -0.89172  -0.75568  -0.74010
 Alpha  occ. eigenvalues --   -0.73659  -0.71429  -0.68041  -0.59257  -0.57498
 Alpha  occ. eigenvalues --   -0.53210  -0.48469  -0.46795  -0.39389  -0.31775
 Alpha virt. eigenvalues --    0.02748   0.02939   0.03940   0.04246   0.05765
 Alpha virt. eigenvalues --    0.07309   0.08019   0.10216   0.10739   0.11247
 Alpha virt. eigenvalues --    0.12547   0.12810   0.15287   0.15374   0.15762

 Mulliken charges:
               1
     1  O   -0.837287
     2  C    0.442110
     3  N   -0.037687
     4  C    0.088466
     5  N    0.137500
     6  C    0.703634
     7  N    0.162436
     8  H   -0.140333
     9  H   -0.196951
    10  H   -0.321888
 Sum of Mulliken charges =  -0.00000

 Dipole moment (field-independent basis, Debye):
    X=              2.4923    Y=             -1.0714    Z=              2.9034  Tot=              3.9736

 Test job not archived.
 1\1\GINC-SE219\SP\RHF\Aug-CC-pVDZ\C3H3N3O1\OHZDE\09-Apr-2025\0\\#t hf
 aug-cc-pvdz iop(5/13=1,5/36=2,99/5=2) pseudo=read geom=check guess=(re
 ad,tcheck) scf=(maxcycle=1)\\title\\0,1\O,0,0.43548389,-2.00446177,0.1
 2492008\C,0,2.30193126,-0.82271582,0.11400479\N,0,1.25740106,-0.030894
 33,0.24605341\C,0,-1.29099288,2.17721596,-0.72146916\N,0,-1.21935238,1
 .01119755,-0.39771858\C,0,-1.05109582,-0.22791783,-0.20477379\N,0,0.23
 234923,-0.7351404,0.07857995\H,0,2.90017093,-0.9565394,1.02852975\H,0,
 -1.4908435,2.9292204,0.04390015\H,0,-1.84136679,-0.95957537,-0.2420166

 Normal termination of Gaussian 16 at Wed Apr  9 16:05:51 2025.
