 Gaussian 16, Revision C.01,

 ----------------------------------------------------------------------
 #t hf aug-cc-pvdz symm=none int=(grid=ultrafine) guess=(read,tcheck) s
 table=(opt,rrhf)
 ----------------------------------------------------------------------
 -----
 title
 -----
 Symbolic Z-matrix:
 Charge =  0 Multiplicity = 1

 SCF Done:  E(RHF) =  -270.713147517     A.U. after   16 cycles
 Normal termination of Gaussian 16 at Wed Apr  9 03:53:06 2025.
 Gaussian 16:  ES64L-G16RevC.01  3-Jul-2019

 ----------------------------------------------------------------------
 #t hf aug-cc-pvdz iop(5/13=1,5/36=2,99/5=2) pseudo=read geom=check gue
 ss=(read,tcheck) scf=(maxcycle=1)
 ----------------------------------------------------------------------
 -----
 title
 -----
 Structure from the checkpoint file:  "Grambow2020_wb97xd3_008390_forward_mol1.chk"
 Charge =  0 Multiplicity = 1

                         Standard orientation:
 ---------------------------------------------------------------------
 Center     Atomic      Atomic             Coordinates (Angstroms)
 Number     Number       Type             X           Y           Z
 ---------------------------------------------------------------------
      1          6           0       -2.238989   -0.047838    0.122115
      2          6           0       -0.736973   -0.003978    0.057871
      3          6           0        0.059033   -0.751067   -1.012713
      4          6           0        1.349549   -0.455880   -0.229230
      5          6           0        0.886412   -1.088762    1.093580
      6          6           0        1.262744    1.072029   -0.122969
      7          6           0       -0.014610    1.328607    0.122386
      8          1           0       -2.619503    0.456788    1.011330
      9          1           0       -2.643842    0.464190   -0.755831
     10          1           0       -2.608111   -1.073624    0.113892
     11          1           0       -0.018493   -0.295519   -2.001454
     12          1           0       -0.168916   -1.816370   -1.045675
     13          1           0        2.293011   -0.864796   -0.591147
     14          1           0        1.168120   -0.425296    1.927507
     15          1           0       -0.395288   -0.802618    1.001368
     16          1           0        2.089914    1.766449   -0.174385
     17          1           0       -0.499889    2.272131    0.328157
 ---------------------------------------------------------------------

 SCF Done:  E(RHF) =  -270.791043547     A.U. after    2 cycles

 The electronic state is 1-A.
 Alpha  occ. eigenvalues --  -11.29767 -11.24681 -11.24650 -11.24515 -11.24156
 Alpha  occ. eigenvalues --  -11.23934 -11.23752  -1.18272  -1.02418  -0.99107
 Alpha  occ. eigenvalues --   -0.90357  -0.86746  -0.74457  -0.73265  -0.68303
 Alpha  occ. eigenvalues --   -0.64471  -0.60099  -0.58329  -0.56227  -0.52158
 Alpha  occ. eigenvalues --   -0.50510  -0.49980  -0.47415  -0.46334  -0.39547
 Alpha  occ. eigenvalues --   -0.29234
 Alpha virt. eigenvalues --    0.03112   0.03714   0.04362   0.05011   0.05780
 Alpha virt. eigenvalues --    0.06415   0.06637   0.06829   0.08359   0.09055
 Alpha virt. eigenvalues --    0.09487   0.11205   0.11963   0.13148   0.13335

 Mulliken charges:
               1
     1  C    0.984766
     2  C   -1.264621
     3  C    0.627549
     4  C    0.271932
     5  C   -0.263680
     6  C    0.301844
     7  C    0.679927
     8  H    0.012462
     9  H    0.038764
    10  H   -0.048370
    11  H   -0.241996
    12  H   -0.159470
    13  H   -0.301127
    14  H   -0.016919
    15  H    0.106449
    16  H   -0.302996
    17  H   -0.424512
 Sum of Mulliken charges =  -0.00000

 Dipole moment (field-independent basis, Debye):
    X=             -1.0837    Y=              2.2566    Z=             -1.2960  Tot=              2.8189

 Test job not archived.
 1\1\GINC-SE097\SP\RHF\Aug-CC-pVDZ\C7H10\OHZDE\09-Apr-2025\0\\#t hf aug
 -cc-pvdz iop(5/13=1,5/36=2,99/5=2) pseudo=read geom=check guess=(read,
 tcheck) scf=(maxcycle=1)\\title\\0,1\C,0,2.06893112,-0.06735265,0.1720
 3564\C,0,0.57445656,0.00542753,0.01921633\C,0,-0.3779193,-0.82945738,0
 .87587612\C,0,-1.53520804,-0.42390788,-0.05290004\C,0,-0.88586374,-0.9
 2706001,-1.35291973\C,0,-1.42101141,1.10427507,0.01745651\C,0,-0.11931
 253,1.35436821,-0.00896659\H,0,2.58149681,0.5175478,-0.59301949\H,0,2.
 34302283,0.34106152,1.14924527\H,0,2.4242826,-1.09697283,0.12551565\H,

 Normal termination of Gaussian 16 at Wed Apr  9 03:53:13 2025.
