 Gaussian 16, Revision C.01,

 ----------------------------------------------------------------------
 #t hf aug-cc-pvdz symm=none int=(grid=ultrafine) guess=(read,tcheck) s
 table=(opt,rrhf)
 ----------------------------------------------------------------------
 -----
 title
 -----
 Symbolic Z-matrix:
 Charge =  0 Multiplicity = 1

 SCF Done:  E(RHF) =  -360.880421187     A.U. after   13 cycles
 Normal termination of Gaussian 16 at Wed Apr  9 16:37:07 2025.
 Gaussian 16:  ES64L-G16RevC.01  3-Jul-2019

 ----------------------------------------------------------------------
 #t hf aug-cc-pvdz iop(5/13=1,5/36=2,99/5=2) pseudo=read geom=check gue
 ss=(read,tcheck) scf=(maxcycle=1)
 ----------------------------------------------------------------------
 -----
 title
 -----
 Structure from the checkpoint file:  "Grambow2020_wb97xd3_008684_reverse_mol2.chk"
 Charge =  0 Multiplicity = 1

                         Standard orientation:
 ---------------------------------------------------------------------
 Center     Atomic      Atomic             Coordinates (Angstroms)
 Number     Number       Type             X           Y           Z
 ---------------------------------------------------------------------
      1          6           0        3.032822   -0.017875    0.681967
      2          7           0        2.576081   -0.611211   -0.333293
      3          6           0       -0.104771    1.645403   -0.191719
      4          6           0       -0.741694    0.469616   -0.213839
      5          8           0       -0.210763   -0.714042   -0.537275
      6          8           0       -2.051056    0.397388    0.083762
      7          6           0       -2.595105   -0.872300    0.403647
      8          1           0        4.087649   -0.025415    0.965100
      9          1           0        0.770065   -0.648423   -0.578505
     10          1           0        2.344800    0.541069    1.315413
     11          1           0        3.296345   -1.098297   -0.860516
     12          1           0        0.911361    1.723623   -0.547006
     13          1           0       -0.636180    2.533847    0.110427
     14          1           0       -3.636355   -0.686293    0.659171
     15          1           0       -2.083446   -1.319600    1.259094
     16          1           0       -2.539765   -1.557860   -0.442360
 ---------------------------------------------------------------------

 SCF Done:  E(RHF) =  -360.999353867     A.U. after    2 cycles

 The electronic state is 1-A.
 Alpha  occ. eigenvalues --  -20.58496 -20.57845 -15.65705 -11.35119 -11.32292
 Alpha  occ. eigenvalues --  -11.27970 -11.18378  -1.39836  -1.31697  -1.21318
 Alpha  occ. eigenvalues --   -1.01261  -0.91528  -0.86639  -0.82102  -0.71785
 Alpha  occ. eigenvalues --   -0.70923  -0.67715  -0.66320  -0.64056  -0.60586
 Alpha  occ. eigenvalues --   -0.56830  -0.55925  -0.53207  -0.51059  -0.48513
 Alpha  occ. eigenvalues --   -0.47858  -0.45707  -0.30997
 Alpha virt. eigenvalues --    0.02577   0.04224   0.04366   0.05490   0.05960
 Alpha virt. eigenvalues --    0.06658   0.07222   0.08111   0.08422   0.09695
 Alpha virt. eigenvalues --    0.11332   0.12114   0.14086   0.14466   0.15577

 Mulliken charges:
               1
     1  C    0.611356
     2  N   -0.225972
     3  C    0.805059
     4  C    0.497907
     5  O   -0.473062
     6  O   -0.560882
     7  C    0.757619
     8  H   -0.187290
     9  H    0.287809
    10  H   -0.213406
    11  H   -0.036635
    12  H   -0.430286
    13  H   -0.396082
    14  H   -0.249053
    15  H   -0.095057
    16  H   -0.092026
 Sum of Mulliken charges =  -0.00000

 Dipole moment (field-independent basis, Debye):
    X=              4.0303    Y=             -1.4900    Z=              1.3609  Tot=              4.5072

 Test job not archived.
 1\1\GINC-SE129\SP\RHF\Aug-CC-pVDZ\C4H9N1O2\OHZDE\09-Apr-2025\0\\#t hf
 aug-cc-pvdz iop(5/13=1,5/36=2,99/5=2) pseudo=read geom=check guess=(re
 ad,tcheck) scf=(maxcycle=1)\\title\\0,1\C,0,-2.83337293,0.69019063,0.0
 3907184\N,0,-2.3958523,-0.32611005,-0.56683446\C,0,0.19853146,-0.36185
 221,1.79265979\C,0,0.8793682,-0.37731111,0.64163524\O,0,0.38217559,-0.
 64428222,-0.57041711\O,0,2.20164959,-0.1331893,0.62788951\C,0,2.807442
 24,0.19949931,-0.61015529\H,0,-3.87460945,1.01760034,0.00020875\H,0,-0
 .60133085,-0.64601492,-0.54315907\H,0,-2.14227607,1.27793207,0.6423878

 Normal termination of Gaussian 16 at Wed Apr  9 16:37:13 2025.
