 Gaussian 16, Revision C.01,

 ----------------------------------------------------------------------
 #t hf aug-cc-pvdz symm=none int=(grid=ultrafine) guess=(read,tcheck) s
 table=(opt,rrhf)
 ----------------------------------------------------------------------
 -----
 title
 -----
 Symbolic Z-matrix:
 Charge =  0 Multiplicity = 1

 SCF Done:  E(RHF) =  -336.347996391     A.U. after   16 cycles
 Normal termination of Gaussian 16 at Wed Apr  9 03:46:12 2025.
 Gaussian 16:  ES64L-G16RevC.01  3-Jul-2019

 ----------------------------------------------------------------------
 #t hf aug-cc-pvdz iop(5/13=1,5/36=2,99/5=2) pseudo=read geom=check gue
 ss=(read,tcheck) scf=(maxcycle=1)
 ----------------------------------------------------------------------
 -----
 title
 -----
 Structure from the checkpoint file:  "Grambow2020_wb97xd3_007924_reverse_mol2.chk"
 Charge =  0 Multiplicity = 1

                         Standard orientation:
 ---------------------------------------------------------------------
 Center     Atomic      Atomic             Coordinates (Angstroms)
 Number     Number       Type             X           Y           Z
 ---------------------------------------------------------------------
      1          7           0        3.012216   -0.397872   -0.005107
      2          6           0        1.741449   -0.072337   -0.000909
      3          8           0       -1.263788    1.692372    0.000414
      4          6           0        0.573272    0.238787   -0.000587
      5          6           0       -0.804225    0.578490   -0.000289
      6          6           0       -1.704473   -0.600780    0.000346
      7          7           0       -2.403994   -1.509831    0.000497
      8          1           0        3.294231   -1.360979    0.014098
      9          1           0        3.722387    0.310968    0.023493
 ---------------------------------------------------------------------

 SCF Done:  E(RHF) =  -336.451732739     A.U. after    2 cycles

 The electronic state is 1-A.
 Alpha  occ. eigenvalues --  -20.60300 -15.70910 -15.66873 -11.42256 -11.34584
 Alpha  occ. eigenvalues --  -11.30531 -11.27259  -1.40062  -1.25644  -1.21654
 Alpha  occ. eigenvalues --   -1.07646  -0.96612  -0.82902  -0.78624  -0.76951
 Alpha  occ. eigenvalues --   -0.70419  -0.62117  -0.58010  -0.56659  -0.51086
 Alpha  occ. eigenvalues --   -0.49638  -0.48801  -0.44223  -0.38572
 Alpha virt. eigenvalues --    0.01361   0.03624   0.04414   0.07243   0.08632
 Alpha virt. eigenvalues --    0.08756   0.09161   0.11709   0.12043   0.12417
 Alpha virt. eigenvalues --    0.12941   0.14033   0.14339   0.14655   0.17516

 Mulliken charges:
               1
     1  N    0.012780
     2  C   -0.743431
     3  O   -0.448684
     4  C    0.840301
     5  C    0.592291
     6  C   -0.200271
     7  N   -0.135693
     8  H    0.044849
     9  H    0.037856
 Sum of Mulliken charges =  -0.00000

 Dipole moment (field-independent basis, Debye):
    X=              7.2760    Y=             -1.2758    Z=              0.0737  Tot=              7.3873

 Test job not archived.
 1\1\GINC-SE029\SP\RHF\Aug-CC-pVDZ\C4H2N2O1\OHZDE\09-Apr-2025\0\\#t hf
 aug-cc-pvdz iop(5/13=1,5/36=2,99/5=2) pseudo=read geom=check guess=(re
 ad,tcheck) scf=(maxcycle=1)\\title\\0,1\N,0,-2.1774066,0.67961167,0.04
 8355\C,0,-1.03620395,0.21150482,0.49486716\O,0,1.42496711,-1.35719613,
 2.39945669\C,0,0.00948849,-0.22724624,0.91374696\C,0,1.24899272,-0.732
 27715,1.38434957\C,0,2.39195492,-0.42200677,0.49076504\N,0,3.27829036,
 -0.18453177,-0.19750828\H,0,-2.21588081,1.20751392,-0.80447284\H,0,-3.
 02183724,0.56079064,0.5779147\\Version=ES64L-G16RevC.01\State=1-A\HF=-

 Normal termination of Gaussian 16 at Wed Apr  9 03:46:15 2025.
