 Gaussian 16, Revision C.01,

 ----------------------------------------------------------------------
 #t hf aug-cc-pvdz symm=none int=(grid=ultrafine) guess=(read,tcheck) s
 table=(opt,rrhf)
 ----------------------------------------------------------------------
 -----
 title
 -----
 Symbolic Z-matrix:
 Charge =  0 Multiplicity = 1

 SCF Done:  E(RHF) =  -305.731517674     A.U. after   15 cycles
 Normal termination of Gaussian 16 at Wed Apr  9 03:21:04 2025.
 Gaussian 16:  ES64L-G16RevC.01  3-Jul-2019

 ----------------------------------------------------------------------
 #t hf aug-cc-pvdz iop(5/13=1,5/36=2,99/5=2) pseudo=read geom=check gue
 ss=(read,tcheck) scf=(maxcycle=1)
 ----------------------------------------------------------------------
 -----
 title
 -----
 Structure from the checkpoint file:  "Grambow2020_wb97xd3_006137_reverse_mol2.chk"
 Charge =  0 Multiplicity = 1

                         Standard orientation:
 ---------------------------------------------------------------------
 Center     Atomic      Atomic             Coordinates (Angstroms)
 Number     Number       Type             X           Y           Z
 ---------------------------------------------------------------------
      1          8           0       -2.241280   -0.421645   -0.085084
      2          6           0       -1.211028    0.543365    0.019738
      3          6           0        0.012766   -0.153938    0.556130
      4          6           0        0.776644   -1.102547   -0.365996
      5          8           0        1.918023   -0.210111   -0.216671
      6          6           0        1.307008    0.668019    0.557570
      7          1           0       -3.018911   -0.008108   -0.462475
      8          1           0       -1.485786    1.356662    0.701404
      9          1           0       -0.989902    0.987970   -0.959507
     10          1           0       -0.195983   -0.565815    1.546549
     11          1           0        1.011538   -2.100567    0.001543
     12          1           0        0.452862   -1.143767   -1.405957
     13          1           0        0.592782    3.636030   -1.048876
     14          1           0        0.907126    3.162252   -0.563290
 ---------------------------------------------------------------------

 SCF Done:  E(RHF) =  -305.830897916     A.U. after    2 cycles

 The electronic state is 1-A.
 Alpha  occ. eigenvalues --  -20.63538 -20.59008 -11.31435 -11.31079 -11.30765
 Alpha  occ. eigenvalues --  -11.25238  -1.42757  -1.34290  -1.06275  -0.95593
 Alpha  occ. eigenvalues --   -0.89925  -0.75780  -0.72689  -0.69918  -0.68631
 Alpha  occ. eigenvalues --   -0.65279  -0.60140  -0.58568  -0.57695  -0.53100
 Alpha  occ. eigenvalues --   -0.52121  -0.50530  -0.47080  -0.36287
 Alpha virt. eigenvalues --    0.02969   0.04195   0.04572   0.05710   0.06435
 Alpha virt. eigenvalues --    0.06773   0.08071   0.08624   0.10414   0.10563
 Alpha virt. eigenvalues --    0.12557   0.13383   0.13881   0.14391   0.15185

 Mulliken charges:
               1
     1  O   -0.566088
     2  C    0.867341
     3  C   -0.249756
     4  C    0.933106
     5  O   -0.595702
     6  C    0.154030
     7  H    0.142648
     8  H   -0.067103
     9  H   -0.140197
    10  H   -0.156166
    11  H   -0.149823
    12  H   -0.195585
    13  H    0.007712
    14  H    0.015583
 Sum of Mulliken charges =  -0.00000

 Dipole moment (field-independent basis, Debye):
    X=             -2.9889    Y=             -0.9728    Z=             -1.0077  Tot=              3.3008

 Test job not archived.
 1\1\GINC-SE403\SP\RHF\Aug-CC-pVDZ\C4H8O2\OHZDE\09-Apr-2025\0\\#t hf au
 g-cc-pvdz iop(5/13=1,5/36=2,99/5=2) pseudo=read geom=check guess=(read
 ,tcheck) scf=(maxcycle=1)\\title\\0,1\O,0,2.06101029,0.7475017,0.06881
 397\C,0,0.95651261,-0.02563368,0.50008894\C,0,-0.29321426,0.76646902,0
 .21308022\C,0,-0.75329234,0.9060198,-1.2369332\O,0,-1.9695751,0.209597
 45,-0.8405271\C,0,-1.61956593,0.02560422,0.4194492\H,0,2.86563942,0.24
 544183,0.20539462\H,0,1.00555687,-0.23783906,1.57441455\H,0,0.92076002
 ,-0.98678575,-0.02944048\H,0,-0.27467406,1.70759325,0.7681391\H,0,-0.9

 Normal termination of Gaussian 16 at Wed Apr  9 03:21:09 2025.
