 Gaussian 16, Revision C.01,

 ----------------------------------------------------------------------
 #t hf aug-cc-pvdz symm=none int=(grid=ultrafine) guess=(read,tcheck) s
 table=(opt,rrhf)
 ----------------------------------------------------------------------
 -----
 title
 -----
 Symbolic Z-matrix:
 Charge =  0 Multiplicity = 1

 SCF Done:  E(RHF) =  -322.474346596     A.U. after   17 cycles
 Normal termination of Gaussian 16 at Wed Apr  9 15:46:03 2025.
 Gaussian 16:  ES64L-G16RevC.01  3-Jul-2019

 ----------------------------------------------------------------------
 #t hf aug-cc-pvdz iop(5/13=1,5/36=2,99/5=2) pseudo=read geom=check gue
 ss=(read,tcheck) scf=(maxcycle=1)
 ----------------------------------------------------------------------
 -----
 title
 -----
 Structure from the checkpoint file:  "Grambow2020_wb97xd3_007352_forward_mol1.chk"
 Charge =  0 Multiplicity = 1

                         Standard orientation:
 ---------------------------------------------------------------------
 Center     Atomic      Atomic             Coordinates (Angstroms)
 Number     Number       Type             X           Y           Z
 ---------------------------------------------------------------------
      1          8           0        0.277986    1.454067   -0.383326
      2          6           0       -0.646626    0.824394    0.179145
      3          6           0       -1.503107   -0.135508   -0.603297
      4          7           0       -0.508516   -0.987912    0.103423
      5          6           0        0.831309   -1.034904   -0.461827
      6          6           0        1.656953    0.101098    0.128410
      7          6           0       -0.352515   -0.035965    1.322313
      8          1           0       -2.503928   -0.362515   -0.250237
      9          1           0       -1.426384   -0.066827   -1.687801
     10          1           0        0.806778   -0.997340   -1.551668
     11          1           0        1.295894   -1.980011   -0.158360
     12          1           0        2.279999    0.675441   -0.548824
     13          1           0        2.101275   -0.063827    1.096074
     14          1           0       -1.133985   -0.236760    2.054996
 ---------------------------------------------------------------------

 SCF Done:  E(RHF) =  -322.568558755     A.U. after    2 cycles

 The electronic state is 1-A.
 Alpha  occ. eigenvalues --  -20.56589 -15.65603 -11.36129 -11.34093 -11.29878
 Alpha  occ. eigenvalues --  -11.28900 -11.20166  -1.36727  -1.24104  -1.06389
 Alpha  occ. eigenvalues --   -0.92806  -0.91964  -0.81495  -0.73531  -0.70534
 Alpha  occ. eigenvalues --   -0.65898  -0.64158  -0.62710  -0.59472  -0.57892
 Alpha  occ. eigenvalues --   -0.54911  -0.52106  -0.48909  -0.42211  -0.37578
 Alpha  occ. eigenvalues --   -0.28864
 Alpha virt. eigenvalues --    0.02969   0.03705   0.04524   0.04893   0.06043
 Alpha virt. eigenvalues --    0.06495   0.06870   0.08184   0.08499   0.11069
 Alpha virt. eigenvalues --    0.12152   0.12641   0.13383   0.13572   0.13875

 Mulliken charges:
               1
     1  O   -0.687626
     2  C    0.182340
     3  C    0.916497
     4  N   -0.832382
     5  C    0.616279
     6  C    1.018184
     7  C    0.263885
     8  H   -0.214599
     9  H   -0.201833
    10  H   -0.131085
    11  H   -0.133373
    12  H   -0.206460
    13  H   -0.207370
    14  H   -0.382455
 Sum of Mulliken charges =  -0.00000

 Dipole moment (field-independent basis, Debye):
    X=              1.1224    Y=             -1.8655    Z=             -2.0201  Tot=              2.9699

 Test job not archived.
 1\1\GINC-SE163\SP\RHF\Aug-CC-pVDZ\C5H7N1O1\OHZDE\09-Apr-2025\0\\#t hf
 aug-cc-pvdz iop(5/13=1,5/36=2,99/5=2) pseudo=read geom=check guess=(re
 ad,tcheck) scf=(maxcycle=1)\\title\\0,1\O,0,0.51107573,1.60090789,-0.2
 8415585\C,0,0.91880383,0.51140541,-0.7473087\C,0,1.60772942,-0.4874552
 1,0.14423246\N,0,0.20634321,-0.97416939,0.02387814\C,0,-0.79520282,-0.
 28820813,0.82588049\C,0,-1.33233492,0.89883067,0.03658036\C,0,-0.01753
 471,-0.39830546,-1.40247857\H,0,2.28998102,-1.20838237,-0.2946547\H,0,
 1.92935187,-0.1156657,1.11638613\H,0,-0.39348931,0.01417773,1.79384569

 Normal termination of Gaussian 16 at Wed Apr  9 15:46:08 2025.
