 Gaussian 16, Revision C.01,

 ----------------------------------------------------------------------
 #t hf aug-cc-pvdz symm=none int=(grid=ultrafine) guess=(read,tcheck) s
 table=(opt,rrhf)
 ----------------------------------------------------------------------
 -----
 title
 -----
 Symbolic Z-matrix:
 Charge =  0 Multiplicity = 1

 SCF Done:  E(RHF) =  -306.661689641     A.U. after   14 cycles
 Normal termination of Gaussian 16 at Wed Apr  9 04:04:48 2025.
 Gaussian 16:  ES64L-G16RevC.01  3-Jul-2019

 ----------------------------------------------------------------------
 #t hf aug-cc-pvdz iop(5/13=1,5/36=2,99/5=2) pseudo=read geom=check gue
 ss=(read,tcheck) scf=(maxcycle=1)
 ----------------------------------------------------------------------
 -----
 title
 -----
 Structure from the checkpoint file:  "Grambow2020_wb97xd3_009206_forward_mol2.chk"
 Charge =  0 Multiplicity = 1

                         Standard orientation:
 ---------------------------------------------------------------------
 Center     Atomic      Atomic             Coordinates (Angstroms)
 Number     Number       Type             X           Y           Z
 ---------------------------------------------------------------------
      1          6           0        3.485871    0.433818    0.075518
      2          6           0        2.118410   -0.061797   -0.031495
      3          6           0        0.997269   -0.475534   -0.124059
      4          6           0       -0.381227   -0.953259   -0.217185
      5          6           0       -1.349073   -0.010555    0.458966
      6          6           0       -2.074304    1.006800   -0.289859
      7          8           0       -2.715221   -0.186972    0.139315
      8          1           0        4.181414   -0.236607   -0.431531
      9          1           0        3.576958    1.422467   -0.376951
     10          1           0        3.789690    0.509850    1.120700
     11          1           0       -0.461684   -1.940145    0.247473
     12          1           0       -0.672383   -1.070943   -1.264045
     13          1           0       -1.152752    0.171473    1.513723
     14          1           0       -2.403341    1.914407    0.206958
     15          1           0       -1.917808    1.088429   -1.362174
 ---------------------------------------------------------------------

 SCF Done:  E(RHF) =  -306.760605734     A.U. after    2 cycles

 The electronic state is 1-A.
 Alpha  occ. eigenvalues --  -20.58589 -11.30251 -11.29370 -11.26544 -11.25929
 Alpha  occ. eigenvalues --  -11.23831 -11.23277  -1.38680  -1.07505  -1.02473
 Alpha  occ. eigenvalues --   -0.94341  -0.91178  -0.83249  -0.72143  -0.67298
 Alpha  occ. eigenvalues --   -0.65444  -0.61779  -0.60186  -0.59280  -0.58601
 Alpha  occ. eigenvalues --   -0.55997  -0.53642  -0.46928  -0.45088  -0.37748
 Alpha  occ. eigenvalues --   -0.37543
 Alpha virt. eigenvalues --    0.03097   0.04195   0.04630   0.04665   0.06130
 Alpha virt. eigenvalues --    0.06538   0.06986   0.07554   0.08505   0.11245
 Alpha virt. eigenvalues --    0.12555   0.12830   0.13546   0.14456   0.14718

 Mulliken charges:
               1
     1  C    0.123713
     2  C   -0.802100
     3  C   -0.105250
     4  C   -0.011418
     5  C    0.576876
     6  C    0.874392
     7  O   -0.691459
     8  H    0.139600
     9  H    0.140365
    10  H    0.147539
    11  H    0.217176
    12  H    0.144317
    13  H   -0.318363
    14  H   -0.206328
    15  H   -0.229060
 Sum of Mulliken charges =  -0.00000

 Dipole moment (field-independent basis, Debye):
    X=              2.2456    Y=              1.2994    Z=             -0.1104  Tot=              2.5968

 Test job not archived.
 1\1\GINC-SE021\SP\RHF\Aug-CC-pVDZ\C6H8O1\OHZDE\09-Apr-2025\0\\#t hf au
 g-cc-pvdz iop(5/13=1,5/36=2,99/5=2) pseudo=read geom=check guess=(read
 ,tcheck) scf=(maxcycle=1)\\title\\0,1\C,0,2.62292622,-1.06807897,-1.55
 497438\C,0,1.6269078,-0.2948449,-0.82210751\C,0,0.81444406,0.34460269,
 -0.21571492\C,0,-0.20202385,1.10794327,0.50626209\C,0,-1.60018462,0.66
 82632,0.1396179\C,0,-2.33175555,-0.3016388,0.9432371\O,0,-2.63227475,1
 .08583799,1.01144394\H,0,3.63241721,-0.76456445,-1.27362789\H,0,2.5183
 2339,-2.13369925,-1.34530257\H,0,2.51250399,-0.9215867,-2.63053857\H,0

 Normal termination of Gaussian 16 at Wed Apr  9 04:04:52 2025.
