 Gaussian 16, Revision C.01,

 ----------------------------------------------------------------------
 #t hf aug-cc-pvdz symm=none int=(grid=ultrafine) guess=(read,tcheck) s
 table=(opt,rrhf)
 ----------------------------------------------------------------------
 -----
 title
 -----
 Symbolic Z-matrix:
 Charge =  0 Multiplicity = 1

 SCF Done:  E(RHF) =  -359.767064946     A.U. after   13 cycles
 Normal termination of Gaussian 16 at Wed Apr  9 16:26:03 2025.
 Gaussian 16:  ES64L-G16RevC.01  3-Jul-2019

 ----------------------------------------------------------------------
 #t hf aug-cc-pvdz iop(5/13=1,5/36=2,99/5=2) pseudo=read geom=check gue
 ss=(read,tcheck) scf=(maxcycle=1)
 ----------------------------------------------------------------------
 -----
 title
 -----
 Structure from the checkpoint file:  "Grambow2020_wb97xd3_008271_reverse_mol2.chk"
 Charge =  0 Multiplicity = 1

                         Standard orientation:
 ---------------------------------------------------------------------
 Center     Atomic      Atomic             Coordinates (Angstroms)
 Number     Number       Type             X           Y           Z
 ---------------------------------------------------------------------
      1          6           0        2.307092   -0.553513   -0.247446
      2          6           0        1.041163   -0.072480    0.413865
      3          6           0        0.513490    1.271681   -0.071278
      4          7           0       -2.310507   -0.751133   -0.104454
      5          6           0       -1.179232   -0.225560   -0.012411
      6          8           0       -0.896922    1.104092   -0.003612
      7          8           0       -0.046481   -0.944380    0.094647
      8          1           0        2.183103   -0.593881   -1.330609
      9          1           0        2.569546   -1.549082    0.109506
     10          1           0        3.132190    0.121924   -0.012709
     11          1           0        1.153749   -0.065546    1.503675
     12          1           0        0.807020    1.474767   -1.106102
     13          1           0        0.800977    2.109222    0.562037
     14          1           0       -3.020889   -0.037937   -0.219284
 ---------------------------------------------------------------------

 SCF Done:  E(RHF) =  -359.881796161     A.U. after    2 cycles

 The electronic state is 1-A.
 Alpha  occ. eigenvalues --  -20.62649 -20.62041 -15.58982 -11.40469 -11.32545
 Alpha  occ. eigenvalues --  -11.32128 -11.25253  -1.46403  -1.34814  -1.18165
 Alpha  occ. eigenvalues --   -1.06673  -0.96460  -0.87188  -0.83433  -0.75835
 Alpha  occ. eigenvalues --   -0.71071  -0.68002  -0.64687  -0.63426  -0.60671
 Alpha  occ. eigenvalues --   -0.57802  -0.57102  -0.55534  -0.52030  -0.48043
 Alpha  occ. eigenvalues --   -0.43882  -0.39616
 Alpha virt. eigenvalues --    0.02684   0.04178   0.04273   0.04986   0.06056
 Alpha virt. eigenvalues --    0.06486   0.07195   0.09802   0.10708   0.11469
 Alpha virt. eigenvalues --    0.13360   0.14029   0.14389   0.15042   0.15231

 Mulliken charges:
               1
     1  C    0.464512
     2  C   -0.135285
     3  C    0.944428
     4  N   -0.319641
     5  C    0.789628
     6  O   -0.617702
     7  O   -0.625120
     8  H    0.013687
     9  H   -0.020839
    10  H    0.025096
    11  H   -0.211292
    12  H   -0.193536
    13  H   -0.122275
    14  H    0.008337
 Sum of Mulliken charges =  -0.00000

 Dipole moment (field-independent basis, Debye):
    X=              4.0562    Y=              2.9518    Z=              0.2370  Tot=              5.0221

 Test job not archived.
 1\1\GINC-SE138\SP\RHF\Aug-CC-pVDZ\C4H7N1O2\OHZDE\09-Apr-2025\0\\#t hf
 aug-cc-pvdz iop(5/13=1,5/36=2,99/5=2) pseudo=read geom=check guess=(re
 ad,tcheck) scf=(maxcycle=1)\\title\\0,1\C,0,-1.727935,-0.81117165,-0.2
 6031499\C,0,-0.29351191,-0.41742559,-0.50258527\C,0,-0.00533287,1.0780
 0442,-0.46774873\N,0,2.49897578,-0.26215234,1.53231435\C,0,1.52529964,
 -0.01379726,0.78749515\O,0,1.29443182,1.13925966,0.10565016\O,0,0.5378
 4409,-0.89867324,0.55681421\H,0,-2.08231943,-0.40612442,0.68868149\H,0
 ,-1.82651348,-1.89607519,-0.23343083\H,0,-2.36158983,-0.43052379,-1.06

 Normal termination of Gaussian 16 at Wed Apr  9 16:26:08 2025.
