 Gaussian 16, Revision C.01,

 ----------------------------------------------------------------------
 #t hf aug-cc-pvdz symm=none int=(grid=ultrafine) guess=(read,tcheck) s
 table=(opt,rrhf)
 ----------------------------------------------------------------------
 -----
 title
 -----
 Symbolic Z-matrix:
 Charge =  0 Multiplicity = 1

 SCF Done:  E(RHF) =  -317.569508213     A.U. after   17 cycles
 Normal termination of Gaussian 16 at Wed Apr  9 16:11:51 2025.
 Gaussian 16:  ES64L-G16RevC.01  3-Jul-2019

 ----------------------------------------------------------------------
 #t hf aug-cc-pvdz iop(5/13=1,5/36=2,99/5=2) pseudo=read geom=check gue
 ss=(read,tcheck) scf=(maxcycle=1)
 ----------------------------------------------------------------------
 -----
 title
 -----
 Structure from the checkpoint file:  "Grambow2020_wb97xd3_007986_reverse_mol1.chk"
 Charge =  0 Multiplicity = 1

                         Standard orientation:
 ---------------------------------------------------------------------
 Center     Atomic      Atomic             Coordinates (Angstroms)
 Number     Number       Type             X           Y           Z
 ---------------------------------------------------------------------
      1          7           0       -2.077667   -0.001743    0.058653
      2          6           0       -0.683646   -0.001530    0.129736
      3          7           0       -0.111696    1.230634   -0.403114
      4          6           0        1.132807    1.177725   -0.093681
      5          6           0        1.339029    0.001578    0.718878
      6          6           0        1.136439   -1.175078   -0.093895
      7          7           0       -0.108003   -1.232325   -0.403573
      8          1           0       -2.508214   -0.840550    0.411620
      9          1           0       -2.505847    0.842922    0.400643
     10          1           0        1.870079    1.914427   -0.387178
     11          1           0       -0.200462   -0.001484    1.231671
     12          1           0        1.878232   -1.907447   -0.386737
 ---------------------------------------------------------------------

 SCF Done:  E(RHF) =  -317.657423974     A.U. after    2 cycles

 The electronic state is 1-A.
 Alpha  occ. eigenvalues --  -15.63800 -15.63799 -15.62177 -11.35081 -11.33013
 Alpha  occ. eigenvalues --  -11.31785 -11.31777  -1.31751  -1.18736  -1.16864
 Alpha  occ. eigenvalues --   -0.99343  -0.89435  -0.85277  -0.74194  -0.70572
 Alpha  occ. eigenvalues --   -0.68673  -0.66385  -0.59531  -0.59177  -0.55652
 Alpha  occ. eigenvalues --   -0.45415  -0.42835  -0.41769  -0.39823  -0.36092
 Alpha virt. eigenvalues --    0.02157   0.03494   0.03661   0.03962   0.06141
 Alpha virt. eigenvalues --    0.06545   0.09218   0.10121   0.10636   0.11520
 Alpha virt. eigenvalues --    0.12148   0.13527   0.14375   0.14549   0.15107

 Mulliken charges:
               1
     1  N   -0.324757
     2  C    0.991501
     3  N   -0.702360
     4  C    0.761355
     5  C   -0.658403
     6  C    0.761380
     7  N   -0.703243
     8  H   -0.014478
     9  H   -0.013751
    10  H   -0.190647
    11  H    0.283307
    12  H   -0.189905
 Sum of Mulliken charges =  -0.00000

 Dipole moment (field-independent basis, Debye):
    X=              2.0907    Y=              0.0146    Z=              1.4528  Tot=              2.5459

 Test job not archived.
 1\1\GINC-SE125\SP\RHF\Aug-CC-pVDZ\C4H5N3\OHZDE\09-Apr-2025\0\\#t hf au
 g-cc-pvdz iop(5/13=1,5/36=2,99/5=2) pseudo=read geom=check guess=(read
 ,tcheck) scf=(maxcycle=1)\\title\\0,1\N,0,2.03809249,-0.19938877,0.009
 39718\C,0,0.65121335,-0.05189502,0.06561982\N,0,-0.04140248,-1.3027460
 7,-0.22582294\C,0,-1.27220938,-1.07189433,0.05552491\C,0,-1.35699966,0
 .25287748,0.62463855\C,0,-1.04944674,1.22615816,-0.39727023\N,0,0.1918
 9595,1.10284362,-0.70004662\H,0,2.55050321,0.64629915,0.1986081\H,0,2.
 38607026,-0.99966253,0.51162045\H,0,-2.07955164,-1.77693615,-0.0979535

 Normal termination of Gaussian 16 at Wed Apr  9 16:11:56 2025.
