 Gaussian 16, Revision C.01,

 ----------------------------------------------------------------------
 #t hf aug-cc-pvdz symm=none int=(grid=ultrafine) guess=(read,tcheck) s
 table=(opt,rrhf)
 ----------------------------------------------------------------------
 -----
 title
 -----
 Symbolic Z-matrix:
 Charge =  0 Multiplicity = 1

 SCF Done:  E(RHF) =  -321.314109207     A.U. after   18 cycles
 Normal termination of Gaussian 16 at Wed Apr  9 03:39:31 2025.
 Gaussian 16:  ES64L-G16RevC.01  3-Jul-2019

 ----------------------------------------------------------------------
 #t hf aug-cc-pvdz iop(5/13=1,5/36=2,99/5=2) pseudo=read geom=check gue
 ss=(read,tcheck) scf=(maxcycle=1)
 ----------------------------------------------------------------------
 -----
 title
 -----
 Structure from the checkpoint file:  "Grambow2020_wb97xd3_007502_forward_mol1.chk"
 Charge =  0 Multiplicity = 1

                         Standard orientation:
 ---------------------------------------------------------------------
 Center     Atomic      Atomic             Coordinates (Angstroms)
 Number     Number       Type             X           Y           Z
 ---------------------------------------------------------------------
      1          8           0        0.957350    1.852622    0.049031
      2          6           0        0.359606    0.823950    0.030066
      3          6           0        0.836235   -0.599846    0.147176
      4          6           0        2.029326   -1.206015    0.003409
      5          6           0       -1.065531    0.530889   -0.408737
      6          6           0       -0.937742   -0.934592   -0.397091
      7          7           0       -1.819963   -0.300806    0.515919
      8          1           0        1.953193   -2.272729   -0.238725
      9          1           0       -1.611796    1.136619   -1.119175
     10          1           0        0.132377   -1.288056    0.711168
     11          1           0       -1.210510   -1.717977   -1.089123
     12          1           0       -1.513691   -0.259506    1.483236
 ---------------------------------------------------------------------

 SCF Done:  E(RHF) =  -321.406336660     A.U. after    2 cycles

 The electronic state is 1-A.
 Alpha  occ. eigenvalues --  -20.58523 -15.69124 -11.37025 -11.36221 -11.32049
 Alpha  occ. eigenvalues --  -11.28953 -11.26253  -1.38586  -1.32637  -1.09042
 Alpha  occ. eigenvalues --   -0.97914  -0.89804  -0.86926  -0.74284  -0.73281
 Alpha  occ. eigenvalues --   -0.70236  -0.66603  -0.60996  -0.59295  -0.56169
 Alpha  occ. eigenvalues --   -0.53215  -0.48421  -0.43725  -0.41956  -0.33734
 Alpha virt. eigenvalues --    0.02279   0.03144   0.03676   0.04907   0.05370
 Alpha virt. eigenvalues --    0.06816   0.08697   0.09828   0.10343   0.10434
 Alpha virt. eigenvalues --    0.11996   0.12621   0.13140   0.13536   0.14131

 Mulliken charges:
               1
     1  O   -0.371220
     2  C   -0.091399
     3  C    0.570872
     4  C   -0.023872
     5  C    0.930260
     6  C    0.003030
     7  N   -0.587814
     8  H   -0.161603
     9  H   -0.254443
    10  H    0.239436
    11  H   -0.314316
    12  H    0.061069
 Sum of Mulliken charges =   0.00000

 Dipole moment (field-independent basis, Debye):
    X=             -4.4063    Y=             -3.5345    Z=             -0.3708  Tot=              5.6609

 Test job not archived.
 1\1\GINC-SE292\SP\RHF\Aug-CC-pVDZ\C5H5N1O1\OHZDE\09-Apr-2025\0\\#t hf
 aug-cc-pvdz iop(5/13=1,5/36=2,99/5=2) pseudo=read geom=check guess=(re
 ad,tcheck) scf=(maxcycle=1)\\title\\0,1\O,0,1.10106135,2.12825328,-0.5
 3276175\C,0,0.51342973,1.13577083,-0.24037325\C,0,1.01159902,-0.219826
 69,0.18655425\C,0,2.19251107,-0.85887014,0.09357723\C,0,-0.9425324,0.7
 6169697,-0.46328963\C,0,-0.8008483,-0.65588812,-0.09657547\N,0,-1.6035
 4461,0.19806825,0.70343921\H,0,2.10474558,-1.95110314,0.13394535\H,0,-
 1.55570332,1.17785258,-1.25124515\H,0,0.36736109,-0.73544509,0.9651626

 Normal termination of Gaussian 16 at Wed Apr  9 03:39:36 2025.
