 Gaussian 16, Revision C.01,

 ----------------------------------------------------------------------
 #t hf aug-cc-pvdz symm=none int=(grid=ultrafine) guess=(read,tcheck) s
 table=(opt,rrhf)
 ----------------------------------------------------------------------
 -----
 title
 -----
 Symbolic Z-matrix:
 Charge =  0 Multiplicity = 1

 SCF Done:  E(RHF) =  -305.462108009     A.U. after   14 cycles
 Normal termination of Gaussian 16 at Wed Apr  9 03:52:39 2025.
 Gaussian 16:  ES64L-G16RevC.01  3-Jul-2019

 ----------------------------------------------------------------------
 #t hf aug-cc-pvdz iop(5/13=1,5/36=2,99/5=2) pseudo=read geom=check gue
 ss=(read,tcheck) scf=(maxcycle=1)
 ----------------------------------------------------------------------
 -----
 title
 -----
 Structure from the checkpoint file:  "Grambow2020_wb97xd3_008341_forward_mol2.chk"
 Charge =  0 Multiplicity = 1

                         Standard orientation:
 ---------------------------------------------------------------------
 Center     Atomic      Atomic             Coordinates (Angstroms)
 Number     Number       Type             X           Y           Z
 ---------------------------------------------------------------------
      1          8           0       -0.405067   -1.464250   -0.939573
      2          6           0       -0.634107   -0.790112    0.273947
      3          6           0        0.683826   -0.485720    1.011374
      4          6           0        1.578733    0.343806    0.211204
      5          6           0        2.292971    1.007675   -0.483639
      6          6           0       -1.437101    0.428506    0.090806
      7          6           0       -2.078541    1.426973   -0.063075
      8          1           0        0.089372   -0.875166   -1.518583
      9          1           0       -1.205881   -1.487223    0.890558
     10          1           0        1.172391   -1.437284    1.231300
     11          1           0        0.465442    0.008519    1.960552
     12          1           0        2.935235    1.604942   -1.086817
     13          1           0       -2.650713    2.313440   -0.204131
 ---------------------------------------------------------------------

 SCF Done:  E(RHF) =  -305.559427569     A.U. after    2 cycles

 The electronic state is 1-A.
 Alpha  occ. eigenvalues --  -20.58609 -11.33488 -11.27718 -11.25565 -11.25068
 Alpha  occ. eigenvalues --  -11.24566 -11.24449  -1.34706  -1.09274  -1.03966
 Alpha  occ. eigenvalues --   -0.99519  -0.90401  -0.76597  -0.73209  -0.70768
 Alpha  occ. eigenvalues --   -0.67733  -0.66316  -0.60619  -0.59627  -0.54207
 Alpha  occ. eigenvalues --   -0.49977  -0.41321  -0.40874  -0.39829  -0.39659
 Alpha virt. eigenvalues --    0.03329   0.03805   0.04019   0.05582   0.05971
 Alpha virt. eigenvalues --    0.06645   0.09723   0.09966   0.10546   0.11638
 Alpha virt. eigenvalues --    0.11977   0.12983   0.13303   0.13949   0.14411

 Mulliken charges:
               1
     1  O   -0.558677
     2  C    0.276512
     3  C   -0.022298
     4  C   -0.515671
     5  C    1.051236
     6  C   -0.506959
     7  C    1.133303
     8  H    0.160494
     9  H   -0.072505
    10  H    0.071360
    11  H    0.030896
    12  H   -0.524798
    13  H   -0.522892
 Sum of Mulliken charges =  -0.00000

 Dipole moment (field-independent basis, Debye):
    X=              0.4969    Y=              1.1982    Z=              0.7865  Tot=              1.5170

 Test job not archived.
 1\1\GINC-SE177\SP\RHF\Aug-CC-pVDZ\C6H6O1\OHZDE\09-Apr-2025\0\\#t hf au
 g-cc-pvdz iop(5/13=1,5/36=2,99/5=2) pseudo=read geom=check guess=(read
 ,tcheck) scf=(maxcycle=1)\\title\\0,1\O,0,-0.25699206,-0.57850714,1.78
 605546\C,0,0.34396174,-0.88792163,0.55209099\C,0,-0.67023896,-0.820557
 25,-0.6056053\C,0,-1.27028772,0.50371389,-0.73006154\C,0,-1.75482624,1
 .59717025,-0.78700109\C,0,1.52095448,-0.04879729,0.28019535\C,0,2.4697
 2704,0.64490653,0.05510305\H,0,-0.55461516,0.33633716,1.75107773\H,0,0
 .67620001,-1.92455345,0.64214988\H,0,-1.45335918,-1.55565778,-0.408408

 Normal termination of Gaussian 16 at Wed Apr  9 03:52:44 2025.
