 Gaussian 16, Revision C.01,

 ----------------------------------------------------------------------
 #t hf aug-cc-pvdz symm=none int=(grid=ultrafine) guess=(read,tcheck) s
 table=(opt,rrhf)
 ----------------------------------------------------------------------
 -----
 title
 -----
 Symbolic Z-matrix:
 Charge =  0 Multiplicity = 1

 SCF Done:  E(RHF) =  -360.942762018     A.U. after   14 cycles
 Normal termination of Gaussian 16 at Wed Apr  9 14:50:00 2025.
 Gaussian 16:  ES64L-G16RevC.01  3-Jul-2019

 ----------------------------------------------------------------------
 #t hf aug-cc-pvdz iop(5/13=1,5/36=2,99/5=2) pseudo=read geom=check gue
 ss=(read,tcheck) scf=(maxcycle=1)
 ----------------------------------------------------------------------
 -----
 title
 -----
 Structure from the checkpoint file:  "Grambow2020_wb97xd3_006620_reverse_mol2.chk"
 Charge =  0 Multiplicity = 1

                         Standard orientation:
 ---------------------------------------------------------------------
 Center     Atomic      Atomic             Coordinates (Angstroms)
 Number     Number       Type             X           Y           Z
 ---------------------------------------------------------------------
      1          6           0        0.701605    1.941871   -0.372925
      2          6           0        1.079738    0.645551    0.309333
      3          8           0        0.024398    0.264819    1.167504
      4          6           0        1.356247   -0.478398   -0.683799
      5          7           0        1.561932   -1.724653    0.049308
      6          6           0       -2.463488   -0.308228   -0.695327
      7          8           0       -3.216570   -0.334500    0.137706
      8          1           0        1.510662    2.294018   -1.016288
      9          1           0        0.493374    2.711683    0.370413
     10          1           0       -0.194912    1.801028   -0.980306
     11          1           0        1.993001    0.808537    0.906060
     12          1           0        0.167936   -0.674373    1.345414
     13          1           0        0.472977   -0.600233   -1.315926
     14          1           0        2.198124   -0.201927   -1.331897
     15          1           0        2.497300   -1.780333    0.429596
     16          1           0        1.420774   -2.533160   -0.537590
 ---------------------------------------------------------------------

 SCF Done:  E(RHF) =  -361.058008376     A.U. after    2 cycles

 The electronic state is 1-A.
 Alpha  occ. eigenvalues --  -20.66798 -20.55383 -15.62063 -11.35941 -11.28244
 Alpha  occ. eigenvalues --  -11.26321 -11.22116  -1.47940  -1.31628  -1.15941
 Alpha  occ. eigenvalues --   -1.02066  -0.90711  -0.80432  -0.80004  -0.71081
 Alpha  occ. eigenvalues --   -0.66082  -0.65187  -0.64577  -0.64501  -0.62948
 Alpha  occ. eigenvalues --   -0.55756  -0.54776  -0.54001  -0.53400  -0.52296
 Alpha  occ. eigenvalues --   -0.48247  -0.44159  -0.40263
 Alpha virt. eigenvalues --    0.03055   0.04122   0.04434   0.05333   0.06648
 Alpha virt. eigenvalues --    0.06816   0.07304   0.07917   0.09211   0.09512
 Alpha virt. eigenvalues --    0.11491   0.12394   0.13388   0.13620   0.14326

 Mulliken charges:
               1
     1  C    0.492856
     2  C   -0.075949
     3  O   -0.579271
     4  C    0.891308
     5  N   -0.464406
     6  C    0.214263
     7  O   -0.232453
     8  H    0.005744
     9  H   -0.045801
    10  H   -0.025175
    11  H   -0.188651
    12  H    0.197630
    13  H   -0.156416
    14  H   -0.087491
    15  H    0.049215
    16  H    0.004596
 Sum of Mulliken charges =  -0.00000

 Dipole moment (field-independent basis, Debye):
    X=              2.7487    Y=             -1.2516    Z=             -2.0399  Tot=              3.6446

 Test job not archived.
 1\1\GINC-SE129\SP\RHF\Aug-CC-pVDZ\C4H9N1O2\OHZDE\09-Apr-2025\0\\#t hf
 aug-cc-pvdz iop(5/13=1,5/36=2,99/5=2) pseudo=read geom=check guess=(re
 ad,tcheck) scf=(maxcycle=1)\\title\\0,1\C,0,-1.83194358,-0.2019309,-0.
 13071445\C,0,-0.40729826,-0.53975533,-0.51172041\O,0,0.09301749,0.4901
 5121,-1.33884522\C,0,0.50019679,-0.70000878,0.70351628\N,0,1.87847715,
 -0.8713775,0.25198633\C,0,0.15735144,3.09924052,0.44346037\O,0,0.31975
 144,3.80877191,-0.41208468\H,0,-2.27143418,-0.99568874,0.47698096\H,0,
 -2.44140005,-0.0766263,-1.02591449\H,0,-1.85982878,0.73121701,0.435810

 Normal termination of Gaussian 16 at Wed Apr  9 14:50:06 2025.
