 Gaussian 16, Revision C.01,

 ----------------------------------------------------------------------
 #t hf aug-cc-pvdz symm=none int=(grid=ultrafine) guess=(read,tcheck) s
 table=(opt,rrhf)
 ----------------------------------------------------------------------
 -----
 title
 -----
 Symbolic Z-matrix:
 Charge =  0 Multiplicity = 1

 SCF Done:  E(RHF) =  -301.599517191     A.U. after   16 cycles
 Normal termination of Gaussian 16 at Wed Apr  9 16:46:05 2025.
 Gaussian 16:  ES64L-G16RevC.01  3-Jul-2019

 ----------------------------------------------------------------------
 #t hf aug-cc-pvdz iop(5/13=1,5/36=2,99/5=2) pseudo=read geom=check gue
 ss=(read,tcheck) scf=(maxcycle=1)
 ----------------------------------------------------------------------
 -----
 title
 -----
 Structure from the checkpoint file:  "Grambow2020_wb97xd3_008867_reverse_mol2.chk"
 Charge =  0 Multiplicity = 1

                         Standard orientation:
 ---------------------------------------------------------------------
 Center     Atomic      Atomic             Coordinates (Angstroms)
 Number     Number       Type             X           Y           Z
 ---------------------------------------------------------------------
      1          7           0       -2.309129    1.104767    0.415550
      2          6           0       -1.717264    0.230041   -0.030046
      3          6           0        0.886599   -0.537099    1.165794
      4          6           0        0.450195   -1.010459   -0.155579
      5          6           0       -0.984746   -0.873343   -0.643433
      6          6           0        1.894195    1.085208   -0.533893
      7          7           0        1.249346    0.169698    0.107820
      8          1           0        1.507497   -0.915053    1.960815
      9          1           0        0.999508   -1.774527   -0.714089
     10          1           0       -1.012471   -0.741793   -1.728450
     11          1           0       -1.511843   -1.804533   -0.421716
     12          1           0        1.705867    1.207310   -1.588852
     13          1           0        2.556047    1.741261    0.011650
 ---------------------------------------------------------------------

 SCF Done:  E(RHF) =  -301.690588088     A.U. after    2 cycles

 The electronic state is 1-A.
 Alpha  occ. eigenvalues --  -15.74764 -15.63064 -11.32420 -11.29893 -11.29078
 Alpha  occ. eigenvalues --  -11.28134 -11.25540  -1.34073  -1.19076  -1.09413
 Alpha  occ. eigenvalues --   -1.03963  -0.85781  -0.78514  -0.73869  -0.68179
 Alpha  occ. eigenvalues --   -0.67481  -0.65265  -0.64023  -0.54511  -0.53095
 Alpha  occ. eigenvalues --   -0.51210  -0.48430  -0.45572  -0.45237  -0.28071
 Alpha virt. eigenvalues --    0.02418   0.03611   0.03727   0.04872   0.06203
 Alpha virt. eigenvalues --    0.06720   0.07542   0.09456   0.10831   0.11258
 Alpha virt. eigenvalues --    0.12076   0.12268   0.13126   0.14446   0.14788

 Mulliken charges:
               1
     1  N   -0.230392
     2  C   -0.018900
     3  C    0.224324
     4  C    0.395836
     5  C    0.160062
     6  C    0.684953
     7  N    0.152553
     8  H   -0.449908
     9  H   -0.441166
    10  H    0.073879
    11  H    0.076856
    12  H   -0.356201
    13  H   -0.271894
 Sum of Mulliken charges =  -0.00000

 Dipole moment (field-independent basis, Debye):
    X=              3.2357    Y=             -2.9224    Z=             -2.6845  Tot=              5.1202

 Test job not archived.
 1\1\GINC-SE174\SP\RHF\Aug-CC-pVDZ\C5H6N2\OHZDE\09-Apr-2025\0\\#t hf au
 g-cc-pvdz iop(5/13=1,5/36=2,99/5=2) pseudo=read geom=check guess=(read
 ,tcheck) scf=(maxcycle=1)\\title\\0,1\N,0,1.46532507,-0.76996447,2.446
 31426\C,0,0.9002385,-1.07456906,1.49663165\C,0,1.02625609,0.66316136,-
 0.90400413\C,0,0.03408871,-0.41080359,-0.75318518\C,0,0.1461439,-1.486
 93167,0.31697817\C,0,-1.06942251,1.76750088,0.05757389\N,0,-0.14652222
 ,0.97764399,-0.37850585\H,0,1.53926486,1.13800906,-1.72361559\H,0,-0.6
 2699697,-0.71554015,-1.57024124\H,0,-0.8456406,-1.81341087,0.64118388\

 Normal termination of Gaussian 16 at Wed Apr  9 16:46:09 2025.
