 Gaussian 16, Revision C.01,

 ----------------------------------------------------------------------
 #t hf aug-cc-pvdz symm=none int=(grid=ultrafine) guess=(read,tcheck) s
 table=(opt,rrhf)
 ----------------------------------------------------------------------
 -----
 title
 -----
 Symbolic Z-matrix:
 Charge =  0 Multiplicity = 1

 SCF Done:  E(RHF) =  -310.218686479     A.U. after   13 cycles

 1\1\GINC-SE114\Stability\RHF\Aug-CC-pVDZ\C6H14O1\OHZDE\09-Apr-2025\0\\
 #t hf aug-cc-pvdz symm=none int=(grid=ultrafine) guess=(read,tcheck) s
 table=(opt,rrhf)\\title\\0,1\C,0,2.23207282,-1.09131733,-0.74557959\O,
 0,1.04678544,-0.68023349,-0.12147913\C,0,1.11020114,0.6465416,0.343915
 83\C,0,-0.18346021,1.00970716,1.01504779\C,0,-0.81253043,2.13653286,0.
 70889015\C,0,-1.83111277,-1.04223027,-1.86175205\C,0,-0.68200999,0.046
 64569,2.04926675\H,0,3.08698389,-1.04370849,-0.05752394\H,0,2.45959604
 ,-0.47238675,-1.62366768\H,0,2.09271507,-2.12269477,-1.06671505\H,0,1.

 Normal termination of Gaussian 16 at Wed Apr  9 16:36:35 2025.
 Gaussian 16:  ES64L-G16RevC.01  3-Jul-2019

 ----------------------------------------------------------------------
 #t hf aug-cc-pvdz iop(5/13=1,5/36=2,99/5=2) pseudo=read geom=check gue
 ss=(read,tcheck) scf=(maxcycle=1)
 ----------------------------------------------------------------------
 -----
 title
 -----
 Structure from the checkpoint file:  "Grambow2020_wb97xd3_008661_reverse_mol2.chk"
 Charge =  0 Multiplicity = 1

                         Standard orientation:
 ---------------------------------------------------------------------
 Center     Atomic      Atomic             Coordinates (Angstroms)
 Number     Number       Type             X           Y           Z
 ---------------------------------------------------------------------
      1          6           0       -2.284799   -1.162503   -0.041409
      2          8           0       -1.063708   -0.539911    0.249646
      3          6           0        0.007728   -1.073258   -0.490970
      4          6           0        1.281683   -0.372665   -0.114042
      5          6           0        2.096755    0.099900   -1.047603
      6          6           0       -0.938568    2.830525   -0.008014
      7          6           0        1.571052   -0.276120    1.353130
      8          1           0       -2.253597   -2.236607    0.186379
      9          1           0       -2.556286   -1.040592   -1.098440
     10          1           0       -3.048295   -0.691364    0.576159
     11          1           0       -0.178311   -0.970170   -1.568488
     12          1           0        0.104819   -2.150258   -0.273202
     13          1           0        0.011883    2.397393   -0.316224
     14          1           0        3.040552    0.567172   -0.791001
     15          1           0        1.852332    0.033071   -2.101723
     16          1           0       -1.203459    2.442527    0.973892
     17          1           0       -1.707983    2.544867   -0.723879
     18          1           0       -0.857224    3.916301    0.030133
     19          1           0        0.793977    0.304563    1.853291
     20          1           0        2.536651    0.194893    1.534976
     21          1           0        1.571495   -1.267786    1.814413
 ---------------------------------------------------------------------

 SCF Done:  E(RHF) =  -310.324033862     A.U. after    2 cycles

 The electronic state is 1-A.
 Alpha  occ. eigenvalues --  -20.57212 -11.28877 -11.28355 -11.24649 -11.22476
 Alpha  occ. eigenvalues --  -11.22462 -11.20271  -1.34352  -1.08438  -0.96287
 Alpha  occ. eigenvalues --   -0.93295  -0.92421  -0.87637  -0.73644  -0.68157
 Alpha  occ. eigenvalues --   -0.66707  -0.65710  -0.60160  -0.58776  -0.56253
 Alpha  occ. eigenvalues --   -0.53786  -0.53380  -0.53149  -0.53042  -0.52055
 Alpha  occ. eigenvalues --   -0.50550  -0.47623  -0.43988  -0.35862
 Alpha virt. eigenvalues --    0.03357   0.04276   0.04532   0.04770   0.05907
 Alpha virt. eigenvalues --    0.06134   0.06361   0.06865   0.07260   0.08726
 Alpha virt. eigenvalues --    0.08759   0.09301   0.09759   0.10520   0.13056

 Mulliken charges:
               1
     1  C    0.757605
     2  O   -0.590237
     3  C    0.706923
     4  C   -0.755431
     5  C    1.187601
     6  C    0.728182
     7  C    0.413742
     8  H   -0.094694
     9  H   -0.075990
    10  H   -0.275032
    11  H   -0.303312
    12  H   -0.078714
    13  H   -0.172756
    14  H   -0.437647
    15  H   -0.395810
    16  H   -0.175648
    17  H   -0.165620
    18  H   -0.199794
    19  H    0.049707
    20  H   -0.164739
    21  H    0.041662
 Sum of Mulliken charges =  -0.00000

 Dipole moment (field-independent basis, Debye):
    X=             -0.4053    Y=             -1.3351    Z=             -0.5148  Tot=              1.4872

 Test job not archived.
 1\1\GINC-SE114\SP\RHF\Aug-CC-pVDZ\C6H14O1\OHZDE\09-Apr-2025\0\\#t hf a
 ug-cc-pvdz iop(5/13=1,5/36=2,99/5=2) pseudo=read geom=check guess=(rea
 d,tcheck) scf=(maxcycle=1)\\title\\0,1\C,0,2.23207282,-1.09131733,-0.7
 4557959\O,0,1.04678544,-0.68023349,-0.12147913\C,0,1.11020114,0.646541
 6,0.34391583\C,0,-0.18346021,1.00970716,1.01504779\C,0,-0.81253043,2.1
 3653286,0.70889015\C,0,-1.83111277,-1.04223027,-1.86175205\C,0,-0.6820
 0999,0.04664569,2.04926675\H,0,3.08698389,-1.04370849,-0.05752394\H,0,
 2.45959604,-0.47238675,-1.62366768\H,0,2.09271507,-2.12269477,-1.06671

 Normal termination of Gaussian 16 at Wed Apr  9 16:36:44 2025.
