 Gaussian 16, Revision C.01,

 ----------------------------------------------------------------------
 #t hf aug-cc-pvdz symm=none int=(grid=ultrafine) guess=(read,tcheck) s
 table=(opt,rrhf)
 ----------------------------------------------------------------------
 -----
 title
 -----
 Symbolic Z-matrix:
 Charge =  0 Multiplicity = 1

 SCF Done:  E(RHF) =  -320.593192637     A.U. after   15 cycles
 Normal termination of Gaussian 16 at Wed Apr  9 14:19:04 2025.
 Gaussian 16:  ES64L-G16RevC.01  3-Jul-2019

 ----------------------------------------------------------------------
 #t hf aug-cc-pvdz iop(5/13=1,5/36=2,99/5=2) pseudo=read geom=check gue
 ss=(read,tcheck) scf=(maxcycle=1)
 ----------------------------------------------------------------------
 -----
 title
 -----
 Structure from the checkpoint file:  "Grambow2020_b97d3_007148_reverse_mol1.chk"
 Charge =  0 Multiplicity = 1

                         Standard orientation:
 ---------------------------------------------------------------------
 Center     Atomic      Atomic             Coordinates (Angstroms)
 Number     Number       Type             X           Y           Z
 ---------------------------------------------------------------------
      1          8           0        2.078668    0.023742    0.078383
      2          6           0        0.874225   -0.022043    0.012678
      3          7           0       -0.011488    1.065757   -0.207612
      4          6           0       -1.330916    0.736220   -0.117001
      5          6           0       -1.285902   -0.768624   -0.162605
      6          8           0        0.100698   -1.140280    0.124865
      7          1           0        0.351960    2.011476   -0.263931
      8          1           0       -1.765891    0.903854    1.639989
      9          1           0       -2.036901    1.265722    0.684979
     10          1           0       -1.504108   -1.116402   -1.184142
     11          1           0       -1.944016   -1.265961    0.551966
 ---------------------------------------------------------------------

 SCF Done:  E(RHF) =  -320.694213154     A.U. after    2 cycles

 The electronic state is 1-A.
 Alpha  occ. eigenvalues --  -20.64085 -20.57400 -15.70331 -11.44690 -11.34154
 Alpha  occ. eigenvalues --  -11.34071  -1.44647  -1.35168  -1.24923  -1.03772
 Alpha  occ. eigenvalues --   -0.88963  -0.86213  -0.76098  -0.73682  -0.68505
 Alpha  occ. eigenvalues --   -0.67056  -0.61894  -0.60431  -0.59359  -0.51612
 Alpha  occ. eigenvalues --   -0.49806  -0.48176  -0.34689
 Alpha virt. eigenvalues --    0.02388   0.03794   0.03936   0.05466   0.06603
 Alpha virt. eigenvalues --    0.09130   0.10177   0.10347   0.10865   0.11507
 Alpha virt. eigenvalues --    0.13461   0.13782   0.14785   0.15583   0.16105

 Mulliken charges:
               1
     1  O   -0.404291
     2  C    0.835572
     3  N   -0.363858
     4  C    0.122412
     5  C    0.782111
     6  O   -0.609017
     7  H   -0.070347
     8  H   -0.083318
     9  H    0.003624
    10  H   -0.062781
    11  H   -0.150107
 Sum of Mulliken charges =  -0.00000

 Dipole moment (field-independent basis, Debye):
    X=             -3.7534    Y=              1.4012    Z=             -1.0689  Tot=              4.1465

 Test job not archived.
 1\1\GINC-SE016\SP\RHF\Aug-CC-pVDZ\C3H5N1O2\OHZDE\09-Apr-2025\0\\#t hf
 aug-cc-pvdz iop(5/13=1,5/36=2,99/5=2) pseudo=read geom=check guess=(re
 ad,tcheck) scf=(maxcycle=1)\\title\\0,1\O,0,2.61868701,-0.07574352,-0.
 39934057\C,0,1.43615289,0.0806765,-0.21429526\N,0,0.6093503,-0.6413770
 4,0.68646056\C,0,-0.71421297,-0.32758929,0.60036522\C,0,-0.68678929,0.
 94512971,-0.20467951\O,0,0.63697892,1.00079869,-0.82754771\H,0,0.99201
 047,-1.42101161,1.21123746\H,0,-1.39821332,-1.40709529,-0.69235623\H,0
 ,-1.52121895,-1.1621989,0.32810189\H,0,-0.75905851,1.81290719,0.468997

 Normal termination of Gaussian 16 at Wed Apr  9 14:19:08 2025.
