 Gaussian 16, Revision C.01,

 ----------------------------------------------------------------------
 #t hf aug-cc-pvdz symm=none int=(grid=ultrafine) guess=(read,tcheck) s
 table=(opt,rrhf)
 ----------------------------------------------------------------------
 -----
 title
 -----
 Symbolic Z-matrix:
 Charge =  0 Multiplicity = 1

 SCF Done:  E(RHF) =  -317.583117429     A.U. after   17 cycles
 Normal termination of Gaussian 16 at Wed Apr  9 16:16:48 2025.
 Gaussian 16:  ES64L-G16RevC.01  3-Jul-2019

 ----------------------------------------------------------------------
 #t hf aug-cc-pvdz iop(5/13=1,5/36=2,99/5=2) pseudo=read geom=check gue
 ss=(read,tcheck) scf=(maxcycle=1)
 ----------------------------------------------------------------------
 -----
 title
 -----
 Structure from the checkpoint file:  "Grambow2020_wb97xd3_008052_forward_mol1.chk"
 Charge =  0 Multiplicity = 1

                         Standard orientation:
 ---------------------------------------------------------------------
 Center     Atomic      Atomic             Coordinates (Angstroms)
 Number     Number       Type             X           Y           Z
 ---------------------------------------------------------------------
      1          7           0        2.375961   -0.594015   -0.542268
      2          6           0        1.541203    0.008489   -0.029657
      3          6           0        0.620929    0.900574    0.583935
      4          6           0       -0.651261    1.282657    0.033553
      5          7           0       -1.514905    0.457764   -0.606179
      6          6           0       -1.431045   -0.823700   -0.195533
      7          7           0       -0.515052   -1.304985    0.577727
      8          1           0        1.051698    1.537328    1.353320
      9          1           0       -1.090721    2.173688    0.489521
     10          1           0        0.182935    1.802834   -0.648114
     11          1           0       -2.271610   -1.434558   -0.533326
     12          1           0       -0.773279   -2.198760    0.979857
 ---------------------------------------------------------------------

 SCF Done:  E(RHF) =  -317.675360163     A.U. after    2 cycles

 The electronic state is 1-A.
 Alpha  occ. eigenvalues --  -15.67380 -15.59486 -15.59271 -11.40759 -11.34455
 Alpha  occ. eigenvalues --  -11.32103 -11.31220  -1.25403  -1.22037  -1.14335
 Alpha  occ. eigenvalues --   -1.08139  -0.92849  -0.80898  -0.75001  -0.70883
 Alpha  occ. eigenvalues --   -0.67298  -0.62905  -0.59224  -0.57440  -0.53359
 Alpha  occ. eigenvalues --   -0.50135  -0.45675  -0.41939  -0.40060  -0.32276
 Alpha virt. eigenvalues --   -0.00001   0.01713   0.04128   0.04224   0.04921
 Alpha virt. eigenvalues --    0.06636   0.08938   0.10262   0.10628   0.10832
 Alpha virt. eigenvalues --    0.12386   0.12826   0.13150   0.13878   0.14503

 Mulliken charges:
               1
     1  N   -0.229278
     2  C   -0.166251
     3  C    0.533463
     4  C    0.424554
     5  N   -0.599568
     6  C    0.701733
     7  N   -0.352632
     8  H   -0.236531
     9  H   -0.165350
    10  H    0.342462
    11  H   -0.221747
    12  H   -0.030854
 Sum of Mulliken charges =  -0.00000

 Dipole moment (field-independent basis, Debye):
    X=             -0.1031    Y=              3.1595    Z=              2.6891  Tot=              4.1502

 Test job not archived.
 1\1\GINC-SE100\SP\RHF\Aug-CC-pVDZ\C4H5N3\OHZDE\09-Apr-2025\0\\#t hf au
 g-cc-pvdz iop(5/13=1,5/36=2,99/5=2) pseudo=read geom=check guess=(read
 ,tcheck) scf=(maxcycle=1)\\title\\0,1\N,0,2.31197142,-0.71669135,1.347
 99864\C,0,1.57790805,-0.63071097,0.46688575\C,0,0.72973193,-0.69363425
 ,-0.67147002\C,0,-0.70560228,-0.76714293,-0.62918144\N,0,-1.50671785,-
 0.08333357,0.22299585\C,0,-0.98248021,1.09436627,0.61797815\N,0,0.2272
 6583,1.48896019,0.39567225\H,0,1.22572198,-1.00042306,-1.58953601\H,0,
 -1.16858158,-1.08878297,-1.56575365\H,0,-0.30050604,-1.82279129,-0.238

 Normal termination of Gaussian 16 at Wed Apr  9 16:16:52 2025.
