 Gaussian 16, Revision C.01,

 ----------------------------------------------------------------------
 #t hf aug-cc-pvdz symm=none int=(grid=ultrafine) guess=(read,tcheck) s
 table=(opt,rrhf)
 ----------------------------------------------------------------------
 -----
 title
 -----
 Symbolic Z-matrix:
 Charge =  0 Multiplicity = 1

 SCF Done:  E(RHF) =  -308.869166245     A.U. after   17 cycles

 1\1\GINC-SE184\Stability\RHF\Aug-CC-pVDZ\C6H12O1\OHZDE\09-Apr-2025\0\\
 #t hf aug-cc-pvdz symm=none int=(grid=ultrafine) guess=(read,tcheck) s
 table=(opt,rrhf)\\title\\0,1\C,0,2.10106084,-0.15194463,-1.16827103\O,
 0,0.70451236,-0.28177074,-1.12435928\C,0,0.13947692,-0.17786696,0.1841
 7675\C,0,0.03515761,1.4857715,0.43719418\C,0,-0.74657495,1.9364015,-0.
 65052173\C,0,-1.19671657,-0.61272442,0.3965489\C,0,-1.49944376,-1.9726
 3297,0.90912488\H,0,2.59334392,-0.82858826,-0.45754882\H,0,2.44127284,
 0.87184993,-0.96337329\H,0,2.40994162,-0.41652201,-2.17880606\H,0,0.85

 Normal termination of Gaussian 16 at Wed Apr  9 03:54:06 2025.
 Gaussian 16:  ES64L-G16RevC.01  3-Jul-2019

 ----------------------------------------------------------------------
 #t hf aug-cc-pvdz iop(5/13=1,5/36=2,99/5=2) pseudo=read geom=check gue
 ss=(read,tcheck) scf=(maxcycle=1)
 ----------------------------------------------------------------------
 -----
 title
 -----
 Structure from the checkpoint file:  "Grambow2020_wb97xd3_008401_forward_mol1.chk"
 Charge =  0 Multiplicity = 1

                         Standard orientation:
 ---------------------------------------------------------------------
 Center     Atomic      Atomic             Coordinates (Angstroms)
 Number     Number       Type             X           Y           Z
 ---------------------------------------------------------------------
      1          6           0        1.839659   -1.478747    0.049429
      2          8           0        0.780354   -0.797955   -0.569865
      3          6           0       -0.142917   -0.188135    0.334578
      4          6           0        0.607828    1.265055    0.743495
      5          6           0        0.811880    1.893763   -0.505660
      6          6           0       -1.408354    0.237661   -0.152231
      7          6           0       -2.615335   -0.618287   -0.032732
      8          1           0        1.478222   -2.190373    0.803264
      9          1           0        2.559284   -0.802281    0.529445
     10          1           0        2.360620   -2.028612   -0.733410
     11          1           0       -0.243539   -0.894735    1.179138
     12          1           0        0.001415    1.804788    1.463768
     13          1           0        1.508728    0.882976    1.229249
     14          1           0        1.535662    1.506212   -1.206505
     15          1           0        0.291707    2.802186   -0.779451
     16          1           0       -1.504536    1.237962   -0.547430
     17          1           0       -3.538550   -0.040698    0.040983
     18          1           0       -2.717898   -1.297088   -0.889761
     19          1           0       -2.530520   -1.264553    0.848348
 ---------------------------------------------------------------------

 SCF Done:  E(RHF) =  -308.968030933     A.U. after    2 cycles

 The electronic state is 1-A.
 Alpha  occ. eigenvalues --  -20.56732 -11.30612 -11.28029 -11.25982 -11.24703
 Alpha  occ. eigenvalues --  -11.23820 -11.22735  -1.33468  -1.07995  -1.01579
 Alpha  occ. eigenvalues --   -0.94690  -0.88715  -0.82089  -0.76661  -0.68518
 Alpha  occ. eigenvalues --   -0.64974  -0.64690  -0.61935  -0.59482  -0.58292
 Alpha  occ. eigenvalues --   -0.55626  -0.54761  -0.51762  -0.50722  -0.49293
 Alpha  occ. eigenvalues --   -0.47948  -0.41283  -0.22671
 Alpha virt. eigenvalues --    0.02471   0.03458   0.04224   0.04677   0.04743
 Alpha virt. eigenvalues --    0.06222   0.06438   0.06536   0.06881   0.07942
 Alpha virt. eigenvalues --    0.08743   0.09087   0.09964   0.12053   0.13120

 Mulliken charges:
               1
     1  C    0.712746
     2  O   -0.727885
     3  C    0.326113
     4  C    0.424321
     5  C    0.885282
     6  C    0.253246
     7  C    0.231218
     8  H   -0.071909
     9  H   -0.170820
    10  H   -0.215835
    11  H   -0.239875
    12  H   -0.181190
    13  H   -0.059642
    14  H   -0.288465
    15  H   -0.307534
    16  H   -0.552191
    17  H   -0.049935
    18  H    0.069271
    19  H   -0.036916
 Sum of Mulliken charges =  -0.00000

 Dipole moment (field-independent basis, Debye):
    X=              0.4715    Y=              0.0433    Z=              1.7030  Tot=              1.7676

 Test job not archived.
 1\1\GINC-SE184\SP\RHF\Aug-CC-pVDZ\C6H12O1\OHZDE\09-Apr-2025\0\\#t hf a
 ug-cc-pvdz iop(5/13=1,5/36=2,99/5=2) pseudo=read geom=check guess=(rea
 d,tcheck) scf=(maxcycle=1)\\title\\0,1\C,0,2.10106084,-0.15194463,-1.1
 6827103\O,0,0.70451236,-0.28177074,-1.12435928\C,0,0.13947692,-0.17786
 696,0.18417675\C,0,0.03515761,1.4857715,0.43719418\C,0,-0.74657495,1.9
 364015,-0.65052173\C,0,-1.19671657,-0.61272442,0.3965489\C,0,-1.499443
 76,-1.97263297,0.90912488\H,0,2.59334392,-0.82858826,-0.45754882\H,0,2
 .44127284,0.87184993,-0.96337329\H,0,2.40994162,-0.41652201,-2.1788060

 Normal termination of Gaussian 16 at Wed Apr  9 03:54:14 2025.
