 Gaussian 16, Revision C.01,

 ----------------------------------------------------------------------
 #t hf aug-cc-pvdz symm=none int=(grid=ultrafine) guess=(read,tcheck) s
 table=(opt,rrhf)
 ----------------------------------------------------------------------
 -----
 title
 -----
 Symbolic Z-matrix:
 Charge =  0 Multiplicity = 1

 SCF Done:  E(RHF) =  -322.528646022     A.U. after   16 cycles
 Normal termination of Gaussian 16 at Wed Apr  9 04:04:46 2025.
 Gaussian 16:  ES64L-G16RevC.01  3-Jul-2019

 ----------------------------------------------------------------------
 #t hf aug-cc-pvdz iop(5/13=1,5/36=2,99/5=2) pseudo=read geom=check gue
 ss=(read,tcheck) scf=(maxcycle=1)
 ----------------------------------------------------------------------
 -----
 title
 -----
 Structure from the checkpoint file:  "Grambow2020_wb97xd3_009200_forward_mol1.chk"
 Charge =  0 Multiplicity = 1

                         Standard orientation:
 ---------------------------------------------------------------------
 Center     Atomic      Atomic             Coordinates (Angstroms)
 Number     Number       Type             X           Y           Z
 ---------------------------------------------------------------------
      1          8           0        3.028839    0.772458    0.011828
      2          6           0        2.396705   -0.456879    0.293202
      3          6           0        0.962258   -0.455914   -0.005994
      4          6           0       -0.206204   -0.439993   -0.277822
      5          6           0       -1.615962   -0.403664   -0.597627
      6          6           0       -2.936123   -0.035781    0.728963
      7          7           0       -2.310052    0.856495   -0.200001
      8          1           0        2.857975    1.001578   -0.904073
      9          1           0        2.868502   -1.285654   -0.248581
     10          1           0        2.545918   -0.639718    1.358410
     11          1           0       -1.859800   -0.654177   -1.627709
     12          1           0       -2.313931   -0.049435    1.656370
     13          1           0       -2.165088   -1.230867   -0.013266
     14          1           0       -1.597964    1.436533    0.239900
 ---------------------------------------------------------------------

 SCF Done:  E(RHF) =  -322.625712789     A.U. after    2 cycles

 The electronic state is 1-A.
 Alpha  occ. eigenvalues --  -20.59474 -15.64903 -11.33550 -11.33160 -11.30224
 Alpha  occ. eigenvalues --  -11.26743 -11.26224  -1.34981  -1.24747  -1.07196
 Alpha  occ. eigenvalues --   -0.98776  -0.92841  -0.85097  -0.75885  -0.72728
 Alpha  occ. eigenvalues --   -0.68372  -0.64841  -0.63280  -0.60100  -0.57857
 Alpha  occ. eigenvalues --   -0.56114  -0.50513  -0.46614  -0.42474  -0.40641
 Alpha  occ. eigenvalues --   -0.33590
 Alpha virt. eigenvalues --    0.02760   0.03932   0.04396   0.04504   0.06070
 Alpha virt. eigenvalues --    0.06412   0.07397   0.08283   0.10186   0.10460
 Alpha virt. eigenvalues --    0.12352   0.12438   0.13563   0.14158   0.14755

 Mulliken charges:
               1
     1  O   -0.523728
     2  C    0.718944
     3  C   -0.738536
     4  C    0.195037
     5  C    0.255559
     6  C    0.104785
     7  N   -0.570681
     8  H    0.150144
     9  H    0.088414
    10  H    0.045602
    11  H   -0.074628
    12  H   -0.086348
    13  H    0.349033
    14  H    0.086402
 Sum of Mulliken charges =   0.00000

 Dipole moment (field-independent basis, Debye):
    X=              2.3994    Y=             -1.1352    Z=             -0.6442  Tot=              2.7315

 Test job not archived.
 1\1\GINC-SE162\SP\RHF\Aug-CC-pVDZ\C5H7N1O1\OHZDE\09-Apr-2025\0\\#t hf
 aug-cc-pvdz iop(5/13=1,5/36=2,99/5=2) pseudo=read geom=check guess=(re
 ad,tcheck) scf=(maxcycle=1)\\title\\0,1\O,0,1.91466256,-0.07613292,2.8
 5796453\C,0,1.94943842,0.69578657,1.67772421\C,0,0.76066506,0.52868562
 ,0.83745558\C,0,-0.23057717,0.39324764,0.17523053\C,0,-1.42461594,0.21
 13739,-0.6198852\C,0,-1.48468993,-1.02538049,-2.07068988\N,0,-1.900005
 97,-1.20054528,-0.71130641\H,0,1.1099659,0.13325819,3.33669449\H,0,2.0
 7749802,1.76262016,1.89785104\H,0,2.83304762,0.37051865,1.12654663\H,0

 Normal termination of Gaussian 16 at Wed Apr  9 04:04:50 2025.
