 Gaussian 16, Revision C.01,

 ----------------------------------------------------------------------
 #t hf aug-cc-pvdz symm=none int=(grid=ultrafine) guess=(read,tcheck) s
 table=(opt,rrhf)
 ----------------------------------------------------------------------
 -----
 title
 -----
 Symbolic Z-matrix:
 Charge =  0 Multiplicity = 1

 SCF Done:  E(RHF) =  -380.624356948     A.U. after   15 cycles
 Normal termination of Gaussian 16 at Wed Apr  9 16:31:06 2025.
 Gaussian 16:  ES64L-G16RevC.01  3-Jul-2019

 ----------------------------------------------------------------------
 #t hf aug-cc-pvdz iop(5/13=1,5/36=2,99/5=2) pseudo=read geom=check gue
 ss=(read,tcheck) scf=(maxcycle=1)
 ----------------------------------------------------------------------
 -----
 title
 -----
 Structure from the checkpoint file:  "Grambow2020_wb97xd3_008485_forward_mol1.chk"
 Charge =  0 Multiplicity = 1

                         Standard orientation:
 ---------------------------------------------------------------------
 Center     Atomic      Atomic             Coordinates (Angstroms)
 Number     Number       Type             X           Y           Z
 ---------------------------------------------------------------------
      1          6           0        2.838992   -0.251247   -0.484345
      2          8           0        1.607354   -0.738005    0.041152
      3          6           0        0.696236    0.202871    0.348521
      4          8           0        0.892654    1.382508    0.194683
      5          6           0       -0.569053   -0.394165    0.818381
      6          6           0       -2.120040   -0.039600   -0.760139
      7          8           0       -3.286414   -0.003935   -0.118694
      8          1           0        3.342046    0.385629    0.243716
      9          1           0        3.439768   -1.132372   -0.695128
     10          1           0        2.669183    0.322395   -1.395701
     11          1           0       -0.467819   -1.401457    1.217506
     12          1           0       -1.122223    0.269494    1.471079
     13          1           0       -1.732357    0.980061   -0.837024
     14          1           0       -1.224055   -0.779404   -0.326428
     15          1           0       -3.690106   -0.876047   -0.149645
 ---------------------------------------------------------------------

 SCF Done:  E(RHF) =  -380.748579429     A.U. after    2 cycles

 The electronic state is 1-A.
 Alpha  occ. eigenvalues --  -20.63396 -20.61484 -20.55392 -11.39010 -11.32732
 Alpha  occ. eigenvalues --  -11.29364 -11.25763  -1.42119  -1.39902  -1.32222
 Alpha  occ. eigenvalues --   -1.03867  -0.95865  -0.90622  -0.78628  -0.74233
 Alpha  occ. eigenvalues --   -0.70441  -0.69087  -0.68393  -0.66853  -0.62472
 Alpha  occ. eigenvalues --   -0.60566  -0.58309  -0.55267  -0.53683  -0.51979
 Alpha  occ. eigenvalues --   -0.47758  -0.46845  -0.33007
 Alpha virt. eigenvalues --    0.02975   0.03969   0.05001   0.05361   0.06133
 Alpha virt. eigenvalues --    0.06690   0.07138   0.07930   0.08571   0.10416
 Alpha virt. eigenvalues --    0.12205   0.12946   0.13750   0.14513   0.14985

 Mulliken charges:
               1
     1  C    0.754480
     2  O   -0.577670
     3  C    0.590143
     4  O   -0.512202
     5  C   -0.140819
     6  C    0.331135
     7  O   -0.415385
     8  H   -0.071371
     9  H   -0.249050
    10  H   -0.065751
    11  H   -0.178973
    12  H   -0.004808
    13  H   -0.123013
    14  H    0.453604
    15  H    0.209680
 Sum of Mulliken charges =   0.00000

 Dipole moment (field-independent basis, Debye):
    X=             -0.5925    Y=             -2.8689    Z=              0.2015  Tot=              2.9364

 Test job not archived.
 1\1\GINC-SE037\SP\RHF\Aug-CC-pVDZ\C4H8O3\OHZDE\09-Apr-2025\0\\#t hf au
 g-cc-pvdz iop(5/13=1,5/36=2,99/5=2) pseudo=read geom=check guess=(read
 ,tcheck) scf=(maxcycle=1)\\title\\0,1\C,0,-2.75076119,0.36661527,-0.31
 911414\O,0,-1.54564444,0.30753372,0.43865499\C,0,-0.5985341,-0.5180189
 6,-0.04228709\O,0,-0.74360659,-1.17003826,-1.04608829\C,0,0.63606586,-
 0.46255969,0.7644739\C,0,2.2151163,0.54011616,-0.47012764\O,0,3.375991
 43,0.05265659,-0.03664859\H,0,-3.23320464,-0.61065075,-0.34989987\H,0,
 -3.38618972,1.08623957,0.19089943\H,0,-2.54851581,0.69146154,-1.339917

 Normal termination of Gaussian 16 at Wed Apr  9 16:31:10 2025.
