 Gaussian 16, Revision C.01,

 ----------------------------------------------------------------------
 #t hf aug-cc-pvdz symm=none int=(grid=ultrafine) guess=(read,tcheck) s
 table=(opt,rrhf)
 ----------------------------------------------------------------------
 -----
 title
 -----
 Symbolic Z-matrix:
 Charge =  0 Multiplicity = 1

 SCF Done:  E(RHF) =  -305.318231824     A.U. after   16 cycles
 Normal termination of Gaussian 16 at Wed Apr  9 03:52:37 2025.
 Gaussian 16:  ES64L-G16RevC.01  3-Jul-2019

 ----------------------------------------------------------------------
 #t hf aug-cc-pvdz iop(5/13=1,5/36=2,99/5=2) pseudo=read geom=check gue
 ss=(read,tcheck) scf=(maxcycle=1)
 ----------------------------------------------------------------------
 -----
 title
 -----
 Structure from the checkpoint file:  "Grambow2020_wb97xd3_008346_reverse_mol1.chk"
 Charge =  0 Multiplicity = 1

                         Standard orientation:
 ---------------------------------------------------------------------
 Center     Atomic      Atomic             Coordinates (Angstroms)
 Number     Number       Type             X           Y           Z
 ---------------------------------------------------------------------
      1          8           0       -0.387031   -0.410196    1.267640
      2          6           0        0.475220   -0.817556    0.257074
      3          6           0       -0.497047   -0.890937   -0.952030
      4          6           0       -1.405977    0.125658   -0.405011
      5          6           0       -2.008614    1.144901   -0.023876
      6          6           0        1.595979    0.108160    0.001090
      7          6           0        2.494464    0.872323   -0.209463
      8          1           0       -1.277843    0.781586    0.930380
      9          1           0        0.891837   -1.813409    0.450360
     10          1           0       -0.986974   -1.863842   -0.982045
     11          1           0       -0.120096   -0.617657   -1.939291
     12          1           0       -2.632691    1.989761   -0.229404
     13          1           0        3.297855    1.549836   -0.377817
 ---------------------------------------------------------------------

 SCF Done:  E(RHF) =  -305.412829137     A.U. after    2 cycles

 The electronic state is 1-A.
 Alpha  occ. eigenvalues --  -20.48630 -11.37291 -11.31035 -11.28509 -11.28475
 Alpha  occ. eigenvalues --  -11.23659 -11.22982  -1.26716  -1.11976  -1.04860
 Alpha  occ. eigenvalues --   -1.01101  -0.87861  -0.76248  -0.71813  -0.69349
 Alpha  occ. eigenvalues --   -0.67475  -0.66003  -0.59554  -0.56713  -0.51645
 Alpha  occ. eigenvalues --   -0.46481  -0.40422  -0.40077  -0.38729  -0.37587
 Alpha virt. eigenvalues --    0.02705   0.03667   0.04087   0.05255   0.06025
 Alpha virt. eigenvalues --    0.07216   0.08215   0.08793   0.09813   0.10953
 Alpha virt. eigenvalues --    0.11971   0.12447   0.12938   0.13391   0.14004

 Mulliken charges:
               1
     1  O   -1.021722
     2  C    0.513184
     3  C    0.117317
     4  C   -0.154949
     5  C    0.506840
     6  C   -0.625445
     7  C    1.158537
     8  H    0.483534
     9  H   -0.128242
    10  H    0.045828
    11  H   -0.025830
    12  H   -0.336012
    13  H   -0.533041
 Sum of Mulliken charges =   0.00000

 Dipole moment (field-independent basis, Debye):
    X=             -2.0309    Y=              1.2649    Z=             -4.0580  Tot=              4.7108

 Test job not archived.
 1\1\GINC-SE106\SP\RHF\Aug-CC-pVDZ\C6H6O1\OHZDE\09-Apr-2025\0\\#t hf au
 g-cc-pvdz iop(5/13=1,5/36=2,99/5=2) pseudo=read geom=check guess=(read
 ,tcheck) scf=(maxcycle=1)\\title\\0,1\O,0,-0.54462727,-0.04591618,1.43
 674798\C,0,0.33966199,-0.77456487,0.65076725\C,0,-0.50961202,-0.988991
 25,-0.63195547\C,0,-1.30132942,0.23167215,-0.42698372\C,0,-1.77523662,
 1.3787762,-0.34418517\C,0,1.60843191,-0.08042319,0.3558621\C,0,2.62946
 751,0.49617091,0.10973483\H,0,-1.20537339,1.14554553,0.75011321\H,0,0.
 57812448,-1.74772809,1.09657021\H,0,-1.13732003,-1.87316972,-0.5238540

 Normal termination of Gaussian 16 at Wed Apr  9 03:52:42 2025.
