 Gaussian 16, Revision C.01,

 ----------------------------------------------------------------------
 #t hf aug-cc-pvdz symm=none int=(grid=ultrafine) guess=(read,tcheck) s
 table=(opt,rrhf)
 ----------------------------------------------------------------------
 -----
 title
 -----
 Symbolic Z-matrix:
 Charge =  0 Multiplicity = 1

 SCF Done:  E(RHF) =  -268.661225815     A.U. after   15 cycles
 Normal termination of Gaussian 16 at Wed Apr  9 03:03:38 2025.
 Gaussian 16:  ES64L-G16RevC.01  3-Jul-2019

 ----------------------------------------------------------------------
 #t hf aug-cc-pvdz iop(5/13=1,5/36=2,99/5=2) pseudo=read geom=check gue
 ss=(read,tcheck) scf=(maxcycle=1)
 ----------------------------------------------------------------------
 -----
 title
 -----
 Structure from the checkpoint file:  "Grambow2020_b97d3_006489_reverse_mol1.chk"
 Charge =  0 Multiplicity = 1

                         Standard orientation:
 ---------------------------------------------------------------------
 Center     Atomic      Atomic             Coordinates (Angstroms)
 Number     Number       Type             X           Y           Z
 ---------------------------------------------------------------------
      1          8           0       -2.200306   -0.126477   -0.004391
      2          6           0       -0.953058   -0.117813   -0.040177
      3          6           0       -0.251884    1.231820    0.157705
      4          6           0        1.472016    0.670984   -0.206198
      5          6           0        1.407672   -0.789964    0.259616
      6          6           0        0.008910   -1.156972   -0.158690
      7          1           0       -0.495924    2.027008   -0.551306
      8          1           0       -0.247436    1.609848    1.192053
      9          1           0        2.264456    0.843509   -0.975128
     10          1           0        1.800224    1.449737    0.519850
     11          1           0        1.598509   -0.874218    1.346721
     12          1           0        2.184426   -1.381012   -0.249153
     13          1           0        0.718189    0.502493   -1.126643
     14          1           0       -0.321930   -2.193876   -0.194799
 ---------------------------------------------------------------------

 SCF Done:  E(RHF) =  -268.740921829     A.U. after    2 cycles

 The electronic state is 1-A.
 Alpha  occ. eigenvalues --  -20.49573 -11.34842 -11.31240 -11.30654 -11.26134
 Alpha  occ. eigenvalues --  -11.20879  -1.28016  -1.13855  -0.98716  -0.96020
 Alpha  occ. eigenvalues --   -0.84092  -0.73230  -0.71303  -0.66118  -0.62777
 Alpha  occ. eigenvalues --   -0.59082  -0.56382  -0.54583  -0.52855  -0.50929
 Alpha  occ. eigenvalues --   -0.49019  -0.39207  -0.27832
 Alpha virt. eigenvalues --    0.01580   0.02759   0.03799   0.04439   0.06059
 Alpha virt. eigenvalues --    0.06393   0.06469   0.06961   0.08320   0.09878
 Alpha virt. eigenvalues --    0.12280   0.12821   0.13464   0.14088   0.14303

 Mulliken charges:
               1
     1  O   -0.660086
     2  C    0.167323
     3  C    0.167644
     4  C   -0.299490
     5  C    0.417952
     6  C    0.206954
     7  H   -0.038559
     8  H   -0.081582
     9  H   -0.124541
    10  H    0.096863
    11  H   -0.108526
    12  H   -0.014851
    13  H    0.628349
    14  H   -0.357451
 Sum of Mulliken charges =  -0.00000

 Dipole moment (field-independent basis, Debye):
    X=              7.0137    Y=              3.7214    Z=              0.1148  Tot=              7.9407

 Test job not archived.
 1\1\GINC-SE102\SP\RHF\Aug-CC-pVDZ\C5H8O1\OHZDE\09-Apr-2025\0\\#t hf au
 g-cc-pvdz iop(5/13=1,5/36=2,99/5=2) pseudo=read geom=check guess=(read
 ,tcheck) scf=(maxcycle=1)\\title\\0,1\O,0,-0.47000019,2.65395153,-0.20
 154528\C,0,-0.14978736,1.45467768,-0.07430791\C,0,-1.28350814,0.422191
 6,-0.0432771\C,0,-0.25757678,-1.05981216,0.36894235\C,0,1.07760539,-0.
 68148114,-0.2865327\C,0,1.11046876,0.80019963,-0.02242625\H,0,-2.03407
 262,0.53216899,0.74357402\H,0,-1.75594756,0.21629785,-1.0165237\H,0,-0
 .1344182,-1.78609301,1.20937555\H,0,-0.99720735,-1.64547669,-0.2237351

 Normal termination of Gaussian 16 at Wed Apr  9 03:03:43 2025.
