 Gaussian 16, Revision C.01,

 ----------------------------------------------------------------------
 #t hf aug-cc-pvdz symm=none int=(grid=ultrafine) guess=(read,tcheck) s
 table=(opt,rrhf)
 ----------------------------------------------------------------------
 -----
 title
 -----
 Symbolic Z-matrix:
 Charge =  0 Multiplicity = 1

 SCF Done:  E(RHF) =  -302.842727253     A.U. after   14 cycles
 Normal termination of Gaussian 16 at Wed Apr  9 16:45:10 2025.
 Gaussian 16:  ES64L-G16RevC.01  3-Jul-2019

 ----------------------------------------------------------------------
 #t hf aug-cc-pvdz iop(5/13=1,5/36=2,99/5=2) pseudo=read geom=check gue
 ss=(read,tcheck) scf=(maxcycle=1)
 ----------------------------------------------------------------------
 -----
 title
 -----
 Structure from the checkpoint file:  "Grambow2020_wb97xd3_008851_reverse_mol2.chk"
 Charge =  0 Multiplicity = 1

                         Standard orientation:
 ---------------------------------------------------------------------
 Center     Atomic      Atomic             Coordinates (Angstroms)
 Number     Number       Type             X           Y           Z
 ---------------------------------------------------------------------
      1          6           0       -2.186423   -0.474042   -0.478283
      2          6           0       -0.843558   -0.112254    0.060144
      3          6           0        0.254708   -1.084112    0.514628
      4          6           0        1.266245   -0.089659   -0.050910
      5          7           0        2.503276   -0.195067   -0.236735
      6          6           0        0.173756    0.864621   -0.434716
      7          7           0       -0.594431    1.110933    0.815522
      8          1           0       -2.100998   -1.245295   -1.245458
      9          1           0       -2.829180   -0.858946    0.317045
     10          1           0       -2.680038    0.393224   -0.922268
     11          1           0        0.277837   -2.019113   -0.047054
     12          1           0        0.298351   -1.279725    1.585477
     13          1           0        0.138656    1.570454   -1.254551
     14          1           0        2.867210    0.619977   -0.728125
     15          1           0       -1.322128    1.781031    0.578245
 ---------------------------------------------------------------------

 SCF Done:  E(RHF) =  -302.930164971     A.U. after    2 cycles

 The electronic state is 1-A.
 Alpha  occ. eigenvalues --  -15.63981 -15.60770 -11.29886 -11.29114 -11.28105
 Alpha  occ. eigenvalues --  -11.25077 -11.24321  -1.28561  -1.17250  -1.02871
 Alpha  occ. eigenvalues --   -0.99817  -0.88877  -0.78598  -0.73932  -0.69361
 Alpha  occ. eigenvalues --   -0.64879  -0.62709  -0.59982  -0.57388  -0.55264
 Alpha  occ. eigenvalues --   -0.51609  -0.50369  -0.47578  -0.42685  -0.40045
 Alpha  occ. eigenvalues --   -0.36360
 Alpha virt. eigenvalues --    0.02594   0.03614   0.04420   0.04846   0.06219
 Alpha virt. eigenvalues --    0.07040   0.07172   0.07592   0.09864   0.11404
 Alpha virt. eigenvalues --    0.12981   0.13316   0.13681   0.13768   0.14781

 Mulliken charges:
               1
     1  C    0.550110
     2  C   -0.446220
     3  C    0.427192
     4  C    0.061158
     5  N   -0.381564
     6  C    0.925415
     7  N   -0.777506
     8  H    0.037626
     9  H    0.056425
    10  H   -0.024169
    11  H   -0.031045
    12  H   -0.009811
    13  H   -0.372078
    14  H   -0.017821
    15  H    0.002288
 Sum of Mulliken charges =  -0.00000

 Dipole moment (field-independent basis, Debye):
    X=             -3.3654    Y=              1.0020    Z=             -2.0174  Tot=              4.0497

 Test job not archived.
 1\1\GINC-SE454\SP\RHF\Aug-CC-pVDZ\C5H8N2\OHZDE\09-Apr-2025\0\\#t hf au
 g-cc-pvdz iop(5/13=1,5/36=2,99/5=2) pseudo=read geom=check guess=(read
 ,tcheck) scf=(maxcycle=1)\\title\\0,1\C,0,-1.34005541,1.26497076,-0.66
 986178\C,0,-0.39032952,0.15531034,-0.3686062\C,0,1.09221913,0.08478932
 ,-0.76145299\C,0,1.33618821,-0.61833393,0.57199139\N,0,2.40574356,-0.9
 1638029,1.15774373\C,0,-0.12670383,-0.5830748,0.90394564\N,0,-0.809540
 34,-1.23675837,-0.24510103\H,0,-0.89590736,2.23150328,-0.42648\H,0,-1.
 60093468,1.27106825,-1.73086982\H,0,-2.26299798,1.16110427,-0.09512856

 Normal termination of Gaussian 16 at Wed Apr  9 16:45:15 2025.
