 Gaussian 16, Revision C.01,

 ----------------------------------------------------------------------
 #t hf aug-cc-pvdz symm=none int=(grid=ultrafine) guess=(read,tcheck) s
 table=(opt,rrhf)
 ----------------------------------------------------------------------
 -----
 title
 -----
 Symbolic Z-matrix:
 Charge =  0 Multiplicity = 1

 SCF Done:  E(RHF) =  -307.751134438     A.U. after   14 cycles

 1\1\GINC-SE037\Stability\RHF\Aug-CC-pVDZ\C6H10O1\OHZDE\09-Apr-2025\0\\
 #t hf aug-cc-pvdz symm=none int=(grid=ultrafine) guess=(read,tcheck) s
 table=(opt,rrhf)\\title\\0,1\C,0,-2.44802474,0.29846257,0.30900469\C,0
 ,-1.1793589,0.58614823,1.0735815\C,0,0.21592699,-1.07688212,-0.3763267
 6\C,0,1.7006494,-1.22800706,-0.38506356\C,0,2.2853469,-0.09607156,-0.0
 3969009\C,0,1.26407392,0.95462105,0.24368262\O,0,0.01713637,0.33391087
 ,-0.13415725\H,0,-3.25277083,0.62295969,0.97796373\H,0,-2.61315635,-0.
 76981182,0.13513282\H,0,-2.5797423,0.83077557,-0.64386859\H,0,-1.06409

 Normal termination of Gaussian 16 at Wed Apr  9 16:53:26 2025.
 Gaussian 16:  ES64L-G16RevC.01  3-Jul-2019

 ----------------------------------------------------------------------
 #t hf aug-cc-pvdz iop(5/13=1,5/36=2,99/5=2) pseudo=read geom=check gue
 ss=(read,tcheck) scf=(maxcycle=1)
 ----------------------------------------------------------------------
 -----
 title
 -----
 Structure from the checkpoint file:  "Grambow2020_wb97xd3_009035_reverse_mol2.chk"
 Charge =  0 Multiplicity = 1

                         Standard orientation:
 ---------------------------------------------------------------------
 Center     Atomic      Atomic             Coordinates (Angstroms)
 Number     Number       Type             X           Y           Z
 ---------------------------------------------------------------------
      1          6           0       -2.628236    0.285675    0.103441
      2          6           0       -1.578301   -0.546875   -0.590353
      3          6           0        0.330369    1.121958    0.031499
      4          6           0        1.798034    0.901382   -0.125416
      5          6           0        2.083623   -0.386062   -0.067445
      6          6           0        0.841716   -1.188397    0.135479
      7          8           0       -0.181360   -0.192465    0.346026
      8          1           0       -3.576231   -0.043690   -0.336157
      9          1           0       -2.547567    1.354370   -0.120375
     10          1           0       -2.712529    0.163451    1.192766
     11          1           0       -1.685853   -1.570144   -0.191475
     12          1           0        0.063826    1.791479    0.851258
     13          1           0       -0.155248    1.449372   -0.892496
     14          1           0        2.495432    1.710759   -0.287901
     15          1           0        3.059928   -0.837108   -0.173640
     16          1           0        0.563904   -1.770315   -0.748476
     17          1           0        0.861993   -1.834540    1.015057
 ---------------------------------------------------------------------

 SCF Done:  E(RHF) =  -307.847218154     A.U. after    2 cycles

 The electronic state is 1-A.
 Alpha  occ. eigenvalues --  -20.63509 -11.31234 -11.31045 -11.26277 -11.26099
 Alpha  occ. eigenvalues --  -11.21802 -11.20290  -1.39467  -1.09909  -1.02262
 Alpha  occ. eigenvalues --   -0.97403  -0.86106  -0.80203  -0.78758  -0.72822
 Alpha  occ. eigenvalues --   -0.68611  -0.62914  -0.60482  -0.60046  -0.56211
 Alpha  occ. eigenvalues --   -0.55421  -0.53295  -0.51871  -0.49809  -0.46983
 Alpha  occ. eigenvalues --   -0.37912  -0.28994
 Alpha virt. eigenvalues --    0.02910   0.03889   0.04369   0.05449   0.05658
 Alpha virt. eigenvalues --    0.06274   0.06702   0.07541   0.08752   0.09325
 Alpha virt. eigenvalues --    0.10307   0.11402   0.13204   0.13859   0.14092

 Mulliken charges:
               1
     1  C    0.430568
     2  C   -0.155930
     3  C    0.930049
     4  C    0.012306
     5  C    0.076370
     6  C    0.820997
     7  O   -0.675037
     8  H   -0.096281
     9  H   -0.111629
    10  H   -0.047166
    11  H   -0.255140
    12  H   -0.142756
    13  H   -0.075449
    14  H   -0.258919
    15  H   -0.258712
    16  H   -0.061988
    17  H   -0.131284
 Sum of Mulliken charges =  -0.00000

 Dipole moment (field-independent basis, Debye):
    X=              3.3862    Y=              0.5786    Z=              1.7552  Tot=              3.8577

 Test job not archived.
 1\1\GINC-SE037\SP\RHF\Aug-CC-pVDZ\C6H10O1\OHZDE\09-Apr-2025\0\\#t hf a
 ug-cc-pvdz iop(5/13=1,5/36=2,99/5=2) pseudo=read geom=check guess=(rea
 d,tcheck) scf=(maxcycle=1)\\title\\0,1\C,0,-2.44802474,0.29846257,0.30
 900469\C,0,-1.1793589,0.58614823,1.0735815\C,0,0.21592699,-1.07688212,
 -0.37632676\C,0,1.7006494,-1.22800706,-0.38506356\C,0,2.2853469,-0.096
 07156,-0.03969009\C,0,1.26407392,0.95462105,0.24368262\O,0,0.01713637,
 0.33391087,-0.13415725\H,0,-3.25277083,0.62295969,0.97796373\H,0,-2.61
 315635,-0.76981182,0.13513282\H,0,-2.5797423,0.83077557,-0.64386859\H,

 Normal termination of Gaussian 16 at Wed Apr  9 16:53:32 2025.
