 Gaussian 16, Revision C.01,

 ----------------------------------------------------------------------
 #t hf aug-cc-pvdz symm=none int=(grid=ultrafine) guess=(read,tcheck) s
 table=(opt,rrhf)
 ----------------------------------------------------------------------
 -----
 title
 -----
 Symbolic Z-matrix:
 Charge =  0 Multiplicity = 1

 SCF Done:  E(RHF) =  -269.847029473     A.U. after   14 cycles

 1\1\GINC-SE138\Stability\RHF\Aug-CC-pVDZ\C5H10O1\OHZDE\09-Apr-2025\0\\
 #t hf aug-cc-pvdz symm=none int=(grid=ultrafine) guess=(read,tcheck) s
 table=(opt,rrhf)\\title\\0,1\C,0,-1.37055822,-1.13264728,0.09951896\C,
 0,-0.25751354,-0.10206302,0.12474603\C,0,-0.81328319,1.30444622,-0.108
 64653\C,0,0.98358592,-0.36829315,0.97117103\C,0,1.83233687,0.24724352,
 -0.10920312\O,0,0.8120191,-0.41554444,-1.10661462\H,0,-2.00929645,-1.0
 2181711,-0.7886609\H,0,-1.99889215,-0.98181079,0.99037005\H,0,-0.96243
 862,-2.14909073,0.14427822\H,0,-1.38289012,1.37828218,-1.04561419\H,0,

 Normal termination of Gaussian 16 at Wed Apr  9 14:02:13 2025.
 Gaussian 16:  ES64L-G16RevC.01  3-Jul-2019

 ----------------------------------------------------------------------
 #t hf aug-cc-pvdz iop(5/13=1,5/36=2,99/5=2) pseudo=read geom=check gue
 ss=(read,tcheck) scf=(maxcycle=1)
 ----------------------------------------------------------------------
 -----
 title
 -----
 Structure from the checkpoint file:  "Grambow2020_b97d3_006765_forward_mol1.chk"
 Charge =  0 Multiplicity = 1

                         Standard orientation:
 ---------------------------------------------------------------------
 Center     Atomic      Atomic             Coordinates (Angstroms)
 Number     Number       Type             X           Y           Z
 ---------------------------------------------------------------------
      1          6           0       -1.645103   -0.889112   -0.016732
      2          6           0       -0.424978   -0.002115    0.144949
      3          6           0       -0.800911    1.473216   -0.008979
      4          6           0        0.723922   -0.472058    1.031980
      5          6           0        1.701429    0.112295    0.047357
      6          8           0        0.674241   -0.353601   -1.049452
      7          1           0       -2.211977   -0.641628   -0.925874
      8          1           0       -2.304835   -0.727309    0.849146
      9          1           0       -1.359496   -1.947418   -0.028532
     10          1           0       -1.300516    1.679260   -0.965929
     11          1           0        0.048996    2.154417    0.100665
     12          1           0       -1.517123    1.700712    0.794384
     13          1           0        0.720558   -1.306214   -0.457939
     14          1           0        0.748470   -0.247809    2.103707
     15          1           0        2.676919   -0.364842   -0.113450
     16          1           0        1.778920    1.196288   -0.152019
 ---------------------------------------------------------------------

 SCF Done:  E(RHF) =  -269.928014665     A.U. after    2 cycles

 The electronic state is 1-A.
 Alpha  occ. eigenvalues --  -20.63298 -11.32940 -11.30614 -11.24270 -11.23951
 Alpha  occ. eigenvalues --  -11.18151  -1.36273  -1.06524  -0.97963  -0.94638
 Alpha  occ. eigenvalues --   -0.85673  -0.74426  -0.68835  -0.66197  -0.62671
 Alpha  occ. eigenvalues --   -0.61108  -0.56853  -0.54689  -0.54442  -0.53363
 Alpha  occ. eigenvalues --   -0.50598  -0.47933  -0.46608  -0.28151
 Alpha virt. eigenvalues --    0.03443   0.04321   0.04783   0.04977   0.06404
 Alpha virt. eigenvalues --    0.06722   0.06776   0.07564   0.08516   0.09344
 Alpha virt. eigenvalues --    0.11360   0.13168   0.13217   0.14476   0.15040

 Mulliken charges:
               1
     1  C    0.599311
     2  C   -0.864081
     3  C    0.354701
     4  C    0.066287
     5  C    0.963026
     6  O   -0.866091
     7  H    0.074317
     8  H    0.096491
     9  H   -0.054036
    10  H    0.060228
    11  H   -0.148458
    12  H    0.094209
    13  H    0.522277
    14  H   -0.408110
    15  H   -0.221207
    16  H   -0.268866
 Sum of Mulliken charges =  -0.00000

 Dipole moment (field-independent basis, Debye):
    X=             -0.9294    Y=              1.5075    Z=             -0.2324  Tot=              1.7861

 Test job not archived.
 1\1\GINC-SE138\SP\RHF\Aug-CC-pVDZ\C5H10O1\OHZDE\09-Apr-2025\0\\#t hf a
 ug-cc-pvdz iop(5/13=1,5/36=2,99/5=2) pseudo=read geom=check guess=(rea
 d,tcheck) scf=(maxcycle=1)\\title\\0,1\C,0,-1.37055822,-1.13264728,0.0
 9951896\C,0,-0.25751354,-0.10206302,0.12474603\C,0,-0.81328319,1.30444
 622,-0.10864653\C,0,0.98358592,-0.36829315,0.97117103\C,0,1.83233687,0
 .24724352,-0.10920312\O,0,0.8120191,-0.41554444,-1.10661462\H,0,-2.009
 29645,-1.02181711,-0.7886609\H,0,-1.99889215,-0.98181079,0.99037005\H,
 0,-0.96243862,-2.14909073,0.14427822\H,0,-1.38289012,1.37828218,-1.045

 Normal termination of Gaussian 16 at Wed Apr  9 14:02:18 2025.
