 Gaussian 16, Revision C.01,

 ----------------------------------------------------------------------
 #t hf aug-cc-pvdz symm=none int=(grid=ultrafine) guess=(read,tcheck) s
 table=(opt,rrhf)
 ----------------------------------------------------------------------
 -----
 title
 -----
 Symbolic Z-matrix:
 Charge =  0 Multiplicity = 1

 SCF Done:  E(RHF) =  -338.577614802     A.U. after   15 cycles
 Normal termination of Gaussian 16 at Wed Apr  9 16:26:57 2025.
 Gaussian 16:  ES64L-G16RevC.01  3-Jul-2019

 ----------------------------------------------------------------------
 #t hf aug-cc-pvdz iop(5/13=1,5/36=2,99/5=2) pseudo=read geom=check gue
 ss=(read,tcheck) scf=(maxcycle=1)
 ----------------------------------------------------------------------
 -----
 title
 -----
 Structure from the checkpoint file:  "Grambow2020_wb97xd3_008304_forward_mol1.chk"
 Charge =  0 Multiplicity = 1

                         Standard orientation:
 ---------------------------------------------------------------------
 Center     Atomic      Atomic             Coordinates (Angstroms)
 Number     Number       Type             X           Y           Z
 ---------------------------------------------------------------------
      1          6           0       -2.407431   -0.596653    0.407668
      2          8           0       -1.594051    0.161778   -0.501440
      3          6           0       -0.086225    0.200566   -0.175926
      4          6           0       -0.726506    1.319524    0.192671
      5          7           0        2.545421    0.514063    0.221199
      6          6           0        2.016441   -0.616270    0.006684
      7          7           0        0.666411   -0.785696   -0.293867
      8          1           0       -2.435781   -1.622368    0.044050
      9          1           0       -3.401822   -0.153435    0.396559
     10          1           0       -1.982128   -0.551108    1.409562
     11          1           0       -0.782829    2.243549   -0.364010
     12          1           0        3.535490    0.410892    0.421701
     13          1           0        2.558979   -1.563323    0.025754
 ---------------------------------------------------------------------

 SCF Done:  E(RHF) =  -338.681774604     A.U. after    2 cycles

 The electronic state is 1-A.
 Alpha  occ. eigenvalues --  -20.66295 -15.62923 -15.61232 -11.39176 -11.33161
 Alpha  occ. eigenvalues --  -11.31159 -11.28666  -1.42042  -1.25644  -1.14866
 Alpha  occ. eigenvalues --   -1.05758  -0.91356  -0.88065  -0.75677  -0.70620
 Alpha  occ. eigenvalues --   -0.69836  -0.66154  -0.65155  -0.63860  -0.55396
 Alpha  occ. eigenvalues --   -0.54687  -0.52828  -0.45526  -0.43163  -0.42150
 Alpha  occ. eigenvalues --   -0.33699
 Alpha virt. eigenvalues --    0.03386   0.03778   0.04491   0.05688   0.06303
 Alpha virt. eigenvalues --    0.06683   0.08972   0.09535   0.10448   0.11064
 Alpha virt. eigenvalues --    0.11673   0.12696   0.14126   0.14932   0.15336

 Mulliken charges:
               1
     1  C    0.775683
     2  O   -0.771731
     3  C    0.103739
     4  C    0.452898
     5  N   -0.314407
     6  C    0.842573
     7  N   -0.340143
     8  H   -0.114640
     9  H   -0.145165
    10  H   -0.035980
    11  H   -0.247720
    12  H    0.030787
    13  H   -0.235893
 Sum of Mulliken charges =   0.00000

 Dipole moment (field-independent basis, Debye):
    X=             -0.9675    Y=             -1.3430    Z=              0.3449  Tot=              1.6908

 Test job not archived.
 1\1\GINC-SE057\SP\RHF\Aug-CC-pVDZ\C4H6N2O1\OHZDE\09-Apr-2025\0\\#t hf
 aug-cc-pvdz iop(5/13=1,5/36=2,99/5=2) pseudo=read geom=check guess=(re
 ad,tcheck) scf=(maxcycle=1)\\title\\0,1\C,0,2.30089355,0.1698305,-0.30
 222187\O,0,1.22010088,-0.57061023,-0.89121746\C,0,-0.17605384,-0.30838
 44,-0.28872707\C,0,0.37346182,-1.44995293,0.15030177\N,0,-2.68164217,-
 0.11597415,0.64216062\C,0,-2.06486962,0.8651819,0.13185407\N,0,-0.7988
 7467,0.76029077,-0.44074755\H,0,2.38746027,1.10995789,-0.84423691\H,0,
 3.20253563,-0.42931802,-0.41815632\H,0,2.09527193,0.34699865,0.7528043

 Normal termination of Gaussian 16 at Wed Apr  9 16:27:01 2025.
