 Gaussian 16, Revision C.01,

 ----------------------------------------------------------------------
 #t hf aug-cc-pvdz symm=none int=(grid=ultrafine) guess=(read,tcheck) s
 table=(opt,rrhf)
 ----------------------------------------------------------------------
 -----
 title
 -----
 Symbolic Z-matrix:
 Charge =  0 Multiplicity = 1

 SCF Done:  E(RHF) =  -360.812175223     A.U. after   15 cycles
 Normal termination of Gaussian 16 at Wed Apr  9 16:37:12 2025.
 Gaussian 16:  ES64L-G16RevC.01  3-Jul-2019

 ----------------------------------------------------------------------
 #t hf aug-cc-pvdz iop(5/13=1,5/36=2,99/5=2) pseudo=read geom=check gue
 ss=(read,tcheck) scf=(maxcycle=1)
 ----------------------------------------------------------------------
 -----
 title
 -----
 Structure from the checkpoint file:  "Grambow2020_wb97xd3_008680_reverse_mol2.chk"
 Charge =  0 Multiplicity = 1

                         Standard orientation:
 ---------------------------------------------------------------------
 Center     Atomic      Atomic             Coordinates (Angstroms)
 Number     Number       Type             X           Y           Z
 ---------------------------------------------------------------------
      1          6           0        1.308832    1.489413    0.610072
      2          7           0        1.525278    0.149116    0.114013
      3          6           0        1.309951   -0.410249   -1.251188
      4          6           0        0.727431   -0.907400    0.008159
      5          8           0       -0.016232   -1.632237    0.606653
      6          8           0       -1.742673    0.820527   -0.664892
      7          6           0       -2.552400    0.079068   -0.178689
      8          1           0        2.186893    2.099928    0.402361
      9          1           0        1.160251    1.442259    1.688195
     10          1           0        0.427792    1.938998    0.145785
     11          1           0       -0.887182   -0.356533    2.647886
     12          1           0        2.187627   -0.840436   -1.721313
     13          1           0        0.624182    0.124295   -1.906101
     14          1           0       -3.630720    0.324531   -0.192285
     15          1           0       -1.184453    0.081105    3.175621
     16          1           0       -2.252986   -0.869269    0.297547
 ---------------------------------------------------------------------

 SCF Done:  E(RHF) =  -360.932305267     A.U. after    2 cycles

 The electronic state is 1-A.
 Alpha  occ. eigenvalues --  -20.59163 -20.56150 -15.65546 -11.37861 -11.35070
 Alpha  occ. eigenvalues --  -11.28976 -11.27767  -1.37706  -1.36919  -1.27756
 Alpha  occ. eigenvalues --   -1.02061  -0.86799  -0.86433  -0.74943  -0.71115
 Alpha  occ. eigenvalues --   -0.68589  -0.68359  -0.66429  -0.64664  -0.59993
 Alpha  occ. eigenvalues --   -0.58354  -0.58002  -0.55557  -0.54160  -0.49433
 Alpha  occ. eigenvalues --   -0.45462  -0.43479  -0.38821
 Alpha virt. eigenvalues --    0.03491   0.03931   0.04584   0.05719   0.06335
 Alpha virt. eigenvalues --    0.06672   0.07514   0.08210   0.08978   0.09586
 Alpha virt. eigenvalues --    0.10368   0.11784   0.12848   0.13108   0.14153

 Mulliken charges:
               1
     1  C    0.886952
     2  N   -0.463584
     3  C    1.077638
     4  C   -0.212394
     5  O   -0.387203
     6  O   -0.371637
     7  C    0.671788
     8  H   -0.179806
     9  H   -0.170250
    10  H   -0.102592
    11  H   -0.004527
    12  H   -0.234528
    13  H   -0.209570
    14  H   -0.179985
    15  H    0.009335
    16  H   -0.129639
 Sum of Mulliken charges =  -0.00000

 Dipole moment (field-independent basis, Debye):
    X=             -0.4716    Y=              1.6040    Z=             -0.9159  Tot=              1.9063

 Test job not archived.
 1\1\GINC-SE057\SP\RHF\Aug-CC-pVDZ\C4H9N1O2\OHZDE\09-Apr-2025\0\\#t hf
 aug-cc-pvdz iop(5/13=1,5/36=2,99/5=2) pseudo=read geom=check guess=(re
 ad,tcheck) scf=(maxcycle=1)\\title\\0,1\C,0,-1.84337945,0.70473684,-0.
 05103818\N,0,-1.42814076,-0.50931788,0.61451956\C,0,-0.71803966,-0.691
 67045,1.91280079\C,0,-0.29313465,-1.19880944,0.59571659\O,0,0.51074285
 ,-1.73550226,-0.11305673\O,0,1.4409849,1.34785855,0.37787464\C,0,2.335
 88944,0.83938983,-0.24052374\H,0,-2.81404767,1.01605086,0.33334468\H,0
 ,-1.93554284,0.50344295,-1.11763859\H,0,-1.11224693,1.50225232,0.10172

 Normal termination of Gaussian 16 at Wed Apr  9 16:37:17 2025.
