 Gaussian 16, Revision C.01,

 ----------------------------------------------------------------------
 #t hf aug-cc-pvdz symm=none int=(grid=ultrafine) guess=(read,tcheck) s
 table=(opt,rrhf)
 ----------------------------------------------------------------------
 -----
 title
 -----
 Symbolic Z-matrix:
 Charge =  0 Multiplicity = 1

 SCF Done:  E(RHF) =  -286.785714727     A.U. after   13 cycles
 Normal termination of Gaussian 16 at Wed Apr  9 15:58:07 2025.
 Gaussian 16:  ES64L-G16RevC.01  3-Jul-2019

 ----------------------------------------------------------------------
 #t hf aug-cc-pvdz iop(5/13=1,5/36=2,99/5=2) pseudo=read geom=check gue
 ss=(read,tcheck) scf=(maxcycle=1)
 ----------------------------------------------------------------------
 -----
 title
 -----
 Structure from the checkpoint file:  "Grambow2020_wb97xd3_007627_forward_mol2.chk"
 Charge =  0 Multiplicity = 1

                         Standard orientation:
 ---------------------------------------------------------------------
 Center     Atomic      Atomic             Coordinates (Angstroms)
 Number     Number       Type             X           Y           Z
 ---------------------------------------------------------------------
      1          6           0        2.061677   -0.702110    0.021946
      2          6           0        0.702954   -0.096281   -0.126564
      3          6           0        0.442586    1.304113   -0.573433
      4          6           0       -0.026950    0.863046    0.781321
      5          6           0       -1.277933   -0.057699    0.737008
      6          7           0       -1.787132   -0.322384   -0.586005
      7          6           0       -0.576609   -0.990830   -0.173881
      8          1           0        2.063491   -1.475962    0.794034
      9          1           0        2.799411    0.051366    0.303961
     10          1           0        2.390971   -1.162928   -0.913369
     11          1           0        1.317915    1.942220   -0.543443
     12          1           0       -0.233360    1.565021   -1.380590
     13          1           0        0.335477    1.319942    1.691369
     14          1           0       -1.909845   -0.257960    1.590994
     15          1           0       -1.665080    0.426068   -1.254872
     16          1           0       -0.543403   -2.072520   -0.184433
 ---------------------------------------------------------------------

 SCF Done:  E(RHF) =  -286.870412668     A.U. after    2 cycles

 The electronic state is 1-A.
 Alpha  occ. eigenvalues --  -15.62074 -11.26745 -11.26437 -11.24934 -11.24386
 Alpha  occ. eigenvalues --  -11.24096 -11.23349  -1.27428  -1.13083  -0.97525
 Alpha  occ. eigenvalues --   -0.91715  -0.85252  -0.78777  -0.72688  -0.69308
 Alpha  occ. eigenvalues --   -0.67656  -0.60539  -0.58002  -0.56558  -0.54279
 Alpha  occ. eigenvalues --   -0.50772  -0.46982  -0.46286  -0.42116  -0.41184
 Alpha  occ. eigenvalues --   -0.33210
 Alpha virt. eigenvalues --    0.03281   0.04013   0.04279   0.04691   0.06131
 Alpha virt. eigenvalues --    0.06367   0.06920   0.07137   0.08958   0.09801
 Alpha virt. eigenvalues --    0.12378   0.13154   0.13325   0.13815   0.14401

 Mulliken charges:
               1
     1  C    0.576803
     2  C   -0.413233
     3  C    0.697746
     4  C    0.596864
     5  C    0.417508
     6  N   -0.646390
     7  C    0.711086
     8  H    0.053903
     9  H   -0.014107
    10  H    0.018007
    11  H   -0.356929
    12  H   -0.449249
    13  H   -0.495824
    14  H   -0.328867
    15  H    0.033063
    16  H   -0.400379
 Sum of Mulliken charges =   0.00000

 Dipole moment (field-independent basis, Debye):
    X=              1.7894    Y=              0.7077    Z=              0.4320  Tot=              1.9722

 Test job not archived.
 1\1\GINC-SE174\SP\RHF\Aug-CC-pVDZ\C6H9N1\OHZDE\09-Apr-2025\0\\#t hf au
 g-cc-pvdz iop(5/13=1,5/36=2,99/5=2) pseudo=read geom=check guess=(read
 ,tcheck) scf=(maxcycle=1)\\title\\0,1\C,0,1.5864751,-0.65493113,0.9153
 0301\C,0,0.43703211,-0.18706305,0.08158165\C,0,0.55353149,0.74988747,-
 1.07476624\C,0,-0.29208387,1.13401384,0.1032584\C,0,-1.64750615,0.3769
 595,0.16955335\N,0,-1.87506251,-0.55099279,-0.91064464\C,0,-0.94008738
 ,-0.92294353,0.1235256\H,0,1.26430727,-0.88181909,1.93495936\H,0,2.365
 50143,0.10741499,0.97409091\H,0,2.03251121,-1.56123705,0.49665808\H,0,

 Normal termination of Gaussian 16 at Wed Apr  9 15:58:13 2025.
