 Gaussian 16, Revision C.01,

 ----------------------------------------------------------------------
 #t hf aug-cc-pvdz symm=none int=(grid=ultrafine) guess=(read,tcheck) s
 table=(opt,rrhf)
 ----------------------------------------------------------------------
 -----
 title
 -----
 Symbolic Z-matrix:
 Charge =  0 Multiplicity = 1

 SCF Done:  E(RHF) =  -315.497583706     A.U. after   22 cycles
 Normal termination of Gaussian 16 at Wed Apr  9 03:08:41 2025.
 Gaussian 16:  ES64L-G16RevC.01  3-Jul-2019

 ----------------------------------------------------------------------
 #t hf aug-cc-pvdz iop(5/13=1,5/36=2,99/5=2) pseudo=read geom=check gue
 ss=(read,tcheck) scf=(maxcycle=1)
 ----------------------------------------------------------------------
 -----
 title
 -----
 Structure from the checkpoint file:  "Grambow2020_b97d3_006677_forward_mol1.chk"
 Charge =  0 Multiplicity = 1

                         Standard orientation:
 ---------------------------------------------------------------------
 Center     Atomic      Atomic             Coordinates (Angstroms)
 Number     Number       Type             X           Y           Z
 ---------------------------------------------------------------------
      1          8           0        2.155027   -0.586096   -0.094856
      2          6           0        0.976485    0.101267    0.011470
      3          7           0        0.778395    1.350210    0.147800
      4          7           0       -2.524798    0.002406   -0.056354
      5          7           0       -1.298687    0.060627   -0.302282
      6          6           0       -0.261596   -0.657695    0.107272
      7          1           0        2.875045    0.076983   -0.022925
      8          1           0       -2.691341   -0.314700    0.929706
      9          1           0       -0.397627   -1.627648    0.615463
 ---------------------------------------------------------------------

 SCF Done:  E(RHF) =  -315.588763145     A.U. after    2 cycles

 The electronic state is 1-A.
 Alpha  occ. eigenvalues --  -20.62711 -15.73672 -15.72927 -15.66380 -11.37669
 Alpha  occ. eigenvalues --  -11.36635  -1.39061  -1.35325  -1.18638  -1.06998
 Alpha  occ. eigenvalues --   -0.89745  -0.81574  -0.74384  -0.72031  -0.66381
 Alpha  occ. eigenvalues --   -0.63235  -0.60113  -0.55741  -0.51871  -0.45461
 Alpha  occ. eigenvalues --   -0.40584  -0.32881
 Alpha virt. eigenvalues --   -0.02413   0.02638   0.03710   0.05033   0.07424
 Alpha virt. eigenvalues --    0.09390   0.10535   0.11862   0.12327   0.12666
 Alpha virt. eigenvalues --    0.14423   0.15428   0.16133   0.18069   0.18850

 Mulliken charges:
               1
     1  O   -0.517042
     2  C    0.733640
     3  N   -0.489878
     4  N   -0.070303
     5  N   -0.211963
     6  C    0.461207
     7  H    0.164235
     8  H    0.047947
     9  H   -0.117842
 Sum of Mulliken charges =  -0.00000

 Dipole moment (field-independent basis, Debye):
    X=              0.2256    Y=             -2.9355    Z=              1.9607  Tot=              3.5373

 Test job not archived.
 1\1\GINC-SE195\SP\RHF\Aug-CC-pVDZ\C2H3N3O1\OHZDE\09-Apr-2025\0\\#t hf
 aug-cc-pvdz iop(5/13=1,5/36=2,99/5=2) pseudo=read geom=check guess=(re
 ad,tcheck) scf=(maxcycle=1)\\title\\0,1\O,0,-2.21152166,0.1630155,-0.3
 6944189\C,0,-0.98725091,-0.38638281,-0.10100473\N,0,-0.69624576,-1.562
 02554,0.28740757\N,0,2.49514098,-0.00396612,-0.10862447\N,0,1.28805359
 ,-0.21431446,-0.36535626\C,0,0.18206965,0.47952804,-0.13155476\H,0,-2.
 87896205,-0.53177689,-0.18220036\H,0,2.59736523,0.5151127,0.79730854\H
 ,0,0.22081394,1.53889158,0.17474337\\Version=ES64L-G16RevC.01\State=1-

 Normal termination of Gaussian 16 at Wed Apr  9 03:08:45 2025.
