 Gaussian 16, Revision C.01,

 ----------------------------------------------------------------------
 #t hf aug-cc-pvdz symm=none int=(grid=ultrafine) guess=(read,tcheck) s
 table=(opt,rrhf)
 ----------------------------------------------------------------------
 -----
 title
 -----
 Symbolic Z-matrix:
 Charge =  0 Multiplicity = 1

 SCF Done:  E(RHF) =  -306.596042519     A.U. after   15 cycles
 Normal termination of Gaussian 16 at Wed Apr  9 16:28:06 2025.
 Gaussian 16:  ES64L-G16RevC.01  3-Jul-2019

 ----------------------------------------------------------------------
 #t hf aug-cc-pvdz iop(5/13=1,5/36=2,99/5=2) pseudo=read geom=check gue
 ss=(read,tcheck) scf=(maxcycle=1)
 ----------------------------------------------------------------------
 -----
 title
 -----
 Structure from the checkpoint file:  "Grambow2020_wb97xd3_008439_reverse_mol2.chk"
 Charge =  0 Multiplicity = 1

                         Standard orientation:
 ---------------------------------------------------------------------
 Center     Atomic      Atomic             Coordinates (Angstroms)
 Number     Number       Type             X           Y           Z
 ---------------------------------------------------------------------
      1          6           0        0.224043    1.503052   -0.214409
      2          6           0       -1.035949    0.680323   -0.351850
      3          6           0       -0.848675   -0.797323   -0.395552
      4          8           0        0.434801   -1.340725   -0.405880
      5          6           0        1.442868   -0.583006    0.238228
      6          6           0        1.452820    0.868856    0.276874
      7          6           0       -1.456467   -0.176760    0.823829
      8          1           0        0.629018    1.746569   -1.221712
      9          1           0        0.057472    2.482717    0.240826
     10          1           0       -1.822704    1.112835   -0.958763
     11          1           0       -1.492343   -1.388144   -1.033484
     12          1           0        2.396771   -0.986690   -0.107598
     13          1           0        1.455931   -0.767742    1.337604
     14          1           0       -0.862753   -0.107938    1.727147
     15          1           0       -2.511636   -0.336655    1.000307
 ---------------------------------------------------------------------

 SCF Done:  E(RHF) =  -306.688294737     A.U. after    2 cycles

 The electronic state is 1-A.
 Alpha  occ. eigenvalues --  -20.58076 -11.29859 -11.29696 -11.26903 -11.25375
 Alpha  occ. eigenvalues --  -11.24806 -11.24118  -1.35413  -1.14573  -1.06908
 Alpha  occ. eigenvalues --   -0.95821  -0.85033  -0.82299  -0.72646  -0.69139
 Alpha  occ. eigenvalues --   -0.68663  -0.63167  -0.61252  -0.57990  -0.57140
 Alpha  occ. eigenvalues --   -0.53769  -0.51755  -0.50100  -0.42365  -0.39344
 Alpha  occ. eigenvalues --   -0.35047
 Alpha virt. eigenvalues --    0.03140   0.04270   0.04583   0.04640   0.06348
 Alpha virt. eigenvalues --    0.06422   0.06748   0.08005   0.08672   0.09471
 Alpha virt. eigenvalues --    0.11386   0.12406   0.13468   0.13960   0.14706

 Mulliken charges:
               1
     1  C    0.083648
     2  C    0.465997
     3  C    0.961465
     4  O   -0.703844
     5  C    0.849111
     6  C   -0.917177
     7  C    0.719622
     8  H    0.180842
     9  H   -0.039231
    10  H   -0.345660
    11  H   -0.461674
    12  H   -0.179291
    13  H    0.120048
    14  H   -0.393043
    15  H   -0.340814
 Sum of Mulliken charges =  -0.00000

 Dipole moment (field-independent basis, Debye):
    X=             -2.0029    Y=              0.4417    Z=             -0.2174  Tot=              2.0626

 Test job not archived.
 1\1\GINC-SE138\SP\RHF\Aug-CC-pVDZ\C6H8O1\OHZDE\09-Apr-2025\0\\#t hf au
 g-cc-pvdz iop(5/13=1,5/36=2,99/5=2) pseudo=read geom=check guess=(read
 ,tcheck) scf=(maxcycle=1)\\title\\0,1\C,0,0.6632525,1.26018556,0.26004
 766\C,0,1.10275706,-0.07458793,-0.29544225\C,0,0.2369881,-1.23912625,0
 .04325313\O,0,-0.84713742,-1.07895321,0.90448409\C,0,-1.45447851,0.200
 16785,0.91855218\C,0,-0.72309505,1.4371084,0.7074789\C,0,0.24068472,-0
 .71929514,-1.36072735\H,0,1.11692256,1.42073857,1.26322842\H,0,1.01825
 271,2.1134536,-0.32359429\H,0,2.17270609,-0.23533054,-0.35678958\H,0,0

 Normal termination of Gaussian 16 at Wed Apr  9 16:28:11 2025.
