 Gaussian 16, Revision C.01,

 ----------------------------------------------------------------------
 #t hf aug-cc-pvdz symm=none int=(grid=ultrafine) guess=(read,tcheck) s
 table=(opt,rrhf)
 ----------------------------------------------------------------------
 -----
 title
 -----
 Symbolic Z-matrix:
 Charge =  0 Multiplicity = 1

 SCF Done:  E(RHF) =  -322.761889164     A.U. after   15 cycles
 Normal termination of Gaussian 16 at Wed Apr  9 04:05:46 2025.
 Gaussian 16:  ES64L-G16RevC.01  3-Jul-2019

 ----------------------------------------------------------------------
 #t hf aug-cc-pvdz iop(5/13=1,5/36=2,99/5=2) pseudo=read geom=check gue
 ss=(read,tcheck) scf=(maxcycle=1)
 ----------------------------------------------------------------------
 -----
 title
 -----
 Structure from the checkpoint file:  "Grambow2020_wb97xd3_009316_reverse_mol2.chk"
 Charge =  0 Multiplicity = 1

                         Standard orientation:
 ---------------------------------------------------------------------
 Center     Atomic      Atomic             Coordinates (Angstroms)
 Number     Number       Type             X           Y           Z
 ---------------------------------------------------------------------
      1          6           0       -0.977833    1.779029   -0.090292
      2          6           0       -1.603128    0.403005    0.128446
      3          6           0       -0.645214   -0.758064    0.020533
      4          6           0        0.670245   -0.676115    0.822353
      5          8           0       -0.878912   -1.742418   -0.623564
      6          6           0        1.703571    0.031328    0.075673
      7          7           0        2.506057    0.592013   -0.521709
      8          1           0       -0.208679    2.007077    0.649418
      9          1           0       -1.744279    2.550122   -0.012672
     10          1           0       -0.520550    1.855393   -1.077352
     11          1           0       -2.038243    0.351854    1.134053
     12          1           0       -2.408817    0.214624   -0.580998
     13          1           0        1.007222   -1.694795    1.013068
     14          1           0        0.516391   -0.164114    1.774680
 ---------------------------------------------------------------------

 SCF Done:  E(RHF) =  -322.861394410     A.U. after    2 cycles

 The electronic state is 1-A.
 Alpha  occ. eigenvalues --  -20.59102 -15.64979 -11.37307 -11.31113 -11.30174
 Alpha  occ. eigenvalues --  -11.26795 -11.25340  -1.38966  -1.21030  -1.09478
 Alpha  occ. eigenvalues --   -1.04635  -0.91183  -0.78807  -0.72495  -0.69650
 Alpha  occ. eigenvalues --   -0.68100  -0.64456  -0.61279  -0.58295  -0.56649
 Alpha  occ. eigenvalues --   -0.55501  -0.53510  -0.51612  -0.49549  -0.47244
 Alpha  occ. eigenvalues --   -0.43672
 Alpha virt. eigenvalues --    0.02423   0.03655   0.04624   0.05051   0.06322
 Alpha virt. eigenvalues --    0.06967   0.07669   0.08691   0.10508   0.10864
 Alpha virt. eigenvalues --    0.11864   0.12996   0.13623   0.13881   0.14049

 Mulliken charges:
               1
     1  C    0.493619
     2  C    0.212145
     3  C   -0.047397
     4  C    0.487123
     5  O   -0.475621
     6  C   -0.233683
     7  N   -0.213896
     8  H   -0.093370
     9  H   -0.114796
    10  H   -0.056561
    11  H    0.046399
    12  H   -0.081468
    13  H    0.009460
    14  H    0.068046
 Sum of Mulliken charges =  -0.00000

 Dipole moment (field-independent basis, Debye):
    X=             -2.5095    Y=              1.2327    Z=              3.5530  Tot=              4.5212

 Test job not archived.
 1\1\GINC-SE026\SP\RHF\Aug-CC-pVDZ\C5H7N1O1\OHZDE\09-Apr-2025\0\\#t hf
 aug-cc-pvdz iop(5/13=1,5/36=2,99/5=2) pseudo=read geom=check guess=(re
 ad,tcheck) scf=(maxcycle=1)\\title\\0,1\C,0,-1.59598143,0.14588247,0.1
 3696446\C,0,-0.64764541,-1.0176253,0.41837704\C,0,0.73485698,-0.870791
 8,-0.16852339\C,0,1.48289056,0.45395918,0.08748955\O,0,1.28116734,-1.7
 4308274,-0.78422071\C,0,1.13378689,1.46120906,-0.90716758\N,0,0.848128
 07,2.24462984,-1.69448423\H,0,-1.23419614,1.08615943,0.55620702\H,0,-2
 .57080432,-0.05585585,0.58089238\H,0,-1.73669252,0.29372836,-0.9342816

 Normal termination of Gaussian 16 at Wed Apr  9 04:05:51 2025.
