 Gaussian 16, Revision C.01,

 ----------------------------------------------------------------------
 #t hf aug-cc-pvdz symm=none int=(grid=ultrafine) guess=(read,tcheck) s
 table=(opt,rrhf)
 ----------------------------------------------------------------------
 -----
 title
 -----
 Symbolic Z-matrix:
 Charge =  0 Multiplicity = 1

 SCF Done:  E(RHF) =  -321.379238120     A.U. after   17 cycles
 Normal termination of Gaussian 16 at Wed Apr  9 16:24:47 2025.
 Gaussian 16:  ES64L-G16RevC.01  3-Jul-2019

 ----------------------------------------------------------------------
 #t hf aug-cc-pvdz iop(5/13=1,5/36=2,99/5=2) pseudo=read geom=check gue
 ss=(read,tcheck) scf=(maxcycle=1)
 ----------------------------------------------------------------------
 -----
 title
 -----
 Structure from the checkpoint file:  "Grambow2020_wb97xd3_008197_forward_mol1.chk"
 Charge =  0 Multiplicity = 1

                         Standard orientation:
 ---------------------------------------------------------------------
 Center     Atomic      Atomic             Coordinates (Angstroms)
 Number     Number       Type             X           Y           Z
 ---------------------------------------------------------------------
      1          8           0       -1.945398    0.440258   -0.448334
      2          6           0       -0.248493    1.219154    0.296445
      3          6           0        0.550051    0.096988    0.710420
      4          6           0       -0.406657   -1.150265    0.478632
      5          6           0       -1.539064   -0.900595   -0.126567
      6          6           0        1.783074   -0.073614   -0.053069
      7          7           0        2.750699   -0.164233   -0.661467
      8          1           0       -2.127074    0.518287   -1.396233
      9          1           0       -0.046398    1.740761   -0.629192
     10          1           0       -0.838870    1.745220    1.031905
     11          1           0        0.772605    0.109309    1.776586
     12          1           0       -2.285440   -1.636026   -0.401290
 ---------------------------------------------------------------------

 SCF Done:  E(RHF) =  -321.474147797     A.U. after    2 cycles

 The electronic state is 1-A.
 Alpha  occ. eigenvalues --  -20.64980 -15.64285 -11.39824 -11.32083 -11.29319
 Alpha  occ. eigenvalues --  -11.27922 -11.21512  -1.38681  -1.20661  -1.13817
 Alpha  occ. eigenvalues --   -1.00232  -0.92998  -0.78238  -0.76541  -0.74092
 Alpha  occ. eigenvalues --   -0.70049  -0.64001  -0.62593  -0.59313  -0.55302
 Alpha  occ. eigenvalues --   -0.54645  -0.47438  -0.46166  -0.36043  -0.31934
 Alpha virt. eigenvalues --    0.01500   0.02076   0.03539   0.04742   0.05262
 Alpha virt. eigenvalues --    0.06315   0.09452   0.09502   0.10017   0.11228
 Alpha virt. eigenvalues --    0.12584   0.13059   0.13814   0.14164   0.14692

 Mulliken charges:
               1
     1  O   -0.586895
     2  C    0.931425
     3  C    0.371604
     4  C   -0.457864
     5  C    0.749939
     6  C   -0.388742
     7  N   -0.157550
     8  H    0.215073
     9  H   -0.221744
    10  H   -0.180802
    11  H    0.013450
    12  H   -0.287894
 Sum of Mulliken charges =  -0.00000

 Dipole moment (field-independent basis, Debye):
    X=             -3.8397    Y=              5.5803    Z=             -0.2181  Tot=              6.7773

 Test job not archived.
 1\1\GINC-SE131\SP\RHF\Aug-CC-pVDZ\C5H5N1O1\OHZDE\09-Apr-2025\0\\#t hf
 aug-cc-pvdz iop(5/13=1,5/36=2,99/5=2) pseudo=read geom=check guess=(re
 ad,tcheck) scf=(maxcycle=1)\\title\\0,1\O,0,-0.98638925,1.43609386,0.0
 6225584\C,0,-0.9241603,-0.56945791,-0.05919771\C,0,0.43200432,-0.89997
 924,-0.40543077\C,0,1.11508778,0.51534998,-0.63972617\C,0,0.38877731,1
 .56044059,-0.33772436\C,0,1.1520137,-1.63391579,0.6315316\N,0,1.678588
 53,-2.2253751,1.4607197\H,0,-1.12513625,1.85501741,0.92414776\H,0,-1.2
 8534378,-0.6719141,0.95508539\H,0,-1.67030116,-0.52332212,-0.83851553\

 Normal termination of Gaussian 16 at Wed Apr  9 16:24:51 2025.
