 Gaussian 16, Revision C.01,

 ----------------------------------------------------------------------
 #t hf aug-cc-pvdz symm=none int=(grid=ultrafine) guess=(read,tcheck) s
 table=(opt,rrhf)
 ----------------------------------------------------------------------
 -----
 title
 -----
 Symbolic Z-matrix:
 Charge =  0 Multiplicity = 1

 SCF Done:  E(RHF) =  -358.475476492     A.U. after   15 cycles
 Normal termination of Gaussian 16 at Wed Apr  9 15:10:43 2025.
 Gaussian 16:  ES64L-G16RevC.01  3-Jul-2019

 ----------------------------------------------------------------------
 #t hf aug-cc-pvdz iop(5/13=1,5/36=2,99/5=2) pseudo=read geom=check gue
 ss=(read,tcheck) scf=(maxcycle=1)
 ----------------------------------------------------------------------
 -----
 title
 -----
 Structure from the checkpoint file:  "Grambow2020_wb97xd3_006802_reverse_mol1.chk"
 Charge =  0 Multiplicity = 1

                         Standard orientation:
 ---------------------------------------------------------------------
 Center     Atomic      Atomic             Coordinates (Angstroms)
 Number     Number       Type             X           Y           Z
 ---------------------------------------------------------------------
      1          8           0        2.878276   -0.330450   -0.282349
      2          6           0        1.693359   -0.111559   -0.384783
      3          6           0        0.734319   -0.213133    0.684426
      4          6           0       -0.407003    1.412957    0.051706
      5          7           0       -0.583402    0.133212    0.416006
      6          6           0       -1.651723   -0.699801    0.063844
      7          8           0       -2.644888   -0.285307   -0.452683
      8          1           0        1.232376    0.154979   -1.365043
      9          1           0        1.015299   -0.610639    1.654598
     10          1           0       -0.801632    1.775367   -0.893083
     11          1           0        0.006401    2.097300    0.774469
     12          1           0       -1.449436   -1.754227    0.306112
 ---------------------------------------------------------------------

 SCF Done:  E(RHF) =  -358.587045623     A.U. after    2 cycles

 The electronic state is 1-A.
 Alpha  occ. eigenvalues --  -20.60708 -20.53902 -15.73282 -11.41410 -11.36796
 Alpha  occ. eigenvalues --  -11.33658 -11.30523  -1.41968  -1.33836  -1.31054
 Alpha  occ. eigenvalues --   -1.00882  -0.99807  -0.85398  -0.80907  -0.75917
 Alpha  occ. eigenvalues --   -0.72391  -0.70059  -0.67441  -0.64482  -0.61784
 Alpha  occ. eigenvalues --   -0.59692  -0.54735  -0.51180  -0.47197  -0.42308
 Alpha  occ. eigenvalues --   -0.33719
 Alpha virt. eigenvalues --    0.00854   0.02900   0.03536   0.03890   0.05744
 Alpha virt. eigenvalues --    0.06462   0.08169   0.09231   0.10596   0.11592
 Alpha virt. eigenvalues --    0.12795   0.13368   0.13724   0.14179   0.14786

 Mulliken charges:
               1
     1  O   -0.519748
     2  C    0.504191
     3  C    0.395441
     4  C    0.724663
     5  N   -0.364808
     6  C    0.752534
     7  O   -0.390738
     8  H   -0.164656
     9  H   -0.365823
    10  H   -0.225803
    11  H   -0.178093
    12  H   -0.167161
 Sum of Mulliken charges =  -0.00000

 Dipole moment (field-independent basis, Debye):
    X=             -2.9912    Y=              1.1947    Z=              1.3750  Tot=              3.5021

 Test job not archived.
 1\1\GINC-SE100\SP\RHF\Aug-CC-pVDZ\C4H5N1O2\OHZDE\09-Apr-2025\0\\#t hf
 aug-cc-pvdz iop(5/13=1,5/36=2,99/5=2) pseudo=read geom=check guess=(re
 ad,tcheck) scf=(maxcycle=1)\\title\\0,1\O,0,2.92466981,0.12011866,-0.2
 3660837\C,0,1.72748745,0.01944296,-0.37463752\C,0,0.76313687,0.0425283
 3,0.69437093\C,0,-0.67998113,1.08242931,-0.3933492\N,0,-0.58351349,-0.
 0230459,0.36176527\C,0,-1.41925142,-1.14501411,0.31742192\O,0,-2.45281
 033,-1.15158608,-0.27981769\H,0,1.26829038,-0.14760338,-1.37747891\H,0
 ,1.07694835,0.04463657,1.73346274\H,0,-1.0978292,1.03001341,-1.3945261

 Normal termination of Gaussian 16 at Wed Apr  9 15:10:47 2025.
