 Gaussian 16, Revision C.01,

 ----------------------------------------------------------------------
 #t hf aug-cc-pvdz symm=none int=(grid=ultrafine) guess=(read,tcheck) s
 table=(opt,rrhf)
 ----------------------------------------------------------------------
 -----
 title
 -----
 Symbolic Z-matrix:
 Charge =  0 Multiplicity = 1

 SCF Done:  E(RHF) =  -269.907209086     A.U. after   16 cycles

 1\1\GINC-SE131\Stability\RHF\Aug-CC-pVDZ\C5H10O1\OHZDE\09-Apr-2025\0\\
 #t hf aug-cc-pvdz symm=none int=(grid=ultrafine) guess=(read,tcheck) s
 table=(opt,rrhf)\\title\\0,1\C,0,2.93080112,-0.03356748,0.12982715\C,0
 ,0.62453464,0.17507271,-0.93009645\C,0,-0.10945218,-0.54888388,0.00114
 114\O,0,0.02634345,-1.37807865,0.89373041\C,0,-1.5854964,-0.19027419,-
 0.55926415\C,0,-2.42913611,0.27074215,0.63363847\H,0,3.15566634,1.0234
 0906,0.29835996\H,0,2.51058013,-0.51217028,1.0174902\H,0,3.80664545,-0
 .57687924,-0.24427572\H,0,2.17308438,-0.12298109,-0.72854132\H,0,0.620

 Normal termination of Gaussian 16 at Wed Apr  9 13:55:05 2025.
 Gaussian 16:  ES64L-G16RevC.01  3-Jul-2019

 ----------------------------------------------------------------------
 #t hf aug-cc-pvdz iop(5/13=1,5/36=2,99/5=2) pseudo=read geom=check gue
 ss=(read,tcheck) scf=(maxcycle=1)
 ----------------------------------------------------------------------
 -----
 title
 -----
 Structure from the checkpoint file:  "Grambow2020_b97d3_006749_reverse_mol1.chk"
 Charge =  0 Multiplicity = 1

                         Standard orientation:
 ---------------------------------------------------------------------
 Center     Atomic      Atomic             Coordinates (Angstroms)
 Number     Number       Type             X           Y           Z
 ---------------------------------------------------------------------
      1          6           0       -2.968973   -0.021774    0.342811
      2          6           0       -0.710038   -0.998401   -0.312357
      3          6           0        0.049391    0.164280   -0.273723
      4          8           0       -0.064013    1.384642   -0.297761
      5          6           0        1.505785   -0.521584   -0.446538
      6          6           0        2.414123    0.049747    0.646981
      7          1           0       -3.161394   -0.591553    1.256317
      8          1           0       -2.519257    0.951807    0.551344
      9          1           0       -3.873474    0.075114   -0.269346
     10          1           0       -2.254054   -0.619937   -0.328023
     11          1           0       -0.677091   -1.663216    0.558987
     12          1           0        1.814836   -0.214306   -1.453810
     13          1           0        1.510282   -1.620667   -0.431462
     14          1           0        2.091690   -0.279983    1.644263
     15          1           0        3.446924   -0.293506    0.491048
     16          1           0        2.391914    1.145508    0.619724
 ---------------------------------------------------------------------

 SCF Done:  E(RHF) =  -269.992853345     A.U. after    2 cycles

 The electronic state is 1-A.
 Alpha  occ. eigenvalues --  -20.55359 -11.35439 -11.30588 -11.26672 -11.25086
 Alpha  occ. eigenvalues --  -11.24075  -1.33669  -1.07607  -1.00167  -0.95185
 Alpha  occ. eigenvalues --   -0.84942  -0.73459  -0.66388  -0.63924  -0.62906
 Alpha  occ. eigenvalues --   -0.58201  -0.57655  -0.56498  -0.55874  -0.53385
 Alpha  occ. eigenvalues --   -0.51460  -0.50542  -0.41643  -0.38218
 Alpha virt. eigenvalues --    0.03019   0.03961   0.04600   0.04896   0.06131
 Alpha virt. eigenvalues --    0.06472   0.07053   0.07558   0.07995   0.08806
 Alpha virt. eigenvalues --    0.09211   0.11443   0.12547   0.13678   0.14459

 Mulliken charges:
               1
     1  C    0.478146
     2  C   -0.064416
     3  C    0.349871
     4  O   -0.599692
     5  C    0.015542
     6  C    0.322856
     7  H   -0.022118
     8  H   -0.013908
     9  H   -0.044423
    10  H   -0.101960
    11  H   -0.157896
    12  H   -0.004428
    13  H   -0.084249
    14  H   -0.037529
    15  H   -0.038896
    16  H    0.003100
 Sum of Mulliken charges =  -0.00000

 Dipole moment (field-independent basis, Debye):
    X=              0.2244    Y=             -3.0283    Z=              1.4676  Tot=              3.3727

 Test job not archived.
 1\1\GINC-SE131\SP\RHF\Aug-CC-pVDZ\C5H10O1\OHZDE\09-Apr-2025\0\\#t hf a
 ug-cc-pvdz iop(5/13=1,5/36=2,99/5=2) pseudo=read geom=check guess=(rea
 d,tcheck) scf=(maxcycle=1)\\title\\0,1\C,0,2.93080112,-0.03356748,0.12
 982715\C,0,0.62453464,0.17507271,-0.93009645\C,0,-0.10945218,-0.548883
 88,0.00114114\O,0,0.02634345,-1.37807865,0.89373041\C,0,-1.5854964,-0.
 19027419,-0.55926415\C,0,-2.42913611,0.27074215,0.63363847\H,0,3.15566
 634,1.02340906,0.29835996\H,0,2.51058013,-0.51217028,1.0174902\H,0,3.8
 0664545,-0.57687924,-0.24427572\H,0,2.17308438,-0.12298109,-0.72854132

 Normal termination of Gaussian 16 at Wed Apr  9 13:55:09 2025.
