 Gaussian 16, Revision C.01,

 ----------------------------------------------------------------------
 #t hf aug-cc-pvdz symm=none int=(grid=ultrafine) guess=(read,tcheck) s
 table=(opt,rrhf)
 ----------------------------------------------------------------------
 -----
 title
 -----
 Symbolic Z-matrix:
 Charge =  0 Multiplicity = 1

 SCF Done:  E(RHF) =  -358.554674121     A.U. after   14 cycles
 Normal termination of Gaussian 16 at Wed Apr  9 03:28:03 2025.
 Gaussian 16:  ES64L-G16RevC.01  3-Jul-2019

 ----------------------------------------------------------------------
 #t hf aug-cc-pvdz iop(5/13=1,5/36=2,99/5=2) pseudo=read geom=check gue
 ss=(read,tcheck) scf=(maxcycle=1)
 ----------------------------------------------------------------------
 -----
 title
 -----
 Structure from the checkpoint file:  "Grambow2020_wb97xd3_006777_reverse_mol2.chk"
 Charge =  0 Multiplicity = 1

                         Standard orientation:
 ---------------------------------------------------------------------
 Center     Atomic      Atomic             Coordinates (Angstroms)
 Number     Number       Type             X           Y           Z
 ---------------------------------------------------------------------
      1          8           0       -1.272212    0.649418   -0.613442
      2          6           0       -0.346201    1.256709    0.207700
      3          6           0        0.907239    0.842592    0.319938
      4          6           0        2.546665   -0.678296   -0.107308
      5          7           0        1.373694   -0.283886   -0.360175
      6          6           0       -1.747773   -0.566980   -0.270334
      7          8           0       -1.524392   -1.151155    0.740282
      8          1           0       -0.721917    2.129406    0.725384
      9          1           0        1.582598    1.401539    0.967347
     10          1           0        2.934368   -1.551337   -0.626145
     11          1           0        3.202783   -0.184199    0.618963
     12          1           0       -2.400444   -0.918457   -1.079020
 ---------------------------------------------------------------------

 SCF Done:  E(RHF) =  -358.668883652     A.U. after    2 cycles

 The electronic state is 1-A.
 Alpha  occ. eigenvalues --  -20.63284 -20.57188 -15.64725 -11.40091 -11.31276
 Alpha  occ. eigenvalues --  -11.30424 -11.28121  -1.43750  -1.34805  -1.22866
 Alpha  occ. eigenvalues --   -1.05268  -0.92479  -0.84393  -0.76104  -0.74178
 Alpha  occ. eigenvalues --   -0.72493  -0.70585  -0.64917  -0.62882  -0.59367
 Alpha  occ. eigenvalues --   -0.58028  -0.51975  -0.49367  -0.48169  -0.42677
 Alpha  occ. eigenvalues --   -0.35455
 Alpha virt. eigenvalues --    0.03283   0.03957   0.04217   0.05824   0.06649
 Alpha virt. eigenvalues --    0.07376   0.09818   0.10582   0.10985   0.11219
 Alpha virt. eigenvalues --    0.12693   0.13860   0.14263   0.15282   0.15748

 Mulliken charges:
               1
     1  O   -0.608967
     2  C    0.793245
     3  C    0.621694
     4  C    0.584280
     5  N   -0.450088
     6  C    0.803936
     7  O   -0.380984
     8  H   -0.275568
     9  H   -0.436386
    10  H   -0.289420
    11  H   -0.201315
    12  H   -0.160426
 Sum of Mulliken charges =  -0.00000

 Dipole moment (field-independent basis, Debye):
    X=              1.7980    Y=              1.4205    Z=             -0.3894  Tot=              2.3242

 Test job not archived.
 1\1\GINC-SE437\SP\RHF\Aug-CC-pVDZ\C4H5N1O2\OHZDE\09-Apr-2025\0\\#t hf
 aug-cc-pvdz iop(5/13=1,5/36=2,99/5=2) pseudo=read geom=check guess=(re
 ad,tcheck) scf=(maxcycle=1)\\title\\0,1\O,0,0.67734041,-1.70412291,0.1
 5924405\C,0,1.29726711,-0.51274961,-0.15203357\C,0,0.75527793,0.672269
 98,0.08708779\C,0,-1.00989846,1.96160603,0.72358183\N,0,-0.52167865,0.
 79993883,0.63678792\C,0,-0.39161533,-2.0914528,-0.56932545\O,0,-0.8145
 5364,-1.55275076,-1.54062839\H,0,2.28673844,-0.62832962,-0.57434486\H,
 0,1.32918159,1.5650417,-0.16042364\H,0,-2.00140714,2.08792044,1.150969

 Normal termination of Gaussian 16 at Wed Apr  9 03:28:07 2025.
