 Gaussian 16, Revision C.01,

 ----------------------------------------------------------------------
 #t hf aug-cc-pvdz symm=none int=(grid=ultrafine) guess=(read,tcheck) s
 table=(opt,rrhf)
 ----------------------------------------------------------------------
 -----
 title
 -----
 Symbolic Z-matrix:
 Charge =  0 Multiplicity = 1

 SCF Done:  E(RHF) =  -268.773758238     A.U. after   15 cycles
 Normal termination of Gaussian 16 at Wed Apr  9 14:23:19 2025.
 Gaussian 16:  ES64L-G16RevC.01  3-Jul-2019

 ----------------------------------------------------------------------
 #t hf aug-cc-pvdz iop(5/13=1,5/36=2,99/5=2) pseudo=read geom=check gue
 ss=(read,tcheck) scf=(maxcycle=1)
 ----------------------------------------------------------------------
 -----
 title
 -----
 Structure from the checkpoint file:  "Grambow2020_wb97xd3_006188_reverse_mol2.chk"
 Charge =  0 Multiplicity = 1

                         Standard orientation:
 ---------------------------------------------------------------------
 Center     Atomic      Atomic             Coordinates (Angstroms)
 Number     Number       Type             X           Y           Z
 ---------------------------------------------------------------------
      1          8           0        2.393436    0.006022   -0.138419
      2          6           0        1.176455   -0.024280   -0.596153
      3          6           0       -0.903929    1.077752    0.220036
      4          6           0        0.161810   -0.023676    0.492660
      5          6           0       -0.948955   -1.072530    0.209435
      6          6           0       -1.777079    0.023979   -0.484852
      7          1           0        2.435255    0.016518    0.841159
      8          1           0       -0.580564    1.942609   -0.358117
      9          1           0       -1.340521    1.416995    1.159940
     10          1           0        0.609066   -0.036831    1.503554
     11          1           0       -0.661334   -1.942789   -0.379185
     12          1           0       -1.403471   -1.403762    1.143609
     13          1           0       -1.606891    0.025640   -1.560483
     14          1           0       -2.848833    0.045966   -0.289882
 ---------------------------------------------------------------------

 SCF Done:  E(RHF) =  -268.856193058     A.U. after    2 cycles

 The electronic state is 1-A.
 Alpha  occ. eigenvalues --  -20.63953 -11.30051 -11.24455 -11.24264 -11.24138
 Alpha  occ. eigenvalues --  -11.23150  -1.40634  -1.13786  -0.94672  -0.90637
 Alpha  occ. eigenvalues --   -0.85739  -0.78214  -0.68814  -0.68361  -0.62900
 Alpha  occ. eigenvalues --   -0.60918  -0.57718  -0.55348  -0.50673  -0.47891
 Alpha  occ. eigenvalues --   -0.45112  -0.44738  -0.35245
 Alpha virt. eigenvalues --    0.02954   0.04092   0.04629   0.05137   0.06370
 Alpha virt. eigenvalues --    0.07058   0.07073   0.08360   0.10703   0.11704
 Alpha virt. eigenvalues --    0.12164   0.12448   0.13237   0.14003   0.14717

 Mulliken charges:
               1
     1  O   -0.313470
     2  C    0.064063
     3  C    0.675813
     4  C   -0.009579
     5  C    0.684273
     6  C    0.285336
     7  H    0.148644
     8  H   -0.202671
     9  H   -0.178600
    10  H   -0.385647
    11  H   -0.201444
    12  H   -0.177032
    13  H   -0.183490
    14  H   -0.206194
 Sum of Mulliken charges =   0.00000

 Dipole moment (field-independent basis, Debye):
    X=             -1.1461    Y=              0.0460    Z=              3.1465  Tot=              3.3491

 Test job not archived.
 1\1\GINC-SE229\SP\RHF\Aug-CC-pVDZ\C5H8O1\OHZDE\09-Apr-2025\0\\#t hf au
 g-cc-pvdz iop(5/13=1,5/36=2,99/5=2) pseudo=read geom=check guess=(read
 ,tcheck) scf=(maxcycle=1)\\title\\0,1\O,0,0.70460098,1.70352976,2.0732
 5927\C,0,0.56615638,0.5372155,1.51466625\C,0,0.83468304,-0.18099558,-0
 .85613533\C,0,-0.0301111,0.62824209,0.15407882\C,0,-1.13516087,-0.4475
 3009,-0.03483838\C,0,-0.07791141,-1.39882274,-0.62426149\H,0,0.3873263
 5,2.43987028,1.50883725\H,0,1.89394875,-0.28499067,-0.62387801\H,0,0.7
 2594196,0.23416334,-1.85860031\H,0,-0.29050649,1.66215007,-0.13806078\

 Normal termination of Gaussian 16 at Wed Apr  9 14:23:23 2025.
