 Gaussian 16, Revision C.01,

 ----------------------------------------------------------------------
 #t hf aug-cc-pvdz symm=none int=(grid=ultrafine) guess=(read,tcheck) s
 table=(opt,rrhf)
 ----------------------------------------------------------------------
 -----
 title
 -----
 Symbolic Z-matrix:
 Charge =  0 Multiplicity = 1

 SCF Done:  E(RHF) =  -308.928147444     A.U. after   15 cycles

 1\1\GINC-SE123\Stability\RHF\Aug-CC-pVDZ\C6H12O1\OHZDE\09-Apr-2025\0\\
 #t hf aug-cc-pvdz symm=none int=(grid=ultrafine) guess=(read,tcheck) s
 table=(opt,rrhf)\\title\\0,1\C,0,-0.96800785,-1.67614444,-0.81482524\C
 ,0,-0.77835209,-0.17927972,-0.74555483\C,0,-1.00893983,0.44333273,0.61
 877502\C,0,-0.15295455,1.70861531,0.82250143\O,0,0.74808638,1.81595716
 ,-0.28269367\C,0,1.25370116,0.65517656,-0.74747964\C,0,1.88487158,-0.2
 5372464,0.27412515\H,0,-1.99843384,-1.95128878,-0.57201139\H,0,-0.7491
 0461,-2.06223956,-1.81147293\H,0,-0.31781906,-2.18547104,-0.09956364\H

 Normal termination of Gaussian 16 at Wed Apr  9 03:28:16 2025.
 Gaussian 16:  ES64L-G16RevC.01  3-Jul-2019

 ----------------------------------------------------------------------
 #t hf aug-cc-pvdz iop(5/13=1,5/36=2,99/5=2) pseudo=read geom=check gue
 ss=(read,tcheck) scf=(maxcycle=1)
 ----------------------------------------------------------------------
 -----
 title
 -----
 Structure from the checkpoint file:  "Grambow2020_wb97xd3_006736_forward_mol1.chk"
 Charge =  0 Multiplicity = 1

                         Standard orientation:
 ---------------------------------------------------------------------
 Center     Atomic      Atomic             Coordinates (Angstroms)
 Number     Number       Type             X           Y           Z
 ---------------------------------------------------------------------
      1          6           0        2.348160    0.216687   -0.017056
      2          6           0        1.037197   -0.370092   -0.484430
      3          6           0        0.282767   -1.183706    0.550500
      4          6           0       -1.240491   -1.127794    0.323093
      5          8           0       -1.499701   -0.166039   -0.702914
      6          6           0       -0.718617    0.933457   -0.692853
      7          6           0       -0.623314    1.671727    0.616356
      8          1           0        3.052885   -0.572506    0.260394
      9          1           0        2.817516    0.819969   -0.795548
     10          1           0        2.201886    0.846896    0.863398
     11          1           0        1.146205   -0.933730   -1.416232
     12          1           0        0.531940   -0.811702    1.546349
     13          1           0        0.617340   -2.223196    0.514498
     14          1           0       -1.769651   -0.878553    1.247062
     15          1           0       -1.641357   -2.068249   -0.053437
     16          1           0        0.412649    0.583548   -1.118736
     17          1           0       -0.567123    1.080351    1.538336
     18          1           0        0.214528    2.368363    0.588995
     19          1           0       -1.533416    2.275446    0.674562
 ---------------------------------------------------------------------

 SCF Done:  E(RHF) =  -309.024702446     A.U. after    2 cycles

 The electronic state is 1-A.
 Alpha  occ. eigenvalues --  -20.58163 -11.29182 -11.28442 -11.27028 -11.24712
 Alpha  occ. eigenvalues --  -11.24092 -11.22531  -1.36030  -1.08187  -1.01815
 Alpha  occ. eigenvalues --   -0.97738  -0.90486  -0.81412  -0.77002  -0.68064
 Alpha  occ. eigenvalues --   -0.67482  -0.63774  -0.62167  -0.59511  -0.56374
 Alpha  occ. eigenvalues --   -0.55043  -0.54851  -0.53291  -0.51551  -0.48670
 Alpha  occ. eigenvalues --   -0.47852  -0.44391  -0.29752
 Alpha virt. eigenvalues --    0.03117   0.04144   0.04275   0.04826   0.06172
 Alpha virt. eigenvalues --    0.06276   0.06506   0.06840   0.07791   0.08905
 Alpha virt. eigenvalues --    0.09436   0.09968   0.11916   0.12551   0.13606

 Mulliken charges:
               1
     1  C    0.592514
     2  C   -0.497294
     3  C    0.146613
     4  C    0.987875
     5  O   -0.648549
     6  C   -0.143422
     7  C    0.655542
     8  H   -0.030574
     9  H   -0.083005
    10  H   -0.069768
    11  H   -0.199385
    12  H   -0.182933
    13  H   -0.031043
    14  H   -0.094668
    15  H   -0.230936
    16  H    0.146815
    17  H   -0.194166
    18  H   -0.048296
    19  H   -0.075321
 Sum of Mulliken charges =   0.00000

 Dipole moment (field-independent basis, Debye):
    X=              2.1268    Y=             -1.6617    Z=              2.4614  Tot=              3.6528

 Test job not archived.
 1\1\GINC-SE123\SP\RHF\Aug-CC-pVDZ\C6H12O1\OHZDE\09-Apr-2025\0\\#t hf a
 ug-cc-pvdz iop(5/13=1,5/36=2,99/5=2) pseudo=read geom=check guess=(rea
 d,tcheck) scf=(maxcycle=1)\\title\\0,1\C,0,-0.96800785,-1.67614444,-0.
 81482524\C,0,-0.77835209,-0.17927972,-0.74555483\C,0,-1.00893983,0.443
 33273,0.61877502\C,0,-0.15295455,1.70861531,0.82250143\O,0,0.74808638,
 1.81595716,-0.28269367\C,0,1.25370116,0.65517656,-0.74747964\C,0,1.884
 87158,-0.25372464,0.27412515\H,0,-1.99843384,-1.95128878,-0.57201139\H
 ,0,-0.74910461,-2.06223956,-1.81147293\H,0,-0.31781906,-2.18547104,-0.

 Normal termination of Gaussian 16 at Wed Apr  9 03:28:23 2025.
