 Gaussian 16, Revision C.01,

 ----------------------------------------------------------------------
 #t hf aug-cc-pvdz symm=none int=(grid=ultrafine) guess=(read,tcheck) s
 table=(opt,rrhf)
 ----------------------------------------------------------------------
 -----
 title
 -----
 Symbolic Z-matrix:
 Charge =  0 Multiplicity = 1

 SCF Done:  E(RHF) =  -302.807034105     A.U. after   15 cycles
 Normal termination of Gaussian 16 at Wed Apr  9 16:16:57 2025.
 Gaussian 16:  ES64L-G16RevC.01  3-Jul-2019

 ----------------------------------------------------------------------
 #t hf aug-cc-pvdz iop(5/13=1,5/36=2,99/5=2) pseudo=read geom=check gue
 ss=(read,tcheck) scf=(maxcycle=1)
 ----------------------------------------------------------------------
 -----
 title
 -----
 Structure from the checkpoint file:  "Grambow2020_wb97xd3_008041_reverse_mol1.chk"
 Charge =  0 Multiplicity = 1

                         Standard orientation:
 ---------------------------------------------------------------------
 Center     Atomic      Atomic             Coordinates (Angstroms)
 Number     Number       Type             X           Y           Z
 ---------------------------------------------------------------------
      1          6           0       -1.138235    1.700176   -0.001606
      2          6           0       -1.079051    0.243310    0.386298
      3          6           0       -1.168241   -0.891437   -0.677250
      4          7           0       -0.107007   -1.543258    0.095145
      5          6           0        0.189935   -0.474091    0.792801
      6          6           0        1.644229    0.594478   -0.738191
      7          7           0        2.409637    0.328986    0.105291
      8          1           0       -0.461559    1.904225   -0.827747
      9          1           0       -2.160592    1.962127   -0.280977
     10          1           0       -0.845918    2.329049    0.840399
     11          1           0       -1.800351    0.034812    1.184396
     12          1           0       -0.795442   -0.563374   -1.649801
     13          1           0       -2.093470   -1.459498   -0.756786
     14          1           0        0.467239   -2.347376   -0.100690
     15          1           0        0.879868   -0.394674    1.615846
 ---------------------------------------------------------------------

 SCF Done:  E(RHF) =  -302.897222734     A.U. after    2 cycles

 The electronic state is 1-A.
 Alpha  occ. eigenvalues --  -15.71006 -15.55441 -11.38943 -11.31691 -11.29741
 Alpha  occ. eigenvalues --  -11.24237 -11.17186  -1.33218  -1.10836  -1.07083
 Alpha  occ. eigenvalues --   -0.97604  -0.94307  -0.79471  -0.78227  -0.70398
 Alpha  occ. eigenvalues --   -0.66583  -0.60462  -0.59371  -0.54858  -0.53151
 Alpha  occ. eigenvalues --   -0.52422  -0.50886  -0.50066  -0.39326  -0.38402
 Alpha  occ. eigenvalues --   -0.37862
 Alpha virt. eigenvalues --    0.01760   0.03086   0.03309   0.04869   0.06116
 Alpha virt. eigenvalues --    0.06446   0.06740   0.08024   0.08747   0.10351
 Alpha virt. eigenvalues --    0.11226   0.12184   0.12584   0.13043   0.14024

 Mulliken charges:
               1
     1  C    0.528318
     2  C   -0.545374
     3  C    1.072185
     4  N   -0.465315
     5  C    0.912989
     6  C   -0.276684
     7  N   -0.523396
     8  H    0.003720
     9  H    0.013222
    10  H    0.019037
    11  H   -0.115684
    12  H   -0.143993
    13  H   -0.152145
    14  H   -0.091157
    15  H   -0.235720
 Sum of Mulliken charges =  -0.00000

 Dipole moment (field-independent basis, Debye):
    X=             -6.9689    Y=             -3.6956    Z=              1.9416  Tot=              8.1236

 Test job not archived.
 1\1\GINC-SE114\SP\RHF\Aug-CC-pVDZ\C5H8N2\OHZDE\09-Apr-2025\0\\#t hf au
 g-cc-pvdz iop(5/13=1,5/36=2,99/5=2) pseudo=read geom=check guess=(read
 ,tcheck) scf=(maxcycle=1)\\title\\0,1\C,0,1.64751691,-0.44093803,-0.46
 926273\C,0,0.6344978,0.35798024,0.31301095\C,0,-0.37815661,1.30959947,
 -0.39104306\N,0,-1.36221376,0.77727342,0.55549959\C,0,-0.61463727,-0.2
 3166726,0.93124539\C,0,-1.12091367,-1.75585143,-0.80694262\N,0,-1.6161
 4287,-2.31475707,0.09315152\H,0,1.17212446,-0.94853392,-1.30495524\H,0
 ,2.43421663,0.22318093,-0.83248393\H,0,2.10962496,-1.19571428,0.168446

 Normal termination of Gaussian 16 at Wed Apr  9 16:17:03 2025.
