 Gaussian 16, Revision C.01,

 ----------------------------------------------------------------------
 #t hf aug-cc-pvdz symm=none int=(grid=ultrafine) guess=(read,tcheck) s
 table=(opt,rrhf)
 ----------------------------------------------------------------------
 -----
 title
 -----
 Symbolic Z-matrix:
 Charge =  0 Multiplicity = 1

 SCF Done:  E(RHF) =  -310.244698299     A.U. after   12 cycles

 1\1\GINC-SE131\Stability\RHF\Aug-CC-pVDZ\C6H14O1\OHZDE\09-Apr-2025\0\\
 #t hf aug-cc-pvdz symm=none int=(grid=ultrafine) guess=(read,tcheck) s
 table=(opt,rrhf)\\title\\0,1\C,0,-0.52333751,-0.5251104,-0.21445626\C,
 0,-2.00947516,-0.1064584,-0.25356293\C,0,-2.05211742,1.3515797,0.26120
 336\C,0,-0.65163448,1.6279487,0.81843079\C,0,0.25748197,0.78374486,-0.
 07094916\O,0,2.67962691,-1.774713,-0.01623551\C,0,2.97976134,-1.467102
 22,-1.36042897\H,0,-0.34357846,-1.15310115,0.66456952\H,0,1.72842341,-
 1.85619802,0.07188692\H,0,-0.23423468,-1.10273828,-1.09592903\H,0,-2.4

 Normal termination of Gaussian 16 at Wed Apr  9 16:03:30 2025.
 Gaussian 16:  ES64L-G16RevC.01  3-Jul-2019

 ----------------------------------------------------------------------
 #t hf aug-cc-pvdz iop(5/13=1,5/36=2,99/5=2) pseudo=read geom=check gue
 ss=(read,tcheck) scf=(maxcycle=1)
 ----------------------------------------------------------------------
 -----
 title
 -----
 Structure from the checkpoint file:  "Grambow2020_wb97xd3_007722_reverse_mol2.chk"
 Charge =  0 Multiplicity = 1

                         Standard orientation:
 ---------------------------------------------------------------------
 Center     Atomic      Atomic             Coordinates (Angstroms)
 Number     Number       Type             X           Y           Z
 ---------------------------------------------------------------------
      1          6           0       -0.358048    0.745302   -0.144461
      2          6           0       -1.815039    1.226371    0.032042
      3          6           0       -2.672785   -0.055545    0.148827
      4          6           0       -1.734509   -1.208721   -0.222733
      5          6           0       -0.370744   -0.729016    0.267366
      6          8           0        2.930528   -0.063815   -0.769263
      7          6           0        3.301759    0.011523    0.590175
      8          1           0       -0.071991    0.825133   -1.198582
      9          1           0        2.147616    0.473707   -0.900835
     10          1           0        0.347713    1.346356    0.434214
     11          1           0       -1.918673    1.843463    0.925831
     12          1           0       -2.128052    1.844091   -0.810696
     13          1           0       -3.018177   -0.182775    1.177630
     14          1           0       -3.562919   -0.021575   -0.480674
     15          1           0       -1.705902   -1.339130   -1.309188
     16          1           0       -2.040052   -2.162056    0.211356
     17          1           0       -0.321777   -0.813142    1.358113
     18          1           0        0.465103   -1.296036   -0.145977
     19          1           0        2.511626   -0.354844    1.255872
     20          1           0        3.569530    1.030989    0.890120
     21          1           0        4.177921   -0.623138    0.719620
 ---------------------------------------------------------------------

 SCF Done:  E(RHF) =  -310.344922233     A.U. after    2 cycles

 The electronic state is 1-A.
 Alpha  occ. eigenvalues --  -20.56831 -11.28025 -11.23077 -11.22660 -11.22442
 Alpha  occ. eigenvalues --  -11.22424 -11.22343  -1.31906  -1.11263  -0.95989
 Alpha  occ. eigenvalues --   -0.95773  -0.92333  -0.78275  -0.77542  -0.70386
 Alpha  occ. eigenvalues --   -0.65897  -0.65392  -0.62589  -0.60477  -0.57829
 Alpha  occ. eigenvalues --   -0.57748  -0.50907  -0.48452  -0.48266  -0.47439
 Alpha  occ. eigenvalues --   -0.47060  -0.46772  -0.46000  -0.45665
 Alpha virt. eigenvalues --    0.03336   0.04201   0.04433   0.04671   0.05879
 Alpha virt. eigenvalues --    0.06091   0.06685   0.06821   0.06937   0.08366
 Alpha virt. eigenvalues --    0.08873   0.09342   0.09620   0.11175   0.13701

 Mulliken charges:
               1
     1  C    0.319666
     2  C    0.134714
     3  C    0.229324
     4  C    0.269720
     5  C    0.420498
     6  O   -0.492736
     7  C    0.936629
     8  H   -0.189895
     9  H    0.153563
    10  H   -0.265815
    11  H   -0.050197
    12  H   -0.063054
    13  H   -0.138908
    14  H   -0.130550
    15  H   -0.128926
    16  H   -0.074269
    17  H   -0.192609
    18  H   -0.205097
    19  H   -0.206136
    20  H   -0.117540
    21  H   -0.208383
 Sum of Mulliken charges =  -0.00000

 Dipole moment (field-independent basis, Debye):
    X=             -1.1319    Y=              0.8158    Z=              1.3270  Tot=              1.9255

 Test job not archived.
 1\1\GINC-SE131\SP\RHF\Aug-CC-pVDZ\C6H14O1\OHZDE\09-Apr-2025\0\\#t hf a
 ug-cc-pvdz iop(5/13=1,5/36=2,99/5=2) pseudo=read geom=check guess=(rea
 d,tcheck) scf=(maxcycle=1)\\title\\0,1\C,0,-0.52333751,-0.5251104,-0.2
 1445626\C,0,-2.00947516,-0.1064584,-0.25356293\C,0,-2.05211742,1.35157
 97,0.26120336\C,0,-0.65163448,1.6279487,0.81843079\C,0,0.25748197,0.78
 374486,-0.07094916\O,0,2.67962691,-1.774713,-0.01623551\C,0,2.97976134
 ,-1.46710222,-1.36042897\H,0,-0.34357846,-1.15310115,0.66456952\H,0,1.
 72842341,-1.85619802,0.07188692\H,0,-0.23423468,-1.10273828,-1.0959290

 Normal termination of Gaussian 16 at Wed Apr  9 16:03:53 2025.
