 Gaussian 16, Revision C.01,

 ----------------------------------------------------------------------
 #t hf aug-cc-pvdz symm=none int=(grid=ultrafine) guess=(read,tcheck) s
 table=(opt,rrhf)
 ----------------------------------------------------------------------
 -----
 title
 -----
 Symbolic Z-matrix:
 Charge =  0 Multiplicity = 1

 SCF Done:  E(RHF) =  -338.760761065     A.U. after   15 cycles
 Normal termination of Gaussian 16 at Wed Apr  9 03:59:38 2025.
 Gaussian 16:  ES64L-G16RevC.01  3-Jul-2019

 ----------------------------------------------------------------------
 #t hf aug-cc-pvdz iop(5/13=1,5/36=2,99/5=2) pseudo=read geom=check gue
 ss=(read,tcheck) scf=(maxcycle=1)
 ----------------------------------------------------------------------
 -----
 title
 -----
 Structure from the checkpoint file:  "Grambow2020_wb97xd3_008816_reverse_mol2.chk"
 Charge =  0 Multiplicity = 1

                         Standard orientation:
 ---------------------------------------------------------------------
 Center     Atomic      Atomic             Coordinates (Angstroms)
 Number     Number       Type             X           Y           Z
 ---------------------------------------------------------------------
      1          7           0        1.949589   -0.454035   -0.344800
      2          6           0        0.709113   -0.402184    0.402066
      3          6           0       -0.084498    0.888494    0.094872
      4          8           0        0.316531    2.020620    0.070261
      5          7           0       -1.378944    0.484102   -0.146024
      6          6           0       -1.485016   -0.911097   -0.128232
      7          6           0       -0.324305   -1.481722    0.176926
      8          1           0        1.771768   -0.575806   -1.333106
      9          1           0        2.521654   -1.226814   -0.035358
     10          1           0        0.966531   -0.341682    1.466009
     11          1           0       -2.097828    1.123640   -0.431105
     12          1           0       -2.437782   -1.374655   -0.338804
     13          1           0       -0.142864   -2.541056    0.272245
 ---------------------------------------------------------------------

 SCF Done:  E(RHF) =  -338.863366444     A.U. after    2 cycles

 The electronic state is 1-A.
 Alpha  occ. eigenvalues --  -20.54467 -15.66412 -15.61841 -11.36536 -11.30261
 Alpha  occ. eigenvalues --  -11.28984 -11.24054  -1.36104  -1.25002  -1.16525
 Alpha  occ. eigenvalues --   -1.03433  -0.95022  -0.80831  -0.80136  -0.71636
 Alpha  occ. eigenvalues --   -0.69152  -0.63834  -0.62297  -0.61478  -0.59605
 Alpha  occ. eigenvalues --   -0.57954  -0.54099  -0.48932  -0.43992  -0.39740
 Alpha  occ. eigenvalues --   -0.33426
 Alpha virt. eigenvalues --    0.02563   0.03329   0.04560   0.04667   0.06317
 Alpha virt. eigenvalues --    0.06927   0.09353   0.10767   0.11691   0.12919
 Alpha virt. eigenvalues --    0.13153   0.13531   0.13991   0.14836   0.15299

 Mulliken charges:
               1
     1  N   -0.376177
     2  C    0.084641
     3  C    0.574896
     4  O   -0.480939
     5  N   -0.416045
     6  C    0.524521
     7  C    0.755042
     8  H    0.005785
     9  H   -0.010696
    10  H    0.015639
    11  H   -0.116677
    12  H   -0.272163
    13  H   -0.287825
 Sum of Mulliken charges =   0.00000

 Dipole moment (field-independent basis, Debye):
    X=             -2.6393    Y=             -4.4022    Z=             -0.5137  Tot=              5.1584

 Test job not archived.
 1\1\GINC-SE398\SP\RHF\Aug-CC-pVDZ\C4H6N2O1\OHZDE\09-Apr-2025\0\\#t hf
 aug-cc-pvdz iop(5/13=1,5/36=2,99/5=2) pseudo=read geom=check guess=(re
 ad,tcheck) scf=(maxcycle=1)\\title\\0,1\N,0,-1.8909093,0.3451875,-0.37
 122759\C,0,-0.69334355,0.10104695,0.40691593\C,0,-0.04284926,-1.251914
 24,0.03760628\O,0,-0.57045764,-2.32530455,-0.07465881\N,0,1.29763592,-
 0.98791187,-0.13719702\C,0,1.56302353,0.38126381,-0.02285101\C,0,0.465
 23995,1.06382449,0.28531752\H,0,-1.66356918,0.50733581,-1.34345275\H,0
 ,-2.38124509,1.15871712,-0.02780248\H,0,-0.99545069,0.00419507,1.45632

 Normal termination of Gaussian 16 at Wed Apr  9 03:59:42 2025.
