 Gaussian 16, Revision C.01,

 ----------------------------------------------------------------------
 #t hf aug-cc-pvdz symm=none int=(grid=ultrafine) guess=(read,tcheck) s
 table=(opt,rrhf)
 ----------------------------------------------------------------------
 -----
 title
 -----
 Symbolic Z-matrix:
 Charge =  0 Multiplicity = 1

 SCF Done:  E(RHF) =  -302.905619379     A.U. after   15 cycles
 Normal termination of Gaussian 16 at Wed Apr  9 16:46:09 2025.
 Gaussian 16:  ES64L-G16RevC.01  3-Jul-2019

 ----------------------------------------------------------------------
 #t hf aug-cc-pvdz iop(5/13=1,5/36=2,99/5=2) pseudo=read geom=check gue
 ss=(read,tcheck) scf=(maxcycle=1)
 ----------------------------------------------------------------------
 -----
 title
 -----
 Structure from the checkpoint file:  "Grambow2020_wb97xd3_008878_reverse_mol2.chk"
 Charge =  0 Multiplicity = 1

                         Standard orientation:
 ---------------------------------------------------------------------
 Center     Atomic      Atomic             Coordinates (Angstroms)
 Number     Number       Type             X           Y           Z
 ---------------------------------------------------------------------
      1          6           0        2.294524   -0.489541    0.468128
      2          7           0        0.695477    1.265234   -0.153748
      3          6           0        1.137428   -0.096944   -0.442723
      4          6           0       -0.085540   -0.955291   -0.323320
      5          6           0       -1.114273   -0.155959   -0.007768
      6          7           0       -2.440496   -0.437287    0.275112
      7          6           0       -0.554098    1.203194    0.084421
      8          1           0        2.639825   -1.497692    0.232556
      9          1           0        3.126502    0.203647    0.343406
     10          1           0        1.975398   -0.469470    1.511396
     11          1           0        1.496704   -0.088776   -1.480319
     12          1           0       -0.102785   -2.026330   -0.469614
     13          1           0       -2.764372   -1.336774   -0.038049
     14          1           0       -3.090108    0.296827    0.047950
     15          1           0       -1.134275    2.090181    0.330694
 ---------------------------------------------------------------------

 SCF Done:  E(RHF) =  -302.995647158     A.U. after    2 cycles

 The electronic state is 1-A.
 Alpha  occ. eigenvalues --  -15.63925 -15.61678 -11.28402 -11.28240 -11.26190
 Alpha  occ. eigenvalues --  -11.22391 -11.22293  -1.24370  -1.17922  -1.02520
 Alpha  occ. eigenvalues --   -0.99171  -0.88309  -0.77889  -0.75438  -0.70270
 Alpha  occ. eigenvalues --   -0.67045  -0.62093  -0.60806  -0.55017  -0.54543
 Alpha  occ. eigenvalues --   -0.52343  -0.50740  -0.48478  -0.41404  -0.41198
 Alpha  occ. eigenvalues --   -0.31407
 Alpha virt. eigenvalues --    0.02797   0.03605   0.04495   0.05135   0.05995
 Alpha virt. eigenvalues --    0.06642   0.07724   0.08759   0.10000   0.11019
 Alpha virt. eigenvalues --    0.12045   0.12746   0.13431   0.14250   0.14827

 Mulliken charges:
               1
     1  C    0.570231
     2  N   -0.515236
     3  C   -0.214266
     4  C    0.928613
     5  C   -0.147004
     6  N   -0.365912
     7  C    0.617302
     8  H    0.001275
     9  H   -0.021221
    10  H   -0.012569
    11  H   -0.090079
    12  H   -0.383781
    13  H   -0.015385
    14  H   -0.051049
    15  H   -0.300920
 Sum of Mulliken charges =  -0.00000

 Dipole moment (field-independent basis, Debye):
    X=             -2.3228    Y=             -1.5673    Z=             -0.7870  Tot=              2.9105

 Test job not archived.
 1\1\GINC-SE454\SP\RHF\Aug-CC-pVDZ\C5H8N2\OHZDE\09-Apr-2025\0\\#t hf au
 g-cc-pvdz iop(5/13=1,5/36=2,99/5=2) pseudo=read geom=check guess=(read
 ,tcheck) scf=(maxcycle=1)\\title\\0,1\C,0,2.03634129,-0.52929469,0.720
 03498\N,0,0.86787959,0.69825387,-1.05499699\C,0,0.90352035,-0.5514996,
 -0.29921838\C,0,-0.46939825,-0.71631733,0.27922551\C,0,-1.20652321,0.3
 3038972,-0.11807337\N,0,-2.50852872,0.69919305,0.17654629\C,0,-0.31099
 74,1.16546502,-0.93677647\H,0,2.0771563,-1.47395613,1.26505356\H,0,2.9
 9220395,-0.37177001,0.22026982\H,0,1.87988868,0.27678236,1.43865501\H,

 Normal termination of Gaussian 16 at Wed Apr  9 16:46:14 2025.
