 Gaussian 16, Revision C.01,

 ----------------------------------------------------------------------
 #t hf aug-cc-pvdz symm=none int=(grid=ultrafine) guess=(read,tcheck) s
 table=(opt,rrhf)
 ----------------------------------------------------------------------
 -----
 title
 -----
 Symbolic Z-matrix:
 Charge =  0 Multiplicity = 1

 SCF Done:  E(RHF) =  -305.793564613     A.U. after   13 cycles
 Normal termination of Gaussian 16 at Wed Apr  9 13:57:56 2025.
 Gaussian 16:  ES64L-G16RevC.01  3-Jul-2019

 ----------------------------------------------------------------------
 #t hf aug-cc-pvdz iop(5/13=1,5/36=2,99/5=2) pseudo=read geom=check gue
 ss=(read,tcheck) scf=(maxcycle=1)
 ----------------------------------------------------------------------
 -----
 title
 -----
 Structure from the checkpoint file:  "Grambow2020_b97d3_006755_reverse_mol2.chk"
 Charge =  0 Multiplicity = 1

                         Standard orientation:
 ---------------------------------------------------------------------
 Center     Atomic      Atomic             Coordinates (Angstroms)
 Number     Number       Type             X           Y           Z
 ---------------------------------------------------------------------
      1          6           0       -1.613351   -0.732861    0.012283
      2          6           0       -2.492271    0.501730   -0.015055
      3          6           0        0.274742    0.770536    0.013854
      4          8           0       -0.162674   -0.478738    0.003319
      5          6           0        1.778151    0.687233    0.004733
      6          8           0        2.431723   -0.572168   -0.013524
      7          1           0       -1.781680   -1.374536   -0.862431
      8          1           0       -3.541099    0.168484   -0.011842
      9          1           0       -1.780569   -1.333763    0.915740
     10          1           0       -2.315752    1.141157    0.856810
     11          1           0       -2.310131    1.103758   -0.912335
     12          1           0        2.088126    1.297529   -0.868040
     13          1           0        2.095917    1.275756    0.889440
     14          1           0        1.709176   -1.230971   -0.020588
 ---------------------------------------------------------------------

 SCF Done:  E(RHF) =  -305.890338955     A.U. after    2 cycles

 The electronic state is 1-A.
 Alpha  occ. eigenvalues --  -20.64286 -20.56770 -11.31737 -11.31068 -11.28715
 Alpha  occ. eigenvalues --  -11.24359  -1.40312  -1.31163  -1.05297  -0.97637
 Alpha  occ. eigenvalues --   -0.89166  -0.76367  -0.72449  -0.68912  -0.67150
 Alpha  occ. eigenvalues --   -0.63105  -0.59613  -0.56714  -0.56049  -0.54294
 Alpha  occ. eigenvalues --   -0.52086  -0.50093  -0.45951  -0.37131
 Alpha virt. eigenvalues --    0.03063   0.04522   0.04620   0.04705   0.06621
 Alpha virt. eigenvalues --    0.06673   0.07336   0.07777   0.10702   0.10823
 Alpha virt. eigenvalues --    0.11409   0.13039   0.14098   0.14311   0.15263

 Mulliken charges:
               1
     1  C    0.703015
     2  C    0.182886
     3  C   -0.265645
     4  O   -0.585750
     5  C    0.768607
     6  O   -0.602071
     7  H   -0.153148
     8  H   -0.056554
     9  H   -0.151060
    10  H   -0.000595
    11  H   -0.005911
    12  H   -0.016776
    13  H   -0.015946
    14  H    0.198946
 Sum of Mulliken charges =  -0.00000

 Dipole moment (field-independent basis, Debye):
    X=             -3.1171    Y=             -0.6513    Z=              0.0056  Tot=              3.1844

 Test job not archived.
 1\1\GINC-SE131\SP\RHF\Aug-CC-pVDZ\C4H8O2\OHZDE\09-Apr-2025\0\\#t hf au
 g-cc-pvdz iop(5/13=1,5/36=2,99/5=2) pseudo=read geom=check guess=(read
 ,tcheck) scf=(maxcycle=1)\\title\\0,1\C,0,-1.27360581,0.60644283,-0.43
 71121\C,0,-2.0184417,-0.68603456,-0.16844466\C,0,0.72854785,-0.5585837
 4,0.24052715\O,0,0.17381923,0.57200661,-0.16711544\C,0,2.1942867,-0.26
 421819,0.42002352\O,0,2.70801187,1.03236519,0.15822236\H,0,-1.64606537
 ,1.43044952,0.1853777\H,0,-3.08026085,-0.51787855,-0.40374707\H,0,-1.3
 4878024,0.91042057,-1.48935977\H,0,-1.63863483,-1.50597097,-0.78782017

 Normal termination of Gaussian 16 at Wed Apr  9 13:58:00 2025.
