 Gaussian 16, Revision C.01,

 ----------------------------------------------------------------------
 #t hf aug-cc-pvdz symm=none int=(grid=ultrafine) guess=(read,tcheck) s
 table=(opt,rrhf)
 ----------------------------------------------------------------------
 -----
 title
 -----
 Symbolic Z-matrix:
 Charge =  0 Multiplicity = 1

 SCF Done:  E(RHF) =  -307.777629837     A.U. after   15 cycles

 1\1\GINC-SE229\Stability\RHF\Aug-CC-pVDZ\C6H10O1\OHZDE\09-Apr-2025\0\\
 #t hf aug-cc-pvdz symm=none int=(grid=ultrafine) guess=(read,tcheck) s
 table=(opt,rrhf)\\title\\0,1\C,0,1.86682546,-0.44972923,-0.54717837\C,
 0,0.48562358,-0.69628516,-0.06555836\C,0,-0.10189081,-0.83133181,1.131
 66287\C,0,-1.48307757,-1.07420182,0.55950845\C,0,-0.80218569,-0.909317
 01,-0.83280952\C,0,-0.08305334,2.6728936,-0.37249163\O,0,-0.30715751,2
 .28528427,0.84459932\H,0,1.89202241,0.46381712,-1.14572083\H,0,2.19838
 334,-1.27223989,-1.18618208\H,0,2.56850161,-0.34892109,0.28160785\H,0,

 Normal termination of Gaussian 16 at Wed Apr  9 16:03:16 2025.
 Gaussian 16:  ES64L-G16RevC.01  3-Jul-2019

 ----------------------------------------------------------------------
 #t hf aug-cc-pvdz iop(5/13=1,5/36=2,99/5=2) pseudo=read geom=check gue
 ss=(read,tcheck) scf=(maxcycle=1)
 ----------------------------------------------------------------------
 -----
 title
 -----
 Structure from the checkpoint file:  "Grambow2020_wb97xd3_007728_reverse_mol2.chk"
 Charge =  0 Multiplicity = 1

                         Standard orientation:
 ---------------------------------------------------------------------
 Center     Atomic      Atomic             Coordinates (Angstroms)
 Number     Number       Type             X           Y           Z
 ---------------------------------------------------------------------
      1          6           0       -0.595952    2.029010   -0.112607
      2          6           0       -0.860504    0.569569   -0.090053
      3          6           0       -0.949657   -0.402388   -1.008803
      4          6           0       -1.267328   -1.488608   -0.002208
      5          6           0       -1.155907   -0.360559    1.067578
      6          6           0        2.467189    0.109391    0.605407
      7          8           0        2.138735   -0.526994   -0.475752
      8          1           0        0.284341    2.254511    0.493765
      9          1           0       -1.440615    2.574450    0.316137
     10          1           0       -0.428094    2.390483   -1.127772
     11          1           0       -0.874357   -0.403422   -2.091336
     12          1           0       -0.531287   -2.289971    0.095084
     13          1           0       -2.259095   -1.935868   -0.090644
     14          1           0       -2.083558   -0.146450    1.603017
     15          1           0       -0.343388   -0.471310    1.787828
     16          1           0        3.556164   -0.106376    0.706772
     17          1           0        1.182970   -0.388595   -0.642715
 ---------------------------------------------------------------------

 SCF Done:  E(RHF) =  -307.874375375     A.U. after    2 cycles

 The electronic state is 1-A.
 Alpha  occ. eigenvalues --  -20.63467 -11.30391 -11.25541 -11.23970 -11.23805
 Alpha  occ. eigenvalues --  -11.23613 -11.23493  -1.40275  -1.15420  -0.99320
 Alpha  occ. eigenvalues --   -0.90288  -0.89012  -0.85682  -0.70209  -0.69565
 Alpha  occ. eigenvalues --   -0.64575  -0.64253  -0.62754  -0.60049  -0.59548
 Alpha  occ. eigenvalues --   -0.56950  -0.51174  -0.51043  -0.47308  -0.45789
 Alpha  occ. eigenvalues --   -0.36975  -0.35077
 Alpha virt. eigenvalues --    0.03459   0.04177   0.04497   0.04726   0.06213
 Alpha virt. eigenvalues --    0.06421   0.06931   0.07237   0.07440   0.09483
 Alpha virt. eigenvalues --    0.10450   0.11537   0.12339   0.12692   0.13724

 Mulliken charges:
               1
     1  C    0.394179
     2  C   -0.662247
     3  C    0.128558
     4  C    0.655257
     5  C    0.329343
     6  C    0.174073
     7  O   -0.349742
     8  H    0.069960
     9  H    0.024244
    10  H   -0.028032
    11  H   -0.376954
    12  H   -0.178231
    13  H   -0.136590
    14  H   -0.117658
    15  H   -0.126453
    16  H   -0.139738
    17  H    0.340029
 Sum of Mulliken charges =  -0.00000

 Dipole moment (field-independent basis, Debye):
    X=             -1.1568    Y=              0.1081    Z=             -0.5244  Tot=              1.2747

 Test job not archived.
 1\1\GINC-SE229\SP\RHF\Aug-CC-pVDZ\C6H10O1\OHZDE\09-Apr-2025\0\\#t hf a
 ug-cc-pvdz iop(5/13=1,5/36=2,99/5=2) pseudo=read geom=check guess=(rea
 d,tcheck) scf=(maxcycle=1)\\title\\0,1\C,0,1.86682546,-0.44972923,-0.5
 4717837\C,0,0.48562358,-0.69628516,-0.06555836\C,0,-0.10189081,-0.8313
 3181,1.13166287\C,0,-1.48307757,-1.07420182,0.55950845\C,0,-0.80218569
 ,-0.90931701,-0.83280952\C,0,-0.08305334,2.6728936,-0.37249163\O,0,-0.
 30715751,2.28528427,0.84459932\H,0,1.89202241,0.46381712,-1.14572083\H
 ,0,2.19838334,-1.27223989,-1.18618208\H,0,2.56850161,-0.34892109,0.281

 Normal termination of Gaussian 16 at Wed Apr  9 16:03:22 2025.
