 Gaussian 16, Revision C.01,

 ----------------------------------------------------------------------
 #t hf aug-cc-pvdz symm=none int=(grid=ultrafine) guess=(read,tcheck) s
 table=(opt,rrhf)
 ----------------------------------------------------------------------
 -----
 title
 -----
 Symbolic Z-matrix:
 Charge =  0 Multiplicity = 1

 SCF Done:  E(RHF) =  -318.784912142     A.U. after   15 cycles
 Normal termination of Gaussian 16 at Wed Apr  9 15:26:51 2025.
 Gaussian 16:  ES64L-G16RevC.01  3-Jul-2019

 ----------------------------------------------------------------------
 #t hf aug-cc-pvdz iop(5/13=1,5/36=2,99/5=2) pseudo=read geom=check gue
 ss=(read,tcheck) scf=(maxcycle=1)
 ----------------------------------------------------------------------
 -----
 title
 -----
 Structure from the checkpoint file:  "Grambow2020_wb97xd3_006914_reverse_mol2.chk"
 Charge =  0 Multiplicity = 1

                         Standard orientation:
 ---------------------------------------------------------------------
 Center     Atomic      Atomic             Coordinates (Angstroms)
 Number     Number       Type             X           Y           Z
 ---------------------------------------------------------------------
      1          7           0        2.375954   -0.551751    0.059067
      2          6           0        0.972584   -0.125966   -0.097319
      3          6           0       -0.017050   -1.032851   -0.065959
      4          6           0       -1.164823   -0.132692   -0.031917
      5          7           0       -2.483659   -0.604672   -0.063438
      6          6           0       -0.768502    1.171260    0.027628
      7          7           0        0.640030    1.217240    0.068926
      8          1           0        2.784981   -0.262921    0.948453
      9          1           0        3.001267   -0.274859   -0.697073
     10          1           0        2.261362   -1.571671    0.052514
     11          1           0       -3.140179   -0.048389    0.460109
     12          1           0       -2.519545   -1.571464    0.219132
     13          1           0       -1.335653    2.090481    0.054547
     14          1           0        1.088230    1.934604   -0.484161
 ---------------------------------------------------------------------

 SCF Done:  E(RHF) =  -318.878179675     A.U. after    2 cycles

 The electronic state is 1-A.
 Alpha  occ. eigenvalues --  -15.77368 -15.63029 -15.58143 -11.26224 -11.22737
 Alpha  occ. eigenvalues --  -11.21836 -11.14864  -1.29912  -1.21168  -1.12611
 Alpha  occ. eigenvalues --   -0.97756  -0.92329  -0.79082  -0.78097  -0.76173
 Alpha  occ. eigenvalues --   -0.71662  -0.68223  -0.63716  -0.56739  -0.56140
 Alpha  occ. eigenvalues --   -0.53396  -0.48343  -0.43253  -0.30101  -0.29518
 Alpha  occ. eigenvalues --   -0.25690
 Alpha virt. eigenvalues --    0.00490   0.03331   0.03763   0.04937   0.06094
 Alpha virt. eigenvalues --    0.07013   0.09230   0.10252   0.11742   0.11930
 Alpha virt. eigenvalues --    0.13464   0.14459   0.14924   0.15172   0.15577

 Mulliken charges:
               1
     1  N   -0.301878
     2  C    0.573281
     3  C   -0.572752
     4  C    0.659244
     5  N   -0.447218
     6  C    0.514485
     7  N   -0.489625
     8  H    0.126912
     9  H    0.169796
    10  H    0.222302
    11  H   -0.046120
    12  H   -0.010173
    13  H   -0.334716
    14  H   -0.063539
 Sum of Mulliken charges =  -0.00000

 Dipole moment (field-independent basis, Debye):
    X=              7.3405    Y=              1.9698    Z=              0.8635  Tot=              7.6491

 Test job not archived.
 1\1\GINC-SE332\SP\RHF\Aug-CC-pVDZ\C4H7N3\OHZDE\09-Apr-2025\0\\#t hf au
 g-cc-pvdz iop(5/13=1,5/36=2,99/5=2) pseudo=read geom=check guess=(read
 ,tcheck) scf=(maxcycle=1)\\title\\0,1\N,0,-2.17983291,-0.82071984,-0.0
 1245396\C,0,-0.83944704,-0.22087722,0.12447688\C,0,0.24393676,-1.00523
 635,0.24220254\C,0,1.28668747,0.00795189,0.11993704\N,0,2.64671248,-0.
 30231417,0.25091905\C,0,0.75292309,1.23931717,-0.12448185\N,0,-0.64913
 209,1.1184883,-0.2106545\H,0,-2.57974026,-0.69836474,-0.94349496\H,0,-
 2.86334899,-0.52121278,0.68219259\H,0,-1.95467715,-1.81136063,0.133652

 Normal termination of Gaussian 16 at Wed Apr  9 15:26:54 2025.
