 Gaussian 16, Revision C.01,

 ----------------------------------------------------------------------
 #t hf aug-cc-pvdz symm=none int=(grid=ultrafine) guess=(read,tcheck) s
 table=(opt,rrhf)
 ----------------------------------------------------------------------
 -----
 title
 -----
 Symbolic Z-matrix:
 Charge =  0 Multiplicity = 1

 SCF Done:  E(RHF) =  -358.427085972     A.U. after   17 cycles
 Normal termination of Gaussian 16 at Wed Apr  9 03:28:05 2025.
 Gaussian 16:  ES64L-G16RevC.01  3-Jul-2019

 ----------------------------------------------------------------------
 #t hf aug-cc-pvdz iop(5/13=1,5/36=2,99/5=2) pseudo=read geom=check gue
 ss=(read,tcheck) scf=(maxcycle=1)
 ----------------------------------------------------------------------
 -----
 title
 -----
 Structure from the checkpoint file:  "Grambow2020_wb97xd3_006747_forward_mol1.chk"
 Charge =  0 Multiplicity = 1

                         Standard orientation:
 ---------------------------------------------------------------------
 Center     Atomic      Atomic             Coordinates (Angstroms)
 Number     Number       Type             X           Y           Z
 ---------------------------------------------------------------------
      1          8           0        1.950361   -1.137860   -0.094667
      2          6           0        1.739067    0.027825    0.056246
      3          6           0        0.342661    0.645551   -0.078694
      4          8           0        0.160526    1.801170    0.194427
      5          7           0       -0.618641   -0.226920   -0.573868
      6          6           0       -2.014260   -0.037748   -0.214139
      7          6           0       -1.491524   -1.141985    0.639248
      8          1           0        2.515946    0.764236    0.327661
      9          1           0       -2.700347   -0.281978   -1.018920
     10          1           0       -2.189776    0.933091    0.236853
     11          1           0       -1.120675   -0.728569    1.585791
     12          1           0       -0.517423   -1.366676   -0.328355
 ---------------------------------------------------------------------

 SCF Done:  E(RHF) =  -358.534966903     A.U. after    2 cycles

 The electronic state is 1-A.
 Alpha  occ. eigenvalues --  -20.62721 -20.60720 -15.70521 -11.41066 -11.38534
 Alpha  occ. eigenvalues --  -11.30192 -11.28702  -1.42614  -1.40583  -1.28220
 Alpha  occ. eigenvalues --   -1.02759  -0.92489  -0.86478  -0.79968  -0.75866
 Alpha  occ. eigenvalues --   -0.72924  -0.69395  -0.65060  -0.62554  -0.58569
 Alpha  occ. eigenvalues --   -0.57535  -0.55948  -0.55156  -0.46315  -0.44742
 Alpha  occ. eigenvalues --   -0.37687
 Alpha virt. eigenvalues --    0.02901   0.03611   0.04036   0.04950   0.05708
 Alpha virt. eigenvalues --    0.07602   0.08168   0.09164   0.10309   0.11784
 Alpha virt. eigenvalues --    0.12587   0.12824   0.14061   0.14462   0.15093

 Mulliken charges:
               1
     1  O   -0.399794
     2  C    0.653221
     3  C    0.273471
     4  O   -0.451344
     5  N   -0.735264
     6  C    0.879316
     7  C   -0.165842
     8  H   -0.084634
     9  H   -0.207295
    10  H   -0.159623
    11  H   -0.108288
    12  H    0.506077
 Sum of Mulliken charges =   0.00000

 Dipole moment (field-independent basis, Debye):
    X=             -0.3786    Y=              1.2186    Z=              0.0639  Tot=              1.2776

 Test job not archived.
 1\1\GINC-SE051\SP\RHF\Aug-CC-pVDZ\C4H5N1O2\OHZDE\09-Apr-2025\0\\#t hf
 aug-cc-pvdz iop(5/13=1,5/36=2,99/5=2) pseudo=read geom=check guess=(re
 ad,tcheck) scf=(maxcycle=1)\\title\\0,1\O,0,1.68646966,1.41433115,1.24
 030411\C,0,1.94311854,0.4713138,0.55394281\C,0,0.87073329,-0.47899461,
 0.00928709\O,0,1.16524708,-1.34506076,-0.76943804\N,0,-0.39806918,-0.2
 6293002,0.53269799\C,0,-1.5691449,-0.61319755,-0.2539647\C,0,-1.394957
 93,0.86247184,-0.36763683\H,0,2.96458542,0.20675267,0.22818111\H,0,-2.
 38865797,-0.99593673,0.34598905\H,0,-1.31568005,-1.23649737,-1.1048353

 Normal termination of Gaussian 16 at Wed Apr  9 03:28:10 2025.
