 Gaussian 16, Revision C.01,

 ----------------------------------------------------------------------
 #t hf aug-cc-pvdz symm=none int=(grid=ultrafine) guess=(read,tcheck) s
 table=(opt,rrhf)
 ----------------------------------------------------------------------
 -----
 title
 -----
 Symbolic Z-matrix:
 Charge =  0 Multiplicity = 1

 SCF Done:  E(RHF) =  -302.748418866     A.U. after   16 cycles
 Normal termination of Gaussian 16 at Wed Apr  9 15:33:11 2025.
 Gaussian 16:  ES64L-G16RevC.01  3-Jul-2019

 ----------------------------------------------------------------------
 #t hf aug-cc-pvdz iop(5/13=1,5/36=2,99/5=2) pseudo=read geom=check gue
 ss=(read,tcheck) scf=(maxcycle=1)
 ----------------------------------------------------------------------
 -----
 title
 -----
 Structure from the checkpoint file:  "Grambow2020_wb97xd3_006956_forward_mol1.chk"
 Charge =  0 Multiplicity = 1

                         Standard orientation:
 ---------------------------------------------------------------------
 Center     Atomic      Atomic             Coordinates (Angstroms)
 Number     Number       Type             X           Y           Z
 ---------------------------------------------------------------------
      1          6           0        0.816437   -1.149550   -1.028077
      2          6           0        0.426468   -0.121115    0.027757
      3          6           0        0.834036   -0.503761    1.437187
      4          7           0        0.900161    1.214604   -0.354001
      5          6           0       -0.429695    1.643779   -0.155904
      6          6           0       -1.161478   -0.083910   -0.074651
      7          7           0       -2.193529   -0.600622    0.021779
      8          1           0        0.419520   -2.126782   -0.755928
      9          1           0        1.906433   -1.196205   -1.075289
     10          1           0        0.425248   -0.879284   -2.008695
     11          1           0        1.905302   -0.709521    1.441176
     12          1           0        0.636858    0.306123    2.137263
     13          1           0        0.293280   -1.391523    1.764846
     14          1           0        1.096325    1.204559   -1.349415
     15          1           0       -0.544006    1.782099    0.933729
 ---------------------------------------------------------------------

 SCF Done:  E(RHF) =  -302.835710318     A.U. after    2 cycles

 The electronic state is 1-A.
 Alpha  occ. eigenvalues --  -15.65854 -15.64065 -11.36737 -11.31563 -11.29523
 Alpha  occ. eigenvalues --  -11.27179 -11.26225  -1.28242  -1.18954  -1.06923
 Alpha  occ. eigenvalues --   -0.98474  -0.90115  -0.82972  -0.72410  -0.65958
 Alpha  occ. eigenvalues --   -0.63911  -0.61609  -0.59078  -0.58217  -0.55510
 Alpha  occ. eigenvalues --   -0.54820  -0.54067  -0.50541  -0.46909  -0.43642
 Alpha  occ. eigenvalues --   -0.34867
 Alpha virt. eigenvalues --    0.02704   0.03747   0.03954   0.05050   0.05407
 Alpha virt. eigenvalues --    0.06707   0.07017   0.07466   0.08231   0.10673
 Alpha virt. eigenvalues --    0.11320   0.12422   0.12911   0.13429   0.14356

 Mulliken charges:
               1
     1  C    0.915027
     2  C   -1.544029
     3  C    0.959398
     4  N   -0.510215
     5  C    0.183718
     6  C   -0.137591
     7  N   -0.251918
     8  H    0.029330
     9  H    0.037657
    10  H    0.031141
    11  H    0.060744
    12  H    0.006079
    13  H    0.023170
    14  H    0.149146
    15  H    0.048344
 Sum of Mulliken charges =  -0.00000

 Dipole moment (field-independent basis, Debye):
    X=              4.2719    Y=             -1.1209    Z=              0.1678  Tot=              4.4197

 Test job not archived.
 1\1\GINC-SE009\SP\RHF\Aug-CC-pVDZ\C5H8N2\OHZDE\09-Apr-2025\0\\#t hf au
 g-cc-pvdz iop(5/13=1,5/36=2,99/5=2) pseudo=read geom=check guess=(read
 ,tcheck) scf=(maxcycle=1)\\title\\0,1\C,0,-0.50682561,1.3683023,-0.469
 32826\C,0,-0.00501618,-0.02232091,-0.09664624\C,0,-0.95214699,-0.79693
 64,0.79886322\N,0,0.37523978,-0.77259779,-1.29945929\C,0,1.6132636,-0.
 99503016,-0.65932487\C,0,1.34376992,0.28074999,0.6922576\N,0,1.9068692
 7,0.74453478,1.59183682\H,0,-0.74164925,1.93036204,0.43374275\H,0,-1.4
 0739792,1.25655286,-1.07676539\H,0,0.24219733,1.92190918,-1.03516248\H

 Normal termination of Gaussian 16 at Wed Apr  9 15:33:16 2025.
