 Gaussian 16, Revision C.01,

 ----------------------------------------------------------------------
 #t hf aug-cc-pvdz symm=none int=(grid=ultrafine) guess=(read,tcheck) s
 table=(opt,rrhf)
 ----------------------------------------------------------------------
 -----
 title
 -----
 Symbolic Z-matrix:
 Charge =  0 Multiplicity = 1

 SCF Done:  E(RHF) =  -357.364699671     A.U. after   16 cycles
 Normal termination of Gaussian 16 at Wed Apr  9 03:58:22 2025.
 Gaussian 16:  ES64L-G16RevC.01  3-Jul-2019

 ----------------------------------------------------------------------
 #t hf aug-cc-pvdz iop(5/13=1,5/36=2,99/5=2) pseudo=read geom=check gue
 ss=(read,tcheck) scf=(maxcycle=1)
 ----------------------------------------------------------------------
 -----
 title
 -----
 Structure from the checkpoint file:  "Grambow2020_wb97xd3_008754_forward_mol2.chk"
 Charge =  0 Multiplicity = 1

                         Standard orientation:
 ---------------------------------------------------------------------
 Center     Atomic      Atomic             Coordinates (Angstroms)
 Number     Number       Type             X           Y           Z
 ---------------------------------------------------------------------
      1          8           0        2.542915    0.408124   -0.001404
      2          6           0        1.703489   -0.450156    0.001341
      3          6           0        0.254549   -0.153232    0.000213
      4          7           0       -0.595194   -1.144992   -0.001040
      5          8           0       -1.829577   -0.580611   -0.000420
      6          6           0       -1.705261    0.754335    0.000560
      7          6           0       -0.404246    1.103570    0.000308
      8          1           0        1.954760   -1.525759    0.005936
      9          1           0       -2.628011    1.311206    0.000423
     10          1           0        0.041722    2.082292    0.000980
 ---------------------------------------------------------------------

 SCF Done:  E(RHF) =  -357.473540977     A.U. after    2 cycles

 The electronic state is 1-A.
 Alpha  occ. eigenvalues --  -20.69104 -20.59851 -15.72211 -11.37008 -11.34480
 Alpha  occ. eigenvalues --  -11.31224 -11.27004  -1.49499  -1.38870  -1.18251
 Alpha  occ. eigenvalues --   -1.09548  -0.93463  -0.86044  -0.80422  -0.76194
 Alpha  occ. eigenvalues --   -0.70392  -0.69691  -0.65941  -0.63085  -0.60475
 Alpha  occ. eigenvalues --   -0.58045  -0.50638  -0.47059  -0.45016  -0.39266
 Alpha virt. eigenvalues --    0.02813   0.04322   0.04958   0.06102   0.08181
 Alpha virt. eigenvalues --    0.08761   0.09655   0.10659   0.11438   0.12645
 Alpha virt. eigenvalues --    0.12703   0.13687   0.14282   0.15065   0.15918

 Mulliken charges:
               1
     1  O   -0.452886
     2  C    0.798560
     3  C    0.005351
     4  N   -0.269548
     5  O   -0.587516
     6  C    0.627370
     7  C    0.605482
     8  H   -0.136636
     9  H   -0.265881
    10  H   -0.324296
 Sum of Mulliken charges =   0.00000

 Dipole moment (field-independent basis, Debye):
    X=             -2.0028    Y=              1.1986    Z=              0.0095  Tot=              2.3341

 Test job not archived.
 1\1\GINC-SE252\SP\RHF\Aug-CC-pVDZ\C4H3N1O2\OHZDE\09-Apr-2025\0\\#t hf
 aug-cc-pvdz iop(5/13=1,5/36=2,99/5=2) pseudo=read geom=check guess=(re
 ad,tcheck) scf=(maxcycle=1)\\title\\0,1\O,0,-2.39703622,0.89461359,-0.
 56096634\C,0,-1.67946794,-0.02588537,-0.8421558\C,0,-0.32001701,-0.182
 07491,-0.28082582\N,0,0.3963517,-1.21524181,-0.63442822\O,0,1.57663751
 ,-1.09605382,0.02507565\C,0,1.5544617,0.01611562,0.77349096\C,0,0.3759
 362,0.65288761,0.63134117\H,0,-1.98442936,-0.82329001,-1.54302854\H,0,
 2.44588593,0.21386691,1.34605524\H,0,0.03167749,1.5650622,1.08544168\\

 Normal termination of Gaussian 16 at Wed Apr  9 03:58:25 2025.
