 Gaussian 16, Revision C.01,

 ----------------------------------------------------------------------
 #t hf aug-cc-pvdz symm=none int=(grid=ultrafine) guess=(read,tcheck) s
 table=(opt,rrhf)
 ----------------------------------------------------------------------
 -----
 title
 -----
 Symbolic Z-matrix:
 Charge =  0 Multiplicity = 1

 SCF Done:  E(RHF) =  -345.869003272     A.U. after   16 cycles

 1\1\GINC-SE129\Stability\RHF\Aug-CC-pVDZ\C5H12O2\OHZDE\09-Apr-2025\0\\
 #t hf aug-cc-pvdz symm=none int=(grid=ultrafine) guess=(read,tcheck) s
 table=(opt,rrhf)\\title\\0,1\C,0,2.29621308,0.28434767,1.61450282\C,0,
 0.86689014,0.47219344,1.1237776\C,0,0.70637065,0.22634356,-0.38389704\
 O,0,1.17950811,-1.07575839,-0.72005558\C,0,-0.67139157,0.48594056,-0.9
 1378781\C,0,-2.32100736,-0.49921668,-1.72201443\O,0,-1.65898891,-0.430
 02274,-0.10872596\H,0,2.64517029,-0.72577704,1.39990646\H,0,2.97389732
 ,0.98093965,1.11445444\H,0,2.37445293,0.45574426,2.69011905\H,0,0.2031

 Normal termination of Gaussian 16 at Wed Apr  9 16:18:27 2025.
 Gaussian 16:  ES64L-G16RevC.01  3-Jul-2019

 ----------------------------------------------------------------------
 #t hf aug-cc-pvdz iop(5/13=1,5/36=2,99/5=2) pseudo=read geom=check gue
 ss=(read,tcheck) scf=(maxcycle=1)
 ----------------------------------------------------------------------
 -----
 title
 -----
 Structure from the checkpoint file:  "Grambow2020_wb97xd3_008067_forward_mol1.chk"
 Charge =  0 Multiplicity = 1

                         Standard orientation:
 ---------------------------------------------------------------------
 Center     Atomic      Atomic             Coordinates (Angstroms)
 Number     Number       Type             X           Y           Z
 ---------------------------------------------------------------------
      1          6           0        2.874707   -0.255103   -0.132333
      2          6           0        1.434746   -0.734357   -0.006279
      3          6           0        0.481478    0.344506    0.529097
      4          8           0        0.547496    1.507068   -0.293351
      5          6           0       -0.926762   -0.120779    0.745370
      6          6           0       -2.860509    0.134764    0.010307
      7          8           0       -1.450203   -0.671267   -0.627742
      8          1           0        2.934799    0.606283   -0.797598
      9          1           0        3.269504    0.050490    0.839928
     10          1           0        3.523695   -1.040747   -0.524795
     11          1           0        1.077191   -1.072159   -0.985716
     12          1           0        1.388423   -1.599054    0.664567
     13          1           0        0.838369    0.665819    1.514837
     14          1           0        0.017274    1.328218   -1.073427
     15          1           0       -0.938263   -0.978836    1.425570
     16          1           0       -3.493057   -0.332536   -0.755434
     17          1           0       -3.216584   -0.082375    1.007773
     18          1           0       -2.731236    1.193109   -0.152340
     19          1           0       -1.470420   -1.638803   -0.671588
 ---------------------------------------------------------------------

 SCF Done:  E(RHF) =  -345.977954121     A.U. after    2 cycles

 The electronic state is 1-A.
 Alpha  occ. eigenvalues --  -20.62465 -20.54165 -11.35044 -11.25981 -11.21676
 Alpha  occ. eigenvalues --  -11.21175 -11.20463  -1.34921  -1.29470  -1.02972
 Alpha  occ. eigenvalues --   -0.97074  -0.94218  -0.83096  -0.78693  -0.72818
 Alpha  occ. eigenvalues --   -0.66337  -0.64956  -0.62376  -0.60844  -0.59717
 Alpha  occ. eigenvalues --   -0.56680  -0.56296  -0.52668  -0.51477  -0.50288
 Alpha  occ. eigenvalues --   -0.46985  -0.44846  -0.42932  -0.27713
 Alpha virt. eigenvalues --    0.02578   0.03835   0.04445   0.04800   0.06033
 Alpha virt. eigenvalues --    0.06146   0.06542   0.07164   0.07931   0.08959
 Alpha virt. eigenvalues --    0.09432   0.09997   0.11796   0.12707   0.13714

 Mulliken charges:
               1
     1  C    0.422731
     2  C    0.082564
     3  C    0.577990
     4  O   -0.678772
     5  C    0.337518
     6  C    0.736987
     7  O   -0.622759
     8  H   -0.007750
     9  H   -0.074624
    10  H   -0.054739
    11  H   -0.170159
    12  H   -0.083584
    13  H   -0.177211
    14  H    0.156452
    15  H   -0.526550
    16  H   -0.179224
    17  H    0.089418
    18  H   -0.027011
    19  H    0.198724
 Sum of Mulliken charges =  -0.00000

 Dipole moment (field-independent basis, Debye):
    X=             -3.5337    Y=             -3.0600    Z=             -0.7031  Tot=              4.7270

 Test job not archived.
 1\1\GINC-SE129\SP\RHF\Aug-CC-pVDZ\C5H12O2\OHZDE\09-Apr-2025\0\\#t hf a
 ug-cc-pvdz iop(5/13=1,5/36=2,99/5=2) pseudo=read geom=check guess=(rea
 d,tcheck) scf=(maxcycle=1)\\title\\0,1\C,0,2.29621308,0.28434767,1.614
 50282\C,0,0.86689014,0.47219344,1.1237776\C,0,0.70637065,0.22634356,-0
 .38389704\O,0,1.17950811,-1.07575839,-0.72005558\C,0,-0.67139157,0.485
 94056,-0.91378781\C,0,-2.32100736,-0.49921668,-1.72201443\O,0,-1.65898
 891,-0.43002274,-0.10872596\H,0,2.64517029,-0.72577704,1.39990646\H,0,
 2.97389732,0.98093965,1.11445444\H,0,2.37445293,0.45574426,2.69011905\

 Normal termination of Gaussian 16 at Wed Apr  9 16:18:34 2025.
