 Gaussian 16, Revision C.01,

 ----------------------------------------------------------------------
 #t hf aug-cc-pvdz symm=none int=(grid=ultrafine) guess=(read,tcheck) s
 table=(opt,rrhf)
 ----------------------------------------------------------------------
 -----
 title
 -----
 Symbolic Z-matrix:
 Charge =  0 Multiplicity = 1

 SCF Done:  E(RHF) =  -354.684186244     A.U. after   14 cycles
 Normal termination of Gaussian 16 at Wed Apr  9 03:39:13 2025.
 Gaussian 16:  ES64L-G16RevC.01  3-Jul-2019

 ----------------------------------------------------------------------
 #t hf aug-cc-pvdz iop(5/13=1,5/36=2,99/5=2) pseudo=read geom=check gue
 ss=(read,tcheck) scf=(maxcycle=1)
 ----------------------------------------------------------------------
 -----
 title
 -----
 Structure from the checkpoint file:  "Grambow2020_wb97xd3_007470_forward_mol1.chk"
 Charge =  0 Multiplicity = 1

                         Standard orientation:
 ---------------------------------------------------------------------
 Center     Atomic      Atomic             Coordinates (Angstroms)
 Number     Number       Type             X           Y           Z
 ---------------------------------------------------------------------
      1          7           0       -2.314088   -0.619124   -0.085907
      2          6           0       -1.049470   -0.061919   -0.008651
      3          6           0       -0.648524    1.239236    0.005813
      4          7           0        0.771146    1.224101    0.007602
      5          6           0        1.140413   -0.056291    0.003282
      6          8           0        2.214281   -0.752124    0.001812
      7          7           0        0.078998   -0.854479   -0.005915
      8          1           0       -2.375851   -1.518763    0.363094
      9          1           0       -3.052128   -0.003991    0.213097
     10          1           0       -1.209213    2.156350    0.000408
     11          1           0        1.383505    2.016669    0.010292
     12          1           0        1.132526   -1.612910   -0.014516
 ---------------------------------------------------------------------

 SCF Done:  E(RHF) =  -354.791594890     A.U. after    2 cycles

 The electronic state is 1-A.
 Alpha  occ. eigenvalues --  -20.55737 -15.68313 -15.64400 -15.62955 -11.38198
 Alpha  occ. eigenvalues --  -11.32956 -11.26071  -1.39145  -1.28564  -1.20316
 Alpha  occ. eigenvalues --   -1.13850  -0.98019  -0.84510  -0.83365  -0.74505
 Alpha  occ. eigenvalues --   -0.68737  -0.66331  -0.65269  -0.62647  -0.60846
 Alpha  occ. eigenvalues --   -0.54141  -0.53063  -0.48176  -0.47246  -0.40552
 Alpha  occ. eigenvalues --   -0.29229
 Alpha virt. eigenvalues --    0.02591   0.03218   0.04494   0.06309   0.07220
 Alpha virt. eigenvalues --    0.08515   0.11501   0.11661   0.12606   0.12978
 Alpha virt. eigenvalues --    0.13639   0.14123   0.15368   0.15537   0.17070

 Mulliken charges:
               1
     1  N   -0.295364
     2  C    0.560395
     3  C    1.106414
     4  N   -0.427612
     5  C    0.445365
     6  O   -0.633972
     7  N   -0.830219
     8  H   -0.019126
     9  H    0.001029
    10  H   -0.296359
    11  H   -0.097252
    12  H    0.486703
 Sum of Mulliken charges =   0.00000

 Dipole moment (field-independent basis, Debye):
    X=             -3.1633    Y=              2.1994    Z=              1.0759  Tot=              4.0002

 Test job not archived.
 1\1\GINC-SE125\SP\RHF\Aug-CC-pVDZ\C3H5N3O1\OHZDE\09-Apr-2025\0\\#t hf
 aug-cc-pvdz iop(5/13=1,5/36=2,99/5=2) pseudo=read geom=check guess=(re
 ad,tcheck) scf=(maxcycle=1)\\title\\0,1\N,0,2.11310144,-0.00643411,0.0
 5205619\C,0,0.73290331,0.09366941,0.02494095\C,0,-0.08209634,1.1839911
 6,0.05571601\N,0,-1.41330209,0.69188999,0.09343143\C,0,-1.33057887,-0.
 63799241,0.07470771\O,0,-2.10751895,-1.65463338,0.08819569\N,0,-0.0630
 8227,-1.03235778,0.03323595\H,0,2.45763294,-0.82588231,-0.42183112\H,0
 ,2.5905761,0.82568278,-0.25141491\H,0,0.13773301,2.23612715,0.06929566

 Normal termination of Gaussian 16 at Wed Apr  9 03:39:18 2025.
