 Gaussian 16, Revision C.01,

 ----------------------------------------------------------------------
 #t hf aug-cc-pvdz symm=none int=(grid=ultrafine) guess=(read,tcheck) s
 table=(opt,rrhf)
 ----------------------------------------------------------------------
 -----
 title
 -----
 Symbolic Z-matrix:
 Charge =  0 Multiplicity = 1

 SCF Done:  E(RHF) =  -338.560076730     A.U. after   15 cycles
 Normal termination of Gaussian 16 at Wed Apr  9 03:46:28 2025.
 Gaussian 16:  ES64L-G16RevC.01  3-Jul-2019

 ----------------------------------------------------------------------
 #t hf aug-cc-pvdz iop(5/13=1,5/36=2,99/5=2) pseudo=read geom=check gue
 ss=(read,tcheck) scf=(maxcycle=1)
 ----------------------------------------------------------------------
 -----
 title
 -----
 Structure from the checkpoint file:  "Grambow2020_wb97xd3_007963_reverse_mol2.chk"
 Charge =  0 Multiplicity = 1

                         Standard orientation:
 ---------------------------------------------------------------------
 Center     Atomic      Atomic             Coordinates (Angstroms)
 Number     Number       Type             X           Y           Z
 ---------------------------------------------------------------------
      1          7           0        1.465706   -1.406195   -0.259414
      2          6           0        0.866692   -0.327988   -0.204636
      3          8           0        1.341709    1.021868   -0.192625
      4          6           0        0.136420    1.570414    0.055303
      5          6           0       -0.511001    0.209674   -0.035556
      6          6           0       -1.745599   -0.210319   -0.744983
      7          7           0       -1.640302   -0.314963    0.692702
      8          1           0        2.474412   -1.307923   -0.336700
      9          1           0        0.816264   -0.468185    2.931869
     10          1           0        0.245960    0.011248    2.960110
     11          1           0       -1.669065   -1.106653   -1.350713
     12          1           0       -2.417198    0.559043   -1.104645
     13          1           0       -1.440940   -1.265055    0.987304
 ---------------------------------------------------------------------

 SCF Done:  E(RHF) =  -338.662972201     A.U. after    2 cycles

 The electronic state is 1-A.
 Alpha  occ. eigenvalues --  -20.66541 -15.66820 -15.64956 -11.38860 -11.33923
 Alpha  occ. eigenvalues --  -11.31111 -11.30987  -1.46195  -1.28820  -1.21989
 Alpha  occ. eigenvalues --   -0.99806  -0.91156  -0.88522  -0.77573  -0.75313
 Alpha  occ. eigenvalues --   -0.70677  -0.67006  -0.63438  -0.60166  -0.59661
 Alpha  occ. eigenvalues --   -0.52727  -0.52042  -0.47877  -0.47127  -0.43166
 Alpha  occ. eigenvalues --   -0.39525
 Alpha virt. eigenvalues --    0.03152   0.03886   0.04697   0.05488   0.07029
 Alpha virt. eigenvalues --    0.07663   0.08135   0.09046   0.09698   0.10458
 Alpha virt. eigenvalues --    0.12057   0.12785   0.13362   0.13675   0.15050

 Mulliken charges:
               1
     1  N   -0.283092
     2  C    0.430086
     3  O   -0.606195
     4  C   -0.024445
     5  C    0.454676
     6  C    0.902670
     7  N   -0.643094
     8  H    0.028252
     9  H    0.038947
    10  H    0.005053
    11  H   -0.159802
    12  H   -0.180370
    13  H    0.037314
 Sum of Mulliken charges =  -0.00000

 Dipole moment (field-independent basis, Debye):
    X=             -0.4074    Y=             -2.5290    Z=             -1.2622  Tot=              2.8557

 Test job not archived.
 1\1\GINC-SE073\SP\RHF\Aug-CC-pVDZ\C4H6N2O1\OHZDE\09-Apr-2025\0\\#t hf
 aug-cc-pvdz iop(5/13=1,5/36=2,99/5=2) pseudo=read geom=check guess=(re
 ad,tcheck) scf=(maxcycle=1)\\title\\0,1\N,0,1.76319974,-0.97044952,-0.
 57088451\C,0,0.96018299,-0.04040458,-0.69142707\O,0,1.13369018,1.31325
 835,-1.12199343\C,0,-0.11836459,1.6996471,-0.80869384\C,0,-0.46671017,
 0.28361768,-0.41813159\C,0,-1.66452199,-0.52737861,-0.75196632\N,0,-1.
 35395634,-0.18615923,0.61773872\H,0,2.708988,-0.73110073,-0.85604161\H
 ,0,1.34764712,0.73982482,2.32535464\H,0,0.69675804,1.10342567,2.331528

 Normal termination of Gaussian 16 at Wed Apr  9 03:46:32 2025.
