 Gaussian 16, Revision C.01,

 ----------------------------------------------------------------------
 #t hf aug-cc-pvdz symm=none int=(grid=ultrafine) guess=(read,tcheck) s
 table=(opt,rrhf)
 ----------------------------------------------------------------------
 -----
 title
 -----
 Symbolic Z-matrix:
 Charge =  0 Multiplicity = 1

 SCF Done:  E(RHF) =  -307.671189624     A.U. after   18 cycles

 1\1\GINC-SE402\Stability\RHF\Aug-CC-pVDZ\C6H10O1\OHZDE\09-Apr-2025\0\\
 #t hf aug-cc-pvdz symm=none int=(grid=ultrafine) guess=(read,tcheck) s
 table=(opt,rrhf)\\title\\0,1\O,0,2.28337627,-0.67692002,-0.31786921\C,
 0,1.04782623,-0.18953273,-0.01451334\C,0,0.01110873,-1.22485119,0.3919
 4913\C,0,-1.34556842,-0.55526127,0.17533078\C,0,-1.12099247,0.39433204
 ,-0.98942352\C,0,0.13161961,2.04156236,0.30850777\C,0,1.03377338,1.126
 23164,0.62671373\H,0,2.25554518,-1.63495928,-0.37304426\H,0,0.18990623
 ,0.36637514,-0.97290667\H,0,0.17018908,-1.59656826,1.40788931\H,0,0.10

 Normal termination of Gaussian 16 at Wed Apr  9 03:53:58 2025.
 Gaussian 16:  ES64L-G16RevC.01  3-Jul-2019

 ----------------------------------------------------------------------
 #t hf aug-cc-pvdz iop(5/13=1,5/36=2,99/5=2) pseudo=read geom=check gue
 ss=(read,tcheck) scf=(maxcycle=1)
 ----------------------------------------------------------------------
 -----
 title
 -----
 Structure from the checkpoint file:  "Grambow2020_wb97xd3_008423_forward_mol1.chk"
 Charge =  0 Multiplicity = 1

                         Standard orientation:
 ---------------------------------------------------------------------
 Center     Atomic      Atomic             Coordinates (Angstroms)
 Number     Number       Type             X           Y           Z
 ---------------------------------------------------------------------
      1          8           0       -2.095342   -0.319470    0.458440
      2          6           0       -0.809403   -0.073605    0.081522
      3          6           0       -0.080062   -1.235221   -0.574670
      4          6           0        1.408531   -0.920749   -0.429604
      5          6           0        1.508410   -0.136827    0.868204
      6          6           0        0.572576    1.925117   -0.048109
      7          6           0       -0.541358    1.290066   -0.377998
      8          1           0       -2.287492   -1.257067    0.383284
      9          1           0        0.230414    0.125881    0.999435
     10          1           0       -0.404518   -1.401408   -1.605556
     11          1           0       -0.318042   -2.141765   -0.003428
     12          1           0        1.750512   -0.306538   -1.262171
     13          1           0        2.008941   -1.833352   -0.416358
     14          1           0        1.484561   -0.783937    1.754335
     15          1           0        2.348369    0.534835    0.955476
     16          1           0        0.933905    2.781063   -0.622854
     17          1           0       -1.336068    1.745357   -0.965753
 ---------------------------------------------------------------------

 SCF Done:  E(RHF) =  -307.764557423     A.U. after    2 cycles

 The electronic state is 1-A.
 Alpha  occ. eigenvalues --  -20.61888 -11.34428 -11.27017 -11.25991 -11.24438
 Alpha  occ. eigenvalues --  -11.21587 -11.20470  -1.38362  -1.11964  -1.02147
 Alpha  occ. eigenvalues --   -0.95599  -0.88228  -0.82520  -0.73717  -0.71438
 Alpha  occ. eigenvalues --   -0.67785  -0.65832  -0.60936  -0.58635  -0.57137
 Alpha  occ. eigenvalues --   -0.55498  -0.51590  -0.50586  -0.50252  -0.44468
 Alpha  occ. eigenvalues --   -0.34717  -0.27432
 Alpha virt. eigenvalues --    0.02601   0.03857   0.04298   0.04707   0.05630
 Alpha virt. eigenvalues --    0.06075   0.06763   0.06945   0.07181   0.08659
 Alpha virt. eigenvalues --    0.09124   0.12703   0.12901   0.13242   0.13676

 Mulliken charges:
               1
     1  O   -0.599163
     2  C   -0.133802
     3  C    0.188118
     4  C    0.352283
     5  C    0.525396
     6  C   -0.104628
     7  C    0.729455
     8  H    0.162359
     9  H    0.312250
    10  H   -0.070710
    11  H   -0.097654
    12  H   -0.093427
    13  H   -0.121300
    14  H   -0.171616
    15  H   -0.207642
    16  H   -0.342516
    17  H   -0.327401
 Sum of Mulliken charges =  -0.00000

 Dipole moment (field-independent basis, Debye):
    X=              0.0943    Y=             -3.9769    Z=             -1.1986  Tot=              4.1547

 Test job not archived.
 1\1\GINC-SE402\SP\RHF\Aug-CC-pVDZ\C6H10O1\OHZDE\09-Apr-2025\0\\#t hf a
 ug-cc-pvdz iop(5/13=1,5/36=2,99/5=2) pseudo=read geom=check guess=(rea
 d,tcheck) scf=(maxcycle=1)\\title\\0,1\O,0,2.28337627,-0.67692002,-0.3
 1786921\C,0,1.04782623,-0.18953273,-0.01451334\C,0,0.01110873,-1.22485
 119,0.39194913\C,0,-1.34556842,-0.55526127,0.17533078\C,0,-1.12099247,
 0.39433204,-0.98942352\C,0,0.13161961,2.04156236,0.30850777\C,0,1.0337
 7338,1.12623164,0.62671373\H,0,2.25554518,-1.63495928,-0.37304426\H,0,
 0.18990623,0.36637514,-0.97290667\H,0,0.17018908,-1.59656826,1.4078893

 Normal termination of Gaussian 16 at Wed Apr  9 03:54:04 2025.
