 Gaussian 16, Revision C.01,

 ----------------------------------------------------------------------
 #t hf aug-cc-pvdz symm=none int=(grid=ultrafine) guess=(read,tcheck) s
 table=(opt,rrhf)
 ----------------------------------------------------------------------
 -----
 title
 -----
 Symbolic Z-matrix:
 Charge =  0 Multiplicity = 1

 SCF Done:  E(RHF) =  -323.614667168     A.U. after   16 cycles
 Normal termination of Gaussian 16 at Wed Apr  9 15:15:08 2025.
 Gaussian 16:  ES64L-G16RevC.01  3-Jul-2019

 ----------------------------------------------------------------------
 #t hf aug-cc-pvdz iop(5/13=1,5/36=2,99/5=2) pseudo=read geom=check gue
 ss=(read,tcheck) scf=(maxcycle=1)
 ----------------------------------------------------------------------
 -----
 title
 -----
 Structure from the checkpoint file:  "Grambow2020_wb97xd3_006821_forward_mol1.chk"
 Charge =  0 Multiplicity = 1

                         Standard orientation:
 ---------------------------------------------------------------------
 Center     Atomic      Atomic             Coordinates (Angstroms)
 Number     Number       Type             X           Y           Z
 ---------------------------------------------------------------------
      1          6           0        0.263719    1.331857    0.564826
      2          6           0        1.056833    0.700144   -0.567820
      3          6           0        1.915621   -0.439829   -0.004574
      4          6           0        0.614457   -1.218467    0.358752
      5          6           0       -0.147914   -0.139697   -0.392540
      6          7           0       -1.404268    0.089654   -0.751055
      7          8           0       -2.177036   -0.415944    0.155820
      8          1           0        0.760853    1.370446    1.528358
      9          1           0       -0.993825    0.769320    1.373874
     10          1           0       -0.262831    2.227576    0.259992
     11          1           0        1.309420    1.318923   -1.422228
     12          1           0        2.489087   -0.947505   -0.778020
     13          1           0        2.577805   -0.171467    0.819013
     14          1           0        0.383379   -1.333622    1.416872
     15          1           0        0.527290   -2.187983   -0.129493
     16          1           0       -1.761315    0.250231    1.190597
 ---------------------------------------------------------------------

 SCF Done:  E(RHF) =  -323.710182957     A.U. after    2 cycles

 The electronic state is 1-A.
 Alpha  occ. eigenvalues --  -20.61107 -15.68736 -11.31199 -11.30619 -11.27615
 Alpha  occ. eigenvalues --  -11.26028 -11.25867  -1.39769  -1.20951  -1.04239
 Alpha  occ. eigenvalues --   -0.99734  -0.89678  -0.84710  -0.75541  -0.72194
 Alpha  occ. eigenvalues --   -0.66973  -0.66284  -0.64481  -0.60985  -0.57390
 Alpha  occ. eigenvalues --   -0.54121  -0.52867  -0.50221  -0.47144  -0.42674
 Alpha  occ. eigenvalues --   -0.40522  -0.34537
 Alpha virt. eigenvalues --    0.02653   0.03391   0.04032   0.05126   0.06204
 Alpha virt. eigenvalues --    0.06640   0.06886   0.07654   0.08579   0.09613
 Alpha virt. eigenvalues --    0.10775   0.11713   0.13293   0.13722   0.14242

 Mulliken charges:
               1
     1  C    0.394684
     2  C    0.352290
     3  C    0.687992
     4  C    0.488722
     5  C    0.220126
     6  N   -0.438234
     7  O   -0.635130
     8  H   -0.224652
     9  H    0.275225
    10  H   -0.283073
    11  H   -0.323801
    12  H   -0.122275
    13  H   -0.160936
    14  H   -0.168812
    15  H   -0.119489
    16  H    0.057363
 Sum of Mulliken charges =  -0.00000

 Dipole moment (field-independent basis, Debye):
    X=              4.8310    Y=              0.8686    Z=              0.7617  Tot=              4.9672

 Test job not archived.
 1\1\GINC-SE100\SP\RHF\Aug-CC-pVDZ\C5H9N1O1\OHZDE\09-Apr-2025\0\\#t hf
 aug-cc-pvdz iop(5/13=1,5/36=2,99/5=2) pseudo=read geom=check guess=(re
 ad,tcheck) scf=(maxcycle=1)\\title\\0,1\C,0,-0.74419347,-1.06252203,0.
 09783584\C,0,-0.63297562,-0.08315526,-1.05951025\C,0,-0.87034603,1.340
 03679,-0.53751193\C,0,0.43089483,1.22702374,0.31413957\C,0,0.69036188,
 -0.08957646,-0.3990476\N,0,1.65668559,-0.99741448,-0.43912938\O,0,2.21
 962024,-1.03321151,0.72579399\H,0,-1.47357779,-0.81387104,0.86150907\H
 ,0,0.25641369,-1.32985185,1.31428331\H,0,-0.71849217,-2.09635648,-0.22

 Normal termination of Gaussian 16 at Wed Apr  9 15:15:14 2025.
