 Gaussian 16, Revision C.01,

 ----------------------------------------------------------------------
 #t hf aug-cc-pvdz symm=none int=(grid=ultrafine) guess=(read,tcheck) s
 table=(opt,rrhf)
 ----------------------------------------------------------------------
 -----
 title
 -----
 Symbolic Z-matrix:
 Charge =  0 Multiplicity = 1

 SCF Done:  E(RHF) =  -284.637267582     A.U. after   14 cycles
 Normal termination of Gaussian 16 at Wed Apr  9 03:05:33 2025.
 Gaussian 16:  ES64L-G16RevC.01  3-Jul-2019

 ----------------------------------------------------------------------
 #t hf aug-cc-pvdz iop(5/13=1,5/36=2,99/5=2) pseudo=read geom=check gue
 ss=(read,tcheck) scf=(maxcycle=1)
 ----------------------------------------------------------------------
 -----
 title
 -----
 Structure from the checkpoint file:  "Grambow2020_b97d3_006555_forward_mol1.chk"
 Charge =  0 Multiplicity = 1

                         Standard orientation:
 ---------------------------------------------------------------------
 Center     Atomic      Atomic             Coordinates (Angstroms)
 Number     Number       Type             X           Y           Z
 ---------------------------------------------------------------------
      1          8           0        1.918149   -0.491980   -0.416282
      2          6           0        0.849644    0.006598    0.175409
      3          6           0       -0.029694    1.235505   -0.210305
      4          7           0       -1.276255    0.541629    0.290010
      5          6           0       -1.372792   -0.678985   -0.532851
      6          6           0       -0.436120   -0.687910    0.619361
      7          1           0        1.960310    0.016052    0.855299
      8          1           0        1.295408    0.458121    1.486846
      9          1           0       -0.034691    1.469226   -1.283236
     10          1           0        0.175619    2.136711    0.376803
     11          1           0       -0.975009   -0.675440   -1.551235
     12          1           0       -2.312376   -1.217270   -0.406911
     13          1           0       -0.586900   -1.294204    1.512930
 ---------------------------------------------------------------------

 SCF Done:  E(RHF) =  -284.720074197     A.U. after    2 cycles

 The electronic state is 1-A.
 Alpha  occ. eigenvalues --  -20.53672 -15.65413 -11.39235 -11.29764 -11.29312
 Alpha  occ. eigenvalues --  -11.29194  -1.33499  -1.27843  -1.00956  -0.93421
 Alpha  occ. eigenvalues --   -0.84734  -0.78270  -0.74665  -0.66184  -0.64283
 Alpha  occ. eigenvalues --   -0.62593  -0.59093  -0.56877  -0.50830  -0.45790
 Alpha  occ. eigenvalues --   -0.43034  -0.41281  -0.39658
 Alpha virt. eigenvalues --    0.02947   0.03772   0.04182   0.05327   0.06249
 Alpha virt. eigenvalues --    0.07345   0.07817   0.09766   0.11082   0.11871
 Alpha virt. eigenvalues --    0.12401   0.13344   0.13913   0.14516   0.14894

 Mulliken charges:
               1
     1  O   -0.886887
     2  C    0.236250
     3  C    0.706230
     4  N   -0.881471
     5  C    0.907165
     6  C    0.635519
     7  H    0.106594
     8  H    0.239538
     9  H   -0.074335
    10  H   -0.164839
    11  H   -0.274473
    12  H   -0.256521
    13  H   -0.292770
 Sum of Mulliken charges =   0.00000

 Dipole moment (field-independent basis, Debye):
    X=             -1.4424    Y=              0.6438    Z=              1.3753  Tot=              2.0944

 Test job not archived.
 1\1\GINC-SE044\SP\RHF\Aug-CC-pVDZ\C4H7N1O1\OHZDE\09-Apr-2025\0\\#t hf
 aug-cc-pvdz iop(5/13=1,5/36=2,99/5=2) pseudo=read geom=check guess=(re
 ad,tcheck) scf=(maxcycle=1)\\title\\0,1\O,0,-1.37017521,-1.03136605,1.
 24505187\C,0,-0.83786008,-0.28886355,0.29336229\C,0,-0.2009893,1.13279
 889,0.36748866\N,0,0.81025477,0.77075556,-0.69646828\C,0,1.55622253,-0
 .36547442,-0.12302764\C,0,0.2326944,-0.64019797,-0.73770519\H,0,-2.102
 01233,-0.57983788,0.17859504\H,0,-1.92117709,0.00365969,-0.63577677\H,
 0,0.23214837,1.38402942,1.34478365\H,0,-0.85775435,1.93778705,0.021544

 Normal termination of Gaussian 16 at Wed Apr  9 03:05:37 2025.
