 Gaussian 16, Revision C.01,

 ----------------------------------------------------------------------
 #t hf aug-cc-pvdz symm=none int=(grid=ultrafine) guess=(read,tcheck) s
 table=(opt,rrhf)
 ----------------------------------------------------------------------
 -----
 title
 -----
 Symbolic Z-matrix:
 Charge =  0 Multiplicity = 1

 SCF Done:  E(RHF) =  -322.724707187     A.U. after   14 cycles
 Normal termination of Gaussian 16 at Wed Apr  9 15:47:58 2025.
 Gaussian 16:  ES64L-G16RevC.01  3-Jul-2019

 ----------------------------------------------------------------------
 #t hf aug-cc-pvdz iop(5/13=1,5/36=2,99/5=2) pseudo=read geom=check gue
 ss=(read,tcheck) scf=(maxcycle=1)
 ----------------------------------------------------------------------
 -----
 title
 -----
 Structure from the checkpoint file:  "Grambow2020_wb97xd3_007396_reverse_mol2.chk"
 Charge =  0 Multiplicity = 1

                         Standard orientation:
 ---------------------------------------------------------------------
 Center     Atomic      Atomic             Coordinates (Angstroms)
 Number     Number       Type             X           Y           Z
 ---------------------------------------------------------------------
      1          6           0        0.969529    1.163510   -0.356637
      2          6           0        1.608211   -0.146658   -0.025683
      3          6           0       -0.325391    1.384372    0.414000
      4          8           0       -1.424291    0.623934   -0.079624
      5          6           0       -1.365082   -0.712766   -0.147542
      6          7           0       -0.422143   -1.541315   -0.011739
      7          6           0        0.938930   -1.282774    0.164295
      8          1           0        0.758578    1.252038   -1.427245
      9          1           0        1.653000    1.979588   -0.109343
     10          1           0        2.684350   -0.170259    0.104206
     11          1           0       -0.658385    2.418162    0.327918
     12          1           0       -0.179839    1.151806    1.471730
     13          1           0       -2.360150   -1.092460   -0.370296
     14          1           0        1.494601   -2.175255    0.431592
 ---------------------------------------------------------------------

 SCF Done:  E(RHF) =  -322.824820216     A.U. after    2 cycles

 The electronic state is 1-A.
 Alpha  occ. eigenvalues --  -20.61644 -15.61337 -11.35651 -11.30773 -11.26971
 Alpha  occ. eigenvalues --  -11.24972 -11.23632  -1.39720  -1.19710  -1.08950
 Alpha  occ. eigenvalues --   -0.98355  -0.94181  -0.80770  -0.76668  -0.73072
 Alpha  occ. eigenvalues --   -0.68893  -0.64291  -0.62981  -0.60644  -0.57127
 Alpha  occ. eigenvalues --   -0.53036  -0.52126  -0.49695  -0.45799  -0.41113
 Alpha  occ. eigenvalues --   -0.32861
 Alpha virt. eigenvalues --    0.03150   0.04161   0.04521   0.04862   0.06034
 Alpha virt. eigenvalues --    0.06796   0.07030   0.09939   0.10421   0.11649
 Alpha virt. eigenvalues --    0.12291   0.12897   0.14195   0.14541   0.14930

 Mulliken charges:
               1
     1  C   -0.019260
     2  C    0.565771
     3  C    0.859723
     4  O   -0.483389
     5  C    0.441823
     6  N   -0.376941
     7  C    0.607104
     8  H    0.005035
     9  H   -0.013468
    10  H   -0.414965
    11  H   -0.235517
    12  H   -0.168631
    13  H   -0.411222
    14  H   -0.356062
 Sum of Mulliken charges =   0.00000

 Dipole moment (field-independent basis, Debye):
    X=              0.8858    Y=              2.1877    Z=              0.3730  Tot=              2.3895

 Test job not archived.
 1\1\GINC-SE026\SP\RHF\Aug-CC-pVDZ\C5H7N1O1\OHZDE\09-Apr-2025\0\\#t hf
 aug-cc-pvdz iop(5/13=1,5/36=2,99/5=2) pseudo=read geom=check guess=(re
 ad,tcheck) scf=(maxcycle=1)\\title\\0,1\C,0,-1.09022785,0.4759111,0.42
 798029\C,0,-1.11411263,-0.45446603,-0.74155602\C,0,0.22616939,1.234391
 3,0.53421787\O,0,1.30517538,0.4457468,1.02747123\C,0,1.68116766,-0.678
 7871,0.40382154\N,0,1.16409172,-1.36490306,-0.52135253\C,0,-0.07787721
 ,-1.19279457,-1.13636688\H,0,-1.26560214,-0.05350825,1.37005262\H,0,-1
 .89535145,1.20866533,0.33249733\H,0,-2.02225393,-0.50784951,-1.3314146

 Normal termination of Gaussian 16 at Wed Apr  9 15:48:03 2025.
