 Gaussian 16, Revision C.01,

 ----------------------------------------------------------------------
 #t hf aug-cc-pvdz symm=none int=(grid=ultrafine) guess=(read,tcheck) s
 table=(opt,rrhf)
 ----------------------------------------------------------------------
 -----
 title
 -----
 Symbolic Z-matrix:
 Charge =  0 Multiplicity = 1

 SCF Done:  E(RHF) =  -338.525530458     A.U. after   16 cycles
 Normal termination of Gaussian 16 at Wed Apr  9 16:33:00 2025.
 Gaussian 16:  ES64L-G16RevC.01  3-Jul-2019

 ----------------------------------------------------------------------
 #t hf aug-cc-pvdz iop(5/13=1,5/36=2,99/5=2) pseudo=read geom=check gue
 ss=(read,tcheck) scf=(maxcycle=1)
 ----------------------------------------------------------------------
 -----
 title
 -----
 Structure from the checkpoint file:  "Grambow2020_wb97xd3_008549_reverse_mol1.chk"
 Charge =  0 Multiplicity = 1

                         Standard orientation:
 ---------------------------------------------------------------------
 Center     Atomic      Atomic             Coordinates (Angstroms)
 Number     Number       Type             X           Y           Z
 ---------------------------------------------------------------------
      1          6           0        2.354071    0.120902    0.274087
      2          6           0        0.918663    0.040615   -0.102655
      3          7           0        0.203841   -1.096325    0.275563
      4          8           0       -0.977226   -0.981976   -0.591408
      5          6           0       -1.139241    0.336881   -0.353201
      6          7           0       -1.846620    0.453562    0.747478
      7          6           0        0.111181    0.993898   -0.651995
      8          1           0        2.493957   -0.259765    1.287151
      9          1           0        2.943570   -0.509456   -0.394340
     10          1           0        2.728311    1.142185    0.220504
     11          1           0       -1.789068    1.388966    1.138896
     12          1           0       -0.844281   -0.392262    1.166425
     13          1           0        0.316730    2.031702   -0.846069
 ---------------------------------------------------------------------

 SCF Done:  E(RHF) =  -338.625784345     A.U. after    2 cycles

 The electronic state is 1-A.
 Alpha  occ. eigenvalues --  -20.61572 -15.67612 -15.66054 -11.39946 -11.31669
 Alpha  occ. eigenvalues --  -11.25819 -11.25521  -1.44501  -1.20135  -1.15382
 Alpha  occ. eigenvalues --   -1.02003  -0.98981  -0.81364  -0.75961  -0.74789
 Alpha  occ. eigenvalues --   -0.69909  -0.64206  -0.61161  -0.58644  -0.56987
 Alpha  occ. eigenvalues --   -0.55147  -0.52448  -0.50965  -0.45528  -0.40954
 Alpha  occ. eigenvalues --   -0.34195
 Alpha virt. eigenvalues --    0.02370   0.03649   0.04245   0.05637   0.06626
 Alpha virt. eigenvalues --    0.06728   0.07805   0.08754   0.10576   0.10854
 Alpha virt. eigenvalues --    0.12550   0.13210   0.13261   0.14209   0.15124

 Mulliken charges:
               1
     1  C    0.463429
     2  C   -0.084282
     3  N   -0.675602
     4  O   -0.709814
     5  C    0.561030
     6  N   -0.569789
     7  C    0.656940
     8  H    0.038349
     9  H    0.066580
    10  H   -0.020434
    11  H    0.041464
    12  H    0.538197
    13  H   -0.306067
 Sum of Mulliken charges =  -0.00000

 Dipole moment (field-independent basis, Debye):
    X=              2.1186    Y=              4.3203    Z=              0.9167  Tot=              4.8984

 Test job not archived.
 1\1\GINC-SE057\SP\RHF\Aug-CC-pVDZ\C4H6N2O1\OHZDE\09-Apr-2025\0\\#t hf
 aug-cc-pvdz iop(5/13=1,5/36=2,99/5=2) pseudo=read geom=check guess=(re
 ad,tcheck) scf=(maxcycle=1)\\title\\0,1\C,0,-1.88698213,0.42251051,-0.
 22980843\C,0,-0.56864278,-0.18478675,0.0894852\N,0,-0.02873372,-1.0956
 5016,-0.8190735\O,0,1.00272653,-1.73507616,0.009696\C,0,1.44352593,-0.
 5679177,0.52526438\N,0,2.32332317,-0.07396899,-0.31584363\C,0,0.306865
 11,0.11918448,1.09130237\H,0,-1.93556225,0.66730564,-1.29211266\H,0,-2
 .68092832,-0.29834718,-0.02567998\H,0,-2.06747356,1.32394646,0.3539569

 Normal termination of Gaussian 16 at Wed Apr  9 16:33:05 2025.
