 Gaussian 16, Revision C.01,

 ----------------------------------------------------------------------
 #t hf aug-cc-pvdz symm=none int=(grid=ultrafine) guess=(read,tcheck) s
 table=(opt,rrhf)
 ----------------------------------------------------------------------
 -----
 title
 -----
 Symbolic Z-matrix:
 Charge =  0 Multiplicity = 1

 SCF Done:  E(RHF) =  -245.622201972     A.U. after   18 cycles
 Normal termination of Gaussian 16 at Wed Apr  9 14:20:01 2025.
 Gaussian 16:  ES64L-G16RevC.01  3-Jul-2019

 ----------------------------------------------------------------------
 #t hf aug-cc-pvdz iop(5/13=1,5/36=2,99/5=2) pseudo=read geom=check gue
 ss=(read,tcheck) scf=(maxcycle=1)
 ----------------------------------------------------------------------
 -----
 title
 -----
 Structure from the checkpoint file:  "Grambow2020_b97d3_007195_forward_mol1.chk"
 Charge =  0 Multiplicity = 1

                         Standard orientation:
 ---------------------------------------------------------------------
 Center     Atomic      Atomic             Coordinates (Angstroms)
 Number     Number       Type             X           Y           Z
 ---------------------------------------------------------------------
      1          8           0        1.932340   -0.287921   -0.251091
      2          6           0        1.013576    0.162105    0.351623
      3          6           0       -0.595777   -0.148934    0.482350
      4          6           0       -0.848283    1.143770   -0.254446
      5          7           0       -1.329732   -1.110525   -0.133825
      6          1           0        0.639825    1.426385    0.361564
      7          1           0       -0.820414   -0.034023    1.554288
      8          1           0       -1.741567    1.724106    0.000790
      9          1           0       -0.606336    1.152675   -1.322345
     10          1           0       -1.039203   -1.133748   -1.125956
 ---------------------------------------------------------------------

 SCF Done:  E(RHF) =  -245.695729452     A.U. after    2 cycles

 The electronic state is 1-A.
 Alpha  occ. eigenvalues --  -20.62681 -15.64754 -11.39139 -11.33687 -11.32407
 Alpha  occ. eigenvalues --   -1.41277  -1.19493  -1.01657  -0.87680  -0.79232
 Alpha  occ. eigenvalues --   -0.71595  -0.67094  -0.64578  -0.61490  -0.58424
 Alpha  occ. eigenvalues --   -0.55905  -0.49300  -0.39469  -0.34321
 Alpha virt. eigenvalues --    0.00334   0.02996   0.03899   0.05001   0.05856
 Alpha virt. eigenvalues --    0.07105   0.09314   0.09948   0.11459   0.11533
 Alpha virt. eigenvalues --    0.12905   0.13953   0.15378   0.15532   0.16022

 Mulliken charges:
               1
     1  O   -0.367458
     2  C    0.226979
     3  C    0.442051
     4  C    0.190819
     5  N   -0.487852
     6  H    0.297779
     7  H   -0.086046
     8  H   -0.103301
     9  H   -0.158280
    10  H    0.045309
 Sum of Mulliken charges =  -0.00000

 Dipole moment (field-independent basis, Debye):
    X=             -1.2170    Y=              3.0189    Z=              0.0245  Tot=              3.2551

 Test job not archived.
 1\1\GINC-SE207\SP\RHF\Aug-CC-pVDZ\C3H5N1O1\OHZDE\09-Apr-2025\0\\#t hf
 aug-cc-pvdz iop(5/13=1,5/36=2,99/5=2) pseudo=read geom=check guess=(re
 ad,tcheck) scf=(maxcycle=1)\\title\\0,1\O,0,1.68650841,-0.38107926,1.5
 8569023\C,0,1.27335407,-0.34999417,0.47292244\C,0,0.20994657,0.5692039
 8,-0.38036154\C,0,-0.71606484,-0.62232621,-0.40203598\N,0,-0.51964432,
 1.63530752,0.03694089\H,0,0.72685782,-1.35813256,-0.17760869\H,0,0.683
 23826,0.70985766,-1.36470258\H,0,-1.35423715,-0.77148458,-1.27974955\H
 ,0,-1.20038478,-0.88189641,0.54510886\H,0,-0.91334704,1.39769704,0.963

 Normal termination of Gaussian 16 at Wed Apr  9 14:20:04 2025.
