 Gaussian 16, Revision C.01,

 ----------------------------------------------------------------------
 #t hf aug-cc-pvdz symm=none int=(grid=ultrafine) guess=(read,tcheck) s
 table=(opt,rrhf)
 ----------------------------------------------------------------------
 -----
 title
 -----
 Symbolic Z-matrix:
 Charge =  0 Multiplicity = 1

 SCF Done:  E(RHF) =  -358.395954058     A.U. after   15 cycles
 Normal termination of Gaussian 16 at Wed Apr  9 03:33:07 2025.
 Gaussian 16:  ES64L-G16RevC.01  3-Jul-2019

 ----------------------------------------------------------------------
 #t hf aug-cc-pvdz iop(5/13=1,5/36=2,99/5=2) pseudo=read geom=check gue
 ss=(read,tcheck) scf=(maxcycle=1)
 ----------------------------------------------------------------------
 -----
 title
 -----
 Structure from the checkpoint file:  "Grambow2020_wb97xd3_007074_forward_mol1.chk"
 Charge =  0 Multiplicity = 1

                         Standard orientation:
 ---------------------------------------------------------------------
 Center     Atomic      Atomic             Coordinates (Angstroms)
 Number     Number       Type             X           Y           Z
 ---------------------------------------------------------------------
      1          8           0        2.074054   -0.733836    0.001706
      2          6           0        0.992246   -0.215728   -0.044683
      3          7           0        0.765773    1.153132   -0.062456
      4          6           0       -0.515185    1.703218   -0.062415
      5          6           0       -1.426132   -0.147073    0.555878
      6          8           0       -1.406631   -0.775414   -0.686217
      7          6           0       -0.296896   -0.978477    0.197448
      8          1           0        1.487936    1.670623    0.417945
      9          1           0       -1.036102    1.451821   -0.986329
     10          1           0       -1.286353    1.117547    0.787030
     11          1           0       -2.219850   -0.421447    1.247358
     12          1           0       -0.169620   -1.988110    0.569915
 ---------------------------------------------------------------------

 SCF Done:  E(RHF) =  -358.505227360     A.U. after    2 cycles

 The electronic state is 1-A.
 Alpha  occ. eigenvalues --  -20.64350 -20.57887 -15.67061 -11.39674 -11.36841
 Alpha  occ. eigenvalues --  -11.34605 -11.30017  -1.44897  -1.38925  -1.23439
 Alpha  occ. eigenvalues --   -1.00371  -0.97162  -0.88498  -0.83242  -0.75408
 Alpha  occ. eigenvalues --   -0.70447  -0.68841  -0.67846  -0.63192  -0.62184
 Alpha  occ. eigenvalues --   -0.56525  -0.55368  -0.51015  -0.47996  -0.42958
 Alpha  occ. eigenvalues --   -0.36037
 Alpha virt. eigenvalues --    0.02663   0.04363   0.04442   0.05102   0.06670
 Alpha virt. eigenvalues --    0.08152   0.09149   0.09736   0.10351   0.11439
 Alpha virt. eigenvalues --    0.12983   0.13738   0.13933   0.14363   0.14481

 Mulliken charges:
               1
     1  O   -0.405049
     2  C    0.294629
     3  N   -0.275217
     4  C    0.051807
     5  C    0.442502
     6  O   -0.644831
     7  C    0.882311
     8  H   -0.026395
     9  H    0.042749
    10  H    0.305497
    11  H   -0.384075
    12  H   -0.283928
 Sum of Mulliken charges =   0.00000

 Dipole moment (field-independent basis, Debye):
    X=             -2.3589    Y=             -0.1366    Z=              2.1642  Tot=              3.2042

 Test job not archived.
 1\1\GINC-SE252\SP\RHF\Aug-CC-pVDZ\C4H5N1O2\OHZDE\09-Apr-2025\0\\#t hf
 aug-cc-pvdz iop(5/13=1,5/36=2,99/5=2) pseudo=read geom=check guess=(re
 ad,tcheck) scf=(maxcycle=1)\\title\\0,1\O,0,0.93843132,2.22068361,0.64
 467906\C,0,0.60266751,1.08999277,0.42175327\N,0,1.44009045,0.0900016,-
 0.05166515\C,0,0.98554681,-1.19478635,-0.34519446\C,0,-1.07714829,-0.5
 7772634,-0.35983006\O,0,-1.25845,-0.54030061,1.01992449\C,0,-0.8512227
 9,0.66122229,0.3535023\H,0,2.19170593,0.45251461,-0.62066422\H,0,0.650
 67583,-1.69555715,0.56324401\H,0,-0.12322993,-1.17095709,-1.00041574\H

 Normal termination of Gaussian 16 at Wed Apr  9 03:33:11 2025.
