 Gaussian 16, Revision C.01,

 ----------------------------------------------------------------------
 #t hf aug-cc-pvdz symm=none int=(grid=ultrafine) guess=(read,tcheck) s
 table=(opt,rrhf)
 ----------------------------------------------------------------------
 -----
 title
 -----
 Symbolic Z-matrix:
 Charge =  0 Multiplicity = 1

 SCF Done:  E(RHF) =  -335.419031407     A.U. after   15 cycles
 Normal termination of Gaussian 16 at Wed Apr  9 03:09:40 2025.
 Gaussian 16:  ES64L-G16RevC.01  3-Jul-2019

 ----------------------------------------------------------------------
 #t hf aug-cc-pvdz iop(5/13=1,5/36=2,99/5=2) pseudo=read geom=check gue
 ss=(read,tcheck) scf=(maxcycle=1)
 ----------------------------------------------------------------------
 -----
 title
 -----
 Structure from the checkpoint file:  "Grambow2020_b97d3_006736_forward_mol1.chk"
 Charge =  0 Multiplicity = 1

                         Standard orientation:
 ---------------------------------------------------------------------
 Center     Atomic      Atomic             Coordinates (Angstroms)
 Number     Number       Type             X           Y           Z
 ---------------------------------------------------------------------
      1          8           0       -1.955654   -0.038625    0.003561
      2          6           0       -0.684355   -0.154175   -0.005217
      3          7           0       -0.076081    1.040845   -0.004241
      4          6           0        1.256141    0.739716    0.002002
      5          7           0        1.520181   -0.549623    0.002684
      6          8           0        0.179273   -1.170527   -0.001339
      7          1           0       -1.395043    1.258050    0.010218
      8          1           0        2.066679    1.463369    0.002200
 ---------------------------------------------------------------------

 SCF Done:  E(RHF) =  -335.519189172     A.U. after    2 cycles

 The electronic state is 1-A.
 Alpha  occ. eigenvalues --  -20.69252 -20.61517 -15.72524 -15.68390 -11.45984
 Alpha  occ. eigenvalues --  -11.38226  -1.49393  -1.39264  -1.25929  -1.14215
 Alpha  occ. eigenvalues --   -0.91321  -0.85547  -0.77762  -0.72547  -0.69309
 Alpha  occ. eigenvalues --   -0.63323  -0.58466  -0.58170  -0.56762  -0.52681
 Alpha  occ. eigenvalues --   -0.49470  -0.40635
 Alpha virt. eigenvalues --    0.02625   0.04198   0.07178   0.07630   0.09497
 Alpha virt. eigenvalues --    0.10242   0.11292   0.12652   0.13921   0.13987
 Alpha virt. eigenvalues --    0.14875   0.17315   0.17426   0.18792   0.19842

 Mulliken charges:
               1
     1  O   -0.595472
     2  C    0.719217
     3  N   -0.604104
     4  C    0.745289
     5  N   -0.139190
     6  O   -0.570975
     7  H    0.546644
     8  H   -0.101409
 Sum of Mulliken charges =  -0.00000

 Dipole moment (field-independent basis, Debye):
    X=              1.5826    Y=              3.5644    Z=              0.0042  Tot=              3.8999

 Test job not archived.
 1\1\GINC-SE129\SP\RHF\Aug-CC-pVDZ\C2H2N2O2\OHZDE\09-Apr-2025\0\\#t hf
 aug-cc-pvdz iop(5/13=1,5/36=2,99/5=2) pseudo=read geom=check guess=(re
 ad,tcheck) scf=(maxcycle=1)\\title\\0,1\O,0,2.02281781,0.55836718,0.09
 175632\C,0,0.92838511,-0.08088148,0.24409813\N,0,-0.13916958,0.7111769
 ,0.0679111\C,0,-1.20774467,-0.12031897,0.24761866\N,0,-0.88461357,-1.3
 6588706,0.52377327\O,0,0.59287717,-1.34166941,0.5210251\H,0,0.95395367
 ,1.45877712,-0.11436083\H,0,-2.25237094,0.17171971,0.18347526\\Version
 =ES64L-G16RevC.01\State=1-A\HF=-335.5191892\RMSD=2.720e-03\Dipole=-1.1

 Normal termination of Gaussian 16 at Wed Apr  9 03:09:42 2025.
