 Gaussian 16, Revision C.01,

 ----------------------------------------------------------------------
 #t hf aug-cc-pvdz symm=none int=(grid=ultrafine) guess=(read,tcheck) s
 table=(opt,rrhf)
 ----------------------------------------------------------------------
 -----
 title
 -----
 Symbolic Z-matrix:
 Charge =  0 Multiplicity = 1

 SCF Done:  E(RHF) =  -302.812487650     A.U. after   15 cycles
 Normal termination of Gaussian 16 at Wed Apr  9 15:33:03 2025.
 Gaussian 16:  ES64L-G16RevC.01  3-Jul-2019

 ----------------------------------------------------------------------
 #t hf aug-cc-pvdz iop(5/13=1,5/36=2,99/5=2) pseudo=read geom=check gue
 ss=(read,tcheck) scf=(maxcycle=1)
 ----------------------------------------------------------------------
 -----
 title
 -----
 Structure from the checkpoint file:  "Grambow2020_wb97xd3_006961_reverse_mol2.chk"
 Charge =  0 Multiplicity = 1

                         Standard orientation:
 ---------------------------------------------------------------------
 Center     Atomic      Atomic             Coordinates (Angstroms)
 Number     Number       Type             X           Y           Z
 ---------------------------------------------------------------------
      1          6           0       -1.345680   -1.266636    0.033340
      2          6           0       -0.497479   -0.000834   -0.042190
      3          6           0       -1.340485    1.269702    0.011957
      4          7           0        0.485810    0.007524    1.064755
      5          6           0        1.668194    0.003620    0.552374
      6          6           0        1.633030   -0.009465   -0.952826
      7          7           0        0.344465   -0.011182   -1.207573
      8          1           0       -1.990159   -1.302253   -0.843169
      9          1           0       -1.970492   -1.275824    0.929280
     10          1           0       -0.706854   -2.149938    0.024769
     11          1           0       -1.958688    1.302656    0.911927
     12          1           0       -0.698523    2.150162   -0.021920
     13          1           0       -1.991780    1.290153   -0.860066
     14          1           0        0.256452    0.019198    2.047007
     15          1           0        2.542647    0.013134    1.195970
 ---------------------------------------------------------------------

 SCF Done:  E(RHF) =  -302.901644649     A.U. after    2 cycles

 The electronic state is 1-A.
 Alpha  occ. eigenvalues --  -15.72164 -15.59973 -11.34694 -11.32096 -11.24611
 Alpha  occ. eigenvalues --  -11.24603 -11.21012  -1.32471  -1.14669  -1.06722
 Alpha  occ. eigenvalues --   -0.95792  -0.91797  -0.82671  -0.77908  -0.74220
 Alpha  occ. eigenvalues --   -0.64106  -0.62956  -0.61273  -0.56838  -0.54404
 Alpha  occ. eigenvalues --   -0.53557  -0.53412  -0.48602  -0.42831  -0.37770
 Alpha  occ. eigenvalues --   -0.29841
 Alpha virt. eigenvalues --    0.01438   0.03252   0.03788   0.04938   0.05180
 Alpha virt. eigenvalues --    0.06390   0.06890   0.07418   0.08252   0.09846
 Alpha virt. eigenvalues --    0.11796   0.12752   0.13029   0.13783   0.14044

 Mulliken charges:
               1
     1  C    1.124153
     2  C   -1.903071
     3  C    1.127809
     4  N   -0.013799
     5  C    0.702569
     6  C   -0.411774
     7  N   -0.351340
     8  H    0.061675
     9  H    0.029199
    10  H   -0.040284
    11  H    0.026219
    12  H   -0.041642
    13  H    0.061797
    14  H   -0.101425
    15  H   -0.270085
 Sum of Mulliken charges =  -0.00000

 Dipole moment (field-independent basis, Debye):
    X=             -2.6418    Y=              0.0722    Z=              7.3460  Tot=              7.8069

 Test job not archived.
 1\1\GINC-SE138\SP\RHF\Aug-CC-pVDZ\C5H8N2\OHZDE\09-Apr-2025\0\\#t hf au
 g-cc-pvdz iop(5/13=1,5/36=2,99/5=2) pseudo=read geom=check guess=(read
 ,tcheck) scf=(maxcycle=1)\\title\\0,1\C,0,-0.50741632,1.49559223,-0.34
 127993\C,0,-0.04550865,0.14898701,0.20708139\C,0,-1.19725853,-0.675341
 08,0.77436409\N,0,0.6354333,-0.61754385,-0.86109531\C,0,1.8544296,-0.8
 2048073,-0.4957924\C,0,2.14869927,-0.22014526,0.8532949\N,0,0.9967007,
 0.31791778,1.18296952\H,0,-0.91295809,2.08176331,0.48141519\H,0,-1.282
 88249,1.37278226,-1.10072319\H,0,0.33647412,2.03956588,-0.76593964\H,0

 Normal termination of Gaussian 16 at Wed Apr  9 15:33:09 2025.
