 Gaussian 16, Revision C.01,

 ----------------------------------------------------------------------
 #t hf aug-cc-pvdz symm=none int=(grid=ultrafine) guess=(read,tcheck) s
 table=(opt,rrhf)
 ----------------------------------------------------------------------
 -----
 title
 -----
 Symbolic Z-matrix:
 Charge =  0 Multiplicity = 1

 SCF Done:  E(RHF) =  -306.574645618     A.U. after   14 cycles
 Normal termination of Gaussian 16 at Wed Apr  9 16:28:08 2025.
 Gaussian 16:  ES64L-G16RevC.01  3-Jul-2019

 ----------------------------------------------------------------------
 #t hf aug-cc-pvdz iop(5/13=1,5/36=2,99/5=2) pseudo=read geom=check gue
 ss=(read,tcheck) scf=(maxcycle=1)
 ----------------------------------------------------------------------
 -----
 title
 -----
 Structure from the checkpoint file:  "Grambow2020_wb97xd3_008434_reverse_mol1.chk"
 Charge =  0 Multiplicity = 1

                         Standard orientation:
 ---------------------------------------------------------------------
 Center     Atomic      Atomic             Coordinates (Angstroms)
 Number     Number       Type             X           Y           Z
 ---------------------------------------------------------------------
      1          6           0        1.140716   -0.820243   -0.640172
      2          6           0        1.540172    0.618182   -0.238951
      3          6           0       -0.300255    1.238426   -0.070763
      4          8           0       -1.358103    0.458009   -0.528535
      5          6           0       -1.296604   -0.824809    0.102385
      6          6           0        0.144961   -0.958607    0.534281
      7          6           0        0.562911    0.473934    0.911780
      8          1           0        0.780946   -1.004412   -1.654065
      9          1           0        2.048728   -1.409555   -0.490520
     10          1           0        0.442362    1.462678   -0.952821
     11          1           0       -0.579470    2.237975    0.254637
     12          1           0       -1.603607   -1.570978   -0.633152
     13          1           0       -1.987457   -0.855815    0.953761
     14          1           0        0.325868   -1.760683    1.247254
     15          1           0        0.686037    0.875423    1.911830
 ---------------------------------------------------------------------

 SCF Done:  E(RHF) =  -306.664641084     A.U. after    2 cycles

 The electronic state is 1-A.
 Alpha  occ. eigenvalues --  -20.58783 -11.32099 -11.29590 -11.26482 -11.25091
 Alpha  occ. eigenvalues --  -11.25041 -11.24227  -1.36920  -1.16540  -1.03339
 Alpha  occ. eigenvalues --   -0.93803  -0.84947  -0.82935  -0.74187  -0.71292
 Alpha  occ. eigenvalues --   -0.67685  -0.62981  -0.60551  -0.57444  -0.55024
 Alpha  occ. eigenvalues --   -0.53662  -0.50285  -0.49249  -0.44598  -0.42889
 Alpha  occ. eigenvalues --   -0.33580
 Alpha virt. eigenvalues --    0.02950   0.04008   0.04548   0.04874   0.06202
 Alpha virt. eigenvalues --    0.06577   0.07000   0.07676   0.10025   0.10915
 Alpha virt. eigenvalues --    0.12496   0.12831   0.13725   0.14072   0.14296

 Mulliken charges:
               1
     1  C    0.626240
     2  C   -0.680046
     3  C    0.512960
     4  O   -0.680347
     5  C    1.149887
     6  C   -0.110343
     7  C    0.558869
     8  H   -0.224677
     9  H   -0.114573
    10  H    0.156732
    11  H   -0.222800
    12  H   -0.167024
    13  H   -0.185078
    14  H   -0.282880
    15  H   -0.336920
 Sum of Mulliken charges =   0.00000

 Dipole moment (field-independent basis, Debye):
    X=             -1.1453    Y=             -1.7691    Z=              1.6829  Tot=              2.6969

 Test job not archived.
 1\1\GINC-SE105\SP\RHF\Aug-CC-pVDZ\C6H8O1\OHZDE\09-Apr-2025\0\\#t hf au
 g-cc-pvdz iop(5/13=1,5/36=2,99/5=2) pseudo=read geom=check guess=(read
 ,tcheck) scf=(maxcycle=1)\\title\\0,1\C,0,0.735355,1.25875562,0.160937
 47\C,0,1.61048989,0.16511174,-0.4930452\C,0,0.50865104,-1.30781338,0.1
 5240169\O,0,-0.48217967,-1.08984055,1.10549722\C,0,-1.37942781,-0.0854
 6481,0.62213677\C,0,-0.57386258,0.66766694,-0.41053059\C,0,0.32198052,
 -0.40748307,-1.05153086\H,0,0.80915028,1.4193275,1.2380183\H,0,1.03079
 259,2.18361199,-0.34058705\H,0,1.55109025,-0.96854618,0.57431652\H,0,0

 Normal termination of Gaussian 16 at Wed Apr  9 16:28:14 2025.
