 Gaussian 16, Revision C.01,

 ----------------------------------------------------------------------
 #t hf aug-cc-pvdz symm=none int=(grid=ultrafine) guess=(read,tcheck) s
 table=(opt,rrhf)
 ----------------------------------------------------------------------
 -----
 title
 -----
 Symbolic Z-matrix:
 Charge =  0 Multiplicity = 1

 SCF Done:  E(RHF) =  -286.716669761     A.U. after   16 cycles
 Normal termination of Gaussian 16 at Wed Apr  9 16:15:11 2025.
 Gaussian 16:  ES64L-G16RevC.01  3-Jul-2019

 ----------------------------------------------------------------------
 #t hf aug-cc-pvdz iop(5/13=1,5/36=2,99/5=2) pseudo=read geom=check gue
 ss=(read,tcheck) scf=(maxcycle=1)
 ----------------------------------------------------------------------
 -----
 title
 -----
 Structure from the checkpoint file:  "Grambow2020_wb97xd3_008004_reverse_mol1.chk"
 Charge =  0 Multiplicity = 1

                         Standard orientation:
 ---------------------------------------------------------------------
 Center     Atomic      Atomic             Coordinates (Angstroms)
 Number     Number       Type             X           Y           Z
 ---------------------------------------------------------------------
      1          6           0        3.409988    0.485039    0.182380
      2          6           0        2.070679   -0.046045   -0.046237
      3          6           0        0.969054   -0.479787   -0.235502
      4          6           0       -0.378721   -1.014902   -0.445904
      5          6           0       -1.408910   -0.548640    0.550945
      6          6           0       -2.000365    1.264663   -0.237594
      7          7           0       -2.537798    0.088686    0.190376
      8          1           0        3.538859    1.446922   -0.316637
      9          1           0        4.170252   -0.198492   -0.199100
     10          1           0        3.591408    0.631399    1.248498
     11          1           0       -0.312838   -2.111498   -0.398278
     12          1           0       -0.721825   -0.752224   -1.449211
     13          1           0       -1.324301   -0.955071    1.560452
     14          1           0       -2.229266    1.662787   -1.222492
     15          1           0       -1.418572    1.851192    0.455791
     16          1           0       -3.499472   -0.157781    0.379819
 ---------------------------------------------------------------------

 SCF Done:  E(RHF) =  -286.806479223     A.U. after    2 cycles

 The electronic state is 1-A.
 Alpha  occ. eigenvalues --  -15.66406 -11.28714 -11.25796 -11.25722 -11.24930
 Alpha  occ. eigenvalues --  -11.22304 -11.21851  -1.24103  -1.05802  -1.01021
 Alpha  occ. eigenvalues --   -0.93116  -0.88403  -0.82443  -0.70770  -0.66576
 Alpha  occ. eigenvalues --   -0.62585  -0.62236  -0.59749  -0.58298  -0.58248
 Alpha  occ. eigenvalues --   -0.57211  -0.54607  -0.39712  -0.36179  -0.36109
 Alpha  occ. eigenvalues --   -0.26753
 Alpha virt. eigenvalues --    0.03319   0.03665   0.04395   0.04727   0.05616
 Alpha virt. eigenvalues --    0.06529   0.06933   0.07259   0.07775   0.09100
 Alpha virt. eigenvalues --    0.10222   0.12369   0.12925   0.13886   0.14140

 Mulliken charges:
               1
     1  C    0.131236
     2  C   -0.827176
     3  C   -0.182702
     4  C   -0.084787
     5  C    0.660292
     6  C    0.722512
     7  N   -0.308188
     8  H    0.141854
     9  H    0.137581
    10  H    0.137508
    11  H    0.213521
    12  H    0.138814
    13  H   -0.293679
    14  H   -0.279132
    15  H   -0.250721
    16  H   -0.056933
 Sum of Mulliken charges =  -0.00000

 Dipole moment (field-independent basis, Debye):
    X=             -0.8874    Y=             -0.6236    Z=              0.4258  Tot=              1.1652

 Test job not archived.
 1\1\GINC-SE026\SP\RHF\Aug-CC-pVDZ\C6H9N1\OHZDE\09-Apr-2025\0\\#t hf au
 g-cc-pvdz iop(5/13=1,5/36=2,99/5=2) pseudo=read geom=check guess=(read
 ,tcheck) scf=(maxcycle=1)\\title\\0,1\C,0,2.6307479,0.78070751,2.03538
 134\C,0,1.69932735,0.12544222,1.12370862\C,0,0.93328823,-0.41033495,0.
 37293682\C,0,-0.01375206,-1.07295654,-0.5277081\C,0,-1.46672637,-0.868
 20453,-0.18225191\C,0,-1.88276741,0.94692486,-1.07213564\N,0,-2.352692
 18,-0.33100356,-1.04077446\H,0,2.82607291,1.80765676,1.72222134\H,0,3.
 58348207,0.24961941,2.06676487\H,0,2.22572729,0.80844617,3.04836327\H,

 Normal termination of Gaussian 16 at Wed Apr  9 16:15:31 2025.
