 Gaussian 16, Revision C.01,

 ----------------------------------------------------------------------
 #t hf aug-cc-pvdz symm=none int=(grid=ultrafine) guess=(read,tcheck) s
 table=(opt,rrhf)
 ----------------------------------------------------------------------
 -----
 title
 -----
 Symbolic Z-matrix:
 Charge =  0 Multiplicity = 1

 SCF Done:  E(RHF) =  -152.509450294     A.U. after   11 cycles
 Normal termination of Gaussian 16 at Wed Apr  9 03:07:34 2025.
 Gaussian 16:  ES64L-G16RevC.01  3-Jul-2019

 ----------------------------------------------------------------------
 #t hf aug-cc-pvdz iop(5/13=1,5/36=2,99/5=2) pseudo=read geom=check gue
 ss=(read,tcheck) scf=(maxcycle=1)
 ----------------------------------------------------------------------
 -----
 title
 -----
 Structure from the checkpoint file:  "Grambow2020_b97d3_006637_forward_mol2.chk"
 Charge =  0 Multiplicity = 1

                         Standard orientation:
 ---------------------------------------------------------------------
 Center     Atomic      Atomic             Coordinates (Angstroms)
 Number     Number       Type             X           Y           Z
 ---------------------------------------------------------------------
      1          6           0       -0.683176   -0.000172    0.000023
      2          6           0       -1.907202    0.000494   -0.000003
      3          6           0        0.683164    0.000109   -0.000026
      4          6           0        1.907207   -0.000450    0.000005
      5          1           0       -2.977402   -0.001567   -0.000016
      6          1           0        2.977440    0.001676    0.000022
 ---------------------------------------------------------------------

 SCF Done:  E(RHF) =  -152.558527351     A.U. after    2 cycles

 The electronic state is 1-A.
 Alpha  occ. eigenvalues --  -11.28659 -11.28573 -11.27869 -11.27846  -1.08404
 Alpha  occ. eigenvalues --   -1.01463  -0.85608  -0.73560  -0.70852  -0.49514
 Alpha  occ. eigenvalues --   -0.49514  -0.37050  -0.37050
 Alpha virt. eigenvalues --    0.03428   0.03471   0.07653   0.07653   0.08886
 Alpha virt. eigenvalues --    0.10963   0.10963   0.11641   0.12791   0.12792
 Alpha virt. eigenvalues --    0.13846   0.16344   0.19565   0.19565   0.20428

 Mulliken charges:
               1
     1  C    0.231076
     2  C    0.300896
     3  C    0.231153
     4  C    0.300752
     5  H   -0.531993
     6  H   -0.531884
 Sum of Mulliken charges =  -0.00000

 Dipole moment (field-independent basis, Debye):
    X=              0.0000    Y=              0.0001    Z=              0.0000  Tot=              0.0001

 Test job not archived.
 1\1\GINC-SE284\SP\RHF\Aug-CC-pVDZ\C4H2\OHZDE\09-Apr-2025\0\\#t hf aug-
 cc-pvdz iop(5/13=1,5/36=2,99/5=2) pseudo=read geom=check guess=(read,t
 check) scf=(maxcycle=1)\\title\\0,1\C,0,0.67594456,-0.0070501,-0.08929
 58\C,0,1.88685817,-0.01983396,0.08892675\C,0,-0.67590841,0.0070537,-0.
 28723765\C,0,-1.8868554,0.01983288,-0.46535704\H,0,2.94597868,-0.03077
 146,0.24214793\H,0,-2.94601761,0.03076894,-0.61851865\\Version=ES64L-G
 16RevC.01\State=1-A\HF=-152.5585274\RMSD=1.557e-02\Dipole=-0.0000169,-
 0.000001,0.0000346\Quadrupole=7.0745024,-3.6505111,-3.4239913,-0.11177

 Normal termination of Gaussian 16 at Wed Apr  9 03:07:35 2025.
