 Gaussian 16, Revision C.01,

 ----------------------------------------------------------------------
 #t hf aug-cc-pvdz symm=none int=(grid=ultrafine) guess=(read,tcheck) s
 table=(opt,rrhf)
 ----------------------------------------------------------------------
 -----
 title
 -----
 Symbolic Z-matrix:
 Charge =  0 Multiplicity = 1

 SCF Done:  E(RHF) =  -306.641954655     A.U. after   13 cycles
 Normal termination of Gaussian 16 at Wed Apr  9 15:46:00 2025.
 Gaussian 16:  ES64L-G16RevC.01  3-Jul-2019

 ----------------------------------------------------------------------
 #t hf aug-cc-pvdz iop(5/13=1,5/36=2,99/5=2) pseudo=read geom=check gue
 ss=(read,tcheck) scf=(maxcycle=1)
 ----------------------------------------------------------------------
 -----
 title
 -----
 Structure from the checkpoint file:  "Grambow2020_wb97xd3_007357_forward_mol2.chk"
 Charge =  0 Multiplicity = 1

                         Standard orientation:
 ---------------------------------------------------------------------
 Center     Atomic      Atomic             Coordinates (Angstroms)
 Number     Number       Type             X           Y           Z
 ---------------------------------------------------------------------
      1          6           0       -1.684771   -0.464538    0.725040
      2          6           0       -1.871040    0.134187   -0.644684
      3          6           0       -0.516089    0.063627   -0.028754
      4          6           0        0.409719    1.253646    0.291859
      5          6           0        1.558953    0.416535   -0.275119
      6          8           0        1.626454   -0.783239    0.480612
      7          6           0        0.665589   -0.706201   -0.566482
      8          1           0       -2.029839    0.106218    1.577614
      9          1           0       -1.780936   -1.537487    0.831916
     10          1           0       -2.092518   -0.536454   -1.465885
     11          1           0       -2.344566    1.105258   -0.719225
     12          1           0        0.181450    2.133990   -0.310207
     13          1           0        0.518183    1.530336    1.341078
     14          1           0        2.461317    0.745101   -0.773063
     15          1           0        0.701108   -1.464592   -1.338277
 ---------------------------------------------------------------------

 SCF Done:  E(RHF) =  -306.736912815     A.U. after    2 cycles

 The electronic state is 1-A.
 Alpha  occ. eigenvalues --  -20.58091 -11.29435 -11.29296 -11.25130 -11.24195
 Alpha  occ. eigenvalues --  -11.23939 -11.23483  -1.39006  -1.15020  -1.03375
 Alpha  occ. eigenvalues --   -0.89680  -0.84082  -0.82701  -0.74434  -0.71082
 Alpha  occ. eigenvalues --   -0.67162  -0.62905  -0.60186  -0.57231  -0.55200
 Alpha  occ. eigenvalues --   -0.52255  -0.50552  -0.45691  -0.43189  -0.41986
 Alpha  occ. eigenvalues --   -0.39252
 Alpha virt. eigenvalues --    0.03453   0.04155   0.04409   0.04968   0.06140
 Alpha virt. eigenvalues --    0.06487   0.06682   0.07620   0.10630   0.11721
 Alpha virt. eigenvalues --    0.12220   0.13074   0.13392   0.13768   0.14407

 Mulliken charges:
               1
     1  C    0.444734
     2  C    0.702135
     3  C    0.065460
     4  C    0.328183
     5  C    0.789716
     6  O   -0.784806
     7  C    0.216924
     8  H   -0.255418
     9  H   -0.256813
    10  H   -0.257269
    11  H   -0.268716
    12  H   -0.080177
    13  H   -0.070902
    14  H   -0.282869
    15  H   -0.290182
 Sum of Mulliken charges =  -0.00000

 Dipole moment (field-independent basis, Debye):
    X=             -1.1859    Y=              1.3327    Z=             -1.6361  Tot=              2.4205

 Test job not archived.
 1\1\GINC-SE041\SP\RHF\Aug-CC-pVDZ\C6H8O1\OHZDE\09-Apr-2025\0\\#t hf au
 g-cc-pvdz iop(5/13=1,5/36=2,99/5=2) pseudo=read geom=check guess=(read
 ,tcheck) scf=(maxcycle=1)\\title\\0,1\C,0,-1.47640684,0.27699918,-0.82
 95345\C,0,-1.57126091,-0.06314193,0.63491629\C,0,-0.24314612,0.0360342
 7,-0.03330187\C,0,0.8085115,-1.08418994,-0.15647869\C,0,1.86229478,-0.
 03212963,0.1980171\O,0,1.77944469,0.99938595,-0.77371136\C,0,0.8501594
 3,1.02042166,0.3040584\H,0,-1.76657354,-0.48190687,-1.54478451\H,0,-1.
 69716983,1.29196554,-1.13448725\H,0,-1.8557915,0.72473917,1.32155237\H

 Normal termination of Gaussian 16 at Wed Apr  9 15:46:06 2025.
