 Gaussian 16, Revision C.01,

 ----------------------------------------------------------------------
 #t hf aug-cc-pvdz symm=none int=(grid=ultrafine) guess=(read,tcheck) s
 table=(opt,rrhf)
 ----------------------------------------------------------------------
 -----
 title
 -----
 Symbolic Z-matrix:
 Charge =  0 Multiplicity = 1

 SCF Done:  E(RHF) =  -317.713159987     A.U. after   14 cycles
 Normal termination of Gaussian 16 at Wed Apr  9 16:16:46 2025.
 Gaussian 16:  ES64L-G16RevC.01  3-Jul-2019

 ----------------------------------------------------------------------
 #t hf aug-cc-pvdz iop(5/13=1,5/36=2,99/5=2) pseudo=read geom=check gue
 ss=(read,tcheck) scf=(maxcycle=1)
 ----------------------------------------------------------------------
 -----
 title
 -----
 Structure from the checkpoint file:  "Grambow2020_wb97xd3_008059_reverse_mol2.chk"
 Charge =  0 Multiplicity = 1

                         Standard orientation:
 ---------------------------------------------------------------------
 Center     Atomic      Atomic             Coordinates (Angstroms)
 Number     Number       Type             X           Y           Z
 ---------------------------------------------------------------------
      1          7           0        2.826010    0.027952   -0.003759
      2          6           0        3.985196   -0.043848    0.014118
      3          6           0       -0.735725   -1.017630   -0.006981
      4          6           0       -2.187417   -0.688555    0.008290
      5          7           0       -2.209683    0.757421    0.008475
      6          6           0       -0.987145    1.104008   -0.003853
      7          7           0       -0.030025    0.049546   -0.013619
      8          1           0       -0.292038   -2.006765   -0.013327
      9          1           0       -2.715946   -1.087531   -0.863540
     10          1           0       -2.696666   -1.086927    0.891876
     11          1           0       -0.649113    2.132523   -0.006478
     12          1           0        1.800189    0.080417   -0.015651
 ---------------------------------------------------------------------

 SCF Done:  E(RHF) =  -317.807830277     A.U. after    2 cycles

 The electronic state is 1-A.
 Alpha  occ. eigenvalues --  -15.67515 -15.65202 -15.63453 -11.34426 -11.34195
 Alpha  occ. eigenvalues --  -11.30768 -11.27255  -1.33362  -1.20193  -1.16611
 Alpha  occ. eigenvalues --   -1.03400  -0.85427  -0.83357  -0.80920  -0.72536
 Alpha  occ. eigenvalues --   -0.67203  -0.63726  -0.59626  -0.51900  -0.50034
 Alpha  occ. eigenvalues --   -0.48727  -0.48650  -0.46595  -0.45461  -0.42229
 Alpha virt. eigenvalues --    0.02137   0.03706   0.03868   0.04472   0.05955
 Alpha virt. eigenvalues --    0.07322   0.08902   0.09269   0.09749   0.11426
 Alpha virt. eigenvalues --    0.11579   0.11598   0.13348   0.13389   0.14038

 Mulliken charges:
               1
     1  N   -0.090438
     2  C   -0.324692
     3  C    0.278697
     4  C    0.571253
     5  N   -0.505461
     6  C    0.668041
     7  N   -0.494008
     8  H   -0.223727
     9  H   -0.044715
    10  H   -0.044461
    11  H   -0.193026
    12  H    0.402536
 Sum of Mulliken charges =  -0.00000

 Dipole moment (field-independent basis, Debye):
    X=             -5.0509    Y=             -2.0523    Z=             -0.0367  Tot=              5.4521

 Test job not archived.
 1\1\GINC-SE454\SP\RHF\Aug-CC-pVDZ\C4H5N3\OHZDE\09-Apr-2025\0\\#t hf au
 g-cc-pvdz iop(5/13=1,5/36=2,99/5=2) pseudo=read geom=check guess=(read
 ,tcheck) scf=(maxcycle=1)\\title\\0,1\N,0,2.69295726,0.71593185,1.3667
 0195\C,0,3.75499741,0.8895906,1.80385078\C,0,-0.03577334,-0.69748969,-
 0.7154784\C,0,-1.4736721,-0.78286019,-1.09110196\N,0,-2.11256504,0.174
 84053,-0.21590753\C,0,-1.16872755,0.66145253,0.48212751\N,0,0.13777808
 ,0.16014422,0.21793616\H,0,0.7843241,-1.26155005,-1.14508538\H,0,-1.64
 731801,-0.52881207,-2.14177798\H,0,-1.8860233,-1.78576043,-0.93971274\

 Normal termination of Gaussian 16 at Wed Apr  9 16:16:50 2025.
