 Gaussian 16, Revision C.01,

 ----------------------------------------------------------------------
 #t hf aug-cc-pvdz symm=none int=(grid=ultrafine) guess=(read,tcheck) s
 table=(opt,rrhf)
 ----------------------------------------------------------------------
 -----
 title
 -----
 Symbolic Z-matrix:
 Charge =  0 Multiplicity = 1

 SCF Done:  E(RHF) =  -265.025388738     A.U. after   15 cycles
 Normal termination of Gaussian 16 at Wed Apr  9 14:21:18 2025.
 Gaussian 16:  ES64L-G16RevC.01  3-Jul-2019

 ----------------------------------------------------------------------
 #t hf aug-cc-pvdz iop(5/13=1,5/36=2,99/5=2) pseudo=read geom=check gue
 ss=(read,tcheck) scf=(maxcycle=1)
 ----------------------------------------------------------------------
 -----
 title
 -----
 Structure from the checkpoint file:  "Grambow2020_wb97xd3_006061_reverse_mol2.chk"
 Charge =  0 Multiplicity = 1

                         Standard orientation:
 ---------------------------------------------------------------------
 Center     Atomic      Atomic             Coordinates (Angstroms)
 Number     Number       Type             X           Y           Z
 ---------------------------------------------------------------------
      1          6           0       -1.187038    1.356372   -0.380631
      2          6           0       -1.117036    0.105931    0.093708
      3          6           0       -1.464579   -1.094286   -0.734713
      4          7           0       -0.739575   -0.197206    1.386935
      5          6           0        2.127480    0.246846   -0.357051
      6          7           0        3.090704   -0.287841   -0.046466
      7          1           0        1.204045    0.732123   -0.632230
      8          1           0       -0.942484    2.213534    0.236652
      9          1           0       -1.567125    1.544962   -1.374079
     10          1           0       -2.257763   -1.669927   -0.253077
     11          1           0       -0.596424   -1.752514   -0.839148
     12          1           0       -1.795654   -0.802193   -1.728792
     13          1           0       -0.325443   -1.099527    1.544666
     14          1           0       -0.330013    0.539697    1.934855
 ---------------------------------------------------------------------

 SCF Done:  E(RHF) =  -265.109289043     A.U. after    2 cycles

 The electronic state is 1-A.
 Alpha  occ. eigenvalues --  -15.65246 -15.64169 -11.30459 -11.28991 -11.25021
 Alpha  occ. eigenvalues --  -11.22051  -1.20796  -1.20176  -1.03283  -0.95270
 Alpha  occ. eigenvalues --   -0.78995  -0.77617  -0.70739  -0.66275  -0.60519
 Alpha  occ. eigenvalues --   -0.57859  -0.56051  -0.55983  -0.52550  -0.49468
 Alpha  occ. eigenvalues --   -0.48700  -0.47927  -0.33162
 Alpha virt. eigenvalues --    0.03135   0.03778   0.04066   0.05366   0.06305
 Alpha virt. eigenvalues --    0.06585   0.07402   0.09132   0.10217   0.10336
 Alpha virt. eigenvalues --    0.12058   0.13311   0.13794   0.14351   0.14754

 Mulliken charges:
               1
     1  C    1.019867
     2  C   -0.055309
     3  C    0.386411
     4  N   -0.280801
     5  C    0.387462
     6  N   -0.359040
     7  H    0.012723
     8  H   -0.501678
     9  H   -0.390619
    10  H    0.016173
    11  H   -0.061169
    12  H   -0.126002
    13  H   -0.028899
    14  H   -0.019119
 Sum of Mulliken charges =  -0.00000

 Dipole moment (field-independent basis, Debye):
    X=             -2.5007    Y=              0.1689    Z=             -0.1019  Tot=              2.5085

 Test job not archived.
 1\1\GINC-SE220\SP\RHF\Aug-CC-pVDZ\C4H8N2\OHZDE\09-Apr-2025\0\\#t hf au
 g-cc-pvdz iop(5/13=1,5/36=2,99/5=2) pseudo=read geom=check guess=(read
 ,tcheck) scf=(maxcycle=1)\\title\\0,1\C,0,-0.49969765,1.0776741,-1.026
 08274\C,0,0.23732147,0.01864648,-0.66724597\C,0,1.63456624,0.14684678,
 -0.13917365\N,0,-0.20618193,-1.28537655,-0.76539679\C,0,-1.47222673,-0
 .0697749,2.12910067\N,0,-1.70398355,-0.76807255,3.00592569\H,0,-1.2375
 212,0.56655808,1.29008704\H,0,-1.5048564,0.96523064,-1.41670271\H,0,-0
 .0764316,2.07138579,-1.00725771\H,0,2.32790084,-0.42407692,-0.76030817

 Normal termination of Gaussian 16 at Wed Apr  9 14:21:22 2025.
