 Gaussian 16, Revision C.01,

 ----------------------------------------------------------------------
 #t hf aug-cc-pvdz symm=none int=(grid=ultrafine) guess=(read,tcheck) s
 table=(opt,rrhf)
 ----------------------------------------------------------------------
 -----
 title
 -----
 Symbolic Z-matrix:
 Charge =  0 Multiplicity = 1

 SCF Done:  E(RHF) =  -286.652467014     A.U. after   19 cycles
 Normal termination of Gaussian 16 at Wed Apr  9 16:14:18 2025.
 Gaussian 16:  ES64L-G16RevC.01  3-Jul-2019

 ----------------------------------------------------------------------
 #t hf aug-cc-pvdz iop(5/13=1,5/36=2,99/5=2) pseudo=read geom=check gue
 ss=(read,tcheck) scf=(maxcycle=1)
 ----------------------------------------------------------------------
 -----
 title
 -----
 Structure from the checkpoint file:  "Grambow2020_wb97xd3_008001_forward_mol1.chk"
 Charge =  0 Multiplicity = 1

                         Standard orientation:
 ---------------------------------------------------------------------
 Center     Atomic      Atomic             Coordinates (Angstroms)
 Number     Number       Type             X           Y           Z
 ---------------------------------------------------------------------
      1          6           0        2.140142   -1.143881   -0.061349
      2          6           0        1.325530    0.072080   -0.018932
      3          6           0        1.135734    1.320817    0.111070
      4          6           0       -0.320617    1.653395    0.053723
      5          6           0       -0.390912    0.197646   -0.337644
      6          6           0       -1.241099   -0.790336    0.537237
      7          7           0       -2.376356   -0.614141   -0.229658
      8          1           0        1.803975   -1.860603    0.689321
      9          1           0        3.177675   -0.883969    0.148673
     10          1           0        2.087374   -1.618990   -1.041877
     11          1           0       -0.619317    2.380576   -0.695855
     12          1           0       -0.753167    1.887724    1.022742
     13          1           0       -0.475431    0.045924   -1.412424
     14          1           0       -1.297137   -0.379369    1.550283
     15          1           0       -0.763157   -1.778398    0.570757
     16          1           0       -2.418991   -1.352243   -0.928646
 ---------------------------------------------------------------------

 SCF Done:  E(RHF) =  -286.738196877     A.U. after    2 cycles

 The electronic state is 1-A.
 Alpha  occ. eigenvalues --  -15.54602 -11.31562 -11.31307 -11.29288 -11.29075
 Alpha  occ. eigenvalues --  -11.28508 -11.27131  -1.20289  -1.11050  -1.04687
 Alpha  occ. eigenvalues --   -0.93471  -0.88097  -0.80966  -0.69977  -0.66830
 Alpha  occ. eigenvalues --   -0.64864  -0.62456  -0.60915  -0.59616  -0.57741
 Alpha  occ. eigenvalues --   -0.53698  -0.51062  -0.47669  -0.40906  -0.36769
 Alpha  occ. eigenvalues --   -0.25145
 Alpha virt. eigenvalues --    0.01551   0.03092   0.04045   0.04648   0.05255
 Alpha virt. eigenvalues --    0.06212   0.06696   0.06996   0.07757   0.08360
 Alpha virt. eigenvalues --    0.09856   0.11333   0.12509   0.12685   0.13618

 Mulliken charges:
               1
     1  C    0.573970
     2  C   -0.074174
     3  C   -0.652260
     4  C    0.625224
     5  C   -0.289462
     6  C    1.001798
     7  N   -0.637056
     8  H    0.061207
     9  H    0.063334
    10  H    0.084497
    11  H   -0.093693
    12  H   -0.019257
    13  H   -0.258998
    14  H   -0.159440
    15  H   -0.206876
    16  H   -0.018812
 Sum of Mulliken charges =   0.00000

 Dipole moment (field-independent basis, Debye):
    X=              4.8335    Y=             -0.7693    Z=             -0.1993  Tot=              4.8984

 Test job not archived.
 1\1\GINC-SE042\SP\RHF\Aug-CC-pVDZ\C6H9N1\OHZDE\09-Apr-2025\0\\#t hf au
 g-cc-pvdz iop(5/13=1,5/36=2,99/5=2) pseudo=read geom=check guess=(read
 ,tcheck) scf=(maxcycle=1)\\title\\0,1\C,0,1.49583942,0.97117489,1.6021
 7583\C,0,1.18377815,-0.09166473,0.644605\C,0,1.46429056,-1.07425941,-0
 .109111\C,0,0.26497674,-1.51988331,-0.88236313\C,0,-0.4004959,-0.53396
 286,0.04630334\C,0,-1.17820134,0.68638652,-0.56219301\N,0,-2.38287124,
 0.01067641,-0.57515197\H,0,1.21878607,1.9468847,1.2003827\H,0,2.568134
 2,0.96945437,1.79792427\H,0,0.96548879,0.82102635,2.54352223\H,0,-0.01

 Normal termination of Gaussian 16 at Wed Apr  9 16:14:24 2025.
