 Gaussian 16, Revision C.01,

 ----------------------------------------------------------------------
 #t hf aug-cc-pvdz symm=none int=(grid=ultrafine) guess=(read,tcheck) s
 table=(opt,rrhf)
 ----------------------------------------------------------------------
 -----
 title
 -----
 Symbolic Z-matrix:
 Charge =  0 Multiplicity = 1

 SCF Done:  E(RHF) =  -337.603707400     A.U. after   15 cycles
 Normal termination of Gaussian 16 at Wed Apr  9 17:10:13 2025.
 Gaussian 16:  ES64L-G16RevC.01  3-Jul-2019

 ----------------------------------------------------------------------
 #t hf aug-cc-pvdz iop(5/13=1,5/36=2,99/5=2) pseudo=read geom=check gue
 ss=(read,tcheck) scf=(maxcycle=1)
 ----------------------------------------------------------------------
 -----
 title
 -----
 Structure from the checkpoint file:  "Grambow2020_wb97xd3_009173_forward_mol2.chk"
 Charge =  0 Multiplicity = 1

                         Standard orientation:
 ---------------------------------------------------------------------
 Center     Atomic      Atomic             Coordinates (Angstroms)
 Number     Number       Type             X           Y           Z
 ---------------------------------------------------------------------
      1          8           0       -2.281293   -0.032469   -0.000847
      2          6           0       -1.073123   -0.023150    0.000146
      3          6           0       -0.289256    1.218044    0.000793
      4          6           0        1.048143    1.174169   -0.000043
      5          7           0        1.684306   -0.041133   -0.000752
      6          6           0        0.939631   -1.179884    0.000116
      7          7           0       -0.336593   -1.227903    0.000761
      8          1           0       -0.820677    2.158719    0.001274
      9          1           0        1.683441    2.050210   -0.000287
     10          1           0        2.686545   -0.097352   -0.000707
     11          1           0        1.514676   -2.103650    0.000369
 ---------------------------------------------------------------------

 SCF Done:  E(RHF) =  -337.705211329     A.U. after    2 cycles

 The electronic state is 1-A.
 Alpha  occ. eigenvalues --  -20.52783 -15.71279 -15.62819 -11.36594 -11.35522
 Alpha  occ. eigenvalues --  -11.33155 -11.25643  -1.34548  -1.30969  -1.18099
 Alpha  occ. eigenvalues --   -1.07750  -0.91148  -0.87972  -0.80209  -0.73853
 Alpha  occ. eigenvalues --   -0.69249  -0.65021  -0.62906  -0.61870  -0.59486
 Alpha  occ. eigenvalues --   -0.54010  -0.46607  -0.43754  -0.41141  -0.35685
 Alpha virt. eigenvalues --    0.01139   0.02875   0.04667   0.06338   0.06554
 Alpha virt. eigenvalues --    0.09088   0.09513   0.10739   0.11513   0.11626
 Alpha virt. eigenvalues --    0.12981   0.13135   0.13779   0.14087   0.14549

 Mulliken charges:
               1
     1  O   -0.489257
     2  C    0.362536
     3  C    0.603382
     4  C    0.721534
     5  N   -0.408897
     6  C    0.717682
     7  N   -0.488558
     8  H   -0.380114
     9  H   -0.335932
    10  H   -0.045600
    11  H   -0.256775
 Sum of Mulliken charges =  -0.00000

 Dipole moment (field-independent basis, Debye):
    X=              8.4821    Y=              1.8096    Z=              0.0010  Tot=              8.6729

 Test job not archived.
 1\1\GINC-SE045\SP\RHF\Aug-CC-pVDZ\C4H4N2O1\OHZDE\09-Apr-2025\0\\#t hf
 aug-cc-pvdz iop(5/13=1,5/36=2,99/5=2) pseudo=read geom=check guess=(re
 ad,tcheck) scf=(maxcycle=1)\\title\\0,1\O,0,2.38392651,-1.31059661,-0.
 07076784\C,0,1.28860142,-0.80157282,-0.04042702\C,0,1.09001718,0.65264
 95,-0.01192916\C,0,-0.14489286,1.16677413,0.02320504\N,0,-1.22748767,0
 .32440823,0.03170349\C,0,-1.02211983,-1.02032946,0.00343561\N,0,0.1190
 4146,-1.59273522,-0.03057936\H,0,1.96346945,1.2884982,-0.01944931\H,0,
 -0.35967869,2.22714753,0.04614258\H,0,-2.16261174,0.6884626,0.0571943\

 Normal termination of Gaussian 16 at Wed Apr  9 17:10:20 2025.
