 Gaussian 16, Revision C.01,

 ----------------------------------------------------------------------
 #t hf aug-cc-pvdz symm=none int=(grid=ultrafine) guess=(read,tcheck) s
 table=(opt,rrhf)
 ----------------------------------------------------------------------
 -----
 title
 -----
 Symbolic Z-matrix:
 Charge =  0 Multiplicity = 1

 SCF Done:  E(RHF) =  -338.587807673     A.U. after   15 cycles
 Normal termination of Gaussian 16 at Wed Apr  9 03:39:25 2025.
 Gaussian 16:  ES64L-G16RevC.01  3-Jul-2019

 ----------------------------------------------------------------------
 #t hf aug-cc-pvdz iop(5/13=1,5/36=2,99/5=2) pseudo=read geom=check gue
 ss=(read,tcheck) scf=(maxcycle=1)
 ----------------------------------------------------------------------
 -----
 title
 -----
 Structure from the checkpoint file:  "Grambow2020_wb97xd3_007489_forward_mol1.chk"
 Charge =  0 Multiplicity = 1

                         Standard orientation:
 ---------------------------------------------------------------------
 Center     Atomic      Atomic             Coordinates (Angstroms)
 Number     Number       Type             X           Y           Z
 ---------------------------------------------------------------------
      1          6           0        2.482867    0.323724    0.007593
      2          8           0        1.455207   -0.658818    0.017255
      3          6           0        0.215729   -0.153808   -0.004460
      4          6           0       -0.264215    1.134743   -0.086634
      5          7           0       -1.715868    0.926084   -0.074651
      6          6           0       -1.972459   -0.366208    0.032224
      7          7           0       -0.817442   -1.048547   -0.000344
      8          1           0        2.394954    0.957262   -0.877125
      9          1           0        3.422765   -0.223686   -0.003349
     10          1           0        2.420387    0.953782    0.897100
     11          1           0       -1.255663    1.690264    0.665814
     12          1           0       -2.943919   -0.832070    0.079640
     13          1           0       -0.718536   -2.048466   -0.067490
 ---------------------------------------------------------------------

 SCF Done:  E(RHF) =  -338.691536532     A.U. after    2 cycles

 The electronic state is 1-A.
 Alpha  occ. eigenvalues --  -20.60732 -15.71708 -15.64879 -11.33534 -11.33067
 Alpha  occ. eigenvalues --  -11.28866 -11.21605  -1.39528  -1.32652  -1.16878
 Alpha  occ. eigenvalues --   -1.01572  -0.94207  -0.86995  -0.79750  -0.77121
 Alpha  occ. eigenvalues --   -0.69502  -0.67459  -0.67149  -0.61962  -0.59568
 Alpha  occ. eigenvalues --   -0.53754  -0.50667  -0.46729  -0.44189  -0.35043
 Alpha  occ. eigenvalues --   -0.30098
 Alpha virt. eigenvalues --    0.02305   0.03768   0.04632   0.05699   0.06740
 Alpha virt. eigenvalues --    0.07471   0.08582   0.09855   0.10972   0.12163
 Alpha virt. eigenvalues --    0.12971   0.13166   0.13800   0.15144   0.15610

 Mulliken charges:
               1
     1  C    0.778824
     2  O   -0.670906
     3  C    0.666381
     4  C   -0.186960
     5  N   -0.672507
     6  C    0.872053
     7  N   -0.418048
     8  H   -0.041895
     9  H   -0.275380
    10  H   -0.051807
    11  H    0.312891
    12  H   -0.215455
    13  H   -0.097191
 Sum of Mulliken charges =  -0.00000

 Dipole moment (field-independent basis, Debye):
    X=             -0.6873    Y=             -3.9380    Z=              1.0460  Tot=              4.1321

 Test job not archived.
 1\1\GINC-SE338\SP\RHF\Aug-CC-pVDZ\C4H6N2O1\OHZDE\09-Apr-2025\0\\#t hf
 aug-cc-pvdz iop(5/13=1,5/36=2,99/5=2) pseudo=read geom=check guess=(re
 ad,tcheck) scf=(maxcycle=1)\\title\\0,1\C,0,-2.28437817,-0.04936413,-0
 .06668621\O,0,-1.14604363,-0.74365392,0.42699746\C,0,0.02024367,-0.147
 76404,0.15040877\C,0,0.335481,1.03759585,-0.47649742\N,0,1.80038085,1.
 0454713,-0.40588525\C,0,2.21697927,-0.06022997,0.1866929\N,0,1.1531061
 3,-0.76485138,0.6018983\H,0,-2.3199018,0.96212375,0.34252641\H,0,-3.15
 025282,-0.62443544,0.25384413\H,0,-2.25275908,0.01455852,-1.15618766\H

 Normal termination of Gaussian 16 at Wed Apr  9 03:39:29 2025.
