 Gaussian 16, Revision C.01,

 ----------------------------------------------------------------------
 #t hf aug-cc-pvdz symm=none int=(grid=ultrafine) guess=(read,tcheck) s
 table=(opt,rrhf)
 ----------------------------------------------------------------------
 -----
 title
 -----
 Symbolic Z-matrix:
 Charge =  0 Multiplicity = 1

 SCF Done:  E(RHF) =  -269.571013436     A.U. after   15 cycles
 Normal termination of Gaussian 16 at Wed Apr  9 16:45:11 2025.
 Gaussian 16:  ES64L-G16RevC.01  3-Jul-2019

 ----------------------------------------------------------------------
 #t hf aug-cc-pvdz iop(5/13=1,5/36=2,99/5=2) pseudo=read geom=check gue
 ss=(read,tcheck) scf=(maxcycle=1)
 ----------------------------------------------------------------------
 -----
 title
 -----
 Structure from the checkpoint file:  "Grambow2020_wb97xd3_008706_reverse_mol2.chk"
 Charge =  0 Multiplicity = 1

                         Standard orientation:
 ---------------------------------------------------------------------
 Center     Atomic      Atomic             Coordinates (Angstroms)
 Number     Number       Type             X           Y           Z
 ---------------------------------------------------------------------
      1          6           0       -0.571663   -1.093283    1.263237
      2          6           0       -0.228936   -0.287446   -0.000251
      3          6           0       -0.571193   -1.100158   -1.259322
      4          6           0       -0.744844    2.255057   -0.001411
      5          6           0       -1.032229    0.996312   -0.002872
      6          6           0        1.207819    0.030972   -0.000725
      7          6           0        2.381975    0.260665   -0.000230
      8          1           0       -0.342531   -0.519518    2.160449
      9          1           0        0.006011   -2.018214    1.282398
     10          1           0       -1.633799   -1.346412    1.270513
     11          1           0       -1.633867   -1.351008   -1.267435
     12          1           0       -0.338053   -0.533552   -2.160053
     13          1           0        0.004447   -2.026533   -1.269562
     14          1           0       -2.131100    0.941693   -0.006714
     15          1           0        3.423324    0.480832   -0.000158
 ---------------------------------------------------------------------

 SCF Done:  E(RHF) =  -269.652957307     A.U. after    2 cycles

 The electronic state is 1-A.
 Alpha  occ. eigenvalues --  -11.30818 -11.29579 -11.25266 -11.24905 -11.24808
 Alpha  occ. eigenvalues --  -11.24800 -11.24381  -1.14353  -1.03719  -1.01263
 Alpha  occ. eigenvalues --   -0.95457  -0.85772  -0.75744  -0.70573  -0.64440
 Alpha  occ. eigenvalues --   -0.61790  -0.60577  -0.56622  -0.54205  -0.54043
 Alpha  occ. eigenvalues --   -0.51956  -0.44954  -0.40672  -0.40294  -0.39493
 Alpha virt. eigenvalues --    0.03141   0.03691   0.04664   0.04785   0.06072
 Alpha virt. eigenvalues --    0.06187   0.07181   0.07192   0.07461   0.09002
 Alpha virt. eigenvalues --    0.11195   0.11505   0.12381   0.13009   0.13225

 Mulliken charges:
               1
     1  C    0.944143
     2  C   -2.482031
     3  C    0.944053
     4  C   -0.431325
     5  C    1.101147
     6  C    0.006282
     7  C    0.914979
     8  H   -0.005886
     9  H   -0.012772
    10  H   -0.033994
    11  H   -0.034806
    12  H   -0.006021
    13  H   -0.010339
    14  H   -0.364597
    15  H   -0.528833
 Sum of Mulliken charges =  -0.00000

 Dipole moment (field-independent basis, Debye):
    X=             -0.6435    Y=             -3.0308    Z=              0.0001  Tot=              3.0983

 Test job not archived.
 1\1\GINC-SE400\SP\RHF\Aug-CC-pVDZ\C7H8\OHZDE\09-Apr-2025\0\\#t hf aug-
 cc-pvdz iop(5/13=1,5/36=2,99/5=2) pseudo=read geom=check guess=(read,t
 check) scf=(maxcycle=1)\\title\\0,1\C,0,-0.57833492,-0.91343886,-1.087
 31039\C,0,0.05797696,-0.07865053,0.03584192\C,0,-0.94647545,0.12659577
 ,1.18120268\C,0,2.53690435,-0.54254345,0.64428495\C,0,1.27548452,-0.80
 659796,0.56601873\C,0,0.46203586,1.23131669,-0.4993009\C,0,0.7622185,2
 .30142578,-0.94219805\H,0,0.13120872,-1.07315703,-1.89831866\H,0,-1.45
 312776,-0.39707255,-1.4843939\H,0,-0.89356554,-1.88473962,-0.70070327\

 Normal termination of Gaussian 16 at Wed Apr  9 16:45:16 2025.
