 Gaussian 16, Revision C.01,

 ----------------------------------------------------------------------
 #t hf aug-cc-pvdz symm=none int=(grid=ultrafine) guess=(read,tcheck) s
 table=(opt,rrhf)
 ----------------------------------------------------------------------
 -----
 title
 -----
 Symbolic Z-matrix:
 Charge =  0 Multiplicity = 1

 SCF Done:  E(RHF) =  -322.484473662     A.U. after   15 cycles
 Normal termination of Gaussian 16 at Wed Apr  9 14:56:05 2025.
 Gaussian 16:  ES64L-G16RevC.01  3-Jul-2019

 ----------------------------------------------------------------------
 #t hf aug-cc-pvdz iop(5/13=1,5/36=2,99/5=2) pseudo=read geom=check gue
 ss=(read,tcheck) scf=(maxcycle=1)
 ----------------------------------------------------------------------
 -----
 title
 -----
 Structure from the checkpoint file:  "Grambow2020_wb97xd3_006650_reverse_mol2.chk"
 Charge =  0 Multiplicity = 1

                         Standard orientation:
 ---------------------------------------------------------------------
 Center     Atomic      Atomic             Coordinates (Angstroms)
 Number     Number       Type             X           Y           Z
 ---------------------------------------------------------------------
      1          6           0        1.724304    0.809773    0.077397
      2          7           0        1.626713   -0.675942   -0.057471
      3          6           0        0.411860    0.185150    0.060209
      4          6           0       -0.842704   -0.097208    0.836619
      5          6           0       -1.524697    0.937639   -0.046826
      6          6           0       -0.654949    0.053268   -1.046064
      7          8           0       -1.147633   -1.147590   -0.077050
      8          1           0        2.190118    1.124557    1.003591
      9          1           0        2.079193    1.300244   -0.822652
     10          1           0        1.913815   -1.261656    0.711475
     11          1           0       -0.940331   -0.293075    1.915850
     12          1           0       -1.246131    1.990295    0.063306
     13          1           0       -2.598300    0.799545   -0.156325
     14          1           0        1.712828   -1.079326   -0.984554
 ---------------------------------------------------------------------

 SCF Done:  E(RHF) =  -322.579012083     A.U. after    2 cycles

 The electronic state is 1-A.
 Alpha  occ. eigenvalues --  -20.51660 -15.75016 -11.33759 -11.29940 -11.29215
 Alpha  occ. eigenvalues --  -11.22451 -11.21042  -1.34370  -1.29443  -1.04090
 Alpha  occ. eigenvalues --   -0.98694  -0.87583  -0.84976  -0.78859  -0.77637
 Alpha  occ. eigenvalues --   -0.65133  -0.63555  -0.59005  -0.58275  -0.57752
 Alpha  occ. eigenvalues --   -0.51671  -0.49288  -0.44176  -0.43620  -0.38828
 Alpha  occ. eigenvalues --   -0.27535
 Alpha virt. eigenvalues --    0.01174   0.02919   0.03331   0.04950   0.06322
 Alpha virt. eigenvalues --    0.06759   0.07348   0.09373   0.09754   0.11450
 Alpha virt. eigenvalues --    0.11584   0.12515   0.14004   0.14126   0.14618

 Mulliken charges:
               1
     1  C    1.103874
     2  N   -0.244817
     3  C    0.172794
     4  C    0.621264
     5  C    0.642837
     6  C   -0.388186
     7  O   -0.839172
     8  H   -0.239933
     9  H   -0.228893
    10  H    0.015368
    11  H   -0.259767
    12  H   -0.207565
    13  H   -0.243694
    14  H    0.095891
 Sum of Mulliken charges =   0.00000

 Dipole moment (field-independent basis, Debye):
    X=              7.5089    Y=              1.4563    Z=              3.8448  Tot=              8.5608

 Test job not archived.
 1\1\GINC-SE114\SP\RHF\Aug-CC-pVDZ\C5H7N1O1\OHZDE\09-Apr-2025\0\\#t hf
 aug-cc-pvdz iop(5/13=1,5/36=2,99/5=2) pseudo=read geom=check guess=(re
 ad,tcheck) scf=(maxcycle=1)\\title\\0,1\C,0,-1.38328224,-0.81303342,-0
 .44349769\N,0,-1.54476481,0.66333631,-0.27227327\C,0,-0.22456952,-0.01
 06453,-0.08780465\C,0,0.81668876,0.27838278,0.95560905\C,0,1.81061535,
 -0.42237742,0.04043528\C,0,0.95982158,0.51988663,-0.92151127\O,0,1.060
 43204,1.53772384,0.3345423\H,0,-1.92234751,-1.39019779,0.29825501\H,0,
 -1.49379656,-1.14069819,-1.47161228\H,0,-2.05385714,1.01554007,0.52368

 Normal termination of Gaussian 16 at Wed Apr  9 14:56:09 2025.
