 Gaussian 16, Revision C.01,

 ----------------------------------------------------------------------
 #t hf aug-cc-pvdz symm=none int=(grid=ultrafine) guess=(read,tcheck) s
 table=(opt,rrhf)
 ----------------------------------------------------------------------
 -----
 title
 -----
 Symbolic Z-matrix:
 Charge =  0 Multiplicity = 1

 SCF Done:  E(RHF) =  -360.783063897     A.U. after   15 cycles
 Normal termination of Gaussian 16 at Wed Apr  9 14:48:57 2025.
 Gaussian 16:  ES64L-G16RevC.01  3-Jul-2019

 ----------------------------------------------------------------------
 #t hf aug-cc-pvdz iop(5/13=1,5/36=2,99/5=2) pseudo=read geom=check gue
 ss=(read,tcheck) scf=(maxcycle=1)
 ----------------------------------------------------------------------
 -----
 title
 -----
 Structure from the checkpoint file:  "Grambow2020_wb97xd3_006617_forward_mol1.chk"
 Charge =  0 Multiplicity = 1

                         Standard orientation:
 ---------------------------------------------------------------------
 Center     Atomic      Atomic             Coordinates (Angstroms)
 Number     Number       Type             X           Y           Z
 ---------------------------------------------------------------------
      1          6           0       -2.554111   -0.139157   -0.256991
      2          6           0       -1.059314    0.119125   -0.275871
      3          8           0       -0.835546    1.281467    0.496168
      4          6           0       -0.310587   -1.093614    0.282114
      5          7           0        1.139409   -1.114251    0.086832
      6          6           0        1.877814   -0.073254   -0.095152
      7          8           0        2.005407    1.094019   -0.216837
      8          1           0       -2.815169   -0.999315   -0.875429
      9          1           0       -3.083106    0.735423   -0.634143
     10          1           0       -2.891704   -0.324489    0.764956
     11          1           0       -0.735004    0.285608   -1.312780
     12          1           0        0.052213    1.610013    0.325181
     13          1           0       -0.521852   -1.164095    1.353253
     14          1           0       -0.689793   -2.000949   -0.191611
     15          1           0        2.480928   -1.453633   -0.017444
     16          1           0        3.145934   -0.771289   -0.179053
 ---------------------------------------------------------------------

 SCF Done:  E(RHF) =  -360.897613288     A.U. after    2 cycles

 The electronic state is 1-A.
 Alpha  occ. eigenvalues --  -20.61510 -20.56488 -15.65382 -11.44778 -11.29840
 Alpha  occ. eigenvalues --  -11.28250 -11.22919  -1.42830  -1.32519  -1.23965
 Alpha  occ. eigenvalues --   -1.05270  -0.96784  -0.83394  -0.78011  -0.74794
 Alpha  occ. eigenvalues --   -0.72676  -0.69880  -0.65747  -0.61986  -0.59678
 Alpha  occ. eigenvalues --   -0.56777  -0.54797  -0.54732  -0.53217  -0.49643
 Alpha  occ. eigenvalues --   -0.46344  -0.42618  -0.41293
 Alpha virt. eigenvalues --    0.03094   0.04021   0.04519   0.04926   0.06274
 Alpha virt. eigenvalues --    0.06806   0.07400   0.07777   0.08938   0.11239
 Alpha virt. eigenvalues --    0.11454   0.11935   0.12783   0.14059   0.14366

 Mulliken charges:
               1
     1  C    0.487471
     2  C    0.040648
     3  O   -0.562291
     4  C    0.756171
     5  N   -0.404369
     6  C    0.003013
     7  O   -0.321580
     8  H    0.007255
     9  H   -0.048456
    10  H    0.038194
    11  H   -0.256078
    12  H    0.165180
    13  H   -0.092230
    14  H   -0.164663
    15  H    0.369743
    16  H   -0.018009
 Sum of Mulliken charges =  -0.00000

 Dipole moment (field-independent basis, Debye):
    X=              0.1653    Y=             -3.1196    Z=             -0.7612  Tot=              3.2154

 Test job not archived.
 1\1\GINC-SE100\SP\RHF\Aug-CC-pVDZ\C4H9N1O2\OHZDE\09-Apr-2025\0\\#t hf
 aug-cc-pvdz iop(5/13=1,5/36=2,99/5=2) pseudo=read geom=check guess=(re
 ad,tcheck) scf=(maxcycle=1)\\title\\0,1\C,0,-2.0682488,-0.85462726,-0.
 3550192\C,0,-0.70694293,-0.19604598,-0.47586385\O,0,-0.93362285,1.1414
 1146,-0.87206862\C,0,0.03702008,-0.28109892,0.85903645\N,0,1.4583721,0
 .06592039,0.83940578\C,0,2.02391576,0.82593019,-0.03499715\O,0,1.97687
 007,1.49590172,-1.00584089\H,0,-1.97568549,-1.91082121,-0.09738899\H,0
 ,-2.6021424,-0.77151523,-1.30107334\H,0,-2.6616997,-0.35510895,0.41373

 Normal termination of Gaussian 16 at Wed Apr  9 14:49:03 2025.
