 Gaussian 16, Revision C.01,

 ----------------------------------------------------------------------
 #t hf aug-cc-pvdz symm=none int=(grid=ultrafine) guess=(read,tcheck) s
 table=(opt,rrhf)
 ----------------------------------------------------------------------
 -----
 title
 -----
 Symbolic Z-matrix:
 Charge =  0 Multiplicity = 1

 SCF Done:  E(RHF) =  -321.484993032     A.U. after   15 cycles
 Normal termination of Gaussian 16 at Wed Apr  9 03:39:14 2025.
 Gaussian 16:  ES64L-G16RevC.01  3-Jul-2019

 ----------------------------------------------------------------------
 #t hf aug-cc-pvdz iop(5/13=1,5/36=2,99/5=2) pseudo=read geom=check gue
 ss=(read,tcheck) scf=(maxcycle=1)
 ----------------------------------------------------------------------
 -----
 title
 -----
 Structure from the checkpoint file:  "Grambow2020_wb97xd3_007496_forward_mol2.chk"
 Charge =  0 Multiplicity = 1

                         Standard orientation:
 ---------------------------------------------------------------------
 Center     Atomic      Atomic             Coordinates (Angstroms)
 Number     Number       Type             X           Y           Z
 ---------------------------------------------------------------------
      1          8           0        0.167472    1.574162    0.154321
      2          6           0        0.396845    0.403106   -0.034563
      3          6           0        1.752287   -0.126983   -0.005676
      4          6           0        2.856962   -0.588979    0.015171
      5          6           0       -0.682558   -0.590117   -0.298955
      6          6           0       -1.800338   -0.608240    0.687873
      7          7           0       -1.995845   -0.072351   -0.638969
      8          1           0        3.846253   -0.983992    0.036879
      9          1           0       -0.381347   -1.509007   -0.787083
     10          1           0       -1.728680    0.081654    1.521561
     11          1           0       -2.292224   -1.551279    0.892245
     12          1           0       -1.952053    0.943062   -0.608482
 ---------------------------------------------------------------------

 SCF Done:  E(RHF) =  -321.582460518     A.U. after    2 cycles

 The electronic state is 1-A.
 Alpha  occ. eigenvalues --  -20.58915 -15.64170 -11.38485 -11.29238 -11.28992
 Alpha  occ. eigenvalues --  -11.28378 -11.27283  -1.38725  -1.26478  -1.07186
 Alpha  occ. eigenvalues --   -0.96863  -0.89002  -0.83658  -0.76660  -0.73549
 Alpha  occ. eigenvalues --   -0.69693  -0.65866  -0.59808  -0.58442  -0.51818
 Alpha  occ. eigenvalues --   -0.49695  -0.47239  -0.43591  -0.43479  -0.40620
 Alpha virt. eigenvalues --    0.02882   0.03846   0.04724   0.05463   0.05910
 Alpha virt. eigenvalues --    0.06553   0.08644   0.09985   0.10833   0.11260
 Alpha virt. eigenvalues --    0.12052   0.12686   0.13035   0.13936   0.15551

 Mulliken charges:
               1
     1  O   -0.559074
     2  C   -0.324878
     3  C   -0.030192
     4  C    0.888816
     5  C    1.101216
     6  C    0.802320
     7  N   -0.693371
     8  H   -0.448091
     9  H   -0.327691
    10  H   -0.216478
    11  H   -0.256858
    12  H    0.064281
 Sum of Mulliken charges =  -0.00000

 Dipole moment (field-independent basis, Debye):
    X=              1.4875    Y=             -2.6938    Z=              0.8381  Tot=              3.1893

 Test job not archived.
 1\1\GINC-SE072\SP\RHF\Aug-CC-pVDZ\C5H5N1O1\OHZDE\09-Apr-2025\0\\#t hf
 aug-cc-pvdz iop(5/13=1,5/36=2,99/5=2) pseudo=read geom=check guess=(re
 ad,tcheck) scf=(maxcycle=1)\\title\\0,1\O,0,0.24945617,0.0628296,1.838
 62\C,0,0.53751645,0.12564504,0.66698201\C,0,1.89316788,-0.1193519,0.19
 662403\C,0,2.99929014,-0.31877691,-0.21678458\C,0,-0.46688784,0.445135
 88,-0.3868701\C,0,-1.70317858,-0.38856129,-0.37571821\N,0,-1.73964535,
 0.99127679,0.04928682\H,0,3.98890163,-0.49886408,-0.56812436\H,0,-0.07
 621545,0.8148896,-1.32708963\H,0,-1.76257696,-1.16614452,0.3779134\H,0

 Normal termination of Gaussian 16 at Wed Apr  9 03:39:18 2025.
