 Gaussian 16, Revision C.01,

 ----------------------------------------------------------------------
 #t hf aug-cc-pvdz symm=none int=(grid=ultrafine) guess=(read,tcheck) s
 table=(opt,rrhf)
 ----------------------------------------------------------------------
 -----
 title
 -----
 Symbolic Z-matrix:
 Charge =  0 Multiplicity = 1

 SCF Done:  E(RHF) =  -307.696511566     A.U. after   16 cycles

 1\1\GINC-SE220\Stability\RHF\Aug-CC-pVDZ\C6H10O1\OHZDE\09-Apr-2025\0\\
 #t hf aug-cc-pvdz symm=none int=(grid=ultrafine) guess=(read,tcheck) s
 table=(opt,rrhf)\\title\\0,1\C,0,2.31278694,0.55417325,0.33747409\C,0,
 0.40075873,-0.29396815,-0.26210643\C,0,-0.05640869,-1.22083545,0.53924
 823\C,0,-1.5481711,-1.03094929,0.47266773\C,0,-1.71371507,0.03267953,-
 0.63977347\C,0,-0.37938442,0.91744402,-0.77684842\O,0,-0.22365638,1.91
 727084,0.02673428\H,0,2.66215454,0.4993074,1.36774147\H,0,3.0031715,1.
 09371991,-0.31011442\H,0,2.31861999,-0.47877016,-0.04614536\H,0,0.4929

 Normal termination of Gaussian 16 at Wed Apr  9 16:04:52 2025.
 Gaussian 16:  ES64L-G16RevC.01  3-Jul-2019

 ----------------------------------------------------------------------
 #t hf aug-cc-pvdz iop(5/13=1,5/36=2,99/5=2) pseudo=read geom=check gue
 ss=(read,tcheck) scf=(maxcycle=1)
 ----------------------------------------------------------------------
 -----
 title
 -----
 Structure from the checkpoint file:  "Grambow2020_wb97xd3_007733_forward_mol1.chk"
 Charge =  0 Multiplicity = 1

                         Standard orientation:
 ---------------------------------------------------------------------
 Center     Atomic      Atomic             Coordinates (Angstroms)
 Number     Number       Type             X           Y           Z
 ---------------------------------------------------------------------
      1          6           0       -2.438809   -0.507802    0.014306
      2          6           0       -0.311922   -0.455230    0.470686
      3          6           0        0.378275   -1.437671   -0.047669
      4          6           0        1.710850   -0.804571   -0.346452
      5          6           0        1.578075    0.600785    0.288830
      6          6           0        0.033299    1.032849    0.383823
      7          8           0       -0.520785    1.554770   -0.660322
      8          1           0       -2.823201   -1.053094   -0.846751
      9          1           0       -3.223423    0.007792    0.567167
     10          1           0       -2.055557   -1.267076    0.714871
     11          1           0        0.052736   -2.434685   -0.298394
     12          1           0        1.818917   -0.746732   -1.432303
     13          1           0        2.564882   -1.357756    0.047431
     14          1           0        1.974047    0.585670    1.304631
     15          1           0        2.076475    1.378094   -0.285858
     16          1           0       -0.110312    1.542553    1.354748
     17          1           0       -1.806890    0.336919   -0.424105
 ---------------------------------------------------------------------

 SCF Done:  E(RHF) =  -307.790808182     A.U. after    2 cycles

 The electronic state is 1-A.
 Alpha  occ. eigenvalues --  -20.45523 -11.34916 -11.30105 -11.29356 -11.27414
 Alpha  occ. eigenvalues --  -11.24921 -11.24252  -1.25190  -1.15375  -1.00172
 Alpha  occ. eigenvalues --   -0.96159  -0.93453  -0.79928  -0.74615  -0.66245
 Alpha  occ. eigenvalues --   -0.65812  -0.63494  -0.59412  -0.57815  -0.56586
 Alpha  occ. eigenvalues --   -0.54101  -0.52656  -0.51664  -0.48499  -0.41996
 Alpha  occ. eigenvalues --   -0.36946  -0.35372
 Alpha virt. eigenvalues --    0.02442   0.03363   0.04194   0.05110   0.05344
 Alpha virt. eigenvalues --    0.05912   0.06235   0.07051   0.07394   0.08480
 Alpha virt. eigenvalues --    0.09670   0.10589   0.11799   0.12813   0.13342

 Mulliken charges:
               1
     1  C    0.669201
     2  C   -0.691112
     3  C    0.474523
     4  C    0.130066
     5  C    0.324372
     6  C    0.694454
     7  O   -0.979239
     8  H   -0.052939
     9  H   -0.061293
    10  H    0.020787
    11  H   -0.308160
    12  H    0.033933
    13  H   -0.009790
    14  H   -0.080596
    15  H   -0.082557
    16  H   -0.082236
    17  H    0.000587
 Sum of Mulliken charges =  -0.00000

 Dipole moment (field-independent basis, Debye):
    X=              1.3817    Y=             -5.3930    Z=              2.0194  Tot=              5.9221

 Test job not archived.
 1\1\GINC-SE220\SP\RHF\Aug-CC-pVDZ\C6H10O1\OHZDE\09-Apr-2025\0\\#t hf a
 ug-cc-pvdz iop(5/13=1,5/36=2,99/5=2) pseudo=read geom=check guess=(rea
 d,tcheck) scf=(maxcycle=1)\\title\\0,1\C,0,2.31278694,0.55417325,0.337
 47409\C,0,0.40075873,-0.29396815,-0.26210643\C,0,-0.05640869,-1.220835
 45,0.53924823\C,0,-1.5481711,-1.03094929,0.47266773\C,0,-1.71371507,0.
 03267953,-0.63977347\C,0,-0.37938442,0.91744402,-0.77684842\O,0,-0.223
 65638,1.91727084,0.02673428\H,0,2.66215454,0.4993074,1.36774147\H,0,3.
 0031715,1.09371991,-0.31011442\H,0,2.31861999,-0.47877016,-0.04614536\

 Normal termination of Gaussian 16 at Wed Apr  9 16:04:58 2025.
