 Gaussian 16, Revision C.01,

 ----------------------------------------------------------------------
 #t hf aug-cc-pvdz symm=none int=(grid=ultrafine) guess=(read,tcheck) s
 table=(opt,rrhf)
 ----------------------------------------------------------------------
 -----
 title
 -----
 Symbolic Z-matrix:
 Charge =  0 Multiplicity = 1

 SCF Done:  E(RHF) =  -224.644436229     A.U. after   16 cycles
 Normal termination of Gaussian 16 at Wed Apr  9 14:15:58 2025.
 Gaussian 16:  ES64L-G16RevC.01  3-Jul-2019

 ----------------------------------------------------------------------
 #t hf aug-cc-pvdz iop(5/13=1,5/36=2,99/5=2) pseudo=read geom=check gue
 ss=(read,tcheck) scf=(maxcycle=1)
 ----------------------------------------------------------------------
 -----
 title
 -----
 Structure from the checkpoint file:  "Grambow2020_b97d3_006893_forward_mol1.chk"
 Charge =  0 Multiplicity = 1

                         Standard orientation:
 ---------------------------------------------------------------------
 Center     Atomic      Atomic             Coordinates (Angstroms)
 Number     Number       Type             X           Y           Z
 ---------------------------------------------------------------------
      1          7           0        0.838646   -0.670302   -0.026261
      2          6           0        0.927987    0.715956    0.000603
      3          6           0       -0.325543    1.335152    0.012698
      4          6           0       -1.148622    0.178548   -0.032952
      5          7           0       -0.413443   -1.125402   -0.077365
      6          1           0        1.575792   -1.362617    0.108308
      7          1           0        1.934145    1.136419    0.001088
      8          1           0       -0.992215   -0.661865    0.962498
      9          1           0       -2.217071    0.080059   -0.228608
 ---------------------------------------------------------------------

 SCF Done:  E(RHF) =  -224.705806676     A.U. after    2 cycles

 The electronic state is 1-A.
 Alpha  occ. eigenvalues --  -15.74701 -15.73749 -11.31921 -11.30429 -11.19678
 Alpha  occ. eigenvalues --   -1.37403  -1.10496  -1.05324  -0.83799  -0.81414
 Alpha  occ. eigenvalues --   -0.73967  -0.68637  -0.61683  -0.55191  -0.52123
 Alpha  occ. eigenvalues --   -0.45075  -0.35300  -0.33396
 Alpha virt. eigenvalues --    0.02268   0.03745   0.04881   0.05413   0.08183
 Alpha virt. eigenvalues --    0.09708   0.10055   0.11741   0.12556   0.14625
 Alpha virt. eigenvalues --    0.15078   0.15432   0.16532   0.17080   0.17536

 Mulliken charges:
               1
     1  N   -0.140030
     2  C    0.703201
     3  C   -0.331796
     4  C    0.516544
     5  N   -0.711017
     6  H    0.019511
     7  H   -0.263131
     8  H    0.423357
     9  H   -0.216640
 Sum of Mulliken charges =  -0.00000

 Dipole moment (field-independent basis, Debye):
    X=              2.0657    Y=             -4.1051    Z=              0.7691  Tot=              4.6595

 Test job not archived.
 1\1\GINC-SE049\SP\RHF\Aug-CC-pVDZ\C3H4N2\OHZDE\09-Apr-2025\0\\#t hf au
 g-cc-pvdz iop(5/13=1,5/36=2,99/5=2) pseudo=read geom=check guess=(read
 ,tcheck) scf=(maxcycle=1)\\title\\0,1\N,0,-0.92283088,-0.50782477,-0.0
 9595508\C,0,-0.77156568,0.83881733,0.21078501\C,0,0.56546072,1.1990057
 4,0.40446421\C,0,1.17188768,-0.0695757,0.203908\N,0,0.22390864,-1.1878
 294,-0.10201864\H,0,-1.75273543,-1.00032209,-0.42685825\H,0,-1.6872618
 ,1.42817266,0.2682812\H,0,0.96176656,-0.61308768,-0.97172933\H,0,2.186
 6502,-0.40815509,0.41647788\\Version=ES64L-G16RevC.01\State=1-A\HF=-22

 Normal termination of Gaussian 16 at Wed Apr  9 14:16:00 2025.
