 Gaussian 16, Revision C.01,

 ----------------------------------------------------------------------
 #t hf aug-cc-pvdz symm=none int=(grid=ultrafine) guess=(read,tcheck) s
 table=(opt,rrhf)
 ----------------------------------------------------------------------
 -----
 title
 -----
 Symbolic Z-matrix:
 Charge =  0 Multiplicity = 1

 SCF Done:  E(RHF) =  -337.467272591     A.U. after   16 cycles
 Normal termination of Gaussian 16 at Wed Apr  9 16:44:51 2025.
 Gaussian 16:  ES64L-G16RevC.01  3-Jul-2019

 ----------------------------------------------------------------------
 #t hf aug-cc-pvdz iop(5/13=1,5/36=2,99/5=2) pseudo=read geom=check gue
 ss=(read,tcheck) scf=(maxcycle=1)
 ----------------------------------------------------------------------
 -----
 title
 -----
 Structure from the checkpoint file:  "Grambow2020_wb97xd3_008700_forward_mol1.chk"
 Charge =  0 Multiplicity = 1

                         Standard orientation:
 ---------------------------------------------------------------------
 Center     Atomic      Atomic             Coordinates (Angstroms)
 Number     Number       Type             X           Y           Z
 ---------------------------------------------------------------------
      1          8           0       -2.496579   -0.388528   -0.026938
      2          6           0       -1.688311    0.503567    0.010504
      3          6           0       -0.243624    0.264122    0.029041
      4          6           0        0.801629    1.131374    0.018987
      5          7           0        1.968844    0.402942   -0.103472
      6          6           0        1.643927   -0.946734   -0.084274
      7          7           0        0.296982   -0.996941    0.031815
      8          1           0       -1.993402    1.564696    0.043213
      9          1           0        0.791512    2.209816    0.038079
     10          1           0        2.484002   -0.382702    0.718490
     11          1           0       -0.251989   -1.839557    0.071759
 ---------------------------------------------------------------------

 SCF Done:  E(RHF) =  -337.567000711     A.U. after    2 cycles

 The electronic state is 1-A.
 Alpha  occ. eigenvalues --  -20.60156 -15.69756 -15.67478 -11.37771 -11.31426
 Alpha  occ. eigenvalues --  -11.30359 -11.30260  -1.39336  -1.34385  -1.17530
 Alpha  occ. eigenvalues --   -1.06564  -0.92028  -0.83869  -0.82226  -0.75155
 Alpha  occ. eigenvalues --   -0.70257  -0.67649  -0.63890  -0.63229  -0.57573
 Alpha  occ. eigenvalues --   -0.50882  -0.47527  -0.45665  -0.40132  -0.36941
 Alpha virt. eigenvalues --    0.02793   0.04092   0.04374   0.04624   0.06207
 Alpha virt. eigenvalues --    0.07830   0.09299   0.10104   0.10843   0.12855
 Alpha virt. eigenvalues --    0.13102   0.13402   0.14121   0.14772   0.15293

 Mulliken charges:
               1
     1  O   -0.478769
     2  C    0.741224
     3  C    0.402020
     4  C    0.566087
     5  N   -0.716053
     6  C    0.013565
     7  N   -0.443796
     8  H   -0.126492
     9  H   -0.214976
    10  H    0.321281
    11  H   -0.064090
 Sum of Mulliken charges =  -0.00000

 Dipole moment (field-independent basis, Debye):
    X=             -0.3948    Y=              2.3898    Z=              1.2155  Tot=              2.7101

 Test job not archived.
 1\1\GINC-SE168\SP\RHF\Aug-CC-pVDZ\C4H4N2O1\OHZDE\09-Apr-2025\0\\#t hf
 aug-cc-pvdz iop(5/13=1,5/36=2,99/5=2) pseudo=read geom=check guess=(re
 ad,tcheck) scf=(maxcycle=1)\\title\\0,1\O,0,-2.30136038,-1.35314578,0.
 07157255\C,0,-1.82932724,-0.24686086,0.00952963\C,0,-0.38596945,-0.001
 81705,-0.02881311\C,0,0.31679042,1.15429492,-0.1484592\N,0,1.65465014,
 0.83724968,-0.28117104\C,0,1.79051158,-0.5388485,-0.1568338\N,0,0.5378
 6724,-1.01455126,0.02983567\H,0,-2.46430208,0.65672703,-0.01242437\H,0
 ,-0.04562562,2.1689416,-0.1999442\H,0,2.41994677,0.32876647,0.56382112

 Normal termination of Gaussian 16 at Wed Apr  9 16:44:55 2025.
