 Gaussian 16, Revision C.01,

 ----------------------------------------------------------------------
 #t hf aug-cc-pvdz symm=none int=(grid=ultrafine) guess=(read,tcheck) s
 table=(opt,rrhf)
 ----------------------------------------------------------------------
 -----
 title
 -----
 Symbolic Z-matrix:
 Charge =  0 Multiplicity = 1

 SCF Done:  E(RHF) =  -283.584268354     A.U. after   15 cycles
 Normal termination of Gaussian 16 at Wed Apr  9 14:24:08 2025.
 Gaussian 16:  ES64L-G16RevC.01  3-Jul-2019

 ----------------------------------------------------------------------
 #t hf aug-cc-pvdz iop(5/13=1,5/36=2,99/5=2) pseudo=read geom=check gue
 ss=(read,tcheck) scf=(maxcycle=1)
 ----------------------------------------------------------------------
 -----
 title
 -----
 Structure from the checkpoint file:  "Grambow2020_wb97xd3_006231_forward_mol1.chk"
 Charge =  0 Multiplicity = 1

                         Standard orientation:
 ---------------------------------------------------------------------
 Center     Atomic      Atomic             Coordinates (Angstroms)
 Number     Number       Type             X           Y           Z
 ---------------------------------------------------------------------
      1          8           0        2.048970   -0.024026   -0.180436
      2          6           0        0.863313    0.115550   -0.019616
      3          6           0       -0.093472    1.168551    0.144983
      4          6           0       -1.396513    0.683605   -0.116567
      5          6           0       -1.372850   -0.680917   -0.148676
      6          7           0       -0.084514   -1.060399    0.152717
      7          1           0        0.205852    2.202290    0.214969
      8          1           0        0.180882   -0.208368    1.214992
      9          1           0       -2.285158    1.291311   -0.181244
     10          1           0       -2.183456   -1.390273   -0.146658
     11          1           0        0.278849   -2.000688    0.111675
 ---------------------------------------------------------------------

 SCF Done:  E(RHF) =  -283.669608759     A.U. after    2 cycles

 The electronic state is 1-A.
 Alpha  occ. eigenvalues --  -20.53556 -15.72241 -11.38225 -11.28583 -11.25983
 Alpha  occ. eigenvalues --  -11.25848  -1.36143  -1.27574  -1.06937  -0.98842
 Alpha  occ. eigenvalues --   -0.82696  -0.79760  -0.72539  -0.68670  -0.63619
 Alpha  occ. eigenvalues --   -0.62654  -0.60004  -0.57798  -0.52250  -0.44505
 Alpha  occ. eigenvalues --   -0.39578  -0.31643
 Alpha virt. eigenvalues --    0.02548   0.03659   0.04342   0.05601   0.06223
 Alpha virt. eigenvalues --    0.09115   0.10881   0.11017   0.12599   0.13057
 Alpha virt. eigenvalues --    0.13343   0.13819   0.14234   0.14955   0.15551

 Mulliken charges:
               1
     1  O   -0.491632
     2  C    0.330828
     3  C    0.166938
     4  C    0.490798
     5  C    0.492715
     6  N   -0.616193
     7  H   -0.321262
     8  H    0.616250
     9  H   -0.307506
    10  H   -0.298169
    11  H   -0.062767
 Sum of Mulliken charges =  -0.00000

 Dipole moment (field-independent basis, Debye):
    X=             -4.1381    Y=             -1.5478    Z=              1.0308  Tot=              4.5368

 Test job not archived.
 1\1\GINC-SE114\SP\RHF\Aug-CC-pVDZ\C4H5N1O1\OHZDE\09-Apr-2025\0\\#t hf
 aug-cc-pvdz iop(5/13=1,5/36=2,99/5=2) pseudo=read geom=check guess=(re
 ad,tcheck) scf=(maxcycle=1)\\title\\0,1\O,0,-1.35911611,1.96617155,-0.
 32937923\C,0,-0.7791901,0.91862746,-0.19722804\C,0,-0.96095398,-0.4689
 5587,-0.50204881\C,0,0.28091045,-1.14406741,-0.44293864\C,0,1.20173731
 ,-0.34354365,0.1692298\N,0,0.5379697,0.79981467,0.5523739\H,0,-1.87395
 309,-0.8394111,-0.94057404\H,0,-0.62220095,0.24729797,1.07539248\H,0,0
 .44830905,-2.16618286,-0.74366846\H,0,2.18507996,-0.57530008,0.5428595

 Normal termination of Gaussian 16 at Wed Apr  9 14:24:12 2025.
