 Gaussian 16, Revision C.01,

 ----------------------------------------------------------------------
 #t hf aug-cc-pvdz symm=none int=(grid=ultrafine) guess=(read,tcheck) s
 table=(opt,rrhf)
 ----------------------------------------------------------------------
 -----
 title
 -----
 Symbolic Z-matrix:
 Charge =  0 Multiplicity = 1

 SCF Done:  E(RHF) =  -305.708850430     A.U. after   15 cycles
 Normal termination of Gaussian 16 at Wed Apr  9 03:21:04 2025.
 Gaussian 16:  ES64L-G16RevC.01  3-Jul-2019

 ----------------------------------------------------------------------
 #t hf aug-cc-pvdz iop(5/13=1,5/36=2,99/5=2) pseudo=read geom=check gue
 ss=(read,tcheck) scf=(maxcycle=1)
 ----------------------------------------------------------------------
 -----
 title
 -----
 Structure from the checkpoint file:  "Grambow2020_wb97xd3_006134_forward_mol1.chk"
 Charge =  0 Multiplicity = 1

                         Standard orientation:
 ---------------------------------------------------------------------
 Center     Atomic      Atomic             Coordinates (Angstroms)
 Number     Number       Type             X           Y           Z
 ---------------------------------------------------------------------
      1          8           0       -2.255208   -0.440330    0.117549
      2          6           0       -1.312386    0.522409   -0.319215
      3          6           0       -0.026520    0.283945    0.439913
      4          6           0        0.732379   -0.986016    0.063512
      5          8           0        2.043768   -0.404853   -0.188096
      6          6           0        1.122759    1.172348   -0.015513
      7          1           0       -3.079002   -0.307710   -0.352558
      8          1           0       -1.670789    1.542564   -0.129707
      9          1           0       -1.115666    0.431468   -1.395301
     10          1           0       -0.236457    0.317879    1.512292
     11          1           0        0.842687   -1.715770    0.861920
     12          1           0        0.351899   -1.487918   -0.829943
     13          1           0        1.658755    1.664250    0.796975
     14          1           0        1.842701    0.360573   -0.911491
 ---------------------------------------------------------------------

 SCF Done:  E(RHF) =  -305.802920875     A.U. after    2 cycles

 The electronic state is 1-A.
 Alpha  occ. eigenvalues --  -20.59926 -20.58095 -11.30194 -11.29290 -11.27569
 Alpha  occ. eigenvalues --  -11.24750  -1.35019  -1.33299  -1.06491  -0.93082
 Alpha  occ. eigenvalues --   -0.90540  -0.75775  -0.72829  -0.71287  -0.66228
 Alpha  occ. eigenvalues --   -0.64005  -0.62877  -0.58270  -0.54401  -0.52157
 Alpha  occ. eigenvalues --   -0.49422  -0.48038  -0.45162  -0.34964
 Alpha virt. eigenvalues --    0.03254   0.04303   0.04629   0.05097   0.06655
 Alpha virt. eigenvalues --    0.06877   0.07286   0.07529   0.09691   0.12518
 Alpha virt. eigenvalues --    0.12993   0.13503   0.14605   0.15130   0.15649

 Mulliken charges:
               1
     1  O   -0.560935
     2  C    0.972418
     3  C   -0.381290
     4  C    0.974782
     5  O   -0.765065
     6  C    0.117318
     7  H    0.141914
     8  H   -0.121083
     9  H   -0.083717
    10  H   -0.162726
    11  H   -0.180213
    12  H   -0.190777
    13  H   -0.197742
    14  H    0.437116
 Sum of Mulliken charges =  -0.00000

 Dipole moment (field-independent basis, Debye):
    X=             -2.1524    Y=              0.4473    Z=             -0.2886  Tot=              2.2172

 Test job not archived.
 1\1\GINC-SE329\SP\RHF\Aug-CC-pVDZ\C4H8O2\OHZDE\09-Apr-2025\0\\#t hf au
 g-cc-pvdz iop(5/13=1,5/36=2,99/5=2) pseudo=read geom=check guess=(read
 ,tcheck) scf=(maxcycle=1)\\title\\0,1\O,0,1.9213612,1.14867284,0.02378
 574\C,0,1.31379901,-0.11430904,0.22942577\C,0,-0.16042331,0.11878735,0
 .47216973\C,0,-0.96159622,0.57761768,-0.74356158\O,0,-2.03100481,-0.40
 997907,-0.70097131\C,0,-0.9684935,-1.16604606,0.58939118\H,0,2.8578483
 4,1.02390872,-0.13322495\H,0,1.75435968,-0.63028078,1.09242128\H,0,1.4
 3454258,-0.76468561,-0.64656595\H,0,-0.27652403,0.81260078,1.30904757\

 Normal termination of Gaussian 16 at Wed Apr  9 03:21:08 2025.
