 Gaussian 16, Revision C.01,

 ----------------------------------------------------------------------
 #t hf aug-cc-pvdz symm=none int=(grid=ultrafine) guess=(read,tcheck) s
 table=(opt,rrhf)
 ----------------------------------------------------------------------
 -----
 title
 -----
 Symbolic Z-matrix:
 Charge =  0 Multiplicity = 1

 SCF Done:  E(RHF) =  -360.793435476     A.U. after   15 cycles
 Normal termination of Gaussian 16 at Wed Apr  9 14:46:05 2025.
 Gaussian 16:  ES64L-G16RevC.01  3-Jul-2019

 ----------------------------------------------------------------------
 #t hf aug-cc-pvdz iop(5/13=1,5/36=2,99/5=2) pseudo=read geom=check gue
 ss=(read,tcheck) scf=(maxcycle=1)
 ----------------------------------------------------------------------
 -----
 title
 -----
 Structure from the checkpoint file:  "Grambow2020_wb97xd3_006608_reverse_mol1.chk"
 Charge =  0 Multiplicity = 1

                         Standard orientation:
 ---------------------------------------------------------------------
 Center     Atomic      Atomic             Coordinates (Angstroms)
 Number     Number       Type             X           Y           Z
 ---------------------------------------------------------------------
      1          6           0       -2.820971   -0.167066    0.010769
      2          6           0       -1.353362   -0.082190    0.367038
      3          8           0       -0.516932   -0.695740   -0.569975
      4          6           0       -0.647593    1.159503    0.085571
      5          7           0        1.630945    1.028247   -0.152406
      6          6           0        2.265206   -0.067774    0.073029
      7          8           0        1.699735   -1.215492    0.176202
      8          1           0       -3.441308    0.384093    0.721330
      9          1           0       -3.121757   -1.216236    0.024880
     10          1           0       -2.991148    0.222794   -0.993843
     11          1           0       -1.180684   -0.438501    1.391033
     12          1           0        0.618643   -1.059035   -0.125860
     13          1           0       -0.833544    1.625783   -0.871015
     14          1           0       -0.180718    1.759660    0.847836
     15          1           0        2.236758    1.838026   -0.187808
     16          1           0        3.355047   -0.079309    0.192027
 ---------------------------------------------------------------------

 SCF Done:  E(RHF) =  -360.907826793     A.U. after    2 cycles

 The electronic state is 1-A.
 Alpha  occ. eigenvalues --  -20.54750 -20.52106 -15.59714 -11.36661 -11.34395
 Alpha  occ. eigenvalues --  -11.29908 -11.23725  -1.34907  -1.28276  -1.14265
 Alpha  occ. eigenvalues --   -1.03249  -0.96103  -0.83603  -0.80005  -0.72708
 Alpha  occ. eigenvalues --   -0.70523  -0.66574  -0.63522  -0.60737  -0.58253
 Alpha  occ. eigenvalues --   -0.57222  -0.55559  -0.53396  -0.50626  -0.46827
 Alpha  occ. eigenvalues --   -0.42647  -0.38996  -0.38104
 Alpha virt. eigenvalues --    0.02261   0.03817   0.04286   0.04695   0.05950
 Alpha virt. eigenvalues --    0.06230   0.06704   0.07268   0.08440   0.09741
 Alpha virt. eigenvalues --    0.11241   0.12149   0.12467   0.14004   0.14215

 Mulliken charges:
               1
     1  C    0.448615
     2  C    0.365425
     3  O   -0.942063
     4  C    0.794600
     5  N   -0.258409
     6  C    0.588066
     7  O   -0.527556
     8  H    0.026527
     9  H    0.005574
    10  H    0.034678
    11  H   -0.256627
    12  H    0.396328
    13  H   -0.196777
    14  H   -0.186556
    15  H   -0.074124
    16  H   -0.217701
 Sum of Mulliken charges =   0.00000

 Dipole moment (field-independent basis, Debye):
    X=             -1.3330    Y=              4.8512    Z=              1.8351  Tot=              5.3552

 Test job not archived.
 1\1\GINC-SE129\SP\RHF\Aug-CC-pVDZ\C4H9N1O2\OHZDE\09-Apr-2025\0\\#t hf
 aug-cc-pvdz iop(5/13=1,5/36=2,99/5=2) pseudo=read geom=check guess=(re
 ad,tcheck) scf=(maxcycle=1)\\title\\0,1\C,0,-2.3957423,-0.62666672,-0.
 45665418\C,0,-0.89211179,-0.4620461,-0.45532849\O,0,-0.47851074,0.8730
 137,-0.47984342\C,0,-0.18716911,-0.58808589,0.81207235\N,0,1.86082144,
 0.43518243,0.9678095\C,0,2.41174809,0.98858402,-0.05424588\O,0,1.79053
 284,1.26179721,-1.14378866\H,0,-2.68701899,-1.67534522,-0.36219844\H,0
 ,-2.78681249,-0.23900371,-1.39910366\H,0,-2.84124088,-0.05438329,0.358

 Normal termination of Gaussian 16 at Wed Apr  9 14:46:10 2025.
