 Gaussian 16, Revision C.01,

 ----------------------------------------------------------------------
 #t hf aug-cc-pvdz symm=none int=(grid=ultrafine) guess=(read,tcheck) s
 table=(opt,rrhf)
 ----------------------------------------------------------------------
 -----
 title
 -----
 Symbolic Z-matrix:
 Charge =  0 Multiplicity = 1

 SCF Done:  E(RHF) =  -286.705824967     A.U. after   18 cycles
 Normal termination of Gaussian 16 at Wed Apr  9 15:58:15 2025.
 Gaussian 16:  ES64L-G16RevC.01  3-Jul-2019

 ----------------------------------------------------------------------
 #t hf aug-cc-pvdz iop(5/13=1,5/36=2,99/5=2) pseudo=read geom=check gue
 ss=(read,tcheck) scf=(maxcycle=1)
 ----------------------------------------------------------------------
 -----
 title
 -----
 Structure from the checkpoint file:  "Grambow2020_wb97xd3_007625_forward_mol1.chk"
 Charge =  0 Multiplicity = 1

                         Standard orientation:
 ---------------------------------------------------------------------
 Center     Atomic      Atomic             Coordinates (Angstroms)
 Number     Number       Type             X           Y           Z
 ---------------------------------------------------------------------
      1          6           0        2.352668   -0.379316   -0.087507
      2          6           0        0.875288   -0.146549   -0.084663
      3          6           0        0.312972    1.226721   -0.425029
      4          6           0       -0.420636    0.886712    0.776496
      5          6           0       -1.299558   -0.326100    0.486333
      6          7           0       -2.035468   -0.099818   -0.702113
      7          6           0       -0.118425   -1.106245    0.070958
      8          1           0        2.602138   -1.385268    0.249458
      9          1           0        2.849876    0.331294    0.575443
     10          1           0        2.762019   -0.231068   -1.090192
     11          1           0        1.040038    2.028128   -0.334819
     12          1           0       -0.272670    1.222070   -1.341774
     13          1           0       -0.309971    1.397992    1.725646
     14          1           0       -1.814712   -0.693346    1.381990
     15          1           0       -2.842258   -0.720791   -0.711685
     16          1           0        0.019960   -2.181624    0.041192
 ---------------------------------------------------------------------

 SCF Done:  E(RHF) =  -286.790812641     A.U. after    2 cycles

 The electronic state is 1-A.
 Alpha  occ. eigenvalues --  -15.51187 -11.32391 -11.29510 -11.28751 -11.26520
 Alpha  occ. eigenvalues --  -11.26487 -11.25805  -1.21925  -1.06467  -1.01297
 Alpha  occ. eigenvalues --   -0.96036  -0.88068  -0.77341  -0.75317  -0.69805
 Alpha  occ. eigenvalues --   -0.64603  -0.60649  -0.59849  -0.58273  -0.56990
 Alpha  occ. eigenvalues --   -0.53800  -0.51457  -0.49098  -0.37003  -0.34559
 Alpha  occ. eigenvalues --   -0.24716
 Alpha virt. eigenvalues --    0.02405   0.03635   0.03698   0.04769   0.05709
 Alpha virt. eigenvalues --    0.05825   0.06109   0.07269   0.07361   0.08534
 Alpha virt. eigenvalues --    0.10241   0.12561   0.12777   0.13247   0.13310

 Mulliken charges:
               1
     1  C    0.338791
     2  C   -0.793197
     3  C    0.666903
     4  C    0.602279
     5  C    0.621270
     6  N   -0.732435
     7  C    0.408083
     8  H   -0.033244
     9  H    0.070320
    10  H    0.093141
    11  H   -0.225161
    12  H   -0.003417
    13  H   -0.363827
    14  H   -0.188466
    15  H   -0.143677
    16  H   -0.317365
 Sum of Mulliken charges =   0.00000

 Dipole moment (field-independent basis, Debye):
    X=              4.8068    Y=             -0.3476    Z=              3.2196  Tot=              5.7958

 Test job not archived.
 1\1\GINC-SE162\SP\RHF\Aug-CC-pVDZ\C6H9N1\OHZDE\09-Apr-2025\0\\#t hf au
 g-cc-pvdz iop(5/13=1,5/36=2,99/5=2) pseudo=read geom=check guess=(read
 ,tcheck) scf=(maxcycle=1)\\title\\0,1\C,0,1.74555688,-0.78097004,0.993
 65513\C,0,0.538222,-0.31048561,0.24677785\C,0,0.68020143,0.69202128,-0
 .89021006\C,0,-0.41042108,1.25565528,-0.12189631\C,0,-1.59379012,0.294
 13701,-0.17415496\N,0,-1.84474761,-0.0698038,-1.51942047\C,0,-0.759700
 49,-0.79193514,0.37446135\H,0,1.47609276,-1.43358283,1.82383988\H,0,2.
 29637818,0.06998414,1.39881985\H,0,2.42307368,-1.31994199,0.32626975\H

 Normal termination of Gaussian 16 at Wed Apr  9 15:58:20 2025.
