 Gaussian 16, Revision C.01,

 ----------------------------------------------------------------------
 #t hf aug-cc-pvdz symm=none int=(grid=ultrafine) guess=(read,tcheck) s
 table=(opt,rrhf)
 ----------------------------------------------------------------------
 -----
 title
 -----
 Symbolic Z-matrix:
 Charge =  0 Multiplicity = 1

 SCF Done:  E(RHF) =  -342.353121902     A.U. after   18 cycles
 Normal termination of Gaussian 16 at Wed Apr  9 03:58:37 2025.
 Gaussian 16:  ES64L-G16RevC.01  3-Jul-2019

 ----------------------------------------------------------------------
 #t hf aug-cc-pvdz iop(5/13=1,5/36=2,99/5=2) pseudo=read geom=check gue
 ss=(read,tcheck) scf=(maxcycle=1)
 ----------------------------------------------------------------------
 -----
 title
 -----
 Structure from the checkpoint file:  "Grambow2020_wb97xd3_008761_forward_mol1.chk"
 Charge =  0 Multiplicity = 1

                         Standard orientation:
 ---------------------------------------------------------------------
 Center     Atomic      Atomic             Coordinates (Angstroms)
 Number     Number       Type             X           Y           Z
 ---------------------------------------------------------------------
      1          8           0       -2.583660    0.446015   -0.123070
      2          6           0       -1.753303   -0.417219    0.038067
      3          6           0       -0.337923   -0.135841    0.198772
      4          8           0        0.520683   -1.164129    0.094115
      5          6           0        1.702441   -0.646526   -0.296195
      6          6           0        1.874755    0.749935    0.154684
      7          6           0        0.429455    1.067082   -0.165793
      8          1           0       -2.010285   -1.491517    0.086622
      9          1           0       -0.168340    0.758747    1.060717
     10          1           0        2.438036   -1.368826   -0.616371
     11          1           0        2.187046    0.893235    1.210395
     12          1           0        2.573000    1.302449   -0.472735
     13          1           0       -0.008184    1.946243   -0.614195
 ---------------------------------------------------------------------

 SCF Done:  E(RHF) =  -342.458338455     A.U. after    2 cycles

 The electronic state is 1-A.
 Alpha  occ. eigenvalues --  -20.67080 -20.57376 -11.35683 -11.34025 -11.31960
 Alpha  occ. eigenvalues --  -11.29311 -11.27484  -1.45898  -1.36392  -1.11508
 Alpha  occ. eigenvalues --   -1.05991  -0.89794  -0.86355  -0.78464  -0.74598
 Alpha  occ. eigenvalues --   -0.72881  -0.68657  -0.64957  -0.62901  -0.60171
 Alpha  occ. eigenvalues --   -0.58042  -0.56176  -0.53443  -0.45730  -0.44881
 Alpha  occ. eigenvalues --   -0.24145
 Alpha virt. eigenvalues --    0.03073   0.03281   0.04344   0.04427   0.04920
 Alpha virt. eigenvalues --    0.06128   0.07297   0.09149   0.09792   0.11158
 Alpha virt. eigenvalues --    0.12271   0.12374   0.13011   0.14311   0.15081

 Mulliken charges:
               1
     1  O   -0.518120
     2  C    0.904341
     3  C   -0.071996
     4  O   -0.481640
     5  C    0.424199
     6  C    0.575697
     7  C   -0.238442
     8  H   -0.118316
     9  H    0.423372
    10  H   -0.357976
    11  H   -0.102284
    12  H   -0.066061
    13  H   -0.372775
 Sum of Mulliken charges =  -0.00000

 Dipole moment (field-independent basis, Debye):
    X=              3.3186    Y=             -0.2853    Z=              0.7017  Tot=              3.4040

 Test job not archived.
 1\1\GINC-SE332\SP\RHF\Aug-CC-pVDZ\C5H6O2\OHZDE\09-Apr-2025\0\\#t hf au
 g-cc-pvdz iop(5/13=1,5/36=2,99/5=2) pseudo=read geom=check guess=(read
 ,tcheck) scf=(maxcycle=1)\\title\\0,1\O,0,2.24128052,1.33119486,-1.437
 00744\C,0,2.06139809,0.46284647,-0.61588452\C,0,0.74237786,-0.02169334
 ,-0.25022448\O,0,0.63765055,-0.77881151,0.85491667\C,0,-0.621672,-0.62
 919407,1.31156503\C,0,-1.57444411,-0.31877377,0.22576933\C,0,-0.575465
 05,0.61040607,-0.43061974\H,0,2.89176456,-0.03908507,-0.08572621\H,0,0
 .07778723,-0.28969048,-1.2790556\H,0,-0.80075717,-1.01646125,2.3031715

 Normal termination of Gaussian 16 at Wed Apr  9 03:58:41 2025.
