 Gaussian 16, Revision C.01,

 ----------------------------------------------------------------------
 #t hf aug-cc-pvdz symm=none int=(grid=ultrafine) guess=(read,tcheck) s
 table=(opt,rrhf)
 ----------------------------------------------------------------------
 -----
 title
 -----
 Symbolic Z-matrix:
 Charge =  0 Multiplicity = 1

 SCF Done:  E(RHF) =  -322.561542002     A.U. after   17 cycles
 Normal termination of Gaussian 16 at Wed Apr  9 03:34:28 2025.
 Gaussian 16:  ES64L-G16RevC.01  3-Jul-2019

 ----------------------------------------------------------------------
 #t hf aug-cc-pvdz iop(5/13=1,5/36=2,99/5=2) pseudo=read geom=check gue
 ss=(read,tcheck) scf=(maxcycle=1)
 ----------------------------------------------------------------------
 -----
 title
 -----
 Structure from the checkpoint file:  "Grambow2020_wb97xd3_007140_forward_mol1.chk"
 Charge =  0 Multiplicity = 1

                         Standard orientation:
 ---------------------------------------------------------------------
 Center     Atomic      Atomic             Coordinates (Angstroms)
 Number     Number       Type             X           Y           Z
 ---------------------------------------------------------------------
      1          7           0        2.302038    0.051832    0.096092
      2          6           0        1.048733    0.216552   -0.009679
      3          8           0        0.268944   -1.043447   -0.314769
      4          6           0       -0.935600   -1.293078    0.425450
      5          6           0       -1.409884   -0.195341   -0.400664
      6          6           0       -1.282190    1.152775    0.149240
      7          6           0        0.214939    1.323365    0.022817
      8          1           0        2.596009   -0.876010   -0.178767
      9          1           0       -0.841162   -1.084942    1.490440
     10          1           0       -1.279568   -2.301869    0.216272
     11          1           0       -1.714080   -0.392808   -1.419183
     12          1           0       -1.688177    1.228692    1.168296
     13          1           0       -1.792177    1.874112   -0.491864
     14          1           0        0.637337    2.311942   -0.062665
 ---------------------------------------------------------------------

 SCF Done:  E(RHF) =  -322.658036695     A.U. after    2 cycles

 The electronic state is 1-A.
 Alpha  occ. eigenvalues --  -20.63865 -15.54424 -11.39425 -11.35267 -11.32749
 Alpha  occ. eigenvalues --  -11.27518 -11.18818  -1.39791  -1.14555  -1.11663
 Alpha  occ. eigenvalues --   -1.00879  -0.90423  -0.86229  -0.77750  -0.72641
 Alpha  occ. eigenvalues --   -0.66644  -0.66027  -0.62667  -0.60709  -0.59188
 Alpha  occ. eigenvalues --   -0.56455  -0.54291  -0.48584  -0.43166  -0.38108
 Alpha  occ. eigenvalues --   -0.24609
 Alpha virt. eigenvalues --    0.01522   0.03027   0.03470   0.03788   0.05950
 Alpha virt. eigenvalues --    0.06266   0.06727   0.07002   0.09672   0.11235
 Alpha virt. eigenvalues --    0.12070   0.12547   0.12737   0.13878   0.14039

 Mulliken charges:
               1
     1  N   -0.483083
     2  C    0.355269
     3  O   -0.832050
     4  C    0.997241
     5  C    0.490818
     6  C    0.221036
     7  C    0.466867
     8  H   -0.051284
     9  H   -0.189617
    10  H   -0.189466
    11  H   -0.343640
    12  H   -0.015541
    13  H    0.011312
    14  H   -0.437861
 Sum of Mulliken charges =   0.00000

 Dipole moment (field-independent basis, Debye):
    X=             -7.7344    Y=             -2.6994    Z=             -0.3101  Tot=              8.1978

 Test job not archived.
 1\1\GINC-SE115\SP\RHF\Aug-CC-pVDZ\C5H7N1O1\OHZDE\09-Apr-2025\0\\#t hf
 aug-cc-pvdz iop(5/13=1,5/36=2,99/5=2) pseudo=read geom=check guess=(re
 ad,tcheck) scf=(maxcycle=1)\\title\\0,1\N,0,1.94639752,-1.63319405,-0.
 10623671\C,0,0.88904292,-0.94431293,-0.23483522\O,0,1.09185395,0.55110
 909,-0.1283999\C,0,0.44407687,1.39500386,-1.09245019\C,0,-0.7274573,0.
 99078016,-0.33314372\C,0,-1.44563745,-0.19320787,-0.80059324\C,0,-0.45
 310149,-1.25595002,-0.38594767\H,0,2.73872176,-1.07692133,0.18640764\H
 ,0,0.50787429,1.01702936,-2.1120129\H,0,0.82029945,2.40858777,-0.98837

 Normal termination of Gaussian 16 at Wed Apr  9 03:34:33 2025.
