 Gaussian 16, Revision C.01,

 ----------------------------------------------------------------------
 #t hf aug-cc-pvdz symm=none int=(grid=ultrafine) guess=(read,tcheck) s
 table=(opt,rrhf)
 ----------------------------------------------------------------------
 -----
 title
 -----
 Symbolic Z-matrix:
 Charge =  0 Multiplicity = 1

 SCF Done:  E(RHF) =  -316.454954453     A.U. after   16 cycles
 Normal termination of Gaussian 16 at Wed Apr  9 15:39:41 2025.
 Gaussian 16:  ES64L-G16RevC.01  3-Jul-2019

 ----------------------------------------------------------------------
 #t hf aug-cc-pvdz iop(5/13=1,5/36=2,99/5=2) pseudo=read geom=check gue
 ss=(read,tcheck) scf=(maxcycle=1)
 ----------------------------------------------------------------------
 -----
 title
 -----
 Structure from the checkpoint file:  "Grambow2020_wb97xd3_007267_forward_mol1.chk"
 Charge =  0 Multiplicity = 1

                         Standard orientation:
 ---------------------------------------------------------------------
 Center     Atomic      Atomic             Coordinates (Angstroms)
 Number     Number       Type             X           Y           Z
 ---------------------------------------------------------------------
      1          7           0        2.866607    0.047178    0.013893
      2          6           0        1.723610   -0.037003    0.000139
      3          6           0        0.286376   -0.100851   -0.012915
      4          7           0       -0.411189   -1.196379   -0.002607
      5          6           0       -1.783717   -0.852198   -0.087779
      6          6           0       -1.769617    0.588016   -0.021871
      7          7           0       -0.451025    1.032535   -0.020067
      8          1           0       -2.082141   -0.012313    1.004015
      9          1           0       -2.585619    1.266201   -0.229002
     10          1           0       -0.102898    1.974987    0.021010
 ---------------------------------------------------------------------

 SCF Done:  E(RHF) =  -316.544760742     A.U. after    2 cycles

 The electronic state is 1-A.
 Alpha  occ. eigenvalues --  -15.72953 -15.68792 -15.65180 -11.40368 -11.33969
 Alpha  occ. eigenvalues --  -11.32768 -11.28663  -1.36926  -1.23704  -1.18255
 Alpha  occ. eigenvalues --   -1.08936  -0.91800  -0.84054  -0.82856  -0.70075
 Alpha  occ. eigenvalues --   -0.68324  -0.64345  -0.58936  -0.54143  -0.51682
 Alpha  occ. eigenvalues --   -0.48545  -0.44749  -0.43372  -0.37438
 Alpha virt. eigenvalues --    0.01315   0.03820   0.04331   0.05892   0.06794
 Alpha virt. eigenvalues --    0.08507   0.09671   0.10594   0.10890   0.11575
 Alpha virt. eigenvalues --    0.12382   0.13414   0.13696   0.14361   0.14949

 Mulliken charges:
               1
     1  N   -0.038369
     2  C   -0.524663
     3  C    0.961717
     4  N   -0.499464
     5  C   -0.298673
     6  C    0.760173
     7  N   -0.317621
     8  H    0.194233
     9  H   -0.153650
    10  H   -0.083682
 Sum of Mulliken charges =  -0.00000

 Dipole moment (field-independent basis, Debye):
    X=             -1.7041    Y=              5.9011    Z=              0.5699  Tot=              6.1686

 Test job not archived.
 1\1\GINC-SE087\SP\RHF\Aug-CC-pVDZ\C4H3N3\OHZDE\09-Apr-2025\0\\#t hf au
 g-cc-pvdz iop(5/13=1,5/36=2,99/5=2) pseudo=read geom=check guess=(read
 ,tcheck) scf=(maxcycle=1)\\title\\0,1\N,0,3.2853256,-0.31375722,0.1327
 9574\C,0,2.14152982,-0.36428283,0.07896068\C,0,0.7046432,-0.38564561,0
 .00976673\N,0,-0.03201597,-1.44772521,0.13706481\C,0,-1.38657406,-1.07
 695271,-0.05593424\C,0,-1.3229677,0.35759965,-0.18543569\N,0,0.0097076
 9,0.75792311,-0.18437578\H,0,-1.69845427,-0.0866528,0.89722626\H,0,-2.
 10476524,1.02544907,-0.51930423\H,0,0.38981193,1.68609856,-0.25583927\

 Normal termination of Gaussian 16 at Wed Apr  9 15:39:44 2025.
