 Gaussian 16, Revision C.01,

 ----------------------------------------------------------------------
 #t hf aug-cc-pvdz symm=none int=(grid=ultrafine) guess=(read,tcheck) s
 table=(opt,rrhf)
 ----------------------------------------------------------------------
 -----
 title
 -----
 Symbolic Z-matrix:
 Charge =  0 Multiplicity = 1

 SCF Done:  E(RHF) =  -286.732479144     A.U. after   16 cycles
 Normal termination of Gaussian 16 at Wed Apr  9 04:04:57 2025.
 Gaussian 16:  ES64L-G16RevC.01  3-Jul-2019

 ----------------------------------------------------------------------
 #t hf aug-cc-pvdz iop(5/13=1,5/36=2,99/5=2) pseudo=read geom=check gue
 ss=(read,tcheck) scf=(maxcycle=1)
 ----------------------------------------------------------------------
 -----
 title
 -----
 Structure from the checkpoint file:  "Grambow2020_wb97xd3_009266_reverse_mol2.chk"
 Charge =  0 Multiplicity = 1

                         Standard orientation:
 ---------------------------------------------------------------------
 Center     Atomic      Atomic             Coordinates (Angstroms)
 Number     Number       Type             X           Y           Z
 ---------------------------------------------------------------------
      1          6           0        2.012013   -0.111171   -0.350433
      2          6           0        0.578434   -0.176999    0.077783
      3          6           0       -0.019473    1.046434    0.878267
      4          6           0       -0.941826    1.250799   -0.326462
      5          7           0       -0.570220   -0.054746   -0.925133
      6          6           0       -1.164770   -1.135691   -0.096341
      7          6           0       -0.043136   -1.239458    0.895505
      8          1           0        2.224180    0.826776   -0.867785
      9          1           0        2.243498   -0.933665   -1.027928
     10          1           0        2.658316   -0.191030    0.525250
     11          1           0        0.731791    1.804319    1.089535
     12          1           0       -2.009068    1.375039   -0.133569
     13          1           0       -0.608021    2.060649   -0.975039
     14          1           0       -1.056860   -2.089826   -0.638385
     15          1           0       -2.208142   -1.049909    0.217243
     16          1           0       -0.511607    0.777385    1.816699
 ---------------------------------------------------------------------

 SCF Done:  E(RHF) =  -286.814306573     A.U. after    2 cycles

 The electronic state is 1-A.
 Alpha  occ. eigenvalues --  -15.61583 -11.28269 -11.27181 -11.27065 -11.26689
 Alpha  occ. eigenvalues --  -11.25838 -11.23712  -1.27053  -1.03406  -1.02234
 Alpha  occ. eigenvalues --   -0.95169  -0.86205  -0.80223  -0.69162  -0.66350
 Alpha  occ. eigenvalues --   -0.64271  -0.60973  -0.58242  -0.57249  -0.55815
 Alpha  occ. eigenvalues --   -0.52164  -0.50563  -0.46426  -0.43502  -0.40390
 Alpha  occ. eigenvalues --   -0.33804
 Alpha virt. eigenvalues --    0.03352   0.03836   0.04283   0.04887   0.06176
 Alpha virt. eigenvalues --    0.06645   0.07074   0.07757   0.08812   0.09201
 Alpha virt. eigenvalues --    0.10037   0.11258   0.12461   0.13067   0.13823

 Mulliken charges:
               1
     1  C    0.445116
     2  C   -0.110837
     3  C    0.555800
     4  C    0.909925
     5  N   -1.118089
     6  C    0.881706
     7  C   -0.575383
     8  H    0.065823
     9  H    0.057187
    10  H    0.091237
    11  H   -0.230981
    12  H   -0.246676
    13  H   -0.246647
    14  H   -0.082530
    15  H   -0.240164
    16  H   -0.155488
 Sum of Mulliken charges =   0.00000

 Dipole moment (field-independent basis, Debye):
    X=             -0.2728    Y=              1.8768    Z=             -0.2126  Tot=              1.9084

 Test job not archived.
 1\1\GINC-SE070\SP\RHF\Aug-CC-pVDZ\C6H9N1\OHZDE\09-Apr-2025\0\\#t hf au
 g-cc-pvdz iop(5/13=1,5/36=2,99/5=2) pseudo=read geom=check guess=(read
 ,tcheck) scf=(maxcycle=1)\\title\\0,1\C,0,1.97240701,0.04238243,-0.002
 88843\C,0,0.5069683,-0.25632097,0.07530555\C,0,-0.37589633,0.5893497,1
 .07552919\C,0,-1.09178977,1.12120199,-0.16885944\N,0,-0.45441082,0.116
 29712,-1.05478203\C,0,-1.03899686,-1.21532311,-0.74839201\C,0,-0.10445
 62,-1.56865,0.3716009\H,0,2.14792218,1.11076765,-0.14487471\H,0,2.4239
 5696,-0.49107659,-0.83991038\H,0,2.46028109,-0.2811695,0.91808957\H,0,

 Normal termination of Gaussian 16 at Wed Apr  9 04:05:03 2025.
