 Gaussian 16, Revision C.01,

 ----------------------------------------------------------------------
 #t hf aug-cc-pvdz symm=none int=(grid=ultrafine) guess=(read,tcheck) s
 table=(opt,rrhf)
 ----------------------------------------------------------------------
 -----
 title
 -----
 Symbolic Z-matrix:
 Charge =  0 Multiplicity = 1

 SCF Done:  E(RHF) =  -344.717657121     A.U. after   14 cycles

 1\1\GINC-SE016\Stability\RHF\Aug-CC-pVDZ\C5H10O2\OHZDE\09-Apr-2025\0\\
 #t hf aug-cc-pvdz symm=none int=(grid=ultrafine) guess=(read,tcheck) s
 table=(opt,rrhf)\\title\\0,1\C,0,2.21533723,0.52240104,-0.95634125\C,0
 ,1.07272427,-0.26739213,-0.66856759\C,0,0.64742669,-0.23038671,1.46617
 635\O,0,-0.69639159,0.13598082,1.27877323\C,0,-1.1146491,-0.29066932,0
 .02510887\C,0,-2.46265873,0.28031253,-0.30447423\O,0,-0.15907075,0.195
 35439,-0.91375942\H,0,3.12099032,0.02239837,-1.26167565\H,0,1.73616514
 ,0.26045139,0.37330018\H,0,2.06686851,1.5694023,-1.17371958\H,0,1.1906

 Normal termination of Gaussian 16 at Wed Apr  9 03:33:58 2025.
 Gaussian 16:  ES64L-G16RevC.01  3-Jul-2019

 ----------------------------------------------------------------------
 #t hf aug-cc-pvdz iop(5/13=1,5/36=2,99/5=2) pseudo=read geom=check gue
 ss=(read,tcheck) scf=(maxcycle=1)
 ----------------------------------------------------------------------
 -----
 title
 -----
 Structure from the checkpoint file:  "Grambow2020_wb97xd3_007111_reverse_mol1.chk"
 Charge =  0 Multiplicity = 1

                         Standard orientation:
 ---------------------------------------------------------------------
 Center     Atomic      Atomic             Coordinates (Angstroms)
 Number     Number       Type             X           Y           Z
 ---------------------------------------------------------------------
      1          6           0        2.426067   -0.644818   -0.325342
      2          6           0        1.234691   -0.420240    0.411093
      3          6           0        0.472176    1.581305    0.021514
      4          8           0       -0.815423    1.120237   -0.302057
      5          6           0       -1.035797   -0.096952    0.329235
      6          6           0       -2.300074   -0.730765   -0.172422
      7          8           0        0.069080   -0.935221    0.001558
      8          1           0        3.357677   -0.712249    0.214097
      9          1           0        1.733346    0.614052   -0.285933
     10          1           0        2.337938   -1.053098   -1.320857
     11          1           0        1.321212   -0.188113    1.472213
     12          1           0        0.820059    2.237029   -0.781382
     13          1           0        0.496060    2.098060    0.989460
     14          1           0       -1.042183    0.036022    1.425279
     15          1           0       -2.221810   -0.897072   -1.246449
     16          1           0       -2.474850   -1.681729    0.329453
     17          1           0       -3.139090   -0.064208    0.023637
 ---------------------------------------------------------------------

 SCF Done:  E(RHF) =  -344.829549162     A.U. after    2 cycles

 The electronic state is 1-A.
 Alpha  occ. eigenvalues --  -20.61982 -20.58139 -11.38394 -11.35986 -11.25889
 Alpha  occ. eigenvalues --  -11.23630 -11.21345  -1.42950  -1.33287  -1.08933
 Alpha  occ. eigenvalues --   -1.01315  -0.89869  -0.85697  -0.83323  -0.74003
 Alpha  occ. eigenvalues --   -0.72316  -0.67848  -0.64574  -0.62816  -0.57041
 Alpha  occ. eigenvalues --   -0.56374  -0.55273  -0.54536  -0.54260  -0.50638
 Alpha  occ. eigenvalues --   -0.49672  -0.46031  -0.26459
 Alpha virt. eigenvalues --    0.03289   0.04330   0.04585   0.05167   0.06045
 Alpha virt. eigenvalues --    0.06294   0.06628   0.07092   0.08412   0.08784
 Alpha virt. eigenvalues --    0.11670   0.12715   0.13083   0.13671   0.14386

 Mulliken charges:
               1
     1  C    0.367085
     2  C    0.178811
     3  C    0.387397
     4  O   -0.693368
     5  C    1.035274
     6  C    0.349661
     7  O   -0.590084
     8  H   -0.203930
     9  H    0.478998
    10  H   -0.254493
    11  H   -0.210974
    12  H   -0.362291
    13  H   -0.254431
    14  H   -0.281634
    15  H    0.053051
    16  H   -0.003806
    17  H    0.004731
 Sum of Mulliken charges =  -0.00000

 Dipole moment (field-independent basis, Debye):
    X=             -0.1222    Y=             -0.3043    Z=              2.0170  Tot=              2.0434

 Test job not archived.
 1\1\GINC-SE016\SP\RHF\Aug-CC-pVDZ\C5H10O2\OHZDE\09-Apr-2025\0\\#t hf a
 ug-cc-pvdz iop(5/13=1,5/36=2,99/5=2) pseudo=read geom=check guess=(rea
 d,tcheck) scf=(maxcycle=1)\\title\\0,1\C,0,2.21533723,0.52240104,-0.95
 634125\C,0,1.07272427,-0.26739213,-0.66856759\C,0,0.64742669,-0.230386
 71,1.46617635\O,0,-0.69639159,0.13598082,1.27877323\C,0,-1.1146491,-0.
 29066932,0.02510887\C,0,-2.46265873,0.28031253,-0.30447423\O,0,-0.1590
 7075,0.19535439,-0.91375942\H,0,3.12099032,0.02239837,-1.26167565\H,0,
 1.73616514,0.26045139,0.37330018\H,0,2.06686851,1.5694023,-1.17371958\

 Normal termination of Gaussian 16 at Wed Apr  9 03:34:04 2025.
