 Gaussian 16, Revision C.01,

 ----------------------------------------------------------------------
 #t hf aug-cc-pvdz symm=none int=(grid=ultrafine) guess=(read,tcheck) s
 table=(opt,rrhf)
 ----------------------------------------------------------------------
 -----
 title
 -----
 Symbolic Z-matrix:
 Charge =  0 Multiplicity = 1

 SCF Done:  E(RHF) =  -308.890139608     A.U. after   14 cycles

 1\1\GINC-SE229\Stability\RHF\Aug-CC-pVDZ\C6H12O1\OHZDE\09-Apr-2025\0\\
 #t hf aug-cc-pvdz symm=none int=(grid=ultrafine) guess=(read,tcheck) s
 table=(opt,rrhf)\\title\\0,1\C,0,-1.10894917,-0.91808856,-0.87361726\C
 ,0,-0.78294036,-0.0233734,0.29757449\C,0,-1.90430241,0.86838382,0.7753
 306\C,0,0.1646707,-0.40904782,1.22083851\O,0,1.09935578,-1.41758448,0.
 98861186\C,0,1.92849774,-0.32910432,0.7350668\C,0,2.21122077,0.1164953
 5,-0.52883653\H,0,-1.56562209,-0.35161827,-1.68682206\H,0,-0.22385074,
 -1.42471218,-1.25406393\H,0,-1.81904451,-1.69049837,-0.56321479\H,0,0.

 Normal termination of Gaussian 16 at Wed Apr  9 16:02:24 2025.
 Gaussian 16:  ES64L-G16RevC.01  3-Jul-2019

 ----------------------------------------------------------------------
 #t hf aug-cc-pvdz iop(5/13=1,5/36=2,99/5=2) pseudo=read geom=check gue
 ss=(read,tcheck) scf=(maxcycle=1)
 ----------------------------------------------------------------------
 -----
 title
 -----
 Structure from the checkpoint file:  "Grambow2020_wb97xd3_007706_forward_mol1.chk"
 Charge =  0 Multiplicity = 1

                         Standard orientation:
 ---------------------------------------------------------------------
 Center     Atomic      Atomic             Coordinates (Angstroms)
 Number     Number       Type             X           Y           Z
 ---------------------------------------------------------------------
      1          6           0       -1.171409    1.301099   -0.678338
      2          6           0       -0.987342   -0.005232    0.055218
      3          6           0       -2.235446   -0.597892    0.665075
      4          6           0        0.016277   -0.873067   -0.317260
      5          8           0        1.100731   -0.500129   -1.110725
      6          6           0        1.740549   -0.441913    0.123696
      7          6           0        1.938986    0.727769    0.808100
      8          1           0       -1.719239    2.021383   -0.068572
      9          1           0       -0.218308    1.740415   -0.967140
     10          1           0       -1.744692    1.133473   -1.595099
     11          1           0       -0.289694    0.680838    1.313848
     12          1           0       -2.985313   -0.788124   -0.109217
     13          1           0       -2.682981    0.084986    1.389251
     14          1           0       -2.029207   -1.540180    1.173971
     15          1           0       -0.064817   -1.938790   -0.124605
     16          1           0        2.180077   -1.378023    0.452931
     17          1           0        2.593132    0.708656    1.669759
     18          1           0        0.513922    0.934267    1.512535
     19          1           0        1.831580    1.677540    0.299193
 ---------------------------------------------------------------------

 SCF Done:  E(RHF) =  -308.991256615     A.U. after    2 cycles

 The electronic state is 1-A.
 Alpha  occ. eigenvalues --  -20.60144 -11.30487 -11.29372 -11.25945 -11.23981
 Alpha  occ. eigenvalues --  -11.23676 -11.23057  -1.38978  -1.08555  -1.01955
 Alpha  occ. eigenvalues --   -0.94364  -0.91737  -0.81268  -0.75824  -0.69337
 Alpha  occ. eigenvalues --   -0.66835  -0.65772  -0.62357  -0.60274  -0.56725
 Alpha  occ. eigenvalues --   -0.55252  -0.54431  -0.54030  -0.52338  -0.50198
 Alpha  occ. eigenvalues --   -0.47796  -0.34756  -0.31544
 Alpha virt. eigenvalues --    0.03420   0.04245   0.04398   0.04877   0.06100
 Alpha virt. eigenvalues --    0.06233   0.06938   0.07131   0.07911   0.09237
 Alpha virt. eigenvalues --    0.09651   0.10746   0.11751   0.12717   0.13211

 Mulliken charges:
               1
     1  C    0.633807
     2  C   -1.857917
     3  C    0.952904
     4  C    1.046806
     5  O   -0.843106
     6  C    0.445145
     7  C    0.316626
     8  H   -0.025490
     9  H   -0.156893
    10  H    0.011452
    11  H    0.612857
    12  H    0.024372
    13  H   -0.049650
    14  H   -0.106349
    15  H   -0.354651
    16  H   -0.228941
    17  H   -0.245923
    18  H   -0.023125
    19  H   -0.151922
 Sum of Mulliken charges =  -0.00000

 Dipole moment (field-independent basis, Debye):
    X=             -0.8556    Y=             -0.3510    Z=              1.2638  Tot=              1.5660

 Test job not archived.
 1\1\GINC-SE229\SP\RHF\Aug-CC-pVDZ\C6H12O1\OHZDE\09-Apr-2025\0\\#t hf a
 ug-cc-pvdz iop(5/13=1,5/36=2,99/5=2) pseudo=read geom=check guess=(rea
 d,tcheck) scf=(maxcycle=1)\\title\\0,1\C,0,-1.10894917,-0.91808856,-0.
 87361726\C,0,-0.78294036,-0.0233734,0.29757449\C,0,-1.90430241,0.86838
 382,0.7753306\C,0,0.1646707,-0.40904782,1.22083851\O,0,1.09935578,-1.4
 1758448,0.98861186\C,0,1.92849774,-0.32910432,0.7350668\C,0,2.21122077
 ,0.11649535,-0.52883653\H,0,-1.56562209,-0.35161827,-1.68682206\H,0,-0
 .22385074,-1.42471218,-1.25406393\H,0,-1.81904451,-1.69049837,-0.56321

 Normal termination of Gaussian 16 at Wed Apr  9 16:02:32 2025.
