 Gaussian 16, Revision C.01,

 ----------------------------------------------------------------------
 #t hf aug-cc-pvdz symm=none int=(grid=ultrafine) guess=(read,tcheck) s
 table=(opt,rrhf)
 ----------------------------------------------------------------------
 -----
 title
 -----
 Symbolic Z-matrix:
 Charge =  0 Multiplicity = 1

 SCF Done:  E(RHF) =  -306.540284551     A.U. after   15 cycles
 Normal termination of Gaussian 16 at Wed Apr  9 16:22:13 2025.
 Gaussian 16:  ES64L-G16RevC.01  3-Jul-2019

 ----------------------------------------------------------------------
 #t hf aug-cc-pvdz iop(5/13=1,5/36=2,99/5=2) pseudo=read geom=check gue
 ss=(read,tcheck) scf=(maxcycle=1)
 ----------------------------------------------------------------------
 -----
 title
 -----
 Structure from the checkpoint file:  "Grambow2020_wb97xd3_008161_reverse_mol1.chk"
 Charge =  0 Multiplicity = 1

                         Standard orientation:
 ---------------------------------------------------------------------
 Center     Atomic      Atomic             Coordinates (Angstroms)
 Number     Number       Type             X           Y           Z
 ---------------------------------------------------------------------
      1          8           0        2.056444   -0.333572    0.096622
      2          6           0        0.713912   -0.032950   -0.006944
      3          6           0        0.132785    1.140118   -0.821917
      4          6           0       -0.979693    1.060378    0.203419
      5          6           0       -1.639354   -0.887181   -0.304360
      6          6           0       -0.261663   -1.155660   -0.090274
      7          6           0       -0.145237    0.387639    1.129528
      8          1           0        2.313539   -0.846881   -0.673565
      9          1           0       -0.104393    0.986159   -1.875691
     10          1           0        0.774314    2.009757   -0.674083
     11          1           0       -1.849241    1.683621    0.345908
     12          1           0       -2.321722   -0.652897    0.493493
     13          1           0       -2.135568   -1.500890   -1.067216
     14          1           0        0.154131   -2.166570   -0.141180
     15          1           0       -0.207110    0.082209    2.162644
 ---------------------------------------------------------------------

 SCF Done:  E(RHF) =  -306.631551293     A.U. after    2 cycles

 The electronic state is 1-A.
 Alpha  occ. eigenvalues --  -20.58914 -11.31055 -11.27453 -11.25737 -11.24884
 Alpha  occ. eigenvalues --  -11.24237 -11.23771  -1.35196  -1.19120  -1.00033
 Alpha  occ. eigenvalues --   -0.91302  -0.89714  -0.78515  -0.74079  -0.71630
 Alpha  occ. eigenvalues --   -0.66462  -0.63659  -0.61222  -0.57912  -0.55297
 Alpha  occ. eigenvalues --   -0.55138  -0.50809  -0.47556  -0.45434  -0.32433
 Alpha  occ. eigenvalues --   -0.30779
 Alpha virt. eigenvalues --    0.03245   0.03964   0.04550   0.04723   0.06154
 Alpha virt. eigenvalues --    0.06433   0.06787   0.07323   0.09135   0.11686
 Alpha virt. eigenvalues --    0.12105   0.12444   0.12642   0.14228   0.14508

 Mulliken charges:
               1
     1  O   -0.619403
     2  C    0.595315
     3  C    0.607846
     4  C    0.443684
     5  C    0.589158
     6  C    0.178526
     7  C   -0.035769
     8  H    0.124412
     9  H   -0.183169
    10  H   -0.043174
    11  H   -0.449695
    12  H   -0.158895
    13  H   -0.283552
    14  H   -0.387513
    15  H   -0.377770
 Sum of Mulliken charges =   0.00000

 Dipole moment (field-independent basis, Debye):
    X=             -0.6284    Y=             -0.6598    Z=             -1.1225  Tot=              1.4458

 Test job not archived.
 1\1\GINC-SE174\SP\RHF\Aug-CC-pVDZ\C6H8O1\OHZDE\09-Apr-2025\0\\#t hf au
 g-cc-pvdz iop(5/13=1,5/36=2,99/5=2) pseudo=read geom=check guess=(read
 ,tcheck) scf=(maxcycle=1)\\title\\0,1\O,0,2.0639594,0.91121733,-0.5220
 4\C,0,0.87019657,0.27352807,-0.25413171\C,0,0.73697402,-1.19124344,0.2
 0919684\C,0,-0.61159958,-1.09170697,-0.47397431\C,0,-1.41828428,0.3989
 1056,0.79618224\C,0,-0.21626397,1.04773175,0.4087259\C,0,-0.18639202,0
 .00508143,-1.26316815\H,0,2.43434289,1.22437446,0.30712855\H,0,0.77627
 632,-1.41432145,1.2764775\H,0,1.44753735,-1.79467288,-0.35707105\H,0,-

 Normal termination of Gaussian 16 at Wed Apr  9 16:22:18 2025.
