 Gaussian 16, Revision C.01,

 ----------------------------------------------------------------------
 #t hf aug-cc-pvdz symm=none int=(grid=ultrafine) guess=(read,tcheck) s
 table=(opt,rrhf)
 ----------------------------------------------------------------------
 -----
 title
 -----
 Symbolic Z-matrix:
 Charge =  0 Multiplicity = 1

 SCF Done:  E(RHF) =  -266.680114754     A.U. after   15 cycles
 Normal termination of Gaussian 16 at Wed Apr  9 03:02:35 2025.
 Gaussian 16:  ES64L-G16RevC.01  3-Jul-2019

 ----------------------------------------------------------------------
 #t hf aug-cc-pvdz iop(5/13=1,5/36=2,99/5=2) pseudo=read geom=check gue
 ss=(read,tcheck) scf=(maxcycle=1)
 ----------------------------------------------------------------------
 -----
 title
 -----
 Structure from the checkpoint file:  "Grambow2020_b97d3_006472_forward_mol1.chk"
 Charge =  0 Multiplicity = 1

                         Standard orientation:
 ---------------------------------------------------------------------
 Center     Atomic      Atomic             Coordinates (Angstroms)
 Number     Number       Type             X           Y           Z
 ---------------------------------------------------------------------
      1          8           0        1.574381   -0.776332   -0.143299
      2          6           0        1.181617    0.563169    0.021266
      3          6           0       -0.329308    0.740164   -0.158882
      4          6           0       -1.662604   -0.586306   -0.447964
      5          8           0       -1.007461   -0.140547    0.739962
      6          1           0        0.936489   -1.304407    0.379290
      7          1           0        1.418188    0.958453    1.028726
      8          1           0        1.722064    1.161699   -0.723344
      9          1           0       -0.720416    1.764573   -0.120047
     10          1           0       -0.546764    0.270038   -1.213625
     11          1           0       -2.483145    0.182512   -0.610825
 ---------------------------------------------------------------------

 SCF Done:  E(RHF) =  -266.762735377     A.U. after    2 cycles

 The electronic state is 1-A.
 Alpha  occ. eigenvalues --  -20.61766 -20.58441 -11.34468 -11.34374 -11.31542
 Alpha  occ. eigenvalues --   -1.39675  -1.33265  -1.01643  -0.89944  -0.85311
 Alpha  occ. eigenvalues --   -0.72918  -0.70722  -0.66489  -0.62493  -0.59748
 Alpha  occ. eigenvalues --   -0.57198  -0.54381  -0.50617  -0.47287  -0.38010
 Alpha virt. eigenvalues --    0.02926   0.04595   0.04883   0.05236   0.06943
 Alpha virt. eigenvalues --    0.07434   0.09426   0.10753   0.11315   0.12328
 Alpha virt. eigenvalues --    0.14507   0.14660   0.14971   0.16266   0.16607

 Mulliken charges:
               1
     1  O   -0.538288
     2  C    0.843870
     3  C    0.117723
     4  C    0.051379
     5  O   -0.722419
     6  H    0.218975
     7  H   -0.008987
     8  H   -0.105079
     9  H   -0.191495
    10  H    0.336637
    11  H   -0.002315
 Sum of Mulliken charges =  -0.00000

 Dipole moment (field-independent basis, Debye):
    X=             -0.6841    Y=              3.2340    Z=             -0.0902  Tot=              3.3068

 Test job not archived.
 1\1\GINC-SE114\SP\RHF\Aug-CC-pVDZ\C3H6O2\OHZDE\09-Apr-2025\0\\#t hf au
 g-cc-pvdz iop(5/13=1,5/36=2,99/5=2) pseudo=read geom=check guess=(read
 ,tcheck) scf=(maxcycle=1)\\title\\0,1\O,0,-1.79240114,-0.42507504,-0.3
 6906385\C,0,-1.00877134,0.69885576,-0.05551787\C,0,0.45005778,0.318497
 59,0.21618058\C,0,1.28883252,-1.38340267,0.07208148\O,0,0.95660494,-0.
 40152515,-0.91007122\H,0,-1.27175714,-0.93570015,-1.02256276\H,0,-0.98
 325116,1.4452542,-0.87370395\H,0,-1.44629289,1.17138058,0.8333359\H,0,
 1.1236808,1.1216776,0.54025065\H,0,0.3783433,-0.50361013,1.05271156\H,

 Normal termination of Gaussian 16 at Wed Apr  9 03:02:37 2025.
