 Gaussian 16, Revision C.01,

 ----------------------------------------------------------------------
 #t hf aug-cc-pvdz symm=none int=(grid=ultrafine) guess=(read,tcheck) s
 table=(opt,rrhf)
 ----------------------------------------------------------------------
 -----
 title
 -----
 Symbolic Z-matrix:
 Charge =  0 Multiplicity = 1

 SCF Done:  E(RHF) =  -307.755346645     A.U. after   16 cycles

 1\1\GINC-SE131\Stability\RHF\Aug-CC-pVDZ\C6H10O1\OHZDE\09-Apr-2025\0\\
 #t hf aug-cc-pvdz symm=none int=(grid=ultrafine) guess=(read,tcheck) s
 table=(opt,rrhf)\\title\\0,1\C,0,-1.79747102,0.24421806,-0.02958018\C,
 0,-0.75221809,0.26806458,1.08670444\C,0,0.04817938,-0.99255729,1.14705
 811\C,0,1.35747187,-1.04147036,0.80956373\C,0,1.80270022,-0.02413829,-
 0.07002388\C,0,1.10774421,1.25608032,0.0443778\O,0,0.08911726,1.392108
 15,1.03335889\H,0,-2.49390552,-0.5840811,0.11406563\H,0,-1.32786845,0.
 1226186,-1.00729186\H,0,-2.36054373,1.17760562,-0.0219428\H,0,-1.27415

 Normal termination of Gaussian 16 at Wed Apr  9 16:53:29 2025.
 Gaussian 16:  ES64L-G16RevC.01  3-Jul-2019

 ----------------------------------------------------------------------
 #t hf aug-cc-pvdz iop(5/13=1,5/36=2,99/5=2) pseudo=read geom=check gue
 ss=(read,tcheck) scf=(maxcycle=1)
 ----------------------------------------------------------------------
 -----
 title
 -----
 Structure from the checkpoint file:  "Grambow2020_wb97xd3_009039_reverse_mol2.chk"
 Charge =  0 Multiplicity = 1

                         Standard orientation:
 ---------------------------------------------------------------------
 Center     Atomic      Atomic             Coordinates (Angstroms)
 Number     Number       Type             X           Y           Z
 ---------------------------------------------------------------------
      1          6           0       -1.878662    0.149149    0.746169
      2          6           0       -1.003937    0.163861   -0.508364
      3          6           0        0.009075    1.262379   -0.485775
      4          6           0        1.335095    1.028415   -0.353594
      5          6           0        1.683045   -0.196594    0.267013
      6          6           0        0.747276   -1.298498    0.054519
      7          8           0       -0.393196   -1.073757   -0.771921
      8          1           0       -2.416099    1.093590    0.850700
      9          1           0       -1.276912    0.003741    1.645050
     10          1           0       -2.606426   -0.659215    0.673859
     11          1           0       -1.647348    0.350728   -1.375985
     12          1           0        0.938027    0.484549    3.498211
     13          1           0       -0.376778    2.278379   -0.540699
     14          1           0        2.051714    1.840470   -0.420573
     15          1           0        1.359864    0.341595    2.897302
     16          1           0        1.319851   -2.108094   -0.412367
     17          1           0        0.448325   -1.687962    1.040058
 ---------------------------------------------------------------------

 SCF Done:  E(RHF) =  -307.852125850     A.U. after    2 cycles

 The electronic state is 1-A.
 Alpha  occ. eigenvalues --  -20.57591 -11.31189 -11.29163 -11.28993 -11.25440
 Alpha  occ. eigenvalues --  -11.24769 -11.24216  -1.35196  -1.10493  -1.05697
 Alpha  occ. eigenvalues --   -0.96889  -0.87280  -0.84269  -0.71988  -0.69456
 Alpha  occ. eigenvalues --   -0.66418  -0.64434  -0.60323  -0.58986  -0.57969
 Alpha  occ. eigenvalues --   -0.57148  -0.55661  -0.52181  -0.48686  -0.45243
 Alpha  occ. eigenvalues --   -0.40021  -0.33812
 Alpha virt. eigenvalues --    0.02911   0.03851   0.04540   0.04651   0.05646
 Alpha virt. eigenvalues --    0.06016   0.06578   0.07015   0.08184   0.08665
 Alpha virt. eigenvalues --    0.10379   0.11086   0.12228   0.12794   0.13788

 Mulliken charges:
               1
     1  C    0.479333
     2  C    0.258443
     3  C    0.461438
     4  C    0.523794
     5  C   -0.817590
     6  C    0.886172
     7  O   -0.704191
     8  H   -0.052606
     9  H   -0.121985
    10  H   -0.021355
    11  H   -0.139566
    12  H    0.006511
    13  H   -0.367594
    14  H   -0.298744
    15  H    0.019804
    16  H   -0.120139
    17  H    0.008277
 Sum of Mulliken charges =  -0.00000

 Dipole moment (field-independent basis, Debye):
    X=             -2.3888    Y=              1.7747    Z=             -0.2758  Tot=              2.9886

 Test job not archived.
 1\1\GINC-SE131\SP\RHF\Aug-CC-pVDZ\C6H10O1\OHZDE\09-Apr-2025\0\\#t hf a
 ug-cc-pvdz iop(5/13=1,5/36=2,99/5=2) pseudo=read geom=check guess=(rea
 d,tcheck) scf=(maxcycle=1)\\title\\0,1\C,0,-1.79747102,0.24421806,-0.0
 2958018\C,0,-0.75221809,0.26806458,1.08670444\C,0,0.04817938,-0.992557
 29,1.14705811\C,0,1.35747187,-1.04147036,0.80956373\C,0,1.80270022,-0.
 02413829,-0.07002388\C,0,1.10774421,1.25608032,0.0443778\O,0,0.0891172
 6,1.39210815,1.03335889\H,0,-2.49390552,-0.5840811,0.11406563\H,0,-1.3
 2786845,0.1226186,-1.00729186\H,0,-2.36054373,1.17760562,-0.0219428\H,

 Normal termination of Gaussian 16 at Wed Apr  9 16:53:35 2025.
