 Gaussian 16, Revision C.01,

 ----------------------------------------------------------------------
 #t hf aug-cc-pvdz symm=none int=(grid=ultrafine) guess=(read,tcheck) s
 table=(opt,rrhf)
 ----------------------------------------------------------------------
 -----
 title
 -----
 Symbolic Z-matrix:
 Charge =  0 Multiplicity = 1

 SCF Done:  E(RHF) =  -374.609584549     A.U. after   13 cycles
 Normal termination of Gaussian 16 at Wed Apr  9 17:16:11 2025.
 Gaussian 16:  ES64L-G16RevC.01  3-Jul-2019

 ----------------------------------------------------------------------
 #t hf aug-cc-pvdz iop(5/13=1,5/36=2,99/5=2) pseudo=read geom=check gue
 ss=(read,tcheck) scf=(maxcycle=1)
 ----------------------------------------------------------------------
 -----
 title
 -----
 Structure from the checkpoint file:  "Grambow2020_wb97xd3_009447_forward_mol2.chk"
 Charge =  0 Multiplicity = 1

                         Standard orientation:
 ---------------------------------------------------------------------
 Center     Atomic      Atomic             Coordinates (Angstroms)
 Number     Number       Type             X           Y           Z
 ---------------------------------------------------------------------
      1          8           0       -2.298237   -0.551632   -0.000391
      2          6           0       -1.020119   -0.157297    0.000102
      3          7           0        0.029041   -0.932091    0.000509
      4          6           0        1.089886   -0.063424    0.000058
      5          8           0        2.353765   -0.525393   -0.000463
      6          6           0        0.682546    1.230654    0.000347
      7          7           0       -0.714622    1.144774   -0.000060
      8          1           0       -2.298358   -1.513300   -0.000535
      9          1           0        2.299502   -1.484705    0.001437
     10          1           0        1.212605    2.164716   -0.001912
     11          1           0       -1.372789    1.901110    0.001657
 ---------------------------------------------------------------------

 SCF Done:  E(RHF) =  -374.725697328     A.U. after    2 cycles

 The electronic state is 1-A.
 Alpha  occ. eigenvalues --  -20.63416 -20.59924 -15.68149 -15.61175 -11.38562
 Alpha  occ. eigenvalues --  -11.32414 -11.25295  -1.42029  -1.37567  -1.30008
 Alpha  occ. eigenvalues --   -1.14790  -0.99665  -0.85844  -0.82792  -0.78390
 Alpha  occ. eigenvalues --   -0.75366  -0.67157  -0.65182  -0.64195  -0.62465
 Alpha  occ. eigenvalues --   -0.60515  -0.56290  -0.53749  -0.45966  -0.40255
 Alpha  occ. eigenvalues --   -0.30217
 Alpha virt. eigenvalues --    0.03070   0.03659   0.04404   0.06310   0.08505
 Alpha virt. eigenvalues --    0.10668   0.11643   0.12885   0.13031   0.13097
 Alpha virt. eigenvalues --    0.14156   0.14691   0.15709   0.16395   0.18189

 Mulliken charges:
               1
     1  O   -0.434913
     2  C    0.617338
     3  N   -0.556826
     4  C    0.600950
     5  O   -0.513562
     6  C    0.812011
     7  N   -0.435945
     8  H    0.135387
     9  H    0.121185
    10  H   -0.253468
    11  H   -0.092158
 Sum of Mulliken charges =  -0.00000

 Dipole moment (field-independent basis, Debye):
    X=             -1.9545    Y=              0.5153    Z=              0.0025  Tot=              2.0213

 Test job not archived.
 1\1\GINC-SE454\SP\RHF\Aug-CC-pVDZ\C3H4N2O2\OHZDE\09-Apr-2025\0\\#t hf
 aug-cc-pvdz iop(5/13=1,5/36=2,99/5=2) pseudo=read geom=check guess=(re
 ad,tcheck) scf=(maxcycle=1)\\title\\0,1\O,0,-2.30388738,0.62992283,-0.
 40651011\C,0,-1.02036037,0.25358462,-0.41017862\N,0,0.01641172,1.03718
 652,-0.30011036\C,0,1.09001559,0.18630801,-0.35803091\O,0,2.34616443,0
 .66134227,-0.2729578\C,0,0.7027138,-1.10575001,-0.50345833\N,0,-0.6950
 7556,-1.03765469,-0.53511349\H,0,-2.31874437,1.58635226,-0.30737342\H,
 0,2.27728645,1.61496969,-0.17768023\H,0,1.24675141,-2.02841785,-0.5818

 Normal termination of Gaussian 16 at Wed Apr  9 17:16:15 2025.
