 Gaussian 16, Revision C.01,

 ----------------------------------------------------------------------
 #t hf aug-cc-pvdz symm=none int=(grid=ultrafine) guess=(read,tcheck) s
 table=(opt,rrhf)
 ----------------------------------------------------------------------
 -----
 title
 -----
 Symbolic Z-matrix:
 Charge =  0 Multiplicity = 1

 SCF Done:  E(RHF) =  -269.768794057     A.U. after   14 cycles
 Normal termination of Gaussian 16 at Wed Apr  9 16:22:06 2025.
 Gaussian 16:  ES64L-G16RevC.01  3-Jul-2019

 ----------------------------------------------------------------------
 #t hf aug-cc-pvdz iop(5/13=1,5/36=2,99/5=2) pseudo=read geom=check gue
 ss=(read,tcheck) scf=(maxcycle=1)
 ----------------------------------------------------------------------
 -----
 title
 -----
 Structure from the checkpoint file:  "Grambow2020_wb97xd3_008150_reverse_mol2.chk"
 Charge =  0 Multiplicity = 1

                         Standard orientation:
 ---------------------------------------------------------------------
 Center     Atomic      Atomic             Coordinates (Angstroms)
 Number     Number       Type             X           Y           Z
 ---------------------------------------------------------------------
      1          6           0       -2.411675    0.000728    0.008241
      2          6           0       -0.907512    0.001999   -0.010571
      3          6           0        1.892739   -0.001321    0.007350
      4          6           0        1.191578   -1.198145    0.001661
      5          6           0        1.195045    1.196217    0.002125
      6          6           0       -0.192028    1.194904   -0.007463
      7          6           0       -0.194350   -1.193430   -0.008042
      8          1           0       -2.786797   -0.122996    1.027461
      9          1           0       -2.812953    0.937111   -0.380420
     10          1           0       -2.815437   -0.816648   -0.591029
     11          1           0        2.976138   -0.002524    0.011361
     12          1           0        1.727018   -2.140422    0.002697
     13          1           0        1.731703    2.137712    0.000821
     14          1           0       -0.729325    2.137320   -0.016043
     15          1           0       -0.733125   -2.135262   -0.014660
 ---------------------------------------------------------------------

 SCF Done:  E(RHF) =  -269.850929048     A.U. after    2 cycles

 The electronic state is 1-A.
 Alpha  occ. eigenvalues --  -11.24744 -11.24084 -11.24062 -11.23653 -11.23578
 Alpha  occ. eigenvalues --  -11.23571 -11.23326  -1.14637  -1.03965  -1.00789
 Alpha  occ. eigenvalues --   -0.93145  -0.82753  -0.80069  -0.69848  -0.64094
 Alpha  occ. eigenvalues --   -0.63229  -0.58807  -0.57956  -0.57192  -0.54248
 Alpha  occ. eigenvalues --   -0.49351  -0.49096  -0.48878  -0.33875  -0.32814
 Alpha virt. eigenvalues --    0.03515   0.04023   0.04199   0.05603   0.05842
 Alpha virt. eigenvalues --    0.05885   0.07611   0.08685   0.10642   0.10784
 Alpha virt. eigenvalues --    0.11500   0.13050   0.13558   0.14297   0.14489

 Mulliken charges:
               1
     1  C    0.380424
     2  C   -0.061345
     3  C    0.471446
     4  C    0.245681
     5  C    0.248612
     6  C    0.621873
     7  C    0.576131
     8  H    0.086973
     9  H   -0.121315
    10  H   -0.048450
    11  H   -0.430486
    12  H   -0.446824
    13  H   -0.444180
    14  H   -0.535601
    15  H   -0.542939
 Sum of Mulliken charges =   0.00000

 Dipole moment (field-independent basis, Debye):
    X=             -0.3999    Y=             -0.0118    Z=              0.0279  Tot=              0.4011

 Test job not archived.
 1\1\GINC-SE220\SP\RHF\Aug-CC-pVDZ\C7H8\OHZDE\09-Apr-2025\0\\#t hf aug-
 cc-pvdz iop(5/13=1,5/36=2,99/5=2) pseudo=read geom=check guess=(read,t
 check) scf=(maxcycle=1)\\title\\0,1\C,0,2.04006568,0.8550346,0.1948917
 5\C,0,0.66214882,0.26608303,0.06319036\C,0,-1.92354898,-0.78124744,-0.
 17970783\C,0,-1.24923669,-0.31547452,-1.29881789\C,0,-1.30540167,-0.72
 545083,1.05951812\C,0,-0.02426277,-0.20680857,1.17681573\C,0,0.0307593
 6,0.20159836,-1.1756983\H,0,1.99163462,1.94526003,0.25730038\H,0,2.540
 20596,0.49423606,1.09410189\H,0,2.66311555,0.60335647,-0.66459543\H,0,

 Normal termination of Gaussian 16 at Wed Apr  9 16:22:11 2025.
