 Gaussian 16, Revision C.01,

 ----------------------------------------------------------------------
 #t hf aug-cc-pvdz symm=none int=(grid=ultrafine) guess=(read,tcheck) s
 table=(opt,rrhf)
 ----------------------------------------------------------------------
 -----
 title
 -----
 Symbolic Z-matrix:
 Charge =  0 Multiplicity = 1

 SCF Done:  E(RHF) =  -325.075150507     A.U. after   12 cycles
 Normal termination of Gaussian 16 at Wed Apr  9 16:21:16 2025.
 Gaussian 16:  ES64L-G16RevC.01  3-Jul-2019

 ----------------------------------------------------------------------
 #t hf aug-cc-pvdz iop(5/13=1,5/36=2,99/5=2) pseudo=read geom=check gue
 ss=(read,tcheck) scf=(maxcycle=1)
 ----------------------------------------------------------------------
 -----
 title
 -----
 Structure from the checkpoint file:  "Grambow2020_wb97xd3_008103_reverse_mol2.chk"
 Charge =  0 Multiplicity = 1

                         Standard orientation:
 ---------------------------------------------------------------------
 Center     Atomic      Atomic             Coordinates (Angstroms)
 Number     Number       Type             X           Y           Z
 ---------------------------------------------------------------------
      1          6           0        1.816518   -0.231675   -0.149610
      2          6           0        1.072141    1.086286   -0.012717
      3          7           0       -0.284745    0.674723   -0.314610
      4          6           0       -1.289783    1.639683    0.060978
      5          6           0       -0.405388   -0.609841    0.354600
      6          8           0        0.856581   -1.222688    0.189437
      7          6           0       -1.484911   -1.496106   -0.217800
      8          1           0        2.153631   -0.395581   -1.177357
      9          1           0        2.675484   -0.306498    0.520912
     10          1           0       -0.582169   -0.456868    1.440551
     11          1           0        1.420312    1.851726   -0.707985
     12          1           0        1.160083    1.482269    1.014338
     13          1           0       -1.111719    2.577499   -0.466783
     14          1           0       -2.281777    1.285043   -0.221316
     15          1           0       -1.291484    1.850079    1.144731
     16          1           0       -1.458335   -2.470728    0.270026
     17          1           0       -1.321741   -1.626013   -1.287799
     18          1           0       -2.473175   -1.062568   -0.055241
 ---------------------------------------------------------------------

 SCF Done:  E(RHF) =  -325.177774823     A.U. after    2 cycles

 The electronic state is 1-A.
 Alpha  occ. eigenvalues --  -20.56369 -15.61483 -11.31217 -11.28214 -11.26207
 Alpha  occ. eigenvalues --  -11.25985 -11.21956  -1.35429  -1.19100  -1.04099
 Alpha  occ. eigenvalues --   -0.96931  -0.90994  -0.82951  -0.78868  -0.70265
 Alpha  occ. eigenvalues --   -0.67839  -0.63202  -0.61865  -0.60516  -0.56846
 Alpha  occ. eigenvalues --   -0.54990  -0.53690  -0.52993  -0.51606  -0.50043
 Alpha  occ. eigenvalues --   -0.47810  -0.42681  -0.36046
 Alpha virt. eigenvalues --    0.03490   0.04230   0.04399   0.04623   0.06497
 Alpha virt. eigenvalues --    0.06686   0.06941   0.07152   0.07797   0.09239
 Alpha virt. eigenvalues --    0.09409   0.11838   0.12623   0.13621   0.14195

 Mulliken charges:
               1
     1  C    0.820938
     2  C    0.592720
     3  N   -0.910086
     4  C    0.719383
     5  C    0.763512
     6  O   -0.719240
     7  C    0.406075
     8  H   -0.207966
     9  H   -0.188592
    10  H   -0.288176
    11  H   -0.247413
    12  H   -0.157311
    13  H   -0.173998
    14  H   -0.230615
    15  H   -0.074956
    16  H   -0.025718
    17  H   -0.024906
    18  H   -0.053651
 Sum of Mulliken charges =   0.00000

 Dipole moment (field-independent basis, Debye):
    X=             -0.2895    Y=              1.9077    Z=              0.4308  Tot=              1.9770

 Test job not archived.
 1\1\GINC-SE229\SP\RHF\Aug-CC-pVDZ\C5H11N1O1\OHZDE\09-Apr-2025\0\\#t hf
  aug-cc-pvdz iop(5/13=1,5/36=2,99/5=2) pseudo=read geom=check guess=(r
 ead,tcheck) scf=(maxcycle=1)\\title\\0,1\C,0,-1.58364584,-0.44390193,-
 1.15942536\C,0,-1.4816942,-0.23446222,0.34243998\N,0,-0.04874733,-0.32
 689081,0.54189226\C,0,0.40023414,0.16522012,1.82195461\C,0,0.49845024,
 0.38504292,-0.60101009\O,0,-0.35747902,0.05509651,-1.67522838\C,0,1.91
 770587,-0.0029706,-0.93810934\H,0,-1.67283366,-1.50505097,-1.40998939\
 H,0,-2.41938193,0.0973424,-1.60844782\H,0,0.43986861,1.48091154,-0.429

 Normal termination of Gaussian 16 at Wed Apr  9 16:21:23 2025.
