 Gaussian 16, Revision C.01,

 ----------------------------------------------------------------------
 #t hf aug-cc-pvdz symm=none int=(grid=ultrafine) guess=(read,tcheck) s
 table=(opt,rrhf)
 ----------------------------------------------------------------------
 -----
 title
 -----
 Symbolic Z-matrix:
 Charge =  0 Multiplicity = 1

 SCF Done:  E(RHF) =  -245.675833347     A.U. after   14 cycles
 Normal termination of Gaussian 16 at Wed Apr  9 03:20:51 2025.
 Gaussian 16:  ES64L-G16RevC.01  3-Jul-2019

 ----------------------------------------------------------------------
 #t hf aug-cc-pvdz iop(5/13=1,5/36=2,99/5=2) pseudo=read geom=check gue
 ss=(read,tcheck) scf=(maxcycle=1)
 ----------------------------------------------------------------------
 -----
 title
 -----
 Structure from the checkpoint file:  "Grambow2020_wb97xd3_006122_reverse_mol1.chk"
 Charge =  0 Multiplicity = 1

                         Standard orientation:
 ---------------------------------------------------------------------
 Center     Atomic      Atomic             Coordinates (Angstroms)
 Number     Number       Type             X           Y           Z
 ---------------------------------------------------------------------
      1          6           0       -1.031800   -0.548028   -0.173664
      2          6           0       -0.706849    0.927024   -0.149075
      3          7           0        0.726660    1.018109    0.163178
      4          6           0        1.138357   -0.162907    0.077109
      5          8           0        0.194700   -1.141068   -0.196200
      6          1           0       -1.299754   -0.625820    1.528453
      7          1           0       -1.724200   -0.982175    0.847314
      8          1           0       -0.849952    1.309012   -1.166558
      9          1           0       -1.322151    1.526828    0.515728
     10          1           0        2.153593   -0.522592    0.176196
 ---------------------------------------------------------------------

 SCF Done:  E(RHF) =  -245.752631819     A.U. after    2 cycles

 The electronic state is 1-A.
 Alpha  occ. eigenvalues --  -20.64296 -15.63882 -11.35884 -11.33188 -11.28552
 Alpha  occ. eigenvalues --   -1.43978  -1.21204  -1.03542  -0.87134  -0.81552
 Alpha  occ. eigenvalues --   -0.74619  -0.71438  -0.63118  -0.59827  -0.59046
 Alpha  occ. eigenvalues --   -0.55268  -0.46734  -0.42395  -0.36121
 Alpha virt. eigenvalues --    0.03348   0.04036   0.04598   0.05720   0.07481
 Alpha virt. eigenvalues --    0.09538   0.10092   0.10770   0.10997   0.12285
 Alpha virt. eigenvalues --    0.14083   0.15072   0.16165   0.16601   0.17265

 Mulliken charges:
               1
     1  C    0.061313
     2  C    0.515599
     3  N   -0.468632
     4  C    0.733077
     5  O   -0.572799
     6  H   -0.021109
     7  H    0.152370
     8  H   -0.060811
     9  H   -0.151912
    10  H   -0.187098
 Sum of Mulliken charges =  -0.00000

 Dipole moment (field-independent basis, Debye):
    X=              0.0866    Y=              0.2002    Z=              0.5355  Tot=              0.5783

 Test job not archived.
 1\1\GINC-SE045\SP\RHF\Aug-CC-pVDZ\C3H5N1O1\OHZDE\09-Apr-2025\0\\#t hf
 aug-cc-pvdz iop(5/13=1,5/36=2,99/5=2) pseudo=read geom=check guess=(re
 ad,tcheck) scf=(maxcycle=1)\\title\\0,1\C,0,-0.70815405,-0.50192964,-0
 .60513538\C,0,-0.56061626,0.81687215,0.116647\N,0,0.86372591,0.9293744
 4,0.46210021\C,0,1.40926642,-0.01138063,-0.16165264\O,0,0.57823828,-0.
 85648168,-0.88080509\H,0,-0.89269229,-1.40163045,0.85484416\H,0,-1.300
 05506,-1.44688379,0.07824819\H,0,-0.79114129,1.61008787,-0.60400055\H,
 0,-1.21436294,0.95260297,0.97368792\H,0,2.46341728,-0.24535624,-0.2242

 Normal termination of Gaussian 16 at Wed Apr  9 03:20:54 2025.
