 Gaussian 16, Revision C.01,

 ----------------------------------------------------------------------
 #t hf aug-cc-pvdz symm=none int=(grid=ultrafine) guess=(read,tcheck) s
 table=(opt,rrhf)
 ----------------------------------------------------------------------
 -----
 title
 -----
 Symbolic Z-matrix:
 Charge =  0 Multiplicity = 1

 SCF Done:  E(RHF) =  -323.714377677     A.U. after   16 cycles
 Normal termination of Gaussian 16 at Wed Apr  9 16:48:47 2025.
 Gaussian 16:  ES64L-G16RevC.01  3-Jul-2019

 ----------------------------------------------------------------------
 #t hf aug-cc-pvdz iop(5/13=1,5/36=2,99/5=2) pseudo=read geom=check gue
 ss=(read,tcheck) scf=(maxcycle=1)
 ----------------------------------------------------------------------
 -----
 title
 -----
 Structure from the checkpoint file:  "Grambow2020_wb97xd3_008932_reverse_mol1.chk"
 Charge =  0 Multiplicity = 1

                         Standard orientation:
 ---------------------------------------------------------------------
 Center     Atomic      Atomic             Coordinates (Angstroms)
 Number     Number       Type             X           Y           Z
 ---------------------------------------------------------------------
      1          6           0       -2.408561   -0.034648   -0.206352
      2          6           0       -1.036061   -0.161258    0.413402
      3          6           0       -0.148838   -1.380347    0.068212
      4          7           0        0.961033   -0.434503   -0.147719
      5          6           0        2.245255   -0.542730   -0.063480
      6          6           0        0.111825    0.667506   -0.163559
      7          8           0        0.588823    1.919613    0.171011
      8          1           0       -2.358566   -0.178671   -1.288027
      9          1           0       -2.815366    0.960479   -0.019053
     10          1           0       -3.106761   -0.765448    0.208119
     11          1           0       -1.080797   -0.042627    1.502576
     12          1           0        0.063709   -2.077800    0.876343
     13          1           0       -0.412703   -1.915383   -0.843581
     14          1           0        0.172347    1.565443   -0.967494
     15          1           0        2.822132    0.370550   -0.060474
     16          1           0        2.696471   -1.523064   -0.031807
 ---------------------------------------------------------------------

 SCF Done:  E(RHF) =  -323.813819500     A.U. after    2 cycles

 The electronic state is 1-A.
 Alpha  occ. eigenvalues --  -20.50468 -15.73461 -11.31646 -11.30588 -11.28498
 Alpha  occ. eigenvalues --  -11.25193 -11.22831  -1.32870  -1.23972  -1.09888
 Alpha  occ. eigenvalues --   -0.98178  -0.92162  -0.83949  -0.75165  -0.71198
 Alpha  occ. eigenvalues --   -0.69762  -0.66266  -0.60779  -0.59242  -0.58707
 Alpha  occ. eigenvalues --   -0.55004  -0.51629  -0.50652  -0.49976  -0.46674
 Alpha  occ. eigenvalues --   -0.41625  -0.25989
 Alpha virt. eigenvalues --    0.02493   0.03396   0.03660   0.04865   0.06001
 Alpha virt. eigenvalues --    0.06576   0.06596   0.07260   0.07989   0.08810
 Alpha virt. eigenvalues --    0.11000   0.11699   0.12773   0.13966   0.14195

 Mulliken charges:
               1
     1  C    0.649982
     2  C   -0.348422
     3  C    0.979060
     4  N   -0.196119
     5  C    0.483962
     6  C    0.366221
     7  O   -0.854922
     8  H    0.014161
     9  H   -0.007133
    10  H   -0.032549
    11  H   -0.163799
    12  H   -0.185585
    13  H   -0.221269
    14  H    0.084510
    15  H   -0.256343
    16  H   -0.311753
 Sum of Mulliken charges =  -0.00000

 Dipole moment (field-independent basis, Debye):
    X=              0.4757    Y=             -5.7565    Z=             -0.7261  Tot=              5.8216

 Test job not archived.
 1\1\GINC-SE042\SP\RHF\Aug-CC-pVDZ\C5H9N1O1\OHZDE\09-Apr-2025\0\\#t hf
 aug-cc-pvdz iop(5/13=1,5/36=2,99/5=2) pseudo=read geom=check guess=(re
 ad,tcheck) scf=(maxcycle=1)\\title\\0,1\C,0,2.17106386,-0.22504542,0.2
 8587066\C,0,0.84703133,0.35874631,-0.15002799\C,0,-0.09862426,-0.47282
 485,-1.04820625\N,0,-1.19420307,-0.10064162,-0.13483413\C,0,-2.4707652
 6,0.02218807,-0.28759277\C,0,-0.31745927,0.36380472,0.84058309\O,0,-0.
 73131809,1.31273259,1.75463759\H,0,2.03421183,-1.22756618,0.69755544\H
 ,0,2.61939079,0.39771345,1.06177244\H,0,2.8777328,-0.28566503,-0.54496

 Normal termination of Gaussian 16 at Wed Apr  9 16:48:59 2025.
