 Gaussian 16, Revision C.01,

 ----------------------------------------------------------------------
 #t hf aug-cc-pvdz symm=none int=(grid=ultrafine) guess=(read,tcheck) s
 table=(opt,rrhf)
 ----------------------------------------------------------------------
 -----
 title
 -----
 Symbolic Z-matrix:
 Charge =  0 Multiplicity = 1

 SCF Done:  E(RHF) =  -264.857674653     A.U. after   16 cycles
 Normal termination of Gaussian 16 at Wed Apr  9 03:07:56 2025.
 Gaussian 16:  ES64L-G16RevC.01  3-Jul-2019

 ----------------------------------------------------------------------
 #t hf aug-cc-pvdz iop(5/13=1,5/36=2,99/5=2) pseudo=read geom=check gue
 ss=(read,tcheck) scf=(maxcycle=1)
 ----------------------------------------------------------------------
 -----
 title
 -----
 Structure from the checkpoint file:  "Grambow2020_b97d3_006631_forward_mol1.chk"
 Charge =  0 Multiplicity = 1

                         Standard orientation:
 ---------------------------------------------------------------------
 Center     Atomic      Atomic             Coordinates (Angstroms)
 Number     Number       Type             X           Y           Z
 ---------------------------------------------------------------------
      1          6           0       -1.641911   -0.873217    0.059627
      2          6           0       -0.202098   -1.152535   -0.116604
      3          6           0        0.768869    0.011766    0.361923
      4          7           0        2.109531   -0.202080   -0.143425
      5          6           0        0.061986    1.338305    0.033604
      6          7           0       -1.151181    1.339962   -0.128477
      7          1           0       -2.062159   -0.975441    1.063314
      8          1           0       -2.320973   -1.163807   -0.744991
      9          1           0       -2.115974    1.143977   -0.349693
     10          1           0        0.136221   -2.019291    0.472367
     11          1           0        0.035973   -1.355484   -1.171434
     12          1           0        0.818766    0.004148    1.464328
     13          1           0        2.124590   -0.008932   -1.148137
     14          1           0        2.754033    0.463738    0.286259
 ---------------------------------------------------------------------

 SCF Done:  E(RHF) =  -264.937189695     A.U. after    2 cycles

 The electronic state is 1-A.
 Alpha  occ. eigenvalues --  -15.68042 -15.62093 -11.29608 -11.28518 -11.25440
 Alpha  occ. eigenvalues --  -11.24347  -1.21644  -1.15897  -1.02429  -0.92505
 Alpha  occ. eigenvalues --   -0.82444  -0.80168  -0.68544  -0.64899  -0.62890
 Alpha  occ. eigenvalues --   -0.57285  -0.56220  -0.53114  -0.50644  -0.47118
 Alpha  occ. eigenvalues --   -0.44543  -0.41209  -0.25873
 Alpha virt. eigenvalues --    0.03421   0.03902   0.04148   0.05122   0.06022
 Alpha virt. eigenvalues --    0.06623   0.07080   0.07963   0.09300   0.10278
 Alpha virt. eigenvalues --    0.11856   0.13272   0.13632   0.14398   0.14688

 Mulliken charges:
               1
     1  C    0.614967
     2  C    0.090396
     3  C    0.380645
     4  N   -0.429835
     5  C   -0.156951
     6  N   -0.150804
     7  H   -0.211086
     8  H   -0.232327
     9  H    0.149720
    10  H    0.049304
    11  H   -0.120111
    12  H   -0.059867
    13  H    0.040043
    14  H    0.035906
 Sum of Mulliken charges =  -0.00000

 Dipole moment (field-independent basis, Debye):
    X=             -1.0434    Y=             -0.6157    Z=             -0.3198  Tot=              1.2531

 Test job not archived.
 1\1\GINC-SE042\SP\RHF\Aug-CC-pVDZ\C4H8N2\OHZDE\09-Apr-2025\0\\#t hf au
 g-cc-pvdz iop(5/13=1,5/36=2,99/5=2) pseudo=read geom=check guess=(read
 ,tcheck) scf=(maxcycle=1)\\title\\0,1\C,0,-1.65887831,0.21889328,0.248
 73889\C,0,-0.50989328,-0.70938181,0.23212321\C,0,0.91684761,-0.0088212
 4,0.2635247\N,0,1.9572669,-0.95452248,-0.08527322\C,0,0.79151447,1.284
 049,-0.56107242\N,0,-0.31888761,1.7643777,-0.74638228\H,0,-1.93500115,
 0.6716333,1.20436793\H,0,-2.50459946,-0.00311908,-0.40581839\H,0,-1.29
 778408,1.95105558,-0.90476731\H,0,-0.48524671,-1.36840562,1.11399141\H

 Normal termination of Gaussian 16 at Wed Apr  9 03:08:00 2025.
