 Gaussian 16, Revision C.01,

 ----------------------------------------------------------------------
 #t hf aug-cc-pvdz symm=none int=(grid=ultrafine) guess=(read,tcheck) s
 table=(opt,rrhf)
 ----------------------------------------------------------------------
 -----
 title
 -----
 Symbolic Z-matrix:
 Charge =  0 Multiplicity = 1

 SCF Done:  E(RHF) =  -375.762789421     A.U. after   14 cycles
 Normal termination of Gaussian 16 at Wed Apr  9 16:10:58 2025.
 Gaussian 16:  ES64L-G16RevC.01  3-Jul-2019

 ----------------------------------------------------------------------
 #t hf aug-cc-pvdz iop(5/13=1,5/36=2,99/5=2) pseudo=read geom=check gue
 ss=(read,tcheck) scf=(maxcycle=1)
 ----------------------------------------------------------------------
 -----
 title
 -----
 Structure from the checkpoint file:  "Grambow2020_wb97xd3_007917_reverse_mol2.chk"
 Charge =  0 Multiplicity = 1

                         Standard orientation:
 ---------------------------------------------------------------------
 Center     Atomic      Atomic             Coordinates (Angstroms)
 Number     Number       Type             X           Y           Z
 ---------------------------------------------------------------------
      1          6           0        2.693061   -0.291448    0.065758
      2          8           0        1.396491   -0.655237   -0.335366
      3          6           0        0.381421    0.074662    0.303657
      4          7           0        0.283292    1.455216   -0.071732
      5          7           0       -0.826197   -0.626405   -0.022159
      6          6           0       -1.978790   -0.283604    0.004584
      7          8           0       -3.119974   -0.066906   -0.006397
      8          1           0        3.376928   -1.007808   -0.384996
      9          1           0        2.803853   -0.335708    1.157288
     10          1           0        2.967605    0.713352   -0.276864
     11          1           0        1.016152    2.013761    0.340622
     12          1           0        0.544891    0.036772    1.390065
     13          1           0        0.304617    1.557439   -1.078770
 ---------------------------------------------------------------------

 SCF Done:  E(RHF) =  -375.883750142     A.U. after    2 cycles

 The electronic state is 1-A.
 Alpha  occ. eigenvalues --  -20.62576 -20.59017 -15.64562 -15.63429 -11.41691
 Alpha  occ. eigenvalues --  -11.39251 -11.29957  -1.43292  -1.37790  -1.24842
 Alpha  occ. eigenvalues --   -1.16143  -0.98826  -0.89284  -0.77457  -0.73956
 Alpha  occ. eigenvalues --   -0.71652  -0.71038  -0.66012  -0.65684  -0.64205
 Alpha  occ. eigenvalues --   -0.61438  -0.58136  -0.52957  -0.47985  -0.46586
 Alpha  occ. eigenvalues --   -0.43030  -0.42670
 Alpha virt. eigenvalues --    0.02652   0.03891   0.04409   0.05314   0.06978
 Alpha virt. eigenvalues --    0.07176   0.08644   0.09635   0.11004   0.12280
 Alpha virt. eigenvalues --    0.13442   0.13986   0.14727   0.15974   0.16396

 Mulliken charges:
               1
     1  C    0.734199
     2  O   -0.656445
     3  C    1.625290
     4  N   -0.408737
     5  N   -0.219914
     6  C   -0.243738
     7  O   -0.190611
     8  H   -0.249921
     9  H   -0.036149
    10  H   -0.097271
    11  H    0.034280
    12  H   -0.292921
    13  H    0.001939
 Sum of Mulliken charges =  -0.00000

 Dipole moment (field-independent basis, Debye):
    X=              4.3112    Y=              1.7697    Z=              0.9174  Tot=              4.7497

 Test job not archived.
 1\1\GINC-SE043\SP\RHF\Aug-CC-pVDZ\C3H6N2O2\OHZDE\09-Apr-2025\0\\#t hf
 aug-cc-pvdz iop(5/13=1,5/36=2,99/5=2) pseudo=read geom=check guess=(re
 ad,tcheck) scf=(maxcycle=1)\\title\\0,1\C,0,-1.7842457,-0.09388917,-0.
 76256056\O,0,-1.1091148,0.05908464,0.46019573\C,0,0.24725451,-0.299755
 99,0.4057443\N,0,1.08892733,0.57950837,-0.35251281\N,0,0.66388801,-0.3
 4285739,1.77707617\C,0,1.75548048,-0.2984267,2.2802176\O,0,2.75286756,
 -0.26802042,2.87492181\H,0,-2.84033094,0.07860106,-0.56518802\H,0,-1.6
 6112171,-1.10762674,-1.16610479\H,0,-1.4493069,0.62935195,-1.51563803\

 Normal termination of Gaussian 16 at Wed Apr  9 16:11:04 2025.
