 Gaussian 16, Revision C.01,

 ----------------------------------------------------------------------
 #t hf aug-cc-pvdz symm=none int=(grid=ultrafine) guess=(read,tcheck) s
 table=(opt,rrhf)
 ----------------------------------------------------------------------
 -----
 title
 -----
 Symbolic Z-matrix:
 Charge =  0 Multiplicity = 1

 SCF Done:  E(RHF) =  -343.560637037     A.U. after   16 cycles
 Normal termination of Gaussian 16 at Wed Apr  9 15:38:09 2025.
 Gaussian 16:  ES64L-G16RevC.01  3-Jul-2019

 ----------------------------------------------------------------------
 #t hf aug-cc-pvdz iop(5/13=1,5/36=2,99/5=2) pseudo=read geom=check gue
 ss=(read,tcheck) scf=(maxcycle=1)
 ----------------------------------------------------------------------
 -----
 title
 -----
 Structure from the checkpoint file:  "Grambow2020_wb97xd3_007218_reverse_mol1.chk"
 Charge =  0 Multiplicity = 1

                         Standard orientation:
 ---------------------------------------------------------------------
 Center     Atomic      Atomic             Coordinates (Angstroms)
 Number     Number       Type             X           Y           Z
 ---------------------------------------------------------------------
      1          8           0        2.287190   -0.068374   -0.509544
      2          6           0        1.596004   -0.932038    0.058250
      3          6           0       -0.207641    0.080092    1.018352
      4          6           0       -0.210230    1.367511    0.482265
      5          6           0       -1.099242    0.997771   -0.705085
      6          6           0       -1.168362   -0.379622   -0.005699
      7          8           0       -1.816947   -1.367022   -0.197634
      8          1           0        1.710818    1.210842   -0.396458
      9          1           0        1.864353   -1.276219    1.063551
     10          1           0        0.935796   -1.584897   -0.523365
     11          1           0        0.003363   -0.267599    2.019899
     12          1           0       -0.162641    2.314846    1.004297
     13          1           0        1.109911    1.762905   -0.161430
     14          1           0       -0.622687    1.016549   -1.686426
     15          1           0       -2.064033    1.504459   -0.751146
 ---------------------------------------------------------------------

 SCF Done:  E(RHF) =  -343.669132403     A.U. after    2 cycles

 The electronic state is 1-A.
 Alpha  occ. eigenvalues --  -20.58943 -20.55704 -11.35935 -11.34871 -11.32227
 Alpha  occ. eigenvalues --  -11.26844 -11.25354  -1.36514  -1.35561  -1.17173
 Alpha  occ. eigenvalues --   -0.93982  -0.89687  -0.86164  -0.73265  -0.72188
 Alpha  occ. eigenvalues --   -0.69975  -0.69420  -0.65563  -0.64036  -0.60997
 Alpha  occ. eigenvalues --   -0.57138  -0.54410  -0.53192  -0.47466  -0.46418
 Alpha  occ. eigenvalues --   -0.41997  -0.36566
 Alpha virt. eigenvalues --    0.02731   0.03694   0.04641   0.05049   0.06001
 Alpha virt. eigenvalues --    0.06609   0.07563   0.08556   0.09852   0.10280
 Alpha virt. eigenvalues --    0.11211   0.11476   0.12579   0.12944   0.13645

 Mulliken charges:
               1
     1  O   -0.590272
     2  C    0.741890
     3  C    0.329931
     4  C   -0.119465
     5  C    0.398172
     6  C    0.314243
     7  O   -0.513939
     8  H   -0.167288
     9  H   -0.108896
    10  H   -0.135773
    11  H   -0.334230
    12  H   -0.218176
    13  H    0.582375
    14  H   -0.131434
    15  H   -0.047138
 Sum of Mulliken charges =  -0.00000

 Dipole moment (field-independent basis, Debye):
    X=              0.6572    Y=              2.7124    Z=              1.8250  Tot=              3.3347

 Test job not archived.
 1\1\GINC-SE009\SP\RHF\Aug-CC-pVDZ\C5H8O2\OHZDE\09-Apr-2025\0\\#t hf au
 g-cc-pvdz iop(5/13=1,5/36=2,99/5=2) pseudo=read geom=check guess=(read
 ,tcheck) scf=(maxcycle=1)\\title\\0,1\O,0,2.07664924,0.16832093,-0.957
 54607\C,0,1.69865265,-0.82985226,-0.31972839\C,0,-0.15580096,-0.276413
 99,0.88610895\C,0,-0.54386403,0.96301046,0.37809371\C,0,-1.46318943,0.
 36910085,-0.68912685\C,0,-1.10055144,-0.97269102,-0.0114699\O,0,-1.507
 03948,-2.09165806,-0.13451288\H,0,1.22459917,1.26883098,-0.74713455\H,
 0,2.17265145,-1.0828117,0.63548854\H,0,1.14794536,-1.63315222,-0.82153

 Normal termination of Gaussian 16 at Wed Apr  9 15:38:14 2025.
