 Gaussian 16, Revision C.01,

 ----------------------------------------------------------------------
 #t hf aug-cc-pvdz symm=none int=(grid=ultrafine) guess=(read,tcheck) s
 table=(opt,rrhf)
 ----------------------------------------------------------------------
 -----
 title
 -----
 Symbolic Z-matrix:
 Charge =  0 Multiplicity = 1

 SCF Done:  E(RHF) =  -338.539130861     A.U. after   16 cycles
 Normal termination of Gaussian 16 at Wed Apr  9 16:33:00 2025.
 Gaussian 16:  ES64L-G16RevC.01  3-Jul-2019

 ----------------------------------------------------------------------
 #t hf aug-cc-pvdz iop(5/13=1,5/36=2,99/5=2) pseudo=read geom=check gue
 ss=(read,tcheck) scf=(maxcycle=1)
 ----------------------------------------------------------------------
 -----
 title
 -----
 Structure from the checkpoint file:  "Grambow2020_wb97xd3_008560_reverse_mol2.chk"
 Charge =  0 Multiplicity = 1

                         Standard orientation:
 ---------------------------------------------------------------------
 Center     Atomic      Atomic             Coordinates (Angstroms)
 Number     Number       Type             X           Y           Z
 ---------------------------------------------------------------------
      1          7           0       -0.059111   -0.914564   -0.416555
      2          6           0        1.046326   -0.930544    0.424653
      3          8           0        1.929923    0.019677    0.347582
      4          6           0        1.969317    1.055868   -0.416868
      5          6           0       -1.889956    0.648057    0.756332
      6          6           0       -1.169140   -0.193517   -0.149751
      7          7           0       -2.275834    0.134948   -0.634421
      8          1           0       -0.017453   -1.353223   -1.327361
      9          1           0        1.249405   -1.685123    1.163367
     10          1           0        1.174223    1.240307   -1.124139
     11          1           0        2.822258    1.694854   -0.267119
     12          1           0       -2.418779    0.220368    1.604243
     13          1           0       -1.643711    1.703534    0.840985
 ---------------------------------------------------------------------

 SCF Done:  E(RHF) =  -338.642844939     A.U. after    2 cycles

 The electronic state is 1-A.
 Alpha  occ. eigenvalues --  -20.73096 -15.68014 -15.62181 -11.33351 -11.32872
 Alpha  occ. eigenvalues --  -11.31157 -11.27533  -1.49193  -1.29415  -1.21339
 Alpha  occ. eigenvalues --   -1.04992  -0.88426  -0.85228  -0.79973  -0.77806
 Alpha  occ. eigenvalues --   -0.75673  -0.67855  -0.65066  -0.63830  -0.63423
 Alpha  occ. eigenvalues --   -0.56867  -0.52074  -0.50661  -0.39924  -0.36819
 Alpha  occ. eigenvalues --   -0.26880
 Alpha virt. eigenvalues --    0.03023   0.03373   0.03993   0.04892   0.05614
 Alpha virt. eigenvalues --    0.06386   0.07499   0.09519   0.10444   0.11063
 Alpha virt. eigenvalues --    0.12318   0.13793   0.14118   0.14607   0.15217

 Mulliken charges:
               1
     1  N   -0.155088
     2  C    0.677387
     3  O   -0.176823
     4  C    0.715623
     5  C    0.930245
     6  C   -0.026684
     7  N   -0.556829
     8  H    0.011869
     9  H   -0.404558
    10  H   -0.236657
    11  H   -0.345668
    12  H   -0.200727
    13  H   -0.232089
 Sum of Mulliken charges =  -0.00000

 Dipole moment (field-independent basis, Debye):
    X=              2.8280    Y=             -0.3639    Z=              0.5002  Tot=              2.8949

 Test job not archived.
 1\1\GINC-SE226\SP\RHF\Aug-CC-pVDZ\C4H6N2O1\OHZDE\09-Apr-2025\0\\#t hf
 aug-cc-pvdz iop(5/13=1,5/36=2,99/5=2) pseudo=read geom=check guess=(re
 ad,tcheck) scf=(maxcycle=1)\\title\\0,1\N,0,-0.53106883,0.7781703,-0.4
 9802042\C,0,-1.38872689,-0.04348186,0.22252514\O,0,-1.31077631,-1.3340
 2003,0.08821692\C,0,-0.52058405,-2.04624199,-0.63839453\C,0,1.73783024
 ,0.94124374,0.9144048\C,0,0.72602971,1.05682308,-0.09143367\N,0,1.7733
 9664,1.64394126,-0.44623081\H,0,-0.78463136,1.09922983,-1.42341311\H,0
 ,-2.1421359,0.30029128,0.90847237\H,0,0.23023024,-1.57069036,-1.252033

 Normal termination of Gaussian 16 at Wed Apr  9 16:33:04 2025.
