 Gaussian 16, Revision C.01,

 ----------------------------------------------------------------------
 #t hf aug-cc-pvdz symm=none int=(grid=ultrafine) guess=(read,tcheck) s
 table=(opt,rrhf)
 ----------------------------------------------------------------------
 -----
 title
 -----
 Symbolic Z-matrix:
 Charge =  0 Multiplicity = 1

 SCF Done:  E(RHF) =  -338.687638999     A.U. after   14 cycles
 Normal termination of Gaussian 16 at Wed Apr  9 03:46:26 2025.
 Gaussian 16:  ES64L-G16RevC.01  3-Jul-2019

 ----------------------------------------------------------------------
 #t hf aug-cc-pvdz iop(5/13=1,5/36=2,99/5=2) pseudo=read geom=check gue
 ss=(read,tcheck) scf=(maxcycle=1)
 ----------------------------------------------------------------------
 -----
 title
 -----
 Structure from the checkpoint file:  "Grambow2020_wb97xd3_007965_reverse_mol2.chk"
 Charge =  0 Multiplicity = 1

                         Standard orientation:
 ---------------------------------------------------------------------
 Center     Atomic      Atomic             Coordinates (Angstroms)
 Number     Number       Type             X           Y           Z
 ---------------------------------------------------------------------
      1          7           0        1.104976    1.722021    0.156669
      2          6           0        0.928007    0.497295    0.068678
      3          8           0        1.859836   -0.538274   -0.236876
      4          6           0        0.755731   -1.397767   -0.099331
      5          6           0       -0.173918   -0.489565    0.195299
      6          6           0       -1.630285   -0.382571    0.486934
      7          7           0       -2.384244    0.455974   -0.436856
      8          1           0        2.073994    1.979423   -0.017487
      9          1           0       -2.262208    0.132005   -1.387476
     10          1           0        0.866565   -2.463238   -0.233842
     11          1           0       -1.769362    0.023109    1.492119
     12          1           0       -2.067407   -1.383398    0.496221
     13          1           0       -2.042604    1.407983   -0.402710
 ---------------------------------------------------------------------

 SCF Done:  E(RHF) =  -338.791292024     A.U. after    2 cycles

 The electronic state is 1-A.
 Alpha  occ. eigenvalues --  -20.61620 -15.62832 -15.61428 -11.36868 -11.33957
 Alpha  occ. eigenvalues --  -11.28527 -11.26246  -1.41883  -1.19402  -1.16606
 Alpha  occ. eigenvalues --   -1.06181  -0.91843  -0.87942  -0.74003  -0.70143
 Alpha  occ. eigenvalues --   -0.69578  -0.67370  -0.65641  -0.60444  -0.58796
 Alpha  occ. eigenvalues --   -0.55794  -0.52487  -0.45457  -0.45065  -0.40790
 Alpha  occ. eigenvalues --   -0.36714
 Alpha virt. eigenvalues --    0.02958   0.04355   0.04462   0.04762   0.06210
 Alpha virt. eigenvalues --    0.07811   0.08203   0.09780   0.10862   0.11465
 Alpha virt. eigenvalues --    0.12461   0.13075   0.13867   0.14996   0.15152

 Mulliken charges:
               1
     1  N   -0.356552
     2  C    0.267126
     3  O   -0.712517
     4  C    0.859390
     5  C   -0.089489
     6  C    0.701208
     7  N   -0.426689
     8  H    0.035532
     9  H    0.035266
    10  H   -0.256305
    11  H   -0.009695
    12  H   -0.080731
    13  H    0.033456
 Sum of Mulliken charges =  -0.00000

 Dipole moment (field-independent basis, Debye):
    X=              0.1736    Y=             -2.0847    Z=             -0.4119  Tot=              2.1321

 Test job not archived.
 1\1\GINC-SE459\SP\RHF\Aug-CC-pVDZ\C4H6N2O1\OHZDE\09-Apr-2025\0\\#t hf
 aug-cc-pvdz iop(5/13=1,5/36=2,99/5=2) pseudo=read geom=check guess=(re
 ad,tcheck) scf=(maxcycle=1)\\title\\0,1\N,0,1.76865228,-1.13077644,-1.
 07654706\C,0,1.26832405,-0.04819375,-0.73493239\O,0,1.87670242,1.23478
 193,-0.60106463\C,0,0.59482469,1.66106872,-0.21149822\C,0,-0.04694317,
 0.49777228,-0.31522098\C,0,-1.39543547,-0.09821718,-0.10577309\N,0,-1.
 44675797,-1.18011435,0.86986204\H,0,2.76006717,-1.04133233,-1.28791846
 \H,0,-1.0826348,-0.86924178,1.7610974\H,0,0.41261007,2.69283375,0.0490

 Normal termination of Gaussian 16 at Wed Apr  9 03:46:30 2025.
