 Gaussian 16, Revision C.01,

 ----------------------------------------------------------------------
 #t hf aug-cc-pvdz symm=none int=(grid=ultrafine) guess=(read,tcheck) s
 table=(opt,rrhf)
 ----------------------------------------------------------------------
 -----
 title
 -----
 Symbolic Z-matrix:
 Charge =  0 Multiplicity = 1

 SCF Done:  E(RHF) =  -324.988987331     A.U. after   15 cycles
 Normal termination of Gaussian 16 at Wed Apr  9 16:26:22 2025.
 Gaussian 16:  ES64L-G16RevC.01  3-Jul-2019

 ----------------------------------------------------------------------
 #t hf aug-cc-pvdz iop(5/13=1,5/36=2,99/5=2) pseudo=read geom=check gue
 ss=(read,tcheck) scf=(maxcycle=1)
 ----------------------------------------------------------------------
 -----
 title
 -----
 Structure from the checkpoint file:  "Grambow2020_wb97xd3_008229_forward_mol1.chk"
 Charge =  0 Multiplicity = 1

                         Standard orientation:
 ---------------------------------------------------------------------
 Center     Atomic      Atomic             Coordinates (Angstroms)
 Number     Number       Type             X           Y           Z
 ---------------------------------------------------------------------
      1          6           0        2.014743    1.208401   -0.262133
      2          6           0        1.972834   -0.309490   -0.368002
      3          6           0        1.034357   -0.980963    0.569489
      4          7           0       -0.682004    0.265827    1.159083
      5          6           0       -1.256538   -0.062502    0.047707
      6          8           0       -0.619910   -0.841961   -0.711608
      7          6           0       -2.612391    0.427172   -0.392923
      8          1           0        2.801385    1.615413   -0.899204
      9          1           0        1.061976    1.636377   -0.572272
     10          1           0        2.204421    1.528813    0.764097
     11          1           0        1.775253   -0.620951   -1.391845
     12          1           0        2.958290   -0.713726   -0.086444
     13          1           0        0.812549   -2.021304    0.381056
     14          1           0        1.206704   -0.766592    1.612506
     15          1           0       -1.161092    0.909043    1.776763
     16          1           0       -2.506173    0.963139   -1.336501
     17          1           0       -3.079405    1.080321    0.341766
     18          1           0       -3.258628   -0.431347   -0.575469
 ---------------------------------------------------------------------

 SCF Done:  E(RHF) =  -325.092506191     A.U. after    2 cycles

 The electronic state is 1-A.
 Alpha  occ. eigenvalues --  -20.50959 -15.56947 -11.34793 -11.31834 -11.25185
 Alpha  occ. eigenvalues --  -11.22888 -11.22692  -1.31279  -1.10810  -1.07670
 Alpha  occ. eigenvalues --   -0.97030  -0.93643  -0.81422  -0.73242  -0.68233
 Alpha  occ. eigenvalues --   -0.65085  -0.62723  -0.60597  -0.58870  -0.58040
 Alpha  occ. eigenvalues --   -0.54712  -0.52555  -0.51555  -0.50493  -0.49733
 Alpha  occ. eigenvalues --   -0.41345  -0.39160  -0.35759
 Alpha virt. eigenvalues --    0.03248   0.04033   0.04446   0.04715   0.06230
 Alpha virt. eigenvalues --    0.06554   0.06840   0.07247   0.07483   0.08409
 Alpha virt. eigenvalues --    0.09553   0.10112   0.12081   0.13581   0.14141

 Mulliken charges:
               1
     1  C    0.429725
     2  C    0.180022
     3  C    0.766301
     4  N   -0.330525
     5  C    0.011826
     6  O   -0.730675
     7  C    0.528327
     8  H   -0.065569
     9  H   -0.074264
    10  H   -0.098032
    11  H   -0.134258
    12  H    0.034300
    13  H   -0.118944
    14  H   -0.199834
    15  H   -0.103149
    16  H    0.008121
    17  H   -0.105292
    18  H    0.001920
 Sum of Mulliken charges =  -0.00000

 Dipole moment (field-independent basis, Debye):
    X=              1.6297    Y=              0.6496    Z=              1.4089  Tot=              2.2500

 Test job not archived.
 1\1\GINC-SE087\SP\RHF\Aug-CC-pVDZ\C5H11N1O1\OHZDE\09-Apr-2025\0\\#t hf
  aug-cc-pvdz iop(5/13=1,5/36=2,99/5=2) pseudo=read geom=check guess=(r
 ead,tcheck) scf=(maxcycle=1)\\title\\0,1\C,0,-1.9914244,-0.18104179,-0
 .67571738\C,0,-1.61179929,1.04162225,0.14764972\C,0,-0.68678496,0.7758
 6831,1.28088833\N,0,0.62733039,-0.96335975,0.97074769\C,0,1.40350522,-
 0.20604035,0.26571918\O,0,1.05691315,0.99932938,0.13777346\C,0,2.66996
 75,-0.66861749,-0.40834934\H,0,-2.75352698,0.07513647,-1.4132111\H,0,-
 1.11935239,-0.57053558,-1.20002516\H,0,-2.38207377,-0.97959499,-0.0420

 Normal termination of Gaussian 16 at Wed Apr  9 16:26:30 2025.
