 Gaussian 16, Revision C.01,

 ----------------------------------------------------------------------
 #t hf aug-cc-pvdz symm=none int=(grid=ultrafine) guess=(read,tcheck) s
 table=(opt,rrhf)
 ----------------------------------------------------------------------
 -----
 title
 -----
 Symbolic Z-matrix:
 Charge =  0 Multiplicity = 1

 SCF Done:  E(RHF) =  -269.845546465     A.U. after   15 cycles

 1\1\GINC-SE069\Stability\RHF\Aug-CC-pVDZ\C5H10O1\OHZDE\09-Apr-2025\0\\
 #t hf aug-cc-pvdz symm=none int=(grid=ultrafine) guess=(read,tcheck) s
 table=(opt,rrhf)\\title\\0,1\C,0,-0.93752875,0.86196366,0.50343263\C,0
 ,-0.93460534,-0.20327256,-0.60340026\C,0,0.30762285,-1.1228272,-0.4993
 2563\C,0,1.50540373,-0.40016714,0.17307877\C,0,1.69312037,1.01495471,-
 0.26724727\O,0,0.74786383,1.80809415,-0.3523192\H,0,-2.45068139,0.1442
 3188,1.58595946\H,0,-1.61416742,0.36438086,1.60431775\H,0,-1.59693436,
 1.70154594,0.21506129\H,0,-1.85273465,-0.80616734,-0.5476703\H,0,-0.96

 Normal termination of Gaussian 16 at Wed Apr  9 03:08:02 2025.
 Gaussian 16:  ES64L-G16RevC.01  3-Jul-2019

 ----------------------------------------------------------------------
 #t hf aug-cc-pvdz iop(5/13=1,5/36=2,99/5=2) pseudo=read geom=check gue
 ss=(read,tcheck) scf=(maxcycle=1)
 ----------------------------------------------------------------------
 -----
 title
 -----
 Structure from the checkpoint file:  "Grambow2020_b97d3_006646_forward_mol1.chk"
 Charge =  0 Multiplicity = 1

                         Standard orientation:
 ---------------------------------------------------------------------
 Center     Atomic      Atomic             Coordinates (Angstroms)
 Number     Number       Type             X           Y           Z
 ---------------------------------------------------------------------
      1          6           0        1.121637   -0.914653    0.412055
      2          6           0        1.263905    0.260700   -0.566782
      3          6           0        0.287526    1.410594   -0.214686
      4          6           0       -0.977187    0.889128    0.518538
      5          6           0       -1.532303   -0.378930   -0.043218
      6          8           0       -0.811803   -1.343424   -0.326854
      7          1           0        2.856327   -0.698239    1.371560
      8          1           0        1.997109   -0.728203    1.468540
      9          1           0        1.535453   -1.834047   -0.042196
     10          1           0        2.298848    0.632716   -0.560007
     11          1           0        1.085172   -0.079232   -1.596896
     12          1           0        0.773101    2.138784    0.450839
     13          1           0       -0.006230    1.954164   -1.124431
     14          1           0       -1.750407    1.661510    0.617900
     15          1           0       -0.644006    0.589954    1.531913
     16          1           0       -2.632413   -0.491045   -0.137834
 ---------------------------------------------------------------------

 SCF Done:  E(RHF) =  -269.929754113     A.U. after    2 cycles

 The electronic state is 1-A.
 Alpha  occ. eigenvalues --  -20.59328 -11.36374 -11.26035 -11.25735 -11.24864
 Alpha  occ. eigenvalues --  -11.23636  -1.36572  -1.07962  -1.00092  -0.89226
 Alpha  occ. eigenvalues --   -0.82554  -0.74955  -0.70245  -0.67027  -0.62717
 Alpha  occ. eigenvalues --   -0.59775  -0.58418  -0.56476  -0.53333  -0.50600
 Alpha  occ. eigenvalues --   -0.48383  -0.47884  -0.44400  -0.31202
 Alpha virt. eigenvalues --    0.02866   0.04112   0.04573   0.05076   0.06341
 Alpha virt. eigenvalues --    0.06643   0.06926   0.07334   0.08015   0.09345
 Alpha virt. eigenvalues --    0.10571   0.11618   0.13405   0.14194   0.14523

 Mulliken charges:
               1
     1  C    0.153262
     2  C    0.101174
     3  C    0.060380
     4  C    0.078327
     5  C    0.511028
     6  O   -0.427889
     7  H   -0.276656
     8  H    0.387517
     9  H   -0.189716
    10  H   -0.061840
    11  H   -0.094253
    12  H   -0.063102
    13  H   -0.071770
    14  H   -0.139644
    15  H    0.218189
    16  H   -0.185006
 Sum of Mulliken charges =  -0.00000

 Dipole moment (field-independent basis, Debye):
    X=             -2.1655    Y=              2.8789    Z=             -0.6047  Tot=              3.6528

 Test job not archived.
 1\1\GINC-SE069\SP\RHF\Aug-CC-pVDZ\C5H10O1\OHZDE\09-Apr-2025\0\\#t hf a
 ug-cc-pvdz iop(5/13=1,5/36=2,99/5=2) pseudo=read geom=check guess=(rea
 d,tcheck) scf=(maxcycle=1)\\title\\0,1\C,0,-0.93752875,0.86196366,0.50
 343263\C,0,-0.93460534,-0.20327256,-0.60340026\C,0,0.30762285,-1.12282
 72,-0.49932563\C,0,1.50540373,-0.40016714,0.17307877\C,0,1.69312037,1.
 01495471,-0.26724727\O,0,0.74786383,1.80809415,-0.3523192\H,0,-2.45068
 139,0.14423188,1.58595946\H,0,-1.61416742,0.36438086,1.60431775\H,0,-1
 .59693436,1.70154594,0.21506129\H,0,-1.85273465,-0.80616734,-0.5476703

 Normal termination of Gaussian 16 at Wed Apr  9 03:08:07 2025.
