 Gaussian 16, Revision C.01,

 ----------------------------------------------------------------------
 #t hf aug-cc-pvdz symm=none int=(grid=ultrafine) guess=(read,tcheck) s
 table=(opt,rrhf)
 ----------------------------------------------------------------------
 -----
 title
 -----
 Symbolic Z-matrix:
 Charge =  0 Multiplicity = 1

 SCF Done:  E(RHF) =  -283.479876570     A.U. after   16 cycles
 Normal termination of Gaussian 16 at Wed Apr  9 03:20:54 2025.
 Gaussian 16:  ES64L-G16RevC.01  3-Jul-2019

 ----------------------------------------------------------------------
 #t hf aug-cc-pvdz iop(5/13=1,5/36=2,99/5=2) pseudo=read geom=check gue
 ss=(read,tcheck) scf=(maxcycle=1)
 ----------------------------------------------------------------------
 -----
 title
 -----
 Structure from the checkpoint file:  "Grambow2020_wb97xd3_006131_forward_mol1.chk"
 Charge =  0 Multiplicity = 1

                         Standard orientation:
 ---------------------------------------------------------------------
 Center     Atomic      Atomic             Coordinates (Angstroms)
 Number     Number       Type             X           Y           Z
 ---------------------------------------------------------------------
      1          7           0        2.630098    0.012211    0.171598
      2          6           0        1.518173   -0.016842   -0.103705
      3          6           0        0.123483   -0.054878   -0.488552
      4          6           0       -0.923758   -0.997370    0.105211
      5          8           0       -1.810718    0.047170    0.077418
      6          6           0       -0.880706    0.967411   -0.082733
      7          1           0        0.021091   -0.174009   -1.573859
      8          1           0       -0.336765   -0.267993    1.809650
      9          1           0       -1.274488   -1.949547   -0.274087
     10          1           0       -0.271341    0.520045    1.823048
     11          1           0       -1.086581    2.018751   -0.186603
 ---------------------------------------------------------------------

 SCF Done:  E(RHF) =  -283.569678529     A.U. after    2 cycles

 The electronic state is 1-A.
 Alpha  occ. eigenvalues --  -20.70824 -15.65379 -11.37260 -11.33040 -11.31700
 Alpha  occ. eigenvalues --  -11.30263  -1.50215  -1.21192  -1.09224  -0.98931
 Alpha  occ. eigenvalues --   -0.85638  -0.77442  -0.76494  -0.70714  -0.63814
 Alpha  occ. eigenvalues --   -0.60660  -0.57915  -0.55921  -0.53937  -0.47695
 Alpha  occ. eigenvalues --   -0.47275  -0.30769
 Alpha virt. eigenvalues --    0.02483   0.03510   0.04295   0.04880   0.06892
 Alpha virt. eigenvalues --    0.07916   0.08606   0.09888   0.10474   0.11637
 Alpha virt. eigenvalues --    0.12658   0.13828   0.14154   0.14528   0.14747

 Mulliken charges:
               1
     1  N   -0.085876
     2  C   -0.764058
     3  C    0.658248
     4  C    0.549221
     5  O   -0.476707
     6  C    0.505861
     7  H    0.024241
     8  H    0.133269
     9  H   -0.333416
    10  H    0.047272
    11  H   -0.258054
 Sum of Mulliken charges =   0.00000

 Dipole moment (field-independent basis, Debye):
    X=             -2.9572    Y=              0.9600    Z=             -2.6501  Tot=              4.0853

 Test job not archived.
 1\1\GINC-SE247\SP\RHF\Aug-CC-pVDZ\C4H5N1O1\OHZDE\09-Apr-2025\0\\#t hf
 aug-cc-pvdz iop(5/13=1,5/36=2,99/5=2) pseudo=read geom=check guess=(re
 ad,tcheck) scf=(maxcycle=1)\\title\\0,1\N,0,2.48432777,-0.90263185,1.0
 4511011\C,0,1.53216738,-0.70765982,0.43815948\C,0,0.34210253,-0.485991
 11,-0.3551395\C,0,-1.08936135,-0.53810399,0.17942086\O,0,-1.37447403,0
 .54281422,-0.61358606\C,0,-0.11059483,0.85419429,-0.82110949\H,0,0.333
 47948,-1.13819891,-1.23668217\H,0,-0.44956988,0.76170309,1.47666128\H,
 0,-1.79320611,-1.36133146,0.15898489\H,0,-0.02602937,1.35282352,1.1657

 Normal termination of Gaussian 16 at Wed Apr  9 03:20:57 2025.
