 Gaussian 16, Revision C.01,

 ----------------------------------------------------------------------
 #t hf aug-cc-pvdz symm=none int=(grid=ultrafine) guess=(read,tcheck) s
 table=(opt,rrhf)
 ----------------------------------------------------------------------
 -----
 title
 -----
 Symbolic Z-matrix:
 Charge =  0 Multiplicity = 1

 SCF Done:  E(RHF) =  -353.573415685     A.U. after   15 cycles
 Normal termination of Gaussian 16 at Wed Apr  9 03:46:13 2025.
 Gaussian 16:  ES64L-G16RevC.01  3-Jul-2019

 ----------------------------------------------------------------------
 #t hf aug-cc-pvdz iop(5/13=1,5/36=2,99/5=2) pseudo=read geom=check gue
 ss=(read,tcheck) scf=(maxcycle=1)
 ----------------------------------------------------------------------
 -----
 title
 -----
 Structure from the checkpoint file:  "Grambow2020_wb97xd3_007942_reverse_mol2.chk"
 Charge =  0 Multiplicity = 1

                         Standard orientation:
 ---------------------------------------------------------------------
 Center     Atomic      Atomic             Coordinates (Angstroms)
 Number     Number       Type             X           Y           Z
 ---------------------------------------------------------------------
      1          8           0       -2.253165   -0.042071   -0.002732
      2          6           0       -1.047512   -0.062342    0.000393
      3          6           0       -0.254593    1.188997    0.002047
      4          7           0        1.026178    1.233262    0.000014
      5          7           0        1.642060    0.038395   -0.002535
      6          6           0        0.972339   -1.131288    0.000287
      7          7           0       -0.305912   -1.246953    0.002776
      8          1           0        2.646162    0.074115   -0.002438
      9          1           0       -0.780002    2.136621    0.005766
     10          1           0        1.601466   -2.019307    0.000385
 ---------------------------------------------------------------------

 SCF Done:  E(RHF) =  -353.677151984     A.U. after    2 cycles

 The electronic state is 1-A.
 Alpha  occ. eigenvalues --  -20.55222 -15.74229 -15.72632 -15.64340 -11.38156
 Alpha  occ. eigenvalues --  -11.37497 -11.31586  -1.39037  -1.35449  -1.22446
 Alpha  occ. eigenvalues --   -1.15361  -0.94451  -0.91245  -0.81478  -0.77391
 Alpha  occ. eigenvalues --   -0.70906  -0.66213  -0.65492  -0.62264  -0.56283
 Alpha  occ. eigenvalues --   -0.53693  -0.48976  -0.47776  -0.41613  -0.38022
 Alpha virt. eigenvalues --    0.01567   0.03690   0.04713   0.06276   0.08133
 Alpha virt. eigenvalues --    0.09406   0.09910   0.10825   0.10851   0.12725
 Alpha virt. eigenvalues --    0.13299   0.13698   0.14355   0.14374   0.16128

 Mulliken charges:
               1
     1  O   -0.467571
     2  C    0.374262
     3  C    0.733553
     4  N   -0.391650
     5  N   -0.046473
     6  C    0.689843
     7  N   -0.421879
     8  H    0.012352
     9  H   -0.241910
    10  H   -0.240527
 Sum of Mulliken charges =  -0.00000

 Dipole moment (field-independent basis, Debye):
    X=              6.6081    Y=              0.3004    Z=              0.0049  Tot=              6.6149

 Test job not archived.
 1\1\GINC-SE424\SP\RHF\Aug-CC-pVDZ\C3H3N3O1\OHZDE\09-Apr-2025\0\\#t hf
 aug-cc-pvdz iop(5/13=1,5/36=2,99/5=2) pseudo=read geom=check guess=(re
 ad,tcheck) scf=(maxcycle=1)\\title\\0,1\O,0,2.05918371,-0.00397678,-1.
 51425704\C,0,1.07353585,-0.04007975,-0.82056091\C,0,0.66054662,1.12572
 685,-0.00514283\N,0,-0.37133085,1.14745794,0.75452475\N,0,-1.09266295,
 0.01332957,0.77589812\C,0,-0.76712557,-1.07599492,0.05195757\N,0,0.249
 18279,-1.16477571,-0.72685211\H,0,-1.90238119,0.0318955,1.37046412\H,0
 ,1.26173568,2.02631024,-0.04490538\H,0,-1.44366409,-1.92076994,0.16610

 Normal termination of Gaussian 16 at Wed Apr  9 03:46:17 2025.
