 Gaussian 16, Revision C.01,

 ----------------------------------------------------------------------
 #t hf aug-cc-pvdz symm=none int=(grid=ultrafine) guess=(read,tcheck) s
 table=(opt,rrhf)
 ----------------------------------------------------------------------
 -----
 title
 -----
 Symbolic Z-matrix:
 Charge =  0 Multiplicity = 1

 SCF Done:  E(RHF) =  -322.615344500     A.U. after   15 cycles
 Normal termination of Gaussian 16 at Wed Apr  9 16:06:05 2025.
 Gaussian 16:  ES64L-G16RevC.01  3-Jul-2019

 ----------------------------------------------------------------------
 #t hf aug-cc-pvdz iop(5/13=1,5/36=2,99/5=2) pseudo=read geom=check gue
 ss=(read,tcheck) scf=(maxcycle=1)
 ----------------------------------------------------------------------
 -----
 title
 -----
 Structure from the checkpoint file:  "Grambow2020_wb97xd3_007750_reverse_mol1.chk"
 Charge =  0 Multiplicity = 1

                         Standard orientation:
 ---------------------------------------------------------------------
 Center     Atomic      Atomic             Coordinates (Angstroms)
 Number     Number       Type             X           Y           Z
 ---------------------------------------------------------------------
      1          6           0       -2.463135   -0.362209    0.089677
      2          6           0       -0.993893   -0.152797   -0.016797
      3          6           0       -0.077462   -1.102355   -0.203159
      4          6           0        1.285704   -0.637994   -0.090469
      5          7           0        2.417900   -0.578601    0.281406
      6          8           0        0.913603    1.170096   -0.299250
      7          6           0       -0.403760    1.238897    0.122704
      8          1           0       -2.830224    0.011560    1.048962
      9          1           0       -2.980652    0.201652   -0.690346
     10          1           0       -2.736629   -1.412415    0.001082
     11          1           0       -0.266379   -2.163233   -0.282918
     12          1           0        1.983935    0.644560    0.256930
     13          1           0       -0.513333    1.560345    1.171049
     14          1           0       -0.975559    1.945718   -0.492331
 ---------------------------------------------------------------------

 SCF Done:  E(RHF) =  -322.712273171     A.U. after    2 cycles

 The electronic state is 1-A.
 Alpha  occ. eigenvalues --  -20.54117 -15.63355 -11.36911 -11.30127 -11.29499
 Alpha  occ. eigenvalues --  -11.27700 -11.26459  -1.32094  -1.21635  -1.12232
 Alpha  occ. eigenvalues --   -1.00217  -0.93060  -0.80667  -0.74798  -0.69006
 Alpha  occ. eigenvalues --   -0.66054  -0.62326  -0.59652  -0.59290  -0.57065
 Alpha  occ. eigenvalues --   -0.55663  -0.53389  -0.50995  -0.44837  -0.40147
 Alpha  occ. eigenvalues --   -0.37581
 Alpha virt. eigenvalues --    0.02578   0.03875   0.04536   0.04890   0.06690
 Alpha virt. eigenvalues --    0.07180   0.07596   0.09151   0.09852   0.10968
 Alpha virt. eigenvalues --    0.11276   0.12553   0.13659   0.13844   0.14202

 Mulliken charges:
               1
     1  C    0.499891
     2  C   -0.798431
     3  C    0.877140
     4  C    0.022586
     5  N   -0.577151
     6  O   -0.903834
     7  C    0.749714
     8  H    0.063865
     9  H    0.079706
    10  H   -0.110299
    11  H   -0.365685
    12  H    0.443637
    13  H    0.055395
    14  H   -0.036534
 Sum of Mulliken charges =  -0.00000

 Dipole moment (field-independent basis, Debye):
    X=             -4.7980    Y=             -1.0325    Z=              0.6500  Tot=              4.9507

 Test job not archived.
 1\1\GINC-SE042\SP\RHF\Aug-CC-pVDZ\C5H7N1O1\OHZDE\09-Apr-2025\0\\#t hf
 aug-cc-pvdz iop(5/13=1,5/36=2,99/5=2) pseudo=read geom=check guess=(re
 ad,tcheck) scf=(maxcycle=1)\\title\\0,1\C,0,-1.90951192,-0.20989516,-0
 .38472134\C,0,-0.43741409,-0.09901251,-0.19898681\C,0,0.47246736,-0.98
 941003,-0.59337746\C,0,1.81115874,-0.71229576,-0.12683393\N,0,2.869898
 58,-0.8857981,0.39532761\O,0,1.52388366,1.07302225,0.29901722\C,0,0.15
 798467,1.09368398,0.52730739\H,0,-2.41650559,-0.17947027,0.58312097\H,
 0,-2.2801626,0.63892814,-0.96464904\H,0,-2.19195994,-1.13024646,-0.893

 Normal termination of Gaussian 16 at Wed Apr  9 16:06:11 2025.
