 Gaussian 16, Revision C.01,

 ----------------------------------------------------------------------
 #t hf aug-cc-pvdz symm=none int=(grid=ultrafine) guess=(read,tcheck) s
 table=(opt,rrhf)
 ----------------------------------------------------------------------
 -----
 title
 -----
 Symbolic Z-matrix:
 Charge =  0 Multiplicity = 1

 SCF Done:  E(RHF) =  -306.523082045     A.U. after   16 cycles
 Normal termination of Gaussian 16 at Wed Apr  9 16:23:08 2025.
 Gaussian 16:  ES64L-G16RevC.01  3-Jul-2019

 ----------------------------------------------------------------------
 #t hf aug-cc-pvdz iop(5/13=1,5/36=2,99/5=2) pseudo=read geom=check gue
 ss=(read,tcheck) scf=(maxcycle=1)
 ----------------------------------------------------------------------
 -----
 title
 -----
 Structure from the checkpoint file:  "Grambow2020_wb97xd3_008179_reverse_mol1.chk"
 Charge =  0 Multiplicity = 1

                         Standard orientation:
 ---------------------------------------------------------------------
 Center     Atomic      Atomic             Coordinates (Angstroms)
 Number     Number       Type             X           Y           Z
 ---------------------------------------------------------------------
      1          6           0       -1.657650    0.092054    0.206185
      2          6           0       -0.834102    0.010966   -1.055487
      3          8           0        0.417370    1.494267   -0.235663
      4          6           0        0.833661    0.486068    0.630630
      5          6           0        1.468237   -0.638522   -0.210759
      6          6           0        0.023561   -1.094337   -0.416221
      7          6           0       -0.409094   -0.442507    0.923827
      8          1           0       -2.134497    1.036669    0.458887
      9          1           0       -2.394615   -0.718580    0.196979
     10          1           0       -0.097216    1.087216   -1.201511
     11          1           0        1.373540    0.927056    1.468627
     12          1           0        2.056693   -0.318800   -1.070781
     13          1           0        2.018875   -1.363579    0.390549
     14          1           0       -0.250243   -2.110134   -0.699845
     15          1           0       -0.459180   -0.976319    1.873349
 ---------------------------------------------------------------------

 SCF Done:  E(RHF) =  -306.610623622     A.U. after    2 cycles

 The electronic state is 1-A.
 Alpha  occ. eigenvalues --  -20.56210 -11.29524 -11.29486 -11.25664 -11.25079
 Alpha  occ. eigenvalues --  -11.25021 -11.23868  -1.32250  -1.16710  -1.03113
 Alpha  occ. eigenvalues --   -0.92095  -0.85263  -0.78923  -0.76383  -0.67531
 Alpha  occ. eigenvalues --   -0.65954  -0.62964  -0.61637  -0.55291  -0.53735
 Alpha  occ. eigenvalues --   -0.52773  -0.49701  -0.46001  -0.42979  -0.42211
 Alpha  occ. eigenvalues --   -0.35933
 Alpha virt. eigenvalues --    0.02919   0.04122   0.04316   0.04950   0.06217
 Alpha virt. eigenvalues --    0.06497   0.06601   0.06838   0.07957   0.11174
 Alpha virt. eigenvalues --    0.12208   0.12417   0.12873   0.13786   0.13821

 Mulliken charges:
               1
     1  C    0.811097
     2  C   -0.663063
     3  O   -0.868553
     4  C    0.727954
     5  C    0.731426
     6  C    0.277828
     7  C    0.179982
     8  H   -0.204508
     9  H   -0.059713
    10  H    0.449550
    11  H   -0.311505
    12  H   -0.166881
    13  H   -0.194297
    14  H   -0.332761
    15  H   -0.376557
 Sum of Mulliken charges =  -0.00000

 Dipole moment (field-independent basis, Debye):
    X=             -0.5687    Y=             -3.0020    Z=              1.3410  Tot=              3.3368

 Test job not archived.
 1\1\GINC-SE162\SP\RHF\Aug-CC-pVDZ\C6H8O1\OHZDE\09-Apr-2025\0\\#t hf au
 g-cc-pvdz iop(5/13=1,5/36=2,99/5=2) pseudo=read geom=check guess=(read
 ,tcheck) scf=(maxcycle=1)\\title\\0,1\C,0,-1.66128483,-0.05740698,-0.1
 803486\C,0,-0.87407313,-0.14879121,1.10361831\O,0,0.2222683,-1.7176777
 3,0.22321748\C,0,0.77970454,-0.71579622,-0.56781048\C,0,1.51350263,0.2
 7440354,0.35759286\C,0,0.12563649,0.88395866,0.55594281\C,0,-0.3371902
 9,0.3682555,-0.83245278\H,0,-2.23619489,-0.92270145,-0.50327729\H,0,-2
 .29925241,0.83229099,-0.13833609\H,0,-0.27186187,-1.31099643,1.1998424

 Normal termination of Gaussian 16 at Wed Apr  9 16:23:14 2025.
