 Gaussian 16, Revision C.01,

 ----------------------------------------------------------------------
 #t hf aug-cc-pvdz symm=none int=(grid=ultrafine) guess=(read,tcheck) s
 table=(opt,rrhf)
 ----------------------------------------------------------------------
 -----
 title
 -----
 Symbolic Z-matrix:
 Charge =  0 Multiplicity = 1

 SCF Done:  E(RHF) =  -332.447893463     A.U. after   16 cycles
 Normal termination of Gaussian 16 at Wed Apr  9 16:50:51 2025.
 Gaussian 16:  ES64L-G16RevC.01  3-Jul-2019

 ----------------------------------------------------------------------
 #t hf aug-cc-pvdz iop(5/13=1,5/36=2,99/5=2) pseudo=read geom=check gue
 ss=(read,tcheck) scf=(maxcycle=1)
 ----------------------------------------------------------------------
 -----
 title
 -----
 Structure from the checkpoint file:  "Grambow2020_wb97xd3_009009_reverse_mol1.chk"
 Charge =  0 Multiplicity = 1

                         Standard orientation:
 ---------------------------------------------------------------------
 Center     Atomic      Atomic             Coordinates (Angstroms)
 Number     Number       Type             X           Y           Z
 ---------------------------------------------------------------------
      1          7           0        2.892118    0.001377   -0.002051
      2          6           0        1.745767   -0.021221    0.000380
      3          6           0        0.317037    0.000355    0.009030
      4          6           0       -0.519949    1.104960    0.012870
      5          7           0       -1.768956    0.653872   -0.080199
      6          7           0       -1.665421   -0.760489   -0.079085
      7          7           0       -0.417208   -1.117921    0.022360
      8          1           0       -0.285344    2.156073    0.052534
      9          1           0       -2.255519   -0.098514    0.786616
 ---------------------------------------------------------------------

 SCF Done:  E(RHF) =  -332.538624608     A.U. after    2 cycles

 The electronic state is 1-A.
 Alpha  occ. eigenvalues --  -15.76633 -15.74121 -15.72620 -15.67264 -11.35646
 Alpha  occ. eigenvalues --  -11.33987 -11.31796  -1.44986  -1.23211  -1.21018
 Alpha  occ. eigenvalues --   -1.13635  -0.93908  -0.87231  -0.79390  -0.74129
 Alpha  occ. eigenvalues --   -0.68811  -0.59150  -0.57149  -0.54665  -0.54265
 Alpha  occ. eigenvalues --   -0.49763  -0.48421  -0.45946  -0.42150
 Alpha virt. eigenvalues --    0.02421   0.03595   0.06908   0.07069   0.07326
 Alpha virt. eigenvalues --    0.09318   0.09908   0.10465   0.11016   0.12366
 Alpha virt. eigenvalues --    0.13461   0.13672   0.13984   0.14727   0.16981

 Mulliken charges:
               1
     1  N   -0.055351
     2  C   -0.840717
     3  C    1.433660
     4  C    0.642048
     5  N   -0.551493
     6  N   -0.311037
     7  N   -0.528948
     8  H   -0.241178
     9  H    0.453015
 Sum of Mulliken charges =  -0.00000

 Dipole moment (field-independent basis, Debye):
    X=             -2.7073    Y=              2.4109    Z=              1.1982  Tot=              3.8181

 Test job not archived.
 1\1\GINC-SE454\SP\RHF\Aug-CC-pVDZ\C3H2N4\OHZDE\09-Apr-2025\0\\#t hf au
 g-cc-pvdz iop(5/13=1,5/36=2,99/5=2) pseudo=read geom=check guess=(read
 ,tcheck) scf=(maxcycle=1)\\title\\0,1\N,0,3.11596811,0.12706075,0.0273
 4312\C,0,1.97112428,0.17140509,0.0720888\C,0,0.5426993,0.18052116,0.10
 853967\C,0,-0.32505499,-0.86232412,-0.17463887\N,0,-1.55756874,-0.4316
 467,0.08533515\N,0,-1.41402155,0.9238899,0.47655415\N,0,-0.15960202,1.
 27142791,0.43492808\H,0,-0.12160443,-1.86432624,-0.51530243\H,0,-2.047
 30396,0.54301626,-0.51830968\\Version=ES64L-G16RevC.01\State=1-A\HF=-3

 Normal termination of Gaussian 16 at Wed Apr  9 16:50:54 2025.
