 Gaussian 16, Revision C.01,

 ----------------------------------------------------------------------
 #t hf aug-cc-pvdz symm=none int=(grid=ultrafine) guess=(read,tcheck) s
 table=(opt,rrhf)
 ----------------------------------------------------------------------
 -----
 title
 -----
 Symbolic Z-matrix:
 Charge =  0 Multiplicity = 1

 SCF Done:  E(RHF) =  -302.789688897     A.U. after   15 cycles
 Normal termination of Gaussian 16 at Wed Apr  9 15:32:02 2025.
 Gaussian 16:  ES64L-G16RevC.01  3-Jul-2019

 ----------------------------------------------------------------------
 #t hf aug-cc-pvdz iop(5/13=1,5/36=2,99/5=2) pseudo=read geom=check gue
 ss=(read,tcheck) scf=(maxcycle=1)
 ----------------------------------------------------------------------
 -----
 title
 -----
 Structure from the checkpoint file:  "Grambow2020_wb97xd3_006953_forward_mol1.chk"
 Charge =  0 Multiplicity = 1

                         Standard orientation:
 ---------------------------------------------------------------------
 Center     Atomic      Atomic             Coordinates (Angstroms)
 Number     Number       Type             X           Y           Z
 ---------------------------------------------------------------------
      1          6           0        0.700533    1.508867    0.326415
      2          6           0        0.699227    0.025663    0.060297
      3          6           0        1.934354   -0.490381   -0.636208
      4          7           0        0.147782   -0.879174    1.060129
      5          6           0       -0.572700   -0.727875   -0.170793
      6          6           0       -2.184401   -0.260497    0.045399
      7          7           0       -1.782467    0.567918   -0.700923
      8          1           0        0.719996    2.066820   -0.610557
      9          1           0        1.594343    1.768198    0.898823
     10          1           0       -0.175924    1.828982    0.886594
     11          1           0        2.819607   -0.273816   -0.034428
     12          1           0        1.880507   -1.568987   -0.780807
     13          1           0        2.055190   -0.009192   -1.608630
     14          1           0       -0.303734   -0.396225    1.827095
     15          1           0       -0.609277   -1.571653   -0.843190
 ---------------------------------------------------------------------

 SCF Done:  E(RHF) =  -302.876215647     A.U. after    2 cycles

 The electronic state is 1-A.
 Alpha  occ. eigenvalues --  -15.68548 -15.64975 -11.34947 -11.30587 -11.27914
 Alpha  occ. eigenvalues --  -11.24423 -11.24243  -1.30197  -1.23368  -1.03362
 Alpha  occ. eigenvalues --   -0.96057  -0.88616  -0.79538  -0.68458  -0.67428
 Alpha  occ. eigenvalues --   -0.65539  -0.61086  -0.59068  -0.56231  -0.54944
 Alpha  occ. eigenvalues --   -0.52651  -0.51408  -0.49318  -0.47123  -0.46139
 Alpha  occ. eigenvalues --   -0.38949
 Alpha virt. eigenvalues --    0.03223   0.03724   0.04742   0.04919   0.06487
 Alpha virt. eigenvalues --    0.07047   0.07530   0.07740   0.09492   0.09997
 Alpha virt. eigenvalues --    0.11101   0.12898   0.13351   0.14059   0.14486

 Mulliken charges:
               1
     1  C    0.797557
     2  C   -1.117466
     3  C    0.450872
     4  N   -0.697204
     5  C    1.125250
     6  C    0.079269
     7  N   -0.264372
     8  H    0.065541
     9  H    0.023052
    10  H   -0.078042
    11  H    0.041687
    12  H   -0.034806
    13  H    0.029646
    14  H    0.035002
    15  H   -0.455986
 Sum of Mulliken charges =   0.00000

 Dipole moment (field-independent basis, Debye):
    X=              2.3853    Y=              0.7627    Z=             -0.1287  Tot=              2.5076

 Test job not archived.
 1\1\GINC-SE113\SP\RHF\Aug-CC-pVDZ\C5H8N2\OHZDE\09-Apr-2025\0\\#t hf au
 g-cc-pvdz iop(5/13=1,5/36=2,99/5=2) pseudo=read geom=check guess=(read
 ,tcheck) scf=(maxcycle=1)\\title\\0,1\C,0,-0.63505365,1.30958864,-0.18
 272886\C,0,-0.2100534,-0.13213027,-0.07532011\C,0,-1.19149891,-1.02636
 993,0.64166155\N,0,0.47081178,-0.76194147,-1.19881665\C,0,1.23340612,-
 0.52065174,-0.00827667\C,0,2.63291934,0.39106296,-0.27827955\N,0,2.092
 77771,1.01032902,0.57587311\H,0,-0.71824545,1.75988848,0.80717803\H,0,
 -1.61415254,1.35827707,-0.66521688\H,0,0.06776405,1.90556072,-0.761793

 Normal termination of Gaussian 16 at Wed Apr  9 15:32:08 2025.
