 Gaussian 16, Revision C.01,

 ----------------------------------------------------------------------
 #t hf aug-cc-pvdz symm=none int=(grid=ultrafine) guess=(read,tcheck) s
 table=(opt,rrhf)
 ----------------------------------------------------------------------
 -----
 title
 -----
 Symbolic Z-matrix:
 Charge =  0 Multiplicity = 1

 SCF Done:  E(RHF) =  -323.912914964     A.U. after   13 cycles
 Normal termination of Gaussian 16 at Wed Apr  9 03:52:14 2025.
 Gaussian 16:  ES64L-G16RevC.01  3-Jul-2019

 ----------------------------------------------------------------------
 #t hf aug-cc-pvdz iop(5/13=1,5/36=2,99/5=2) pseudo=read geom=check gue
 ss=(read,tcheck) scf=(maxcycle=1)
 ----------------------------------------------------------------------
 -----
 title
 -----
 Structure from the checkpoint file:  "Grambow2020_wb97xd3_008322_reverse_mol2.chk"
 Charge =  0 Multiplicity = 1

                         Standard orientation:
 ---------------------------------------------------------------------
 Center     Atomic      Atomic             Coordinates (Angstroms)
 Number     Number       Type             X           Y           Z
 ---------------------------------------------------------------------
      1          7           0       -2.570888   -0.028292    0.326228
      2          6           0       -1.375489   -0.131408   -0.057856
      3          6           0       -0.541364    1.093406   -0.332541
      4          6           0        0.827157    1.109665    0.367588
      5          6           0        1.852697    0.233745   -0.289833
      6          6           0        2.447463   -0.807462    0.277783
      7          8           0       -0.790513   -1.336634   -0.268038
      8          1           0       -2.984542   -0.951225    0.444180
      9          1           0       -0.399357    1.178903   -1.415729
     10          1           0       -1.138373    1.946246   -0.017066
     11          1           0        0.711674    0.830690    1.418166
     12          1           0        1.195861    2.139072    0.353237
     13          1           0        0.153595   -1.237438   -0.444918
     14          1           0        2.108639    0.490827   -1.316451
     15          1           0        2.223985   -1.096461    1.299817
     16          1           0        3.186045   -1.397175   -0.251372
 ---------------------------------------------------------------------

 SCF Done:  E(RHF) =  -324.013445695     A.U. after    2 cycles

 The electronic state is 1-A.
 Alpha  occ. eigenvalues --  -20.60438 -15.59060 -11.34578 -11.26785 -11.26010
 Alpha  occ. eigenvalues --  -11.25662 -11.25516  -1.38007  -1.16248  -1.10296
 Alpha  occ. eigenvalues --   -1.02227  -0.90512  -0.80779  -0.78501  -0.72890
 Alpha  occ. eigenvalues --   -0.68004  -0.65361  -0.64104  -0.61193  -0.58213
 Alpha  occ. eigenvalues --   -0.56016  -0.53933  -0.51228  -0.50246  -0.42853
 Alpha  occ. eigenvalues --   -0.40567  -0.38773
 Alpha virt. eigenvalues --    0.02934   0.03985   0.04310   0.05102   0.06167
 Alpha virt. eigenvalues --    0.06354   0.07021   0.07448   0.08359   0.10125
 Alpha virt. eigenvalues --    0.11643   0.12740   0.13171   0.14425   0.14501

 Mulliken charges:
               1
     1  N   -0.368252
     2  C    0.701726
     3  C    0.097653
     4  C    0.055099
     5  C    0.512797
     6  C    0.578584
     7  O   -0.550251
     8  H   -0.002207
     9  H   -0.014806
    10  H   -0.091210
    11  H   -0.149609
    12  H    0.011218
    13  H    0.242387
    14  H   -0.394377
    15  H   -0.319307
    16  H   -0.309447
 Sum of Mulliken charges =  -0.00000

 Dipole moment (field-independent basis, Debye):
    X=              3.6093    Y=              0.4473    Z=             -0.6435  Tot=              3.6934

 Test job not archived.
 1\1\GINC-SE127\SP\RHF\Aug-CC-pVDZ\C5H9N1O1\OHZDE\09-Apr-2025\0\\#t hf
 aug-cc-pvdz iop(5/13=1,5/36=2,99/5=2) pseudo=read geom=check guess=(re
 ad,tcheck) scf=(maxcycle=1)\\title\\0,1\N,0,2.88404078,0.06398205,-0.1
 2909708\C,0,1.6460883,0.14902996,-0.34674781\C,0,0.74935688,-1.0535902
 7,-0.20195873\C,0,-0.49236472,-0.8278628,0.67580522\C,0,-1.58650422,-0
 .06398219,-0.01013533\C,0,-2.05909176,1.11285099,0.37944561\O,0,1.0651
 7674,1.30802366,-0.74451513\H,0,3.33362908,0.96292269,-0.29220502\H,0,
 0.43712188,-1.37417362,-1.20221206\H,0,1.36732592,-1.8468758,0.2128815

 Normal termination of Gaussian 16 at Wed Apr  9 03:52:19 2025.
