 Gaussian 16, Revision C.01,

 ----------------------------------------------------------------------
 #t hf aug-cc-pvdz symm=none int=(grid=ultrafine) guess=(read,tcheck) s
 table=(opt,rrhf)
 ----------------------------------------------------------------------
 -----
 title
 -----
 Symbolic Z-matrix:
 Charge =  0 Multiplicity = 1

 SCF Done:  E(RHF) =  -262.430155126     A.U. after   17 cycles
 Normal termination of Gaussian 16 at Wed Apr  9 14:16:01 2025.
 Gaussian 16:  ES64L-G16RevC.01  3-Jul-2019

 ----------------------------------------------------------------------
 #t hf aug-cc-pvdz iop(5/13=1,5/36=2,99/5=2) pseudo=read geom=check gue
 ss=(read,tcheck) scf=(maxcycle=1)
 ----------------------------------------------------------------------
 -----
 title
 -----
 Structure from the checkpoint file:  "Grambow2020_b97d3_006898_forward_mol1.chk"
 Charge =  0 Multiplicity = 1

                         Standard orientation:
 ---------------------------------------------------------------------
 Center     Atomic      Atomic             Coordinates (Angstroms)
 Number     Number       Type             X           Y           Z
 ---------------------------------------------------------------------
      1          6           0       -1.232268   -0.634747    0.462377
      2          6           0       -0.181601   -1.128459   -0.268034
      3          7           0        1.186887   -0.843165   -0.126728
      4          7           0        1.268626    0.442744    0.190474
      5          6           0        0.176471    1.224484    0.127698
      6          6           0       -1.065267    0.611044   -0.341228
      7          1           0       -1.383533   -0.740419    1.534516
      8          1           0       -0.448161   -0.330877   -1.266001
      9          1           0        0.311160    2.292341    0.285189
     10          1           0       -1.852062    1.147974   -0.884808
 ---------------------------------------------------------------------

 SCF Done:  E(RHF) =  -262.501147020     A.U. after    2 cycles

 The electronic state is 1-A.
 Alpha  occ. eigenvalues --  -15.69957 -15.69166 -11.34071 -11.33963 -11.30348
 Alpha  occ. eigenvalues --  -11.30011  -1.33142  -1.14704  -1.07435  -0.89081
 Alpha  occ. eigenvalues --   -0.84085  -0.77169  -0.69532  -0.66731  -0.61034
 Alpha  occ. eigenvalues --   -0.60125  -0.52513  -0.46610  -0.42226  -0.39549
 Alpha  occ. eigenvalues --   -0.33019
 Alpha virt. eigenvalues --    0.02382   0.02780   0.03980   0.04325   0.05964
 Alpha virt. eigenvalues --    0.08629   0.09671   0.10036   0.10704   0.11328
 Alpha virt. eigenvalues --    0.12930   0.13400   0.14206   0.14550   0.15653

 Mulliken charges:
               1
     1  C    0.480352
     2  C   -0.100488
     3  N   -0.449431
     4  N   -0.397022
     5  C    0.602904
     6  C   -0.046126
     7  H   -0.207429
     8  H    0.583203
     9  H   -0.243524
    10  H   -0.222439
 Sum of Mulliken charges =  -0.00000

 Dipole moment (field-independent basis, Debye):
    X=             -3.5664    Y=              1.8093    Z=              0.1866  Tot=              4.0035

 Test job not archived.
 1\1\GINC-SE131\SP\RHF\Aug-CC-pVDZ\C4H4N2\OHZDE\09-Apr-2025\0\\#t hf au
 g-cc-pvdz iop(5/13=1,5/36=2,99/5=2) pseudo=read geom=check guess=(read
 ,tcheck) scf=(maxcycle=1)\\title\\0,1\C,0,0.93472668,0.79562885,-0.518
 84316\C,0,1.3072616,-0.34239814,0.1499356\N,0,0.80969289,-1.64688862,-
 0.00769891\N,0,-0.49073376,-1.52396246,-0.24145111\C,0,-1.0925417,-0.3
 3006628,-0.09897216\C,0,-0.27038765,0.78842614,0.36053941\H,0,0.996228
 44,0.9674289,-1.59133242\H,0,0.62195765,0.00482269,1.20488886\H,0,-2.1
 7609329,-0.29776938,-0.18916273\H,0,-0.64751686,1.62685829,0.95855562\

 Normal termination of Gaussian 16 at Wed Apr  9 14:16:04 2025.
