 Gaussian 16, Revision C.01,

 ----------------------------------------------------------------------
 #t hf aug-cc-pvdz symm=none int=(grid=ultrafine) guess=(read,tcheck) s
 table=(opt,rrhf)
 ----------------------------------------------------------------------
 -----
 title
 -----
 Symbolic Z-matrix:
 Charge =  0 Multiplicity = 1

 SCF Done:  E(RHF) =  -268.738307106     A.U. after   15 cycles
 Normal termination of Gaussian 16 at Wed Apr  9 03:03:51 2025.
 Gaussian 16:  ES64L-G16RevC.01  3-Jul-2019

 ----------------------------------------------------------------------
 #t hf aug-cc-pvdz iop(5/13=1,5/36=2,99/5=2) pseudo=read geom=check gue
 ss=(read,tcheck) scf=(maxcycle=1)
 ----------------------------------------------------------------------
 -----
 title
 -----
 Structure from the checkpoint file:  "Grambow2020_b97d3_006496_forward_mol1.chk"
 Charge =  0 Multiplicity = 1

                         Standard orientation:
 ---------------------------------------------------------------------
 Center     Atomic      Atomic             Coordinates (Angstroms)
 Number     Number       Type             X           Y           Z
 ---------------------------------------------------------------------
      1          8           0        2.282203   -0.384247   -0.203196
      2          6           0        1.202787   -0.200518    0.197466
      3          6           0       -0.545728   -1.638838    0.128769
      4          6           0       -1.677512   -0.885014   -0.104049
      5          6           0       -1.124349    1.430541   -0.107031
      6          6           0        0.227335    1.606964    0.143948
      7          1           0       -0.057468   -2.163090   -0.693370
      8          1           0       -0.345058   -2.034369    1.124297
      9          1           0       -2.069330   -0.773231   -1.113499
     10          1           0       -2.375284   -0.674072    0.703760
     11          1           0       -1.850793    1.546982    0.692945
     12          1           0       -1.504587    1.506703   -1.123106
     13          1           0        0.889650    1.909743   -0.666744
     14          1           0        0.560045    1.876502    1.146670
 ---------------------------------------------------------------------

 SCF Done:  E(RHF) =  -268.823305261     A.U. after    2 cycles

 The electronic state is 1-A.
 Alpha  occ. eigenvalues --  -20.63737 -11.36053 -11.25481 -11.25068 -11.24744
 Alpha  occ. eigenvalues --  -11.24715  -1.42886  -1.03690  -1.00944  -0.83429
 Alpha  occ. eigenvalues --   -0.78883  -0.77311  -0.65539  -0.63519  -0.62101
 Alpha  occ. eigenvalues --   -0.60700  -0.59656  -0.58131  -0.56838  -0.52296
 Alpha  occ. eigenvalues --   -0.50072  -0.35097  -0.32097
 Alpha virt. eigenvalues --    0.03717   0.04487   0.04821   0.05171   0.06472
 Alpha virt. eigenvalues --    0.06536   0.06843   0.08958   0.09041   0.10801
 Alpha virt. eigenvalues --    0.11840   0.12017   0.13481   0.14459   0.14712

 Mulliken charges:
               1
     1  O   -0.361154
     2  C    0.311693
     3  C    0.488195
     4  C    0.362234
     5  C    0.474475
     6  C    0.245207
     7  H   -0.180024
     8  H   -0.194197
     9  H   -0.227154
    10  H   -0.224891
    11  H   -0.212653
    12  H   -0.230632
    13  H   -0.119106
    14  H   -0.131993
 Sum of Mulliken charges =  -0.00000

 Dipole moment (field-independent basis, Debye):
    X=             -1.6580    Y=              0.4319    Z=              0.3474  Tot=              1.7482

 Test job not archived.
 1\1\GINC-SE095\SP\RHF\Aug-CC-pVDZ\C5H8O1\OHZDE\09-Apr-2025\0\\#t hf au
 g-cc-pvdz iop(5/13=1,5/36=2,99/5=2) pseudo=read geom=check guess=(read
 ,tcheck) scf=(maxcycle=1)\\title\\0,1\O,0,-0.47899826,2.67885518,0.586
 81071\C,0,-0.30961089,1.66225078,0.0416056\C,0,-1.72444617,-0.10525363
 ,-0.02881392\C,0,-0.94718491,-1.24433622,0.01295335\C,0,1.3589399,-0.6
 5641803,-0.04977168\C,0,1.5069865,0.71900027,-0.13620139\H,0,-2.202580
 21,0.26578418,0.87830808\H,0,-2.18141345,0.21319894,-0.96559459\H,0,-0
 .77077224,-1.75899329,0.95582787\H,0,-0.77891266,-1.83035035,-0.888274

 Normal termination of Gaussian 16 at Wed Apr  9 03:03:55 2025.
