 Gaussian 16, Revision C.01,

 ----------------------------------------------------------------------
 #t hf aug-cc-pvdz symm=none int=(grid=ultrafine) guess=(read,tcheck) s
 table=(opt,rrhf)
 ----------------------------------------------------------------------
 -----
 title
 -----
 Symbolic Z-matrix:
 Charge =  0 Multiplicity = 1

 SCF Done:  E(RHF) =  -288.041867791     A.U. after   14 cycles

 1\1\GINC-SE128\Stability\RHF\Aug-CC-pVDZ\C6H11N1\OHZDE\09-Apr-2025\0\\
 #t hf aug-cc-pvdz symm=none int=(grid=ultrafine) guess=(read,tcheck) s
 table=(opt,rrhf)\\title\\0,1\C,0,2.22060685,-0.33493601,0.08074718\C,0
 ,1.42771937,0.9546661,0.25620224\C,0,0.6994539,1.40064736,-1.00441028\
 C,0,-1.58931833,-1.19975465,-0.06742947\C,0,-2.75895151,-0.92439595,0.
 8367913\C,0,-0.95913599,-0.26982621,-0.73913859\N,0,-0.43424782,0.5821
 6365,-1.42696343\H,0,2.73029021,-0.61105017,1.00518828\H,0,2.97867215,
 -0.223064,-0.6982342\H,0,1.5746467,-1.16839221,-0.19922159\H,0,0.70347

 Normal termination of Gaussian 16 at Wed Apr  9 03:45:53 2025.
 Gaussian 16:  ES64L-G16RevC.01  3-Jul-2019

 ----------------------------------------------------------------------
 #t hf aug-cc-pvdz iop(5/13=1,5/36=2,99/5=2) pseudo=read geom=check gue
 ss=(read,tcheck) scf=(maxcycle=1)
 ----------------------------------------------------------------------
 -----
 title
 -----
 Structure from the checkpoint file:  "Grambow2020_wb97xd3_007882_reverse_mol2.chk"
 Charge =  0 Multiplicity = 1

                         Standard orientation:
 ---------------------------------------------------------------------
 Center     Atomic      Atomic             Coordinates (Angstroms)
 Number     Number       Type             X           Y           Z
 ---------------------------------------------------------------------
      1          6           0       -1.985908    1.311706   -0.344859
      2          6           0       -1.705509    0.279217    0.740439
      3          6           0       -1.391509   -1.108255    0.197541
      4          6           0        1.805838    0.369719   -0.488803
      5          6           0        2.914714    0.342453    0.526643
      6          6           0        0.784375   -0.448348   -0.467158
      7          7           0       -0.114261   -1.264584   -0.493796
      8          1           0       -2.212518    2.286460    0.090011
      9          1           0       -2.840413    1.011743   -0.956279
     10          1           0       -1.129222    1.439615   -1.008202
     11          1           0       -0.876397    0.614747    1.371276
     12          1           0       -2.577082    0.190389    1.395311
     13          1           0       -1.388948   -1.843589    1.006238
     14          1           0       -2.166267   -1.428698   -0.504044
     15          1           0        1.839985    1.095172   -1.293700
     16          1           0        3.879520    0.154834    0.049387
     17          1           0        2.989253    1.294231    1.058062
     18          1           0        2.749913   -0.441764    1.265698
 ---------------------------------------------------------------------

 SCF Done:  E(RHF) =  -288.133446874     A.U. after    2 cycles

 The electronic state is 1-A.
 Alpha  occ. eigenvalues --  -15.63575 -11.30394 -11.27401 -11.23846 -11.23576
 Alpha  occ. eigenvalues --  -11.23453 -11.22487  -1.22175  -1.06281  -1.03597
 Alpha  occ. eigenvalues --   -0.94561  -0.89618  -0.82519  -0.68597  -0.65980
 Alpha  occ. eigenvalues --   -0.63679  -0.62203  -0.58574  -0.57577  -0.56297
 Alpha  occ. eigenvalues --   -0.53288  -0.52995  -0.50329  -0.48897  -0.47111
 Alpha  occ. eigenvalues --   -0.42193  -0.32058
 Alpha virt. eigenvalues --    0.03306   0.03976   0.04206   0.04824   0.06245
 Alpha virt. eigenvalues --    0.06414   0.06525   0.07359   0.07905   0.08931
 Alpha virt. eigenvalues --    0.09402   0.10583   0.12081   0.13104   0.14082

 Mulliken charges:
               1
     1  C    0.389819
     2  C    0.025441
     3  C    0.791763
     4  C    0.930330
     5  C    0.167504
     6  C   -0.626873
     7  N   -0.398716
     8  H   -0.075884
     9  H   -0.076183
    10  H   -0.137956
    11  H   -0.072777
    12  H   -0.101109
    13  H   -0.153198
    14  H   -0.150479
    15  H   -0.375070
    16  H    0.000647
    17  H    0.005695
    18  H   -0.142953
 Sum of Mulliken charges =   0.00000

 Dipole moment (field-independent basis, Debye):
    X=             -0.5985    Y=              1.1306    Z=              1.0915  Tot=              1.6816

 Test job not archived.
 1\1\GINC-SE128\SP\RHF\Aug-CC-pVDZ\C6H11N1\OHZDE\09-Apr-2025\0\\#t hf a
 ug-cc-pvdz iop(5/13=1,5/36=2,99/5=2) pseudo=read geom=check guess=(rea
 d,tcheck) scf=(maxcycle=1)\\title\\0,1\C,0,2.22060685,-0.33493601,0.08
 074718\C,0,1.42771937,0.9546661,0.25620224\C,0,0.6994539,1.40064736,-1
 .00441028\C,0,-1.58931833,-1.19975465,-0.06742947\C,0,-2.75895151,-0.9
 2439595,0.8367913\C,0,-0.95913599,-0.26982621,-0.73913859\N,0,-0.43424
 782,0.58216365,-1.42696343\H,0,2.73029021,-0.61105017,1.00518828\H,0,2
 .97867215,-0.223064,-0.6982342\H,0,1.5746467,-1.16839221,-0.19922159\H

 Normal termination of Gaussian 16 at Wed Apr  9 03:46:00 2025.
