 Gaussian 16, Revision C.01,

 ----------------------------------------------------------------------
 #t hf aug-cc-pvdz symm=none int=(grid=ultrafine) guess=(read,tcheck) s
 table=(opt,rrhf)
 ----------------------------------------------------------------------
 -----
 title
 -----
 Symbolic Z-matrix:
 Charge =  0 Multiplicity = 1

 SCF Done:  E(RHF) =  -359.684599103     A.U. after   15 cycles
 Normal termination of Gaussian 16 at Wed Apr  9 03:52:37 2025.
 Gaussian 16:  ES64L-G16RevC.01  3-Jul-2019

 ----------------------------------------------------------------------
 #t hf aug-cc-pvdz iop(5/13=1,5/36=2,99/5=2) pseudo=read geom=check gue
 ss=(read,tcheck) scf=(maxcycle=1)
 ----------------------------------------------------------------------
 -----
 title
 -----
 Structure from the checkpoint file:  "Grambow2020_wb97xd3_008375_reverse_mol2.chk"
 Charge =  0 Multiplicity = 1

                         Standard orientation:
 ---------------------------------------------------------------------
 Center     Atomic      Atomic             Coordinates (Angstroms)
 Number     Number       Type             X           Y           Z
 ---------------------------------------------------------------------
      1          8           0        1.718448   -1.488404    0.272875
      2          6           0        1.066661   -0.520649    0.060555
      3          6           0        1.126985    0.669086   -0.884997
      4          7           0        0.004632    1.278279   -0.134540
      5          6           0       -0.223015    0.077869    0.671199
      6          6           0       -1.446648   -0.730799    0.321897
      7          8           0       -2.207868   -0.416511   -0.550635
      8          1           0        0.167504    4.137988    1.676999
      9          1           0        0.184626    3.496903    1.292535
     10          1           0        0.899261    0.383647   -1.917084
     11          1           0        2.056713    1.240450   -0.862266
     12          1           0       -0.798751    1.490309   -0.714085
     13          1           0       -0.178251    0.219016    1.756685
     14          1           0       -1.592073   -1.649989    0.919149
 ---------------------------------------------------------------------

 SCF Done:  E(RHF) =  -359.798006262     A.U. after    2 cycles

 The electronic state is 1-A.
 Alpha  occ. eigenvalues --  -20.60297 -20.60218 -15.63973 -11.37531 -11.37191
 Alpha  occ. eigenvalues --  -11.30689 -11.29676  -1.40156  -1.39344  -1.24894
 Alpha  occ. eigenvalues --   -1.00719  -0.95915  -0.84966  -0.75392  -0.73836
 Alpha  occ. eigenvalues --   -0.71676  -0.69295  -0.66764  -0.62857  -0.58359
 Alpha  occ. eigenvalues --   -0.58236  -0.57523  -0.55818  -0.55196  -0.48183
 Alpha  occ. eigenvalues --   -0.43172  -0.41037
 Alpha virt. eigenvalues --    0.03389   0.03786   0.04630   0.05220   0.06247
 Alpha virt. eigenvalues --    0.07030   0.07934   0.09161   0.09616   0.10526
 Alpha virt. eigenvalues --    0.11916   0.12436   0.13194   0.13641   0.13988

 Mulliken charges:
               1
     1  O   -0.394594
     2  C   -0.081544
     3  C    0.761149
     4  N   -0.648212
     5  C    0.422854
     6  C    0.700246
     7  O   -0.463159
     8  H   -0.043714
     9  H    0.053930
    10  H   -0.054982
    11  H   -0.134397
    12  H    0.094431
    13  H   -0.108225
    14  H   -0.103784
 Sum of Mulliken charges =  -0.00000

 Dipole moment (field-independent basis, Debye):
    X=              0.0256    Y=              0.8899    Z=              0.4829  Tot=              1.0128

 Test job not archived.
 1\1\GINC-SE338\SP\RHF\Aug-CC-pVDZ\C4H7N1O2\OHZDE\09-Apr-2025\0\\#t hf
 aug-cc-pvdz iop(5/13=1,5/36=2,99/5=2) pseudo=read geom=check guess=(re
 ad,tcheck) scf=(maxcycle=1)\\title\\0,1\O,0,-0.22563705,-0.5133554,2.5
 9734873\C,0,-0.23956412,-0.14961312,1.46865341\C,0,-1.0487431,0.828204
 73,0.63063331\N,0,-0.36672114,0.30505884,-0.57565904\C,0,0.57109623,-0
 .50769564,0.20019712\C,0,1.98855078,0.00168707,0.26790603\O,0,2.348146
 51,1.00279047,-0.28709496\H,0,-1.86195698,-1.37013446,-3.11418924\H,0,
 -1.56875265,-1.02484408,-2.51929276\H,0,-0.82103757,1.86903781,0.88233

 Normal termination of Gaussian 16 at Wed Apr  9 03:52:41 2025.
