 Gaussian 16, Revision C.01,

 ----------------------------------------------------------------------
 #t hf aug-cc-pvdz symm=none int=(grid=ultrafine) guess=(read,tcheck) s
 table=(opt,rrhf)
 ----------------------------------------------------------------------
 -----
 title
 -----
 Symbolic Z-matrix:
 Charge =  0 Multiplicity = 1

 SCF Done:  E(RHF) =  -343.627690760     A.U. after   17 cycles
 Normal termination of Gaussian 16 at Wed Apr  9 15:08:03 2025.
 Gaussian 16:  ES64L-G16RevC.01  3-Jul-2019

 ----------------------------------------------------------------------
 #t hf aug-cc-pvdz iop(5/13=1,5/36=2,99/5=2) pseudo=read geom=check gue
 ss=(read,tcheck) scf=(maxcycle=1)
 ----------------------------------------------------------------------
 -----
 title
 -----
 Structure from the checkpoint file:  "Grambow2020_wb97xd3_006679_reverse_mol1.chk"
 Charge =  0 Multiplicity = 1

                         Standard orientation:
 ---------------------------------------------------------------------
 Center     Atomic      Atomic             Coordinates (Angstroms)
 Number     Number       Type             X           Y           Z
 ---------------------------------------------------------------------
      1          6           0       -1.233823   -0.330770    1.263291
      2          6           0       -0.550739   -0.025717   -0.063969
      3          8           0       -1.024702   -0.855044   -1.092924
      4          6           0       -0.670936    1.442353   -0.462717
      5          6           0        1.528614    1.124220    0.351179
      6          6           0        0.960147   -0.162608    0.072482
      7          8           0        1.581141   -1.204876    0.013156
      8          1           0       -2.312465   -0.216642    1.142780
      9          1           0       -1.020774   -1.357505    1.564300
     10          1           0       -0.887282    0.340239    2.051325
     11          1           0       -0.525614   -1.679200   -1.043363
     12          1           0       -0.524175    1.580386   -1.530775
     13          1           0       -1.586474    1.931821   -0.129953
     14          1           0        2.066997    1.585287   -0.482971
     15          1           0        0.138692    2.010105    0.105211
 ---------------------------------------------------------------------

 SCF Done:  E(RHF) =  -343.732021521     A.U. after    2 cycles

 The electronic state is 1-A.
 Alpha  occ. eigenvalues --  -20.58917 -20.56927 -11.35258 -11.32482 -11.31570
 Alpha  occ. eigenvalues --  -11.27547 -11.24488  -1.37383  -1.34025  -1.11367
 Alpha  occ. eigenvalues --   -0.99689  -0.95467  -0.86335  -0.77129  -0.70801
 Alpha  occ. eigenvalues --   -0.67988  -0.66289  -0.62613  -0.60711  -0.57953
 Alpha  occ. eigenvalues --   -0.57659  -0.55704  -0.54997  -0.53245  -0.48354
 Alpha  occ. eigenvalues --   -0.44153  -0.38945
 Alpha virt. eigenvalues --    0.03125   0.03816   0.04266   0.04967   0.05852
 Alpha virt. eigenvalues --    0.06452   0.06916   0.07390   0.08167   0.09943
 Alpha virt. eigenvalues --    0.11224   0.12523   0.13001   0.14194   0.14716

 Mulliken charges:
               1
     1  C    0.708557
     2  C   -1.061525
     3  O   -0.597531
     4  C    0.624762
     5  C   -0.057929
     6  C    0.601290
     7  O   -0.581343
     8  H    0.018074
     9  H    0.003506
    10  H    0.063832
    11  H    0.148945
    12  H   -0.014465
    13  H   -0.002778
    14  H   -0.025310
    15  H    0.171915
 Sum of Mulliken charges =   0.00000

 Dipole moment (field-independent basis, Debye):
    X=             -1.5815    Y=              2.6714    Z=             -0.1969  Tot=              3.1107

 Test job not archived.
 1\1\GINC-SE113\SP\RHF\Aug-CC-pVDZ\C5H8O2\OHZDE\09-Apr-2025\0\\#t hf au
 g-cc-pvdz iop(5/13=1,5/36=2,99/5=2) pseudo=read geom=check guess=(read
 ,tcheck) scf=(maxcycle=1)\\title\\0,1\C,0,-1.44358971,-0.70897894,-0.1
 7776488\C,0,-0.32578356,0.31523945,-0.02688084\O,0,-0.80205038,1.62742
 193,-0.17694901\C,0,0.43124259,0.16885711,1.28999443\C,0,1.80094521,-0
 .75918986,-0.40242958\C,0,0.78715981,0.03833481,-1.02928525\O,0,0.7899
 9587,0.38725277,-2.19278119\H,0,-2.22279286,-0.49589888,0.55603132\H,0
 ,-1.87547254,-0.64414115,-1.17749281\H,0,-1.07431646,-1.72469869,-0.02

 Normal termination of Gaussian 16 at Wed Apr  9 15:08:08 2025.
