 Gaussian 16, Revision C.01,

 ----------------------------------------------------------------------
 #t hf aug-cc-pvdz symm=none int=(grid=ultrafine) guess=(read,tcheck) s
 table=(opt,rrhf)
 ----------------------------------------------------------------------
 -----
 title
 -----
 Symbolic Z-matrix:
 Charge =  0 Multiplicity = 1

 SCF Done:  E(RHF) =  -307.784473074     A.U. after   14 cycles

 1\1\GINC-SE113\Stability\RHF\Aug-CC-pVDZ\C6H10O1\OHZDE\09-Apr-2025\0\\
 #t hf aug-cc-pvdz symm=none int=(grid=ultrafine) guess=(read,tcheck) s
 table=(opt,rrhf)\\title\\0,1\C,0,-2.07357596,-0.55234277,0.16137532\C,
 0,-0.87754596,0.02333925,-0.55839047\O,0,-0.50676234,1.2686108,0.04445
 61\C,0,0.84146599,1.49105101,-0.29854484\C,0,1.44309145,0.09385474,-0.
 37017313\C,0,1.23560191,-0.69662059,0.90940446\C,0,0.35052362,-0.84925
 435,-0.71894622\H,0,-2.90144543,0.15674141,0.1528851\H,0,-1.82725642,-
 0.77274285,1.20229112\H,0,-2.39408777,-1.4732739,-0.32554606\H,0,-1.14

 Normal termination of Gaussian 16 at Wed Apr  9 15:26:10 2025.
 Gaussian 16:  ES64L-G16RevC.01  3-Jul-2019

 ----------------------------------------------------------------------
 #t hf aug-cc-pvdz iop(5/13=1,5/36=2,99/5=2) pseudo=read geom=check gue
 ss=(read,tcheck) scf=(maxcycle=1)
 ----------------------------------------------------------------------
 -----
 title
 -----
 Structure from the checkpoint file:  "Grambow2020_wb97xd3_006896_reverse_mol1.chk"
 Charge =  0 Multiplicity = 1

                         Standard orientation:
 ---------------------------------------------------------------------
 Center     Atomic      Atomic             Coordinates (Angstroms)
 Number     Number       Type             X           Y           Z
 ---------------------------------------------------------------------
      1          6           0        2.177655   -0.340086   -0.183061
      2          6           0        0.909823    0.197795    0.436006
      3          8           0        0.306377    1.146851   -0.450985
      4          6           0       -1.053284    1.220917   -0.089480
      5          6           0       -1.387556   -0.184268    0.393178
      6          6           0       -1.062312   -1.248380   -0.639829
      7          6           0       -0.134609   -0.793781    0.906423
      8          1           0        2.861743    0.474781   -0.420244
      9          1           0        1.956844   -0.876873   -1.108187
     10          1           0        2.670192   -1.022737    0.509276
     11          1           0        1.154865    0.709138    1.384010
     12          1           0       -1.210861    1.941654    0.725108
     13          1           0       -1.625544    1.546772   -0.960095
     14          1           0       -2.316172   -0.315464    0.938034
     15          1           0       -0.764152   -0.867270   -1.610068
     16          1           0       -1.750054   -2.086561   -0.647748
     17          1           0       -0.126180   -1.791421   -0.141634
 ---------------------------------------------------------------------

 SCF Done:  E(RHF) =  -307.877876048     A.U. after    2 cycles

 The electronic state is 1-A.
 Alpha  occ. eigenvalues --  -20.56878 -11.28942 -11.28802 -11.27608 -11.25207
 Alpha  occ. eigenvalues --  -11.25136 -11.22620  -1.34955  -1.13453  -1.03605
 Alpha  occ. eigenvalues --   -0.93388  -0.89997  -0.80112  -0.76440  -0.70285
 Alpha  occ. eigenvalues --   -0.65685  -0.64589  -0.60452  -0.58182  -0.54906
 Alpha  occ. eigenvalues --   -0.54060  -0.52958  -0.51456  -0.49034  -0.45295
 Alpha  occ. eigenvalues --   -0.43292  -0.34551
 Alpha virt. eigenvalues --    0.03218   0.04201   0.04438   0.04982   0.06248
 Alpha virt. eigenvalues --    0.06408   0.06545   0.07194   0.08745   0.09693
 Alpha virt. eigenvalues --    0.10581   0.11787   0.12862   0.13765   0.14372

 Mulliken charges:
               1
     1  C    0.480311
     2  C    0.350784
     3  O   -0.706356
     4  C    1.018393
     5  C    0.363132
     6  C    0.428080
     7  C   -0.972537
     8  H   -0.045856
     9  H    0.008940
    10  H    0.019257
    11  H   -0.185014
    12  H   -0.137097
    13  H   -0.205374
    14  H   -0.315617
    15  H   -0.108263
    16  H   -0.182897
    17  H    0.190111
 Sum of Mulliken charges =  -0.00000

 Dipole moment (field-independent basis, Debye):
    X=             -1.3966    Y=             -0.3207    Z=             -1.0125  Tot=              1.7546

 Test job not archived.
 1\1\GINC-SE113\SP\RHF\Aug-CC-pVDZ\C6H10O1\OHZDE\09-Apr-2025\0\\#t hf a
 ug-cc-pvdz iop(5/13=1,5/36=2,99/5=2) pseudo=read geom=check guess=(rea
 d,tcheck) scf=(maxcycle=1)\\title\\0,1\C,0,-2.07357596,-0.55234277,0.1
 6137532\C,0,-0.87754596,0.02333925,-0.55839047\O,0,-0.50676234,1.26861
 08,0.0444561\C,0,0.84146599,1.49105101,-0.29854484\C,0,1.44309145,0.09
 385474,-0.37017313\C,0,1.23560191,-0.69662059,0.90940446\C,0,0.3505236
 2,-0.84925435,-0.71894622\H,0,-2.90144543,0.15674141,0.1528851\H,0,-1.
 82725642,-0.77274285,1.20229112\H,0,-2.39408777,-1.4732739,-0.32554606

 Normal termination of Gaussian 16 at Wed Apr  9 15:26:16 2025.
