 Gaussian 16, Revision C.01,

 ----------------------------------------------------------------------
 #t hf aug-cc-pvdz symm=none int=(grid=ultrafine) guess=(read,tcheck) s
 table=(opt,rrhf)
 ----------------------------------------------------------------------
 -----
 title
 -----
 Symbolic Z-matrix:
 Charge =  0 Multiplicity = 1

 SCF Done:  E(RHF) =  -339.241633218     A.U. after   17 cycles
 Normal termination of Gaussian 16 at Wed Apr  9 14:11:03 2025.
 Gaussian 16:  ES64L-G16RevC.01  3-Jul-2019

 ----------------------------------------------------------------------
 #t hf aug-cc-pvdz iop(5/13=1,5/36=2,99/5=2) pseudo=read geom=check gue
 ss=(read,tcheck) scf=(maxcycle=1)
 ----------------------------------------------------------------------
 -----
 title
 -----
 Structure from the checkpoint file:  "Grambow2020_b97d3_006811_forward_mol1.chk"
 Charge =  0 Multiplicity = 1

                         Standard orientation:
 ---------------------------------------------------------------------
 Center     Atomic      Atomic             Coordinates (Angstroms)
 Number     Number       Type             X           Y           Z
 ---------------------------------------------------------------------
      1          8           0        2.296926    0.008480    0.121495
      2          6           0        1.199169   -0.341201   -0.047250
      3          6           0       -0.682642    0.731822    0.066076
      4          8           0       -0.682240    1.888404   -0.200029
      5          6           0       -1.273888   -0.518928    0.349799
      6          8           0       -0.898261   -1.559558   -0.328731
      7          1           0        0.416980   -1.318194   -0.358067
      8          1           0       -1.604219   -0.610575    1.404433
 ---------------------------------------------------------------------

 SCF Done:  E(RHF) =  -339.346386375     A.U. after    2 cycles

 The electronic state is 1-A.
 Alpha  occ. eigenvalues --  -20.69951 -20.64690 -20.60346 -11.43468 -11.40664
 Alpha  occ. eigenvalues --  -11.36600  -1.48363  -1.42754  -1.36240  -1.01030
 Alpha  occ. eigenvalues --   -0.87772  -0.79436  -0.75789  -0.71495  -0.70238
 Alpha  occ. eigenvalues --   -0.67810  -0.65794  -0.62422  -0.59632  -0.54072
 Alpha  occ. eigenvalues --   -0.51420  -0.35096
 Alpha virt. eigenvalues --    0.02046   0.03447   0.04823   0.06693   0.07012
 Alpha virt. eigenvalues --    0.08490   0.10275   0.10810   0.11912   0.12175
 Alpha virt. eigenvalues --    0.12733   0.13867   0.14787   0.15685   0.16145

 Mulliken charges:
               1
     1  O   -0.252601
     2  C    0.184000
     3  C   -0.157516
     4  O   -0.274106
     5  C    0.827483
     6  O   -0.735420
     7  H    0.486549
     8  H   -0.078388
 Sum of Mulliken charges =   0.00000

 Dipole moment (field-independent basis, Debye):
    X=             -0.0094    Y=             -0.9331    Z=              1.4350  Tot=              1.7117

 Test job not archived.
 1\1\GINC-SE138\SP\RHF\Aug-CC-pVDZ\C3H2O3\OHZDE\09-Apr-2025\0\\#t hf au
 g-cc-pvdz iop(5/13=1,5/36=2,99/5=2) pseudo=read geom=check guess=(read
 ,tcheck) scf=(maxcycle=1)\\title\\0,1\O,0,-2.26388917,0.05234139,0.910
 63669\C,0,-1.10664443,0.04933812,0.78180092\C,0,0.14815545,0.49380578,
 -0.93090353\O,0,-0.24914167,1.28235083,-1.72390131\C,0,1.11043388,-0.3
 4633649,-0.32871778\O,0,1.31015024,-0.25640765,0.9505151\H,0,0.0382043
 3,-0.13498247,1.34597314\H,0,1.23578238,-1.31032952,-0.86236222\\Versi
 on=ES64L-G16RevC.01\State=1-A\HF=-339.3463864\RMSD=3.376e-03\Dipole=0.

 Normal termination of Gaussian 16 at Wed Apr  9 14:11:05 2025.
