 Gaussian 16, Revision C.01,

 ----------------------------------------------------------------------
 #t hf aug-cc-pvdz symm=none int=(grid=ultrafine) guess=(read,tcheck) s
 table=(opt,rrhf)
 ----------------------------------------------------------------------
 -----
 title
 -----
 Symbolic Z-matrix:
 Charge =  0 Multiplicity = 1

 SCF Done:  E(RHF) =  -338.636659637     A.U. after   17 cycles
 Normal termination of Gaussian 16 at Wed Apr  9 03:39:26 2025.
 Gaussian 16:  ES64L-G16RevC.01  3-Jul-2019

 ----------------------------------------------------------------------
 #t hf aug-cc-pvdz iop(5/13=1,5/36=2,99/5=2) pseudo=read geom=check gue
 ss=(read,tcheck) scf=(maxcycle=1)
 ----------------------------------------------------------------------
 -----
 title
 -----
 Structure from the checkpoint file:  "Grambow2020_wb97xd3_007481_reverse_mol1.chk"
 Charge =  0 Multiplicity = 1

                         Standard orientation:
 ---------------------------------------------------------------------
 Center     Atomic      Atomic             Coordinates (Angstroms)
 Number     Number       Type             X           Y           Z
 ---------------------------------------------------------------------
      1          6           0        2.399507   -0.549980    0.052887
      2          8           0        1.555788    0.585718   -0.014013
      3          6           0        0.216735    0.416171   -0.043840
      4          6           0       -0.361130   -0.918774   -0.085195
      5          7           0       -1.654706   -0.884367   -0.019668
      6          6           0       -2.523722   -0.068049    0.208251
      7          7           0       -0.577317    1.415002   -0.027449
      8          1           0        2.193795   -1.148189    0.944166
      9          1           0        3.414441   -0.163567    0.110081
     10          1           0        2.305294   -1.171926   -0.841139
     11          1           0        0.171496   -1.852383   -0.133524
     12          1           0       -3.215643    0.366887   -0.504025
     13          1           0       -0.079865    2.292782    0.073742
 ---------------------------------------------------------------------

 SCF Done:  E(RHF) =  -338.742434614     A.U. after    2 cycles

 The electronic state is 1-A.
 Alpha  occ. eigenvalues --  -20.61442 -15.70340 -15.59632 -11.35485 -11.31069
 Alpha  occ. eigenvalues --  -11.30832 -11.28003  -1.39581  -1.28154  -1.16117
 Alpha  occ. eigenvalues --   -1.01676  -0.96868  -0.84778  -0.74658  -0.74108
 Alpha  occ. eigenvalues --   -0.69538  -0.68373  -0.65054  -0.60949  -0.57505
 Alpha  occ. eigenvalues --   -0.55377  -0.52879  -0.48426  -0.43680  -0.40539
 Alpha  occ. eigenvalues --   -0.30690
 Alpha virt. eigenvalues --    0.03056   0.04281   0.04553   0.05297   0.06051
 Alpha virt. eigenvalues --    0.07240   0.08025   0.09459   0.10406   0.11092
 Alpha virt. eigenvalues --    0.12335   0.12870   0.14306   0.14787   0.14954

 Mulliken charges:
               1
     1  C    0.750319
     2  O   -0.629694
     3  C    0.592203
     4  C    0.623985
     5  N   -0.099660
     6  C    0.240865
     7  N   -0.372997
     8  H   -0.047220
     9  H   -0.307113
    10  H   -0.073172
    11  H   -0.434663
    12  H   -0.207870
    13  H   -0.034984
 Sum of Mulliken charges =  -0.00000

 Dipole moment (field-independent basis, Debye):
    X=              1.8163    Y=             -1.6791    Z=             -0.8992  Tot=              2.6319

 Test job not archived.
 1\1\GINC-SE452\SP\RHF\Aug-CC-pVDZ\C4H6N2O1\OHZDE\09-Apr-2025\0\\#t hf
 aug-cc-pvdz iop(5/13=1,5/36=2,99/5=2) pseudo=read geom=check guess=(re
 ad,tcheck) scf=(maxcycle=1)\\title\\0,1\C,0,-2.13594264,0.07862768,-0.
 17836273\O,0,-1.15496244,-0.74988529,0.41946039\C,0,0.15066113,-0.4324
 1324,0.28809184\C,0,0.55953619,0.70470328,-0.52277444\N,0,1.83787572,0
 .90586064,-0.45796923\C,0,2.7804845,0.50752465,0.19496931\N,0,1.058814
 84,-1.11022465,0.87484376\H,0,-2.07846956,1.10231682,0.200197\H,0,-3.0
 9625669,-0.34991787,0.09880559\H,0,-2.04825122,0.08063564,-1.26798735\

 Normal termination of Gaussian 16 at Wed Apr  9 03:39:30 2025.
