 Gaussian 16, Revision C.01,

 ----------------------------------------------------------------------
 #t hf aug-cc-pvdz symm=none int=(grid=ultrafine) guess=(read,tcheck) s
 table=(opt,rrhf)
 ----------------------------------------------------------------------
 -----
 title
 -----
 Symbolic Z-matrix:
 Charge =  0 Multiplicity = 1

 SCF Done:  E(RHF) =  -379.413425601     A.U. after   16 cycles
 Normal termination of Gaussian 16 at Wed Apr  9 16:32:00 2025.
 Gaussian 16:  ES64L-G16RevC.01  3-Jul-2019

 ----------------------------------------------------------------------
 #t hf aug-cc-pvdz iop(5/13=1,5/36=2,99/5=2) pseudo=read geom=check gue
 ss=(read,tcheck) scf=(maxcycle=1)
 ----------------------------------------------------------------------
 -----
 title
 -----
 Structure from the checkpoint file:  "Grambow2020_wb97xd3_008543_reverse_mol1.chk"
 Charge =  0 Multiplicity = 1

                         Standard orientation:
 ---------------------------------------------------------------------
 Center     Atomic      Atomic             Coordinates (Angstroms)
 Number     Number       Type             X           Y           Z
 ---------------------------------------------------------------------
      1          8           0        0.633076    1.513629    0.087651
      2          6           0        0.071910    0.242214    0.050357
      3          6           0       -1.074931    0.072481   -0.956219
      4          8           0       -2.082741   -0.456017   -0.063555
      5          6           0       -0.858331   -0.074040    1.224069
      6          6           0        1.151633   -0.800119   -0.115583
      7          8           0        2.321473   -0.531122   -0.070051
      8          1           0        1.592705    1.395989    0.100867
      9          1           0       -0.912732   -0.661558   -1.744651
     10          1           0       -1.370027    1.028549   -1.390253
     11          1           0       -2.124106    0.267776    0.732189
     12          1           0       -0.700778   -1.044330    1.701802
     13          1           0        0.798782   -1.841564   -0.248058
 ---------------------------------------------------------------------

 SCF Done:  E(RHF) =  -379.529251603     A.U. after    2 cycles

 The electronic state is 1-A.
 Alpha  occ. eigenvalues --  -20.62709 -20.60675 -20.59005 -11.36990 -11.33318
 Alpha  occ. eigenvalues --  -11.32856 -11.29975  -1.40675  -1.38163  -1.34478
 Alpha  occ. eigenvalues --   -1.06547  -0.95816  -0.88326  -0.79429  -0.76763
 Alpha  occ. eigenvalues --   -0.73144  -0.70318  -0.68628  -0.66254  -0.60920
 Alpha  occ. eigenvalues --   -0.58801  -0.57243  -0.56462  -0.52552  -0.47691
 Alpha  occ. eigenvalues --   -0.46060  -0.37489
 Alpha virt. eigenvalues --    0.03179   0.04299   0.04702   0.05074   0.06402
 Alpha virt. eigenvalues --    0.07012   0.08465   0.09373   0.09984   0.10812
 Alpha virt. eigenvalues --    0.12262   0.13719   0.13951   0.14603   0.15399

 Mulliken charges:
               1
     1  O   -0.636637
     2  C   -0.039997
     3  C    0.934790
     4  O   -0.753970
     5  C    0.040249
     6  C    0.840822
     7  O   -0.460388
     8  H    0.174194
     9  H   -0.188790
    10  H   -0.087697
    11  H    0.479983
    12  H   -0.184335
    13  H   -0.118226
 Sum of Mulliken charges =  -0.00000

 Dipole moment (field-independent basis, Debye):
    X=             -0.9115    Y=             -1.6163    Z=             -1.3019  Tot=              2.2668

 Test job not archived.
 1\1\GINC-SE041\SP\RHF\Aug-CC-pVDZ\C4H6O3\OHZDE\09-Apr-2025\0\\#t hf au
 g-cc-pvdz iop(5/13=1,5/36=2,99/5=2) pseudo=read geom=check guess=(read
 ,tcheck) scf=(maxcycle=1)\\title\\0,1\O,0,1.10979728,0.49773066,-1.302
 94352\C,0,0.32212521,0.14759961,-0.21217537\C,0,-0.91285915,-0.6983972
 5,-0.55327817\O,0,-1.92656462,0.1159117,0.08007891\C,0,-0.55396026,1.2
 814313,0.32621558\C,0,1.17383913,-0.47429261,0.86839354\O,0,2.37308473
 ,-0.50627873,0.80718261\H,0,2.02908868,0.34483652,-1.04520508\H,0,-0.9
 5252399,-1.68848386,-0.10061753\H,0,-1.05978704,-0.77387266,-1.6313546

 Normal termination of Gaussian 16 at Wed Apr  9 16:32:04 2025.
