 Gaussian 16, Revision C.01,

 ----------------------------------------------------------------------
 #t hf aug-cc-pvdz symm=none int=(grid=ultrafine) guess=(read,tcheck) s
 table=(opt,rrhf)
 ----------------------------------------------------------------------
 -----
 title
 -----
 Symbolic Z-matrix:
 Charge =  0 Multiplicity = 1

 SCF Done:  E(RHF) =  -358.446375935     A.U. after   16 cycles
 Normal termination of Gaussian 16 at Wed Apr  9 03:28:33 2025.
 Gaussian 16:  ES64L-G16RevC.01  3-Jul-2019

 ----------------------------------------------------------------------
 #t hf aug-cc-pvdz iop(5/13=1,5/36=2,99/5=2) pseudo=read geom=check gue
 ss=(read,tcheck) scf=(maxcycle=1)
 ----------------------------------------------------------------------
 -----
 title
 -----
 Structure from the checkpoint file:  "Grambow2020_wb97xd3_006786_reverse_mol1.chk"
 Charge =  0 Multiplicity = 1

                         Standard orientation:
 ---------------------------------------------------------------------
 Center     Atomic      Atomic             Coordinates (Angstroms)
 Number     Number       Type             X           Y           Z
 ---------------------------------------------------------------------
      1          8           0        1.811399   -0.625920   -0.232788
      2          6           0        0.867259   -0.674514    0.569345
      3          6           0        0.251849    0.696862    0.625884
      4          6           0        0.748375    1.100739   -0.703280
      5          7           0       -1.133665    0.952378    0.379077
      6          6           0       -1.648732   -0.154621   -0.158760
      7          8           0       -1.016762   -1.217728   -0.326452
      8          1           0        0.742214   -1.512802    1.253808
      9          1           0        0.646734    1.283925    1.456017
     10          1           0        0.355136    0.549331   -1.543472
     11          1           0        1.228625    2.054865   -0.904551
     12          1           0       -2.706658   -0.103578   -0.440558
 ---------------------------------------------------------------------

 SCF Done:  E(RHF) =  -358.554274230     A.U. after    2 cycles

 The electronic state is 1-A.
 Alpha  occ. eigenvalues --  -20.59448 -20.53990 -15.60387 -11.39786 -11.37846
 Alpha  occ. eigenvalues --  -11.33955 -11.30931  -1.38980  -1.33756  -1.19416
 Alpha  occ. eigenvalues --   -1.04325  -0.94151  -0.82766  -0.79197  -0.76037
 Alpha  occ. eigenvalues --   -0.68104  -0.67152  -0.65282  -0.62675  -0.57456
 Alpha  occ. eigenvalues --   -0.56935  -0.53938  -0.49764  -0.43826  -0.41847
 Alpha  occ. eigenvalues --   -0.36170
 Alpha virt. eigenvalues --    0.02475   0.02758   0.03732   0.04480   0.05540
 Alpha virt. eigenvalues --    0.06632   0.09570   0.09993   0.10346   0.11154
 Alpha virt. eigenvalues --    0.12678   0.12774   0.13470   0.13924   0.14435

 Mulliken charges:
               1
     1  O   -0.641058
     2  C    0.999574
     3  C    0.473739
     4  C    0.702168
     5  N   -0.686968
     6  C    0.576514
     7  O   -0.568901
     8  H   -0.210263
     9  H   -0.156640
    10  H   -0.078911
    11  H   -0.166850
    12  H   -0.242404
 Sum of Mulliken charges =  -0.00000

 Dipole moment (field-independent basis, Debye):
    X=              1.6150    Y=              3.0993    Z=              0.2938  Tot=              3.5071

 Test job not archived.
 1\1\GINC-SE036\SP\RHF\Aug-CC-pVDZ\C4H5N1O2\OHZDE\09-Apr-2025\0\\#t hf
 aug-cc-pvdz iop(5/13=1,5/36=2,99/5=2) pseudo=read geom=check guess=(re
 ad,tcheck) scf=(maxcycle=1)\\title\\0,1\O,0,1.18245129,0.71186835,-1.4
 1953156\C,0,1.10842203,-0.29044598,-0.69354021\C,0,0.53693913,0.149437
 01,0.62650098\C,0,-0.12104699,1.34833367,0.07329813\N,0,-0.62897538,-0
 .43235058,1.21643091\C,0,-1.21549651,-1.17731735,0.27779973\O,0,-0.753
 73959,-1.36254438,-0.86682856\H,0,1.62343208,-1.21690263,-0.94512548\H
 ,0,1.31945249,0.35713955,1.35741158\H,0,-0.91444837,1.16856836,-0.6357

 Normal termination of Gaussian 16 at Wed Apr  9 03:28:39 2025.
