 Gaussian 16, Revision C.01,

 ----------------------------------------------------------------------
 #t hf aug-cc-pvdz symm=none int=(grid=ultrafine) guess=(read,tcheck) s
 table=(opt,rrhf)
 ----------------------------------------------------------------------
 -----
 title
 -----
 Symbolic Z-matrix:
 Charge =  0 Multiplicity = 1

 SCF Done:  E(RHF) =  -322.495036213     A.U. after   18 cycles
 Normal termination of Gaussian 16 at Wed Apr  9 16:03:05 2025.
 Gaussian 16:  ES64L-G16RevC.01  3-Jul-2019

 ----------------------------------------------------------------------
 #t hf aug-cc-pvdz iop(5/13=1,5/36=2,99/5=2) pseudo=read geom=check gue
 ss=(read,tcheck) scf=(maxcycle=1)
 ----------------------------------------------------------------------
 -----
 title
 -----
 Structure from the checkpoint file:  "Grambow2020_wb97xd3_007718_reverse_mol1.chk"
 Charge =  0 Multiplicity = 1

                         Standard orientation:
 ---------------------------------------------------------------------
 Center     Atomic      Atomic             Coordinates (Angstroms)
 Number     Number       Type             X           Y           Z
 ---------------------------------------------------------------------
      1          6           0       -2.240691    0.448525   -0.093946
      2          7           0       -1.543758   -0.744426   -0.077902
      3          6           0       -0.309286   -0.486617    0.092213
      4          8           0        0.750229   -1.259966   -0.090875
      5          6           0        1.786807   -0.335057    0.028919
      6          6           0        1.406191    1.025983   -0.379158
      7          6           0        0.174025    0.889282    0.496690
      8          1           0       -2.228277    0.999198   -1.031223
      9          1           0       -3.192538    0.468049    0.430404
     10          1           0       -0.996056    1.362767    0.335034
     11          1           0        2.637781   -0.664159    0.605626
     12          1           0        1.164714    1.152286   -1.441426
     13          1           0        2.130656    1.771116   -0.061735
     14          1           0        0.385917    0.948751    1.567332
 ---------------------------------------------------------------------

 SCF Done:  E(RHF) =  -322.591974367     A.U. after    2 cycles

 The electronic state is 1-A.
 Alpha  occ. eigenvalues --  -20.64938 -15.63652 -11.36286 -11.31628 -11.29884
 Alpha  occ. eigenvalues --  -11.27556 -11.27472  -1.44587  -1.23825  -1.10323
 Alpha  occ. eigenvalues --   -0.97111  -0.90662  -0.85092  -0.76770  -0.73107
 Alpha  occ. eigenvalues --   -0.70028  -0.65322  -0.62045  -0.60891  -0.58881
 Alpha  occ. eigenvalues --   -0.57059  -0.55133  -0.49913  -0.45199  -0.40014
 Alpha  occ. eigenvalues --   -0.22656
 Alpha virt. eigenvalues --    0.01851   0.03144   0.04210   0.04383   0.05148
 Alpha virt. eigenvalues --    0.06241   0.06857   0.07758   0.09467   0.11116
 Alpha virt. eigenvalues --    0.11897   0.12407   0.13574   0.13723   0.14321

 Mulliken charges:
               1
     1  C    0.566021
     2  N   -0.515969
     3  C    0.406952
     4  O   -0.654554
     5  C    0.797140
     6  C    0.417707
     7  C   -0.167165
     8  H   -0.138769
     9  H   -0.281417
    10  H    0.273553
    11  H   -0.380275
    12  H   -0.106870
    13  H   -0.082902
    14  H   -0.133450
 Sum of Mulliken charges =  -0.00000

 Dipole moment (field-independent basis, Debye):
    X=              0.9569    Y=              2.9793    Z=              0.4815  Tot=              3.1661

 Test job not archived.
 1\1\GINC-SE092\SP\RHF\Aug-CC-pVDZ\C5H7N1O1\OHZDE\09-Apr-2025\0\\#t hf
 aug-cc-pvdz iop(5/13=1,5/36=2,99/5=2) pseudo=read geom=check guess=(re
 ad,tcheck) scf=(maxcycle=1)\\title\\0,1\C,0,2.07009447,0.72247857,0.50
 474939\N,0,1.67898349,-0.59871114,0.60768183\C,0,0.49775038,-0.7054252
 8,0.14656992\O,0,-0.37689742,-1.69116886,0.27872188\C,0,-1.5306689,-1.
 10300899,-0.23817225\C,0,-1.57094919,0.35712314,-0.06434365\C,0,-0.163
 59429,0.41231385,-0.63032789\H,0,1.70837854,1.39209509,1.28105897\H,0,
 3.09255504,0.90836072,0.18637737\H,0,0.79756921,1.19659604,-0.34664343

 Normal termination of Gaussian 16 at Wed Apr  9 16:03:09 2025.
