 Gaussian 16, Revision C.01,

 ----------------------------------------------------------------------
 #t hf aug-cc-pvdz symm=none int=(grid=ultrafine) guess=(read,tcheck) s
 table=(opt,rrhf)
 ----------------------------------------------------------------------
 -----
 title
 -----
 Symbolic Z-matrix:
 Charge =  0 Multiplicity = 1

 SCF Done:  E(RHF) =  -379.396080032     A.U. after   15 cycles
 Normal termination of Gaussian 16 at Wed Apr  9 16:10:59 2025.
 Gaussian 16:  ES64L-G16RevC.01  3-Jul-2019

 ----------------------------------------------------------------------
 #t hf aug-cc-pvdz iop(5/13=1,5/36=2,99/5=2) pseudo=read geom=check gue
 ss=(read,tcheck) scf=(maxcycle=1)
 ----------------------------------------------------------------------
 -----
 title
 -----
 Structure from the checkpoint file:  "Grambow2020_wb97xd3_007850_forward_mol1.chk"
 Charge =  0 Multiplicity = 1

                         Standard orientation:
 ---------------------------------------------------------------------
 Center     Atomic      Atomic             Coordinates (Angstroms)
 Number     Number       Type             X           Y           Z
 ---------------------------------------------------------------------
      1          8           0       -2.043807   -0.718564   -0.176044
      2          6           0       -0.824212   -0.902727   -0.042511
      3          6           0        0.258922    0.650264   -0.942897
      4          8           0       -0.679093    1.273002    0.159959
      5          6           0       -0.101500    0.092423    0.879062
      6          6           0        1.222658    0.336421    0.172182
      7          8           0        2.089942   -0.740077   -0.006320
      8          1           0       -1.602897    0.888541   -0.044255
      9          1           0       -0.354535   -1.863747   -0.273536
     10          1           0        0.435793    1.396301   -1.717925
     11          1           0       -0.302130    0.118024    1.950224
     12          1           0        1.794473    1.162900    0.601707
     13          1           0        1.757757   -1.275189   -0.731998
 ---------------------------------------------------------------------

 SCF Done:  E(RHF) =  -379.511620786     A.U. after    2 cycles

 The electronic state is 1-A.
 Alpha  occ. eigenvalues --  -20.67836 -20.59825 -20.54806 -11.36536 -11.34272
 Alpha  occ. eigenvalues --  -11.32014 -11.28578  -1.45202  -1.35702  -1.33113
 Alpha  occ. eigenvalues --   -1.08483  -0.95018  -0.87966  -0.81412  -0.78019
 Alpha  occ. eigenvalues --   -0.72806  -0.69928  -0.67195  -0.64051  -0.62538
 Alpha  occ. eigenvalues --   -0.60373  -0.58173  -0.54550  -0.52974  -0.46892
 Alpha  occ. eigenvalues --   -0.43917  -0.34441
 Alpha virt. eigenvalues --    0.03292   0.03946   0.04216   0.05114   0.06575
 Alpha virt. eigenvalues --    0.06979   0.09274   0.10102   0.11038   0.11965
 Alpha virt. eigenvalues --    0.12516   0.13940   0.14328   0.14611   0.14842

 Mulliken charges:
               1
     1  O   -0.768588
     2  C    0.881470
     3  C    0.250886
     4  O   -0.656795
     5  C    0.486279
     6  C    0.903259
     7  O   -0.578575
     8  H    0.402124
     9  H   -0.278951
    10  H   -0.379001
    11  H   -0.203319
    12  H   -0.226421
    13  H    0.167633
 Sum of Mulliken charges =   0.00000

 Dipole moment (field-independent basis, Debye):
    X=              1.6353    Y=              0.6788    Z=              0.7687  Tot=              1.9303

 Test job not archived.
 1\1\GINC-SE100\SP\RHF\Aug-CC-pVDZ\C4H6O3\OHZDE\09-Apr-2025\0\\#t hf au
 g-cc-pvdz iop(5/13=1,5/36=2,99/5=2) pseudo=read geom=check guess=(read
 ,tcheck) scf=(maxcycle=1)\\title\\0,1\O,0,-2.25647557,-0.27251063,0.36
 240228\C,0,-1.10227712,-0.03286454,0.74912312\C,0,0.30186451,-0.959554
 25,-0.50199196\O,0,-0.57184943,0.0194793,-1.37496635\C,0,-0.26710929,0
 .86557831,-0.17674367\C,0,1.1204828,0.24605699,-0.11851702\O,0,1.78408
 631,0.21413016,1.1068418\H,0,-1.53621426,-0.22597798,-1.14544844\H,0,-
 0.80419786,-0.15593711,1.7948433\H,0,0.66067152,-1.77156117,-1.1347829

 Normal termination of Gaussian 16 at Wed Apr  9 16:11:03 2025.
