 Gaussian 16, Revision C.01,

 ----------------------------------------------------------------------
 #t hf aug-cc-pvdz symm=none int=(grid=ultrafine) guess=(read,tcheck) s
 table=(opt,rrhf)
 ----------------------------------------------------------------------
 -----
 title
 -----
 Symbolic Z-matrix:
 Charge =  0 Multiplicity = 1

 SCF Done:  E(RHF) =  -302.925287118     A.U. after   14 cycles
 Normal termination of Gaussian 16 at Wed Apr  9 15:38:03 2025.
 Gaussian 16:  ES64L-G16RevC.01  3-Jul-2019

 ----------------------------------------------------------------------
 #t hf aug-cc-pvdz iop(5/13=1,5/36=2,99/5=2) pseudo=read geom=check gue
 ss=(read,tcheck) scf=(maxcycle=1)
 ----------------------------------------------------------------------
 -----
 title
 -----
 Structure from the checkpoint file:  "Grambow2020_wb97xd3_007232_forward_mol2.chk"
 Charge =  0 Multiplicity = 1

                         Standard orientation:
 ---------------------------------------------------------------------
 Center     Atomic      Atomic             Coordinates (Angstroms)
 Number     Number       Type             X           Y           Z
 ---------------------------------------------------------------------
      1          6           0        2.462959   -0.500439   -0.001129
      2          7           0        1.080073   -0.087293   -0.002572
      3          6           0        0.607278    1.180266   -0.000400
      4          7           0       -0.698644    1.224005    0.004000
      5          6           0       -1.110473   -0.084852    0.006862
      6          6           0       -2.554486   -0.451337   -0.005152
      7          6           0       -0.021087   -0.908048    0.006546
      8          1           0        2.656100   -1.193627   -0.820987
      9          1           0        3.095408    0.375649   -0.135122
     10          1           0        2.727430   -0.982692    0.941359
     11          1           0        1.269409    2.034465   -0.010466
     12          1           0       -3.067749   -0.023781    0.857562
     13          1           0       -3.041090   -0.064283   -0.902409
     14          1           0       -2.683560   -1.533935    0.016521
     15          1           0        0.068907   -1.982316    0.003182
 ---------------------------------------------------------------------

 SCF Done:  E(RHF) =  -303.017572881     A.U. after    2 cycles

 The electronic state is 1-A.
 Alpha  occ. eigenvalues --  -15.67800 -15.59698 -11.29812 -11.29331 -11.25333
 Alpha  occ. eigenvalues --  -11.25086 -11.22251  -1.31257  -1.15504  -1.02407
 Alpha  occ. eigenvalues --   -0.98004  -0.91829  -0.78260  -0.77345  -0.70367
 Alpha  occ. eigenvalues --   -0.65158  -0.61274  -0.60564  -0.57686  -0.57104
 Alpha  occ. eigenvalues --   -0.53534  -0.53067  -0.52531  -0.41972  -0.37163
 Alpha  occ. eigenvalues --   -0.30847
 Alpha virt. eigenvalues --    0.02728   0.03695   0.04648   0.04719   0.06006
 Alpha virt. eigenvalues --    0.06780   0.07235   0.08466   0.10407   0.10791
 Alpha virt. eigenvalues --    0.11430   0.12818   0.13900   0.14508   0.15158

 Mulliken charges:
               1
     1  C    0.770955
     2  N   -0.456158
     3  C    0.530284
     4  N   -0.722926
     5  C   -0.345696
     6  C    0.449248
     7  C    0.871629
     8  H   -0.108798
     9  H   -0.236021
    10  H   -0.082793
    11  H   -0.308814
    12  H    0.049257
    13  H    0.060575
    14  H   -0.051932
    15  H   -0.418808
 Sum of Mulliken charges =  -0.00000

 Dipole moment (field-independent basis, Debye):
    X=              3.2427    Y=             -2.1012    Z=             -0.0368  Tot=              3.8641

 Test job not archived.
 1\1\GINC-SE120\SP\RHF\Aug-CC-pVDZ\C5H8N2\OHZDE\09-Apr-2025\0\\#t hf au
 g-cc-pvdz iop(5/13=1,5/36=2,99/5=2) pseudo=read geom=check guess=(read
 ,tcheck) scf=(maxcycle=1)\\title\\0,1\C,0,-2.41452146,0.14731635,-0.21
 927321\N,0,-1.02555864,-0.07245525,0.1056122\C,0,-0.53369811,-0.776406
 05,1.15096971\N,0,0.77272909,-0.78509218,1.17410911\C,0,1.1647635,-0.0
 4558912,0.08683711\C,0,2.6030956,0.16324701,-0.2406058\C,0,0.06308428,
 0.40519461,-0.58212577\H,0,-2.61723714,-0.1451836,-1.25045277\H,0,-3.0
 3354041,-0.46039452,0.43873703\H,0,-2.68722577,1.19566757,-0.08741159\

 Normal termination of Gaussian 16 at Wed Apr  9 15:38:09 2025.
