 Gaussian 16, Revision C.01,

 ----------------------------------------------------------------------
 #t hf aug-cc-pvdz symm=none int=(grid=ultrafine) guess=(read,tcheck) s
 table=(opt,rrhf)
 ----------------------------------------------------------------------
 -----
 title
 -----
 Symbolic Z-matrix:
 Charge =  0 Multiplicity = 1

 SCF Done:  E(RHF) =  -284.690152564     A.U. after   14 cycles
 Normal termination of Gaussian 16 at Wed Apr  9 03:05:25 2025.
 Gaussian 16:  ES64L-G16RevC.01  3-Jul-2019

 ----------------------------------------------------------------------
 #t hf aug-cc-pvdz iop(5/13=1,5/36=2,99/5=2) pseudo=read geom=check gue
 ss=(read,tcheck) scf=(maxcycle=1)
 ----------------------------------------------------------------------
 -----
 title
 -----
 Structure from the checkpoint file:  "Grambow2020_b97d3_006552_reverse_mol1.chk"
 Charge =  0 Multiplicity = 1

                         Standard orientation:
 ---------------------------------------------------------------------
 Center     Atomic      Atomic             Coordinates (Angstroms)
 Number     Number       Type             X           Y           Z
 ---------------------------------------------------------------------
      1          8           0        1.913002   -0.379378   -0.201675
      2          6           0        0.809135    0.220446    0.427560
      3          6           0       -0.091581    1.241625   -0.338009
      4          7           0       -1.307305    0.517694    0.182275
      5          6           0       -1.166644   -1.129787   -0.525558
      6          6           0       -0.469935   -0.629251    0.684105
      7          1           0        1.563600   -0.942139   -0.919964
      8          1           0        1.197332    0.666873    1.350197
      9          1           0       -0.007570    1.245120   -1.431245
     10          1           0       -0.058549    2.270914    0.041243
     11          1           0       -0.548673   -0.967238   -1.431570
     12          1           0       -2.107032   -0.018778   -0.427991
     13          1           0       -0.677834   -1.061780    1.668216
 ---------------------------------------------------------------------

 SCF Done:  E(RHF) =  -284.771727138     A.U. after    2 cycles

 The electronic state is 1-A.
 Alpha  occ. eigenvalues --  -20.59317 -15.68331 -11.31810 -11.29519 -11.29379
 Alpha  occ. eigenvalues --  -11.26865  -1.34604  -1.26629  -1.00564  -0.95045
 Alpha  occ. eigenvalues --   -0.83876  -0.80385  -0.72560  -0.65756  -0.64311
 Alpha  occ. eigenvalues --   -0.63492  -0.59207  -0.57699  -0.50318  -0.49679
 Alpha  occ. eigenvalues --   -0.46564  -0.41359  -0.35609
 Alpha virt. eigenvalues --    0.03399   0.03830   0.04192   0.05220   0.06707
 Alpha virt. eigenvalues --    0.06857   0.07856   0.09559   0.10717   0.12556
 Alpha virt. eigenvalues --    0.13180   0.13764   0.14312   0.14585   0.14998

 Mulliken charges:
               1
     1  O   -0.596867
     2  C    0.734259
     3  C    0.765574
     4  N   -0.875630
     5  C   -0.247769
     6  C    0.664722
     7  H    0.158003
     8  H   -0.160371
     9  H   -0.201230
    10  H   -0.178724
    11  H   -0.173856
    12  H    0.357655
    13  H   -0.245766
 Sum of Mulliken charges =  -0.00000

 Dipole moment (field-independent basis, Debye):
    X=              0.3966    Y=              1.5439    Z=             -0.5368  Tot=              1.6820

 Test job not archived.
 1\1\GINC-SE164\SP\RHF\Aug-CC-pVDZ\C4H7N1O1\OHZDE\09-Apr-2025\0\\#t hf
 aug-cc-pvdz iop(5/13=1,5/36=2,99/5=2) pseudo=read geom=check guess=(re
 ad,tcheck) scf=(maxcycle=1)\\title\\0,1\O,0,-1.6307201,-0.76226182,0.9
 54832\C,0,-1.02111743,-0.04459499,-0.08804182\C,0,-0.09877532,1.179305
 08,0.21452486\N,0,0.9086689,0.62656194,-0.76132744\C,0,1.39009026,-0.9
 4965802,-0.04107016\C,0,0.17543745,-0.6860735,-0.8500009\H,0,-0.915941
 06,-1.19024517,1.46536246\H,0,-1.83234878,0.24406485,-0.76615133\H,0,0
 .27589196,1.26807797,1.24116031\H,0,-0.48134432,2.14940433,-0.12739043

 Normal termination of Gaussian 16 at Wed Apr  9 03:05:29 2025.
