 Gaussian 16, Revision C.01,

 ----------------------------------------------------------------------
 #t hf aug-cc-pvdz symm=none int=(grid=ultrafine) guess=(read,tcheck) s
 table=(opt,rrhf)
 ----------------------------------------------------------------------
 -----
 title
 -----
 Symbolic Z-matrix:
 Charge =  0 Multiplicity = 1

 SCF Done:  E(RHF) =  -268.663219332     A.U. after   16 cycles
 Normal termination of Gaussian 16 at Wed Apr  9 03:16:01 2025.
 Gaussian 16:  ES64L-G16RevC.01  3-Jul-2019

 ----------------------------------------------------------------------
 #t hf aug-cc-pvdz iop(5/13=1,5/36=2,99/5=2) pseudo=read geom=check gue
 ss=(read,tcheck) scf=(maxcycle=1)
 ----------------------------------------------------------------------
 -----
 title
 -----
 Structure from the checkpoint file:  "Grambow2020_b97d3_007071_reverse_mol1.chk"
 Charge =  0 Multiplicity = 1

                         Standard orientation:
 ---------------------------------------------------------------------
 Center     Atomic      Atomic             Coordinates (Angstroms)
 Number     Number       Type             X           Y           Z
 ---------------------------------------------------------------------
      1          6           0       -2.210601    0.086896   -0.051050
      2          6           0       -0.718452    0.071319    0.007427
      3          6           0        0.174127    1.114740   -0.172260
      4          6           0        1.450245    0.537743   -0.133265
      5          8           0        1.465836   -0.795685   -0.054042
      6          6           0        0.067073   -1.198112    0.171025
      7          1           0       -2.602438   -0.738143   -0.669562
      8          1           0       -2.571077    1.037075   -0.464223
      9          1           0       -2.661272   -0.033358    0.950111
     10          1           0        0.287008    2.258332    0.256749
     11          1           0        0.962816    2.785466    1.041287
     12          1           0        2.422581    1.021393   -0.166109
     13          1           0        0.053951   -1.703230    1.153811
     14          1           0       -0.192608   -1.937570   -0.600993
 ---------------------------------------------------------------------

 SCF Done:  E(RHF) =  -268.747335432     A.U. after    2 cycles

 The electronic state is 1-A.
 Alpha  occ. eigenvalues --  -20.67477 -11.39757 -11.34857 -11.30534 -11.26904
 Alpha  occ. eigenvalues --  -11.23728  -1.44418  -1.12311  -1.04880  -0.98594
 Alpha  occ. eigenvalues --   -0.84276  -0.80154  -0.74444  -0.71749  -0.64395
 Alpha  occ. eigenvalues --   -0.62168  -0.59975  -0.58941  -0.56335  -0.54738
 Alpha  occ. eigenvalues --   -0.53832  -0.39954  -0.24525
 Alpha virt. eigenvalues --    0.01523   0.02397   0.03819   0.04445   0.05017
 Alpha virt. eigenvalues --    0.06165   0.06716   0.08296   0.09176   0.10041
 Alpha virt. eigenvalues --    0.11128   0.11894   0.13092   0.13421   0.13754

 Mulliken charges:
               1
     1  C    0.485651
     2  C   -0.574260
     3  C   -0.013114
     4  C    0.668208
     5  O   -0.548394
     6  C    0.691084
     7  H    0.011255
     8  H   -0.042856
     9  H    0.105620
    10  H    0.160472
    11  H   -0.595017
    12  H   -0.261528
    13  H   -0.053264
    14  H   -0.033858
 Sum of Mulliken charges =  -0.00000

 Dipole moment (field-independent basis, Debye):
    X=             -2.2052    Y=             -5.9970    Z=             -1.9693  Tot=              6.6862

 Test job not archived.
 1\1\GINC-SE462\SP\RHF\Aug-CC-pVDZ\C5H8O1\OHZDE\09-Apr-2025\0\\#t hf au
 g-cc-pvdz iop(5/13=1,5/36=2,99/5=2) pseudo=read geom=check guess=(read
 ,tcheck) scf=(maxcycle=1)\\title\\0,1\C,0,-1.83791846,0.33782971,-0.46
 747021\C,0,-0.42873423,-0.01949047,-0.12586927\C,0,0.74215885,0.653987
 89,-0.4310731\C,0,1.78446528,-0.16868045,0.01584777\O,0,1.4033962,-1.3
 6054235,0.48360923\C,0,-0.06720193,-1.31202963,0.54785605\H,0,-2.38818
 966,-0.52478838,-0.87962932\H,0,-1.86270026,1.15300708,-1.20120571\H,0
 ,-2.40287568,0.67190317,0.42084634\H,0,1.13885569,1.81131101,-0.342592

 Normal termination of Gaussian 16 at Wed Apr  9 03:16:05 2025.
