 Gaussian 16, Revision C.01,

 ----------------------------------------------------------------------
 #t hf aug-cc-pvdz symm=none int=(grid=ultrafine) guess=(read,tcheck) s
 table=(opt,rrhf)
 ----------------------------------------------------------------------
 -----
 title
 -----
 Symbolic Z-matrix:
 Charge =  0 Multiplicity = 1

 SCF Done:  E(RHF) =  -286.856560330     A.U. after   14 cycles
 Normal termination of Gaussian 16 at Wed Apr  9 04:05:53 2025.
 Gaussian 16:  ES64L-G16RevC.01  3-Jul-2019

 ----------------------------------------------------------------------
 #t hf aug-cc-pvdz iop(5/13=1,5/36=2,99/5=2) pseudo=read geom=check gue
 ss=(read,tcheck) scf=(maxcycle=1)
 ----------------------------------------------------------------------
 -----
 title
 -----
 Structure from the checkpoint file:  "Grambow2020_wb97xd3_009354_reverse_mol2.chk"
 Charge =  0 Multiplicity = 1

                         Standard orientation:
 ---------------------------------------------------------------------
 Center     Atomic      Atomic             Coordinates (Angstroms)
 Number     Number       Type             X           Y           Z
 ---------------------------------------------------------------------
      1          6           0       -2.126915   -0.341158    0.151965
      2          7           0       -0.867839    0.131294   -0.366477
      3          6           0       -0.299712    1.311518    0.105524
      4          6           0        1.035588    1.288099    0.101135
      5          6           0        1.046277   -1.189677    0.642264
      6          6           0        0.196436   -0.818615   -0.542217
      7          6           0        1.486172   -0.077981   -0.283757
      8          1           0       -2.035591   -0.775105    1.158368
      9          1           0       -2.535098   -1.105120   -0.512185
     10          1           0       -2.839709    0.483555    0.192962
     11          1           0       -0.952353    2.124110    0.396033
     12          1           0        1.687054    2.120510    0.315934
     13          1           0        0.719845   -0.912168    1.636856
     14          1           0        1.571371   -2.132889    0.571080
     15          1           0        0.066396   -1.533838   -1.345914
     16          1           0        2.365881   -0.221228   -0.897287
 ---------------------------------------------------------------------

 SCF Done:  E(RHF) =  -286.944755827     A.U. after    2 cycles

 The electronic state is 1-A.
 Alpha  occ. eigenvalues --  -15.62376 -11.26484 -11.26480 -11.26294 -11.23910
 Alpha  occ. eigenvalues --  -11.22773 -11.21660  -1.24954  -1.10575  -1.01903
 Alpha  occ. eigenvalues --   -0.91453  -0.84205  -0.78083  -0.74585  -0.70626
 Alpha  occ. eigenvalues --   -0.63505  -0.60553  -0.59867  -0.58018  -0.55528
 Alpha  occ. eigenvalues --   -0.52358  -0.49860  -0.47010  -0.45520  -0.38706
 Alpha  occ. eigenvalues --   -0.28341
 Alpha virt. eigenvalues --    0.03463   0.03935   0.04184   0.04900   0.06161
 Alpha virt. eigenvalues --    0.06464   0.07032   0.07880   0.08743   0.10923
 Alpha virt. eigenvalues --    0.12165   0.12562   0.12951   0.13532   0.14837

 Mulliken charges:
               1
     1  C    0.695830
     2  N   -0.584764
     3  C    0.679950
     4  C    0.241999
     5  C    0.599071
     6  C    0.825651
     7  C    0.324981
     8  H   -0.063488
     9  H   -0.187314
    10  H   -0.217219
    11  H   -0.443684
    12  H   -0.311709
    13  H   -0.348936
    14  H   -0.320055
    15  H   -0.484224
    16  H   -0.406087
 Sum of Mulliken charges =  -0.00000

 Dipole moment (field-independent basis, Debye):
    X=             -0.6255    Y=             -0.5402    Z=              0.2942  Tot=              0.8772

 Test job not archived.
 1\1\GINC-SE398\SP\RHF\Aug-CC-pVDZ\C6H9N1\OHZDE\09-Apr-2025\0\\#t hf au
 g-cc-pvdz iop(5/13=1,5/36=2,99/5=2) pseudo=read geom=check guess=(read
 ,tcheck) scf=(maxcycle=1)\\title\\0,1\C,0,2.01308333,0.3168157,-0.1380
 7085\N,0,0.79633624,-0.45542508,-0.11719459\C,0,0.25053582,-0.89439004
 ,1.08608959\C,0,-1.08320338,-0.95927928,1.06320882\C,0,-1.20739817,1.0
 5668078,-0.47067125\C,0,-0.29253534,-0.03450857,-0.95569316\C,0,-1.565
 02702,-0.39226178,-0.22662734\H,0,1.86119507,1.35709687,0.18479352\H,0
 ,2.42281192,0.33091914,-1.14963952\H,0,2.7525803,-0.14550494,0.5171483

 Normal termination of Gaussian 16 at Wed Apr  9 04:05:58 2025.
