 Gaussian 16, Revision C.01,

 ----------------------------------------------------------------------
 #t hf aug-cc-pvdz symm=none int=(grid=ultrafine) guess=(read,tcheck) s
 table=(opt,rrhf)
 ----------------------------------------------------------------------
 -----
 title
 -----
 Symbolic Z-matrix:
 Charge =  0 Multiplicity = 1

 SCF Done:  E(RHF) =  -267.567922634     A.U. after   16 cycles
 Normal termination of Gaussian 16 at Wed Apr  9 14:22:08 2025.
 Gaussian 16:  ES64L-G16RevC.01  3-Jul-2019

 ----------------------------------------------------------------------
 #t hf aug-cc-pvdz iop(5/13=1,5/36=2,99/5=2) pseudo=read geom=check gue
 ss=(read,tcheck) scf=(maxcycle=1)
 ----------------------------------------------------------------------
 -----
 title
 -----
 Structure from the checkpoint file:  "Grambow2020_wb97xd3_006074_reverse_mol2.chk"
 Charge =  0 Multiplicity = 1

                         Standard orientation:
 ---------------------------------------------------------------------
 Center     Atomic      Atomic             Coordinates (Angstroms)
 Number     Number       Type             X           Y           Z
 ---------------------------------------------------------------------
      1          8           0       -1.996716   -0.381553   -0.553497
      2          6           0       -1.493018   -0.095360    0.500230
      3          6           0       -0.079318    0.336595    0.653833
      4          6           0        0.565924    1.038059   -0.459281
      5          6           0        0.930569   -0.453568   -0.214063
      6          6           0        2.273635   -0.486418    0.227548
      7          1           0       -2.075409   -0.149020    1.439591
      8          1           0        0.459188   -1.130487   -0.923021
      9          1           0        0.264549    0.555066    1.655446
     10          1           0       -0.006733    1.184340   -1.365207
     11          1           0        1.325161    1.768879   -0.226226
     12          1           0        2.820219   -1.212200   -0.402219
 ---------------------------------------------------------------------

 SCF Done:  E(RHF) =  -267.648926280     A.U. after    2 cycles

 The electronic state is 1-A.
 Alpha  occ. eigenvalues --  -20.58331 -11.35914 -11.28833 -11.27720 -11.27040
 Alpha  occ. eigenvalues --  -11.26887  -1.37650  -1.18208  -0.97463  -0.91060
 Alpha  occ. eigenvalues --   -0.80132  -0.76938  -0.72192  -0.67905  -0.62626
 Alpha  occ. eigenvalues --   -0.59644  -0.57321  -0.55964  -0.47347  -0.46281
 Alpha  occ. eigenvalues --   -0.44080  -0.36043
 Alpha virt. eigenvalues --    0.03365   0.03944   0.04232   0.05190   0.06193
 Alpha virt. eigenvalues --    0.06858   0.07453   0.08393   0.10011   0.10703
 Alpha virt. eigenvalues --    0.12697   0.13078   0.13545   0.14046   0.15011

 Mulliken charges:
               1
     1  O   -0.464389
     2  C    0.510200
     3  C    0.523858
     4  C    0.746053
     5  C    0.379846
     6  C   -0.164790
     7  H   -0.097879
     8  H   -0.382354
     9  H   -0.371346
    10  H   -0.269717
    11  H   -0.286190
    12  H   -0.123293
 Sum of Mulliken charges =  -0.00000

 Dipole moment (field-independent basis, Debye):
    X=              0.0943    Y=              0.6984    Z=              0.7927  Tot=              1.0607

 Test job not archived.
 1\1\GINC-SE120\SP\RHF\Aug-CC-pVDZ\C5H6O1\OHZDE\09-Apr-2025\0\\#t hf au
 g-cc-pvdz iop(5/13=1,5/36=2,99/5=2) pseudo=read geom=check guess=(read
 ,tcheck) scf=(maxcycle=1)\\title\\0,1\O,0,-1.81240621,-1.40334191,-0.2
 762065\C,0,-1.65642089,-0.53034698,0.5358937\C,0,-0.48871644,0.3888591
 1,0.55183837\C,0,0.16970867,0.71043073,-0.71720815\C,0,0.86764987,-0.2
 9204678,0.24506274\C,0,2.03326711,0.34269065,0.73329412\H,0,-2.3961406
 9,-0.36858526,1.34280357\H,0,0.77264367,-1.32734636,-0.07457829\H,0,-0
 .45175934,1.12711167,1.34102746\H,0,-0.20324963,0.23642469,-1.6151266\

 Normal termination of Gaussian 16 at Wed Apr  9 14:22:12 2025.
