 Gaussian 16, Revision C.01,

 ----------------------------------------------------------------------
 #t hf aug-cc-pvdz symm=none int=(grid=ultrafine) guess=(read,tcheck) s
 table=(opt,rrhf)
 ----------------------------------------------------------------------
 -----
 title
 -----
 Symbolic Z-matrix:
 Charge =  0 Multiplicity = 1

 SCF Done:  E(RHF) =  -245.618300321     A.U. after   18 cycles
 Normal termination of Gaussian 16 at Wed Apr  9 14:20:03 2025.
 Gaussian 16:  ES64L-G16RevC.01  3-Jul-2019

 ----------------------------------------------------------------------
 #t hf aug-cc-pvdz iop(5/13=1,5/36=2,99/5=2) pseudo=read geom=check gue
 ss=(read,tcheck) scf=(maxcycle=1)
 ----------------------------------------------------------------------
 -----
 title
 -----
 Structure from the checkpoint file:  "Grambow2020_b97d3_007206_forward_mol1.chk"
 Charge =  0 Multiplicity = 1

                         Standard orientation:
 ---------------------------------------------------------------------
 Center     Atomic      Atomic             Coordinates (Angstroms)
 Number     Number       Type             X           Y           Z
 ---------------------------------------------------------------------
      1          8           0       -1.885774   -0.488144   -0.233621
      2          6           0       -1.049330    0.118283    0.362654
      3          6           0        0.638338    0.013862    0.494356
      4          6           0        1.409713   -0.943324   -0.175689
      5          7           0        0.736265    1.266632   -0.267063
      6          1           0       -0.808544    1.339973    0.265272
      7          1           0        0.884046    0.167859    1.548958
      8          1           0        2.157987   -1.562355    0.321286
      9          1           0        1.257660   -1.109515   -1.242466
     10          1           0        0.448864    1.069837   -1.242570
 ---------------------------------------------------------------------

 SCF Done:  E(RHF) =  -245.691400323     A.U. after    2 cycles

 The electronic state is 1-A.
 Alpha  occ. eigenvalues --  -20.60090 -15.64366 -11.36541 -11.34547 -11.30812
 Alpha  occ. eigenvalues --   -1.38679  -1.17769  -1.00112  -0.86614  -0.78796
 Alpha  occ. eigenvalues --   -0.69917  -0.68381  -0.63166  -0.62202  -0.57897
 Alpha  occ. eigenvalues --   -0.55389  -0.45064  -0.38290  -0.33998
 Alpha virt. eigenvalues --   -0.00426   0.02817   0.03891   0.05023   0.06680
 Alpha virt. eigenvalues --    0.07142   0.08986   0.10959   0.11411   0.12899
 Alpha virt. eigenvalues --    0.12989   0.13845   0.14319   0.15582   0.15887

 Mulliken charges:
               1
     1  O   -0.399705
     2  C    0.272529
     3  C    0.599483
     4  C    0.501177
     5  N   -0.696888
     6  H    0.263255
     7  H   -0.226217
     8  H   -0.175917
     9  H   -0.176512
    10  H    0.038794
 Sum of Mulliken charges =  -0.00000

 Dipole moment (field-independent basis, Debye):
    X=              2.8147    Y=             -2.2756    Z=              0.4224  Tot=              3.6440

 Test job not archived.
 1\1\GINC-SE057\SP\RHF\Aug-CC-pVDZ\C3H5N1O1\OHZDE\09-Apr-2025\0\\#t hf
 aug-cc-pvdz iop(5/13=1,5/36=2,99/5=2) pseudo=read geom=check guess=(re
 ad,tcheck) scf=(maxcycle=1)\\title\\0,1\O,0,1.34759348,-1.13260092,1.4
 97318\C,0,1.29861621,-0.45827571,0.51455564\C,0,0.07186832,-0.00553219
 ,-0.56552956\C,0,-1.25950039,-0.42124458,-0.44376746\N,0,0.15566258,1.
 35920036,-0.02769646\H,0,1.60332072,0.74993351,0.42867527\H,0,0.497459
 7,-0.06467664,-1.5713362\H,0,-1.82849592,-0.85322114,-1.26822961\H,0,-
 1.76594034,-0.33751546,0.51813749\H,0,-0.21722636,1.34428275,0.9385708

 Normal termination of Gaussian 16 at Wed Apr  9 14:20:06 2025.
