 Gaussian 16, Revision C.01,

 ----------------------------------------------------------------------
 #t hf aug-cc-pvdz symm=none int=(grid=ultrafine) guess=(read,tcheck) s
 table=(opt,rrhf)
 ----------------------------------------------------------------------
 -----
 title
 -----
 Symbolic Z-matrix:
 Charge =  0 Multiplicity = 1

 SCF Done:  E(RHF) =  -354.545656253     A.U. after   17 cycles
 Normal termination of Gaussian 16 at Wed Apr  9 16:06:53 2025.
 Gaussian 16:  ES64L-G16RevC.01  3-Jul-2019

 ----------------------------------------------------------------------
 #t hf aug-cc-pvdz iop(5/13=1,5/36=2,99/5=2) pseudo=read geom=check gue
 ss=(read,tcheck) scf=(maxcycle=1)
 ----------------------------------------------------------------------
 -----
 title
 -----
 Structure from the checkpoint file:  "Grambow2020_wb97xd3_007779_reverse_mol1.chk"
 Charge =  0 Multiplicity = 1

                         Standard orientation:
 ---------------------------------------------------------------------
 Center     Atomic      Atomic             Coordinates (Angstroms)
 Number     Number       Type             X           Y           Z
 ---------------------------------------------------------------------
      1          6           0        1.812146   -0.634697    0.603628
      2          6           0        1.091519   -0.113436   -0.455484
      3          7           0        0.810917    1.208171   -0.203867
      4          7           0       -0.439836    1.189139    0.022770
      5          6           0       -0.991184   -0.200156    0.146206
      6          8           0       -2.151649   -0.462371    0.335390
      7          7           0       -0.061871   -0.776596   -0.844914
      8          1           0        0.049434   -0.457307    1.235316
      9          1           0        2.546272   -0.021490    1.109694
     10          1           0        1.869345   -1.705374    0.749004
     11          1           0       -0.886405    2.010281    0.413632
     12          1           0       -0.004822   -1.782396   -0.774791
 ---------------------------------------------------------------------

 SCF Done:  E(RHF) =  -354.648139235     A.U. after    2 cycles

 The electronic state is 1-A.
 Alpha  occ. eigenvalues --  -20.52072 -15.76992 -15.75341 -15.66057 -11.40664
 Alpha  occ. eigenvalues --  -11.34066 -11.31628  -1.43758  -1.33427  -1.22424
 Alpha  occ. eigenvalues --   -1.10097  -0.99003  -0.89660  -0.81572  -0.75461
 Alpha  occ. eigenvalues --   -0.72248  -0.66717  -0.65117  -0.62993  -0.61519
 Alpha  occ. eigenvalues --   -0.55607  -0.53901  -0.47860  -0.44527  -0.38822
 Alpha  occ. eigenvalues --   -0.33950
 Alpha virt. eigenvalues --    0.02304   0.03173   0.04379   0.04845   0.05448
 Alpha virt. eigenvalues --    0.06826   0.07902   0.09722   0.10654   0.10762
 Alpha virt. eigenvalues --    0.12448   0.13525   0.14968   0.15133   0.15845

 Mulliken charges:
               1
     1  C    0.639148
     2  C    0.668654
     3  N   -0.352643
     4  N   -0.119480
     5  C    0.432425
     6  O   -0.474085
     7  N   -0.578856
     8  H    0.270146
     9  H   -0.239146
    10  H   -0.268755
    11  H   -0.026294
    12  H    0.048886
 Sum of Mulliken charges =   0.00000

 Dipole moment (field-independent basis, Debye):
    X=              4.4128    Y=              1.0303    Z=              0.4944  Tot=              4.5584

 Test job not archived.
 1\1\GINC-SE057\SP\RHF\Aug-CC-pVDZ\C3H5N3O1\OHZDE\09-Apr-2025\0\\#t hf
 aug-cc-pvdz iop(5/13=1,5/36=2,99/5=2) pseudo=read geom=check guess=(re
 ad,tcheck) scf=(maxcycle=1)\\title\\0,1\C,0,1.60921139,-0.21281872,0.1
 5904985\C,0,0.47972056,0.10921368,0.88930988\N,0,-0.28537573,-1.019717
 27,1.05911813\N,0,-1.28471805,-0.79480605,0.30623037\C,0,-1.10025097,0
 .41072963,-0.56670569\O,0,-1.92346184,0.82858732,-1.34062116\N,0,-0.31
 111167,1.15334139,0.4352975\H,0,0.19206189,-0.22498528,-1.0775552\H,0,
 2.09535435,-1.16757035,0.31130398\H,0,2.17631697,0.56336065,-0.3376300

 Normal termination of Gaussian 16 at Wed Apr  9 16:06:57 2025.
