 Gaussian 16, Revision C.01,

 ----------------------------------------------------------------------
 #t hf aug-cc-pvdz symm=none int=(grid=ultrafine) guess=(read,tcheck) s
 table=(opt,rrhf)
 ----------------------------------------------------------------------
 -----
 title
 -----
 Symbolic Z-matrix:
 Charge =  0 Multiplicity = 1

 SCF Done:  E(RHF) =  -306.694589592     A.U. after   14 cycles
 Normal termination of Gaussian 16 at Wed Apr  9 15:03:57 2025.
 Gaussian 16:  ES64L-G16RevC.01  3-Jul-2019

 ----------------------------------------------------------------------
 #t hf aug-cc-pvdz iop(5/13=1,5/36=2,99/5=2) pseudo=read geom=check gue
 ss=(read,tcheck) scf=(maxcycle=1)
 ----------------------------------------------------------------------
 -----
 title
 -----
 Structure from the checkpoint file:  "Grambow2020_wb97xd3_006668_reverse_mol2.chk"
 Charge =  0 Multiplicity = 1

                         Standard orientation:
 ---------------------------------------------------------------------
 Center     Atomic      Atomic             Coordinates (Angstroms)
 Number     Number       Type             X           Y           Z
 ---------------------------------------------------------------------
      1          6           0       -2.480241   -0.000893   -0.186608
      2          6           0       -0.998659    0.036474   -0.448645
      3          6           0       -0.103673   -0.708787    0.481258
      4          8           0        1.147999   -1.150720    0.005982
      5          6           0        1.867232   -0.034680   -0.302437
      6          6           0        1.256590    1.112740   -0.021904
      7          6           0       -0.099265    0.804862    0.498931
      8          1           0       -2.971081    0.892122   -0.579176
      9          1           0       -2.690009   -0.047268    0.884798
     10          1           0       -2.941246   -0.873931   -0.653761
     11          1           0       -0.698604    0.056711   -1.491149
     12          1           0       -0.508747   -1.343785    1.258318
     13          1           0        2.840819   -0.224928   -0.728869
     14          1           0        1.673268    2.097839   -0.157954
     15          1           0       -0.540306    1.390712    1.296359
 ---------------------------------------------------------------------

 SCF Done:  E(RHF) =  -306.790843967     A.U. after    2 cycles

 The electronic state is 1-A.
 Alpha  occ. eigenvalues --  -20.59659 -11.29549 -11.29385 -11.24527 -11.24160
 Alpha  occ. eigenvalues --  -11.23317 -11.22940  -1.38335  -1.14422  -1.03427
 Alpha  occ. eigenvalues --   -0.96487  -0.83688  -0.80858  -0.76578  -0.72386
 Alpha  occ. eigenvalues --   -0.63982  -0.62112  -0.59650  -0.58560  -0.56335
 Alpha  occ. eigenvalues --   -0.55822  -0.53484  -0.50282  -0.45243  -0.40235
 Alpha  occ. eigenvalues --   -0.32333
 Alpha virt. eigenvalues --    0.03479   0.04175   0.04530   0.04666   0.05953
 Alpha virt. eigenvalues --    0.06347   0.07123   0.07655   0.10674   0.11401
 Alpha virt. eigenvalues --    0.12005   0.12276   0.14084   0.14146   0.15214

 Mulliken charges:
               1
     1  C    0.414150
     2  C    0.007554
     3  C    0.855453
     4  O   -0.663931
     5  C    0.552840
     6  C    0.544093
     7  C    0.252547
     8  H    0.011795
     9  H   -0.098179
    10  H    0.026595
    11  H   -0.422241
    12  H   -0.424263
    13  H   -0.326754
    14  H   -0.284792
    15  H   -0.444865
 Sum of Mulliken charges =  -0.00000

 Dipole moment (field-independent basis, Debye):
    X=             -0.8590    Y=              1.1399    Z=              0.0964  Tot=              1.4306

 Test job not archived.
 1\1\GINC-SE114\SP\RHF\Aug-CC-pVDZ\C6H8O1\OHZDE\09-Apr-2025\0\\#t hf au
 g-cc-pvdz iop(5/13=1,5/36=2,99/5=2) pseudo=read geom=check guess=(read
 ,tcheck) scf=(maxcycle=1)\\title\\0,1\C,0,2.06305765,-0.58908993,-0.07
 774113\C,0,0.71135477,0.01279865,-0.35301542\C,0,-0.03311091,0.6151301
 1,0.78895613\O,0,-0.9814127,1.62355075,0.52121058\C,0,-1.96240065,1.05
 014054,-0.23166829\C,0,-1.80809245,-0.25368797,-0.44232149\C,0,-0.5281
 7634,-0.67866531,0.17865329\H,0,2.29623848,-1.37650307,-0.79754414\H,0
 ,2.10083881,-1.03373035,0.91972152\H,0,2.8499363,0.16621402,-0.1350962

 Normal termination of Gaussian 16 at Wed Apr  9 15:04:02 2025.
