 Gaussian 16, Revision C.01,

 ----------------------------------------------------------------------
 #t hf aug-cc-pvdz symm=none int=(grid=ultrafine) guess=(read,tcheck) s
 table=(opt,rrhf)
 ----------------------------------------------------------------------
 -----
 title
 -----
 Symbolic Z-matrix:
 Charge =  0 Multiplicity = 1

 SCF Done:  E(RHF) =  -338.665265949     A.U. after   15 cycles
 Normal termination of Gaussian 16 at Wed Apr  9 16:29:02 2025.
 Gaussian 16:  ES64L-G16RevC.01  3-Jul-2019

 ----------------------------------------------------------------------
 #t hf aug-cc-pvdz iop(5/13=1,5/36=2,99/5=2) pseudo=read geom=check gue
 ss=(read,tcheck) scf=(maxcycle=1)
 ----------------------------------------------------------------------
 -----
 title
 -----
 Structure from the checkpoint file:  "Grambow2020_wb97xd3_008474_reverse_mol2.chk"
 Charge =  0 Multiplicity = 1

                         Standard orientation:
 ---------------------------------------------------------------------
 Center     Atomic      Atomic             Coordinates (Angstroms)
 Number     Number       Type             X           Y           Z
 ---------------------------------------------------------------------
      1          7           0        0.405592    1.904371   -0.359178
      2          6           0       -0.003766    0.747899    0.401061
      3          6           0        0.573080   -0.609359    0.052310
      4          8           0        1.900793   -0.713145    0.109018
      5          6           0       -0.322584   -1.588692   -0.267853
      6          6           0       -1.515651   -0.845493   -0.142998
      7          7           0       -1.404112    0.440572    0.209611
      8          1           0        0.447132    1.674218   -1.344866
      9          1           0        1.333458    2.188721   -0.075764
     10          1           0        2.098497   -1.631387   -0.120566
     11          1           0        0.182380    0.943081    1.462932
     12          1           0       -2.522002   -1.224186   -0.307849
     13          1           0       -2.142647    1.113973    0.305824
 ---------------------------------------------------------------------

 SCF Done:  E(RHF) =  -338.766174194     A.U. after    2 cycles

 The electronic state is 1-A.
 Alpha  occ. eigenvalues --  -20.61474 -15.67424 -15.63655 -11.33043 -11.32929
 Alpha  occ. eigenvalues --  -11.31945 -11.16072  -1.38784  -1.28566  -1.16624
 Alpha  occ. eigenvalues --   -1.03239  -0.96438  -0.82269  -0.81629  -0.75446
 Alpha  occ. eigenvalues --   -0.70478  -0.67321  -0.63760  -0.63448  -0.59888
 Alpha  occ. eigenvalues --   -0.57070  -0.52785  -0.49014  -0.43580  -0.32115
 Alpha  occ. eigenvalues --   -0.31261
 Alpha virt. eigenvalues --    0.02755   0.03402   0.04045   0.04982   0.06271
 Alpha virt. eigenvalues --    0.07194   0.07634   0.10180   0.11491   0.12443
 Alpha virt. eigenvalues --    0.13220   0.13305   0.14392   0.15587   0.15845

 Mulliken charges:
               1
     1  N   -0.403804
     2  C    0.737385
     3  C    0.694107
     4  O   -0.600355
     5  C   -0.762564
     6  C    0.836929
     7  N   -0.361411
     8  H    0.014505
     9  H    0.056688
    10  H    0.183683
    11  H   -0.030433
    12  H   -0.256506
    13  H   -0.108226
 Sum of Mulliken charges =  -0.00000

 Dipole moment (field-independent basis, Debye):
    X=             -1.3101    Y=              3.5136    Z=              0.6813  Tot=              3.8113

 Test job not archived.
 1\1\GINC-SE097\SP\RHF\Aug-CC-pVDZ\C4H6N2O1\OHZDE\09-Apr-2025\0\\#t hf
 aug-cc-pvdz iop(5/13=1,5/36=2,99/5=2) pseudo=read geom=check guess=(re
 ad,tcheck) scf=(maxcycle=1)\\title\\0,1\N,0,1.68931126,0.68861472,0.06
 069507\C,0,0.38268414,0.28051689,0.51802024\C,0,-0.22365707,-0.9996262
 1,-0.02060156\O,0,0.48427444,-2.1114412,0.1781655\C,0,-1.43598171,-0.8
 8748007,-0.63826147\C,0,-1.61731149,0.50663645,-0.51618572\N,0,-0.6512
 2241,1.20030552,0.09719165\H,0,1.76894411,0.53992109,-0.93821698\H,0,2
 .39939556,0.12473246,0.50783113\H,0,-0.04350165,-2.82589895,-0.2038910

 Normal termination of Gaussian 16 at Wed Apr  9 16:29:07 2025.
