 Gaussian 16, Revision C.01,

 ----------------------------------------------------------------------
 #t hf aug-cc-pvdz symm=none int=(grid=ultrafine) guess=(read,tcheck) s
 table=(opt,rrhf)
 ----------------------------------------------------------------------
 -----
 title
 -----
 Symbolic Z-matrix:
 Charge =  0 Multiplicity = 1

 SCF Done:  E(RHF) =  -360.901176435     A.U. after   14 cycles
 Normal termination of Gaussian 16 at Wed Apr  9 14:48:00 2025.
 Gaussian 16:  ES64L-G16RevC.01  3-Jul-2019

 ----------------------------------------------------------------------
 #t hf aug-cc-pvdz iop(5/13=1,5/36=2,99/5=2) pseudo=read geom=check gue
 ss=(read,tcheck) scf=(maxcycle=1)
 ----------------------------------------------------------------------
 -----
 title
 -----
 Structure from the checkpoint file:  "Grambow2020_wb97xd3_006616_reverse_mol2.chk"
 Charge =  0 Multiplicity = 1

                         Standard orientation:
 ---------------------------------------------------------------------
 Center     Atomic      Atomic             Coordinates (Angstroms)
 Number     Number       Type             X           Y           Z
 ---------------------------------------------------------------------
      1          6           0       -1.188819    1.626283    0.074584
      2          6           0       -1.513841    0.150519    0.240733
      3          8           0       -1.933945   -0.412249   -0.968559
      4          6           0        2.784179   -0.159688   -0.427595
      5          7           0        2.153129    0.801737    0.091392
      6          6           0       -0.356162   -0.631851    0.811747
      7          8           0        0.031207   -1.652560    0.300398
      8          1           0       -0.862927    2.062515    1.021005
      9          1           0       -2.078092    2.156223   -0.265950
     10          1           0       -0.394277    1.753128   -0.659481
     11          1           0       -2.311530    0.053048    0.999088
     12          1           0       -1.432717   -1.232260   -1.073881
     13          1           0        2.312933   -1.142271   -0.450606
     14          1           0        3.784770   -0.072582   -0.861072
     15          1           0        2.692025    1.665236    0.054267
     16          1           0        0.087678   -0.248301    1.745360
 ---------------------------------------------------------------------

 SCF Done:  E(RHF) =  -361.015942541     A.U. after    2 cycles

 The electronic state is 1-A.
 Alpha  occ. eigenvalues --  -20.57833 -20.56524 -15.63491 -11.34567 -11.29974
 Alpha  occ. eigenvalues --  -11.29950 -11.22969  -1.37726  -1.32014  -1.18980
 Alpha  occ. eigenvalues --   -1.03430  -0.89674  -0.84268  -0.79328  -0.73281
 Alpha  occ. eigenvalues --   -0.69462  -0.68892  -0.65651  -0.61084  -0.58814
 Alpha  occ. eigenvalues --   -0.56157  -0.55156  -0.53910  -0.52999  -0.45980
 Alpha  occ. eigenvalues --   -0.45570  -0.44205  -0.42528
 Alpha virt. eigenvalues --    0.03107   0.03886   0.04564   0.05016   0.06297
 Alpha virt. eigenvalues --    0.06737   0.07446   0.08025   0.08689   0.09827
 Alpha virt. eigenvalues --    0.10923   0.12495   0.13135   0.14213   0.14663

 Mulliken charges:
               1
     1  C    0.463282
     2  C   -0.010615
     3  O   -0.582840
     4  C    0.620809
     5  N   -0.250307
     6  C    0.887971
     7  O   -0.586881
     8  H   -0.025467
     9  H   -0.044196
    10  H   -0.029358
    11  H   -0.011427
    12  H    0.181496
    13  H   -0.236071
    14  H   -0.186960
    15  H   -0.000718
    16  H   -0.188716
 Sum of Mulliken charges =  -0.00000

 Dipole moment (field-independent basis, Debye):
    X=              2.4047    Y=              1.8960    Z=              1.3033  Tot=              3.3281

 Test job not archived.
 1\1\GINC-SE114\SP\RHF\Aug-CC-pVDZ\C4H9N1O2\OHZDE\09-Apr-2025\0\\#t hf
 aug-cc-pvdz iop(5/13=1,5/36=2,99/5=2) pseudo=read geom=check guess=(re
 ad,tcheck) scf=(maxcycle=1)\\title\\0,1\C,0,-1.02754772,-0.92124867,-1
 .24860163\C,0,-0.33901743,0.39786036,-1.56005401\O,0,-1.22411986,1.472
 23531,-1.42628099\C,0,0.76436832,0.01783159,2.64161099\N,0,0.53376952,
 -0.91074318,1.81912587\C,0,0.88964414,0.61883559,-0.71155894\O,0,1.067
 59967,1.64955509,-0.11211892\H,0,-0.33396297,-1.7577108,-1.35577858\H,
 0,-1.85882673,-1.06679681,-1.93809136\H,0,-1.40737117,-0.91213,-0.2278

 Normal termination of Gaussian 16 at Wed Apr  9 14:48:06 2025.
