 Gaussian 16, Revision C.01,

 ----------------------------------------------------------------------
 #t hf aug-cc-pvdz symm=none int=(grid=ultrafine) guess=(read,tcheck) s
 table=(opt,rrhf)
 ----------------------------------------------------------------------
 -----
 title
 -----
 Symbolic Z-matrix:
 Charge =  0 Multiplicity = 1

 SCF Done:  E(RHF) =  -306.423887846     A.U. after   18 cycles
 Normal termination of Gaussian 16 at Wed Apr  9 15:47:10 2025.
 Gaussian 16:  ES64L-G16RevC.01  3-Jul-2019

 ----------------------------------------------------------------------
 #t hf aug-cc-pvdz iop(5/13=1,5/36=2,99/5=2) pseudo=read geom=check gue
 ss=(read,tcheck) scf=(maxcycle=1)
 ----------------------------------------------------------------------
 -----
 title
 -----
 Structure from the checkpoint file:  "Grambow2020_wb97xd3_007367_reverse_mol1.chk"
 Charge =  0 Multiplicity = 1

                         Standard orientation:
 ---------------------------------------------------------------------
 Center     Atomic      Atomic             Coordinates (Angstroms)
 Number     Number       Type             X           Y           Z
 ---------------------------------------------------------------------
      1          6           0       -1.587533   -0.450552    0.764163
      2          6           0       -1.930660    0.199893   -0.542733
      3          6           0       -0.521218    0.193454   -0.035377
      4          6           0        0.525070    1.309747    0.192866
      5          6           0        1.653348    0.416704   -0.179233
      6          8           0        1.572676   -0.782492    0.364706
      7          6           0        0.307147   -0.987239   -0.416482
      8          1           0       -2.040956   -0.161635    1.705827
      9          1           0       -0.548331   -1.665264    0.225209
     10          1           0       -2.208503   -0.402071   -1.404144
     11          1           0       -2.426796    1.167341   -0.520206
     12          1           0        0.442968    2.178906   -0.458597
     13          1           0        0.571569    1.629532    1.236886
     14          1           0        2.419044    0.607986   -0.928934
     15          1           0        0.532681   -1.186898   -1.472920
 ---------------------------------------------------------------------

 SCF Done:  E(RHF) =  -306.516310125     A.U. after    2 cycles

 The electronic state is 1-A.
 Alpha  occ. eigenvalues --  -20.64816 -11.41819 -11.29110 -11.27701 -11.24412
 Alpha  occ. eigenvalues --  -11.22099 -11.18500  -1.43853  -1.14474  -1.05381
 Alpha  occ. eigenvalues --   -0.95019  -0.86752  -0.78873  -0.76257  -0.70756
 Alpha  occ. eigenvalues --   -0.69137  -0.66899  -0.60507  -0.60265  -0.58439
 Alpha  occ. eigenvalues --   -0.55622  -0.50998  -0.45325  -0.40883  -0.37642
 Alpha  occ. eigenvalues --   -0.23971
 Alpha virt. eigenvalues --    0.00886   0.02412   0.04043   0.04606   0.05148
 Alpha virt. eigenvalues --    0.06244   0.07035   0.07189   0.07805   0.09921
 Alpha virt. eigenvalues --    0.11271   0.11952   0.12770   0.13062   0.14061

 Mulliken charges:
               1
     1  C   -0.035131
     2  C    0.834665
     3  C   -0.572440
     4  C    0.325412
     5  C    0.975917
     6  O   -0.679702
     7  C    0.167827
     8  H   -0.452077
     9  H    0.430402
    10  H   -0.317485
    11  H   -0.289861
    12  H   -0.125613
    13  H    0.023334
    14  H   -0.219393
    15  H   -0.065854
 Sum of Mulliken charges =  -0.00000

 Dipole moment (field-independent basis, Debye):
    X=              3.6147    Y=              3.6339    Z=             -2.1548  Tot=              5.5601

 Test job not archived.
 1\1\GINC-SE120\SP\RHF\Aug-CC-pVDZ\C6H8O1\OHZDE\09-Apr-2025\0\\#t hf au
 g-cc-pvdz iop(5/13=1,5/36=2,99/5=2) pseudo=read geom=check guess=(read
 ,tcheck) scf=(maxcycle=1)\\title\\0,1\C,0,-1.47784758,0.22845753,-0.83
 50014\C,0,-1.64943155,-0.11481056,0.61465997\C,0,-0.28948533,-0.092876
 3,-0.01306802\C,0,0.86376083,-1.12213591,-0.07283843\C,0,1.90089811,-0
 .05839375,-0.03049611\O,0,1.64049444,0.95824214,-0.82992692\C,0,0.4170
 0424,1.22096656,-0.00059816\H,0,-1.95805389,-0.32439533,-1.63472115\H,
 0,-0.55560366,1.63439079,-0.69805226\H,0,-1.93634,0.64829313,1.3336458

 Normal termination of Gaussian 16 at Wed Apr  9 15:47:16 2025.
