 Gaussian 16, Revision C.01,

 ----------------------------------------------------------------------
 #t hf aug-cc-pvdz symm=none int=(grid=ultrafine) guess=(read,tcheck) s
 table=(opt,rrhf)
 ----------------------------------------------------------------------
 -----
 title
 -----
 Symbolic Z-matrix:
 Charge =  0 Multiplicity = 1

 SCF Done:  E(RHF) =  -359.445945516     A.U. after   18 cycles
 Normal termination of Gaussian 16 at Wed Apr  9 03:45:36 2025.
 Gaussian 16:  ES64L-G16RevC.01  3-Jul-2019

 ----------------------------------------------------------------------
 #t hf aug-cc-pvdz iop(5/13=1,5/36=2,99/5=2) pseudo=read geom=check gue
 ss=(read,tcheck) scf=(maxcycle=1)
 ----------------------------------------------------------------------
 -----
 title
 -----
 Structure from the checkpoint file:  "Grambow2020_wb97xd3_007902_forward_mol1.chk"
 Charge =  0 Multiplicity = 1

                         Standard orientation:
 ---------------------------------------------------------------------
 Center     Atomic      Atomic             Coordinates (Angstroms)
 Number     Number       Type             X           Y           Z
 ---------------------------------------------------------------------
      1          6           0       -0.358669    1.680751   -0.055847
      2          6           0       -0.313947    0.143812   -0.061704
      3          7           0       -1.321971   -0.590407    0.493675
      4          8           0       -2.443492   -0.450048   -0.330562
      5          6           0        0.918884   -0.467843    0.530550
      6          6           0        1.776040   -0.821789   -0.518285
      7          8           0        2.224328    0.241421    0.083643
      8          1           0       -0.289687    2.051483    0.967719
      9          1           0        0.445550    2.109621   -0.653925
     10          1           0       -1.315209    1.983211   -0.479640
     11          1           0       -3.075657   -1.056800    0.059244
     12          1           0        0.966010   -0.807526    1.557547
     13          1           0        2.287510   -1.555971   -1.124610
     14          1           0       -0.145257   -0.131744   -1.174990
 ---------------------------------------------------------------------

 SCF Done:  E(RHF) =  -359.556186797     A.U. after    2 cycles

 The electronic state is 1-A.
 Alpha  occ. eigenvalues --  -20.69609 -20.55549 -15.59168 -11.44438 -11.37148
 Alpha  occ. eigenvalues --  -11.27788 -11.22043  -1.49832  -1.31900  -1.12456
 Alpha  occ. eigenvalues --   -0.99733  -0.94340  -0.91586  -0.80280  -0.78573
 Alpha  occ. eigenvalues --   -0.69098  -0.67413  -0.63151  -0.61633  -0.59430
 Alpha  occ. eigenvalues --   -0.56596  -0.55138  -0.53082  -0.50205  -0.47034
 Alpha  occ. eigenvalues --   -0.38371  -0.23734
 Alpha virt. eigenvalues --   -0.00477   0.02023   0.03937   0.04808   0.05532
 Alpha virt. eigenvalues --    0.06697   0.07485   0.08102   0.08866   0.10524
 Alpha virt. eigenvalues --    0.11895   0.12775   0.14179   0.14562   0.14632

 Mulliken charges:
               1
     1  C    0.383315
     2  C   -0.162710
     3  N   -0.575016
     4  O   -0.509760
     5  C    1.164574
     6  C    0.379055
     7  O   -0.600136
     8  H    0.049106
     9  H   -0.050963
    10  H   -0.016332
    11  H    0.148351
    12  H   -0.210160
    13  H   -0.174088
    14  H    0.174766
 Sum of Mulliken charges =  -0.00000

 Dipole moment (field-independent basis, Debye):
    X=              4.6865    Y=             -2.0515    Z=             -0.8467  Tot=              5.1854

 Test job not archived.
 1\1\GINC-SE335\SP\RHF\Aug-CC-pVDZ\C4H7N1O2\OHZDE\09-Apr-2025\0\\#t hf
 aug-cc-pvdz iop(5/13=1,5/36=2,99/5=2) pseudo=read geom=check guess=(re
 ad,tcheck) scf=(maxcycle=1)\\title\\0,1\C,0,-0.96481986,-1.21660476,0.
 06683688\C,0,-0.2131828,0.1228703,0.13799336\N,0,-0.88503872,1.3095878
 3,0.07516334\O,0,-1.59634229,1.45028855,1.27145946\C,0,0.8853813,0.300
 11057,-0.86525223\C,0,2.10250614,0.02278647,-0.23141671\O,0,1.77684743
 ,-0.96020918,-1.01968068\H,0,-1.42103478,-1.33590719,-0.91679122\H,0,-
 0.30440349,-2.06046409,0.26720029\H,0,-1.7492396,-1.19367919,0.8219607

 Normal termination of Gaussian 16 at Wed Apr  9 03:45:40 2025.
