 Gaussian 16, Revision C.01,

 ----------------------------------------------------------------------
 #t hf aug-cc-pvdz symm=none int=(grid=ultrafine) guess=(read,tcheck) s
 table=(opt,rrhf)
 ----------------------------------------------------------------------
 -----
 title
 -----
 Symbolic Z-matrix:
 Charge =  0 Multiplicity = 1

 SCF Done:  E(RHF) =  -374.592908425     A.U. after   14 cycles
 Normal termination of Gaussian 16 at Wed Apr  9 16:34:49 2025.
 Gaussian 16:  ES64L-G16RevC.01  3-Jul-2019

 ----------------------------------------------------------------------
 #t hf aug-cc-pvdz iop(5/13=1,5/36=2,99/5=2) pseudo=read geom=check gue
 ss=(read,tcheck) scf=(maxcycle=1)
 ----------------------------------------------------------------------
 -----
 title
 -----
 Structure from the checkpoint file:  "Grambow2020_wb97xd3_008641_forward_mol2.chk"
 Charge =  0 Multiplicity = 1

                         Standard orientation:
 ---------------------------------------------------------------------
 Center     Atomic      Atomic             Coordinates (Angstroms)
 Number     Number       Type             X           Y           Z
 ---------------------------------------------------------------------
      1          6           0        1.940992   -0.691541    0.000705
      2          7           0        0.530506   -0.406762   -0.001120
      3          7           0       -0.410925   -1.402397   -0.000600
      4          6           0       -1.517300   -0.771407    0.000520
      5          8           0       -1.398373    0.570648    0.000334
      6          6           0       -0.035213    0.829473   -0.000240
      7          8           0        0.453833    1.919694   -0.000044
      8          1           0        2.213917   -1.256198    0.892280
      9          1           0        2.215402   -1.259343   -0.888382
     10          1           0        2.462144    0.263705   -0.000947
     11          1           0       -2.503091   -1.205942    0.000868
 ---------------------------------------------------------------------

 SCF Done:  E(RHF) =  -374.710399517     A.U. after    2 cycles

 The electronic state is 1-A.
 Alpha  occ. eigenvalues --  -20.67044 -20.56114 -15.71423 -15.69697 -11.43791
 Alpha  occ. eigenvalues --  -11.37526 -11.29451  -1.50141  -1.36794  -1.31705
 Alpha  occ. eigenvalues --   -1.14363  -0.99878  -0.90367  -0.85097  -0.76078
 Alpha  occ. eigenvalues --   -0.73584  -0.67376  -0.66969  -0.63701  -0.63223
 Alpha  occ. eigenvalues --   -0.57790  -0.55802  -0.53915  -0.51778  -0.47866
 Alpha  occ. eigenvalues --   -0.36957
 Alpha virt. eigenvalues --    0.03121   0.03487   0.04917   0.06265   0.08409
 Alpha virt. eigenvalues --    0.08811   0.09702   0.11867   0.12112   0.13055
 Alpha virt. eigenvalues --    0.14423   0.14918   0.15304   0.15477   0.16652

 Mulliken charges:
               1
     1  C    0.898300
     2  N   -0.413699
     3  N   -0.195718
     4  C    0.735915
     5  O   -0.481420
     6  C    0.462475
     7  O   -0.400516
     8  H   -0.081541
     9  H   -0.082500
    10  H   -0.210452
    11  H   -0.230845
 Sum of Mulliken charges =  -0.00000

 Dipole moment (field-independent basis, Debye):
    X=             -0.2167    Y=             -3.3910    Z=              0.0023  Tot=              3.3979

 Test job not archived.
 1\1\GINC-SE042\SP\RHF\Aug-CC-pVDZ\C3H4N2O2\OHZDE\09-Apr-2025\0\\#t hf
 aug-cc-pvdz iop(5/13=1,5/36=2,99/5=2) pseudo=read geom=check guess=(re
 ad,tcheck) scf=(maxcycle=1)\\title\\0,1\C,0,-1.59933327,-0.29438417,-0
 .05391743\N,0,-0.17620625,-0.08340811,-0.02612104\N,0,0.70690211,-1.03
 161263,-0.47177534\C,0,1.84601093,-0.49051541,-0.29328492\O,0,1.802863
 42,0.74701796,0.23766167\C,0,0.4576202,1.03300996,0.42130693\O,0,0.031
 07957,2.05237818,0.87594895\H,0,-1.94038155,-0.45361874,-1.07693417\H,
 0,-1.8680756,-1.15552385,0.55795775\H,0,-2.0654156,0.60135108,0.351695

 Normal termination of Gaussian 16 at Wed Apr  9 16:34:54 2025.
