 Gaussian 16, Revision C.01,

 ----------------------------------------------------------------------
 #t hf aug-cc-pvdz symm=none int=(grid=ultrafine) guess=(read,tcheck) s
 table=(opt,rrhf)
 ----------------------------------------------------------------------
 -----
 title
 -----
 Symbolic Z-matrix:
 Charge =  0 Multiplicity = 1

 SCF Done:  E(RHF) =  -344.749455867     A.U. after   16 cycles

 1\1\GINC-SE138\Stability\RHF\Aug-CC-pVDZ\C5H10O2\OHZDE\09-Apr-2025\0\\
 #t hf aug-cc-pvdz symm=none int=(grid=ultrafine) guess=(read,tcheck) s
 table=(opt,rrhf)\\title\\0,1\C,0,-1.35253943,-1.47049072,-0.24894324\C
 ,0,-0.39175643,-0.36742139,0.00869851\C,0,1.07477538,-0.58381455,-0.16
 079655\C,0,1.95592054,0.43483005,0.55667265\O,0,1.91231308,1.71472712,
 -0.03383126\C,0,-1.81919595,1.17584918,-0.16506139\O,0,-0.74019436,0.7
 7338114,0.58313174\H,0,-1.5926661,-1.62700749,-1.30268753\H,0,-0.92804
 334,-2.41279295,0.12419433\H,0,-2.29754731,-1.22772155,0.24562508\H,0,

 Normal termination of Gaussian 16 at Wed Apr  9 15:55:15 2025.
 Gaussian 16:  ES64L-G16RevC.01  3-Jul-2019

 ----------------------------------------------------------------------
 #t hf aug-cc-pvdz iop(5/13=1,5/36=2,99/5=2) pseudo=read geom=check gue
 ss=(read,tcheck) scf=(maxcycle=1)
 ----------------------------------------------------------------------
 -----
 title
 -----
 Structure from the checkpoint file:  "Grambow2020_wb97xd3_007599_reverse_mol1.chk"
 Charge =  0 Multiplicity = 1

                         Standard orientation:
 ---------------------------------------------------------------------
 Center     Atomic      Atomic             Coordinates (Angstroms)
 Number     Number       Type             X           Y           Z
 ---------------------------------------------------------------------
      1          6           0        1.967977   -1.118957    0.057768
      2          6           0        0.670220   -0.401862   -0.030814
      3          6           0       -0.612796   -1.122017    0.217208
      4          6           0       -1.851361   -0.427217   -0.341385
      5          8           0       -2.187934    0.748610    0.360671
      6          6           0        1.499701    1.525242    0.187573
      7          8           0        0.554725    0.823121   -0.519579
      8          1           0        2.346512   -1.249488    1.073744
      9          1           0        1.854413   -2.124153   -0.371238
     10          1           0        2.722866   -0.533668   -0.475294
     11          1           0       -0.750700   -1.249226    1.299348
     12          1           0       -0.527133   -2.137100   -0.189711
     13          1           0       -2.705346   -1.098234   -0.238040
     14          1           0       -1.720614   -0.225166   -1.410974
     15          1           0       -1.518771    1.408535    0.164693
     16          1           0        2.007761    2.298131   -0.369122
     17          1           0        1.314231    1.605390    1.245752
 ---------------------------------------------------------------------

 SCF Done:  E(RHF) =  -344.859122715     A.U. after    2 cycles

 The electronic state is 1-A.
 Alpha  occ. eigenvalues --  -20.65362 -20.57055 -11.36224 -11.29784 -11.26272
 Alpha  occ. eigenvalues --  -11.25449 -11.24226  -1.43241  -1.32646  -1.08636
 Alpha  occ. eigenvalues --   -1.00557  -0.92556  -0.87572  -0.78491  -0.72191
 Alpha  occ. eigenvalues --   -0.69693  -0.68859  -0.65893  -0.63446  -0.59084
 Alpha  occ. eigenvalues --   -0.58892  -0.56822  -0.56213  -0.55131  -0.51010
 Alpha  occ. eigenvalues --   -0.47733  -0.46226  -0.24669
 Alpha virt. eigenvalues --    0.03035   0.04193   0.04401   0.04886   0.05327
 Alpha virt. eigenvalues --    0.06157   0.06871   0.06958   0.07595   0.07822
 Alpha virt. eigenvalues --    0.09188   0.11579   0.12967   0.13233   0.14064

 Mulliken charges:
               1
     1  C    0.416529
     2  C   -0.388627
     3  C    0.062489
     4  C    0.976727
     5  O   -0.543089
     6  C    0.687754
     7  O   -0.585866
     8  H    0.083543
     9  H   -0.037774
    10  H    0.012740
    11  H    0.080796
    12  H    0.025354
    13  H   -0.176074
    14  H   -0.100026
    15  H    0.180334
    16  H   -0.379066
    17  H   -0.315745
 Sum of Mulliken charges =  -0.00000

 Dipole moment (field-independent basis, Debye):
    X=              0.7967    Y=             -3.2595    Z=             -0.5046  Tot=              3.3931

 Test job not archived.
 1\1\GINC-SE138\SP\RHF\Aug-CC-pVDZ\C5H10O2\OHZDE\09-Apr-2025\0\\#t hf a
 ug-cc-pvdz iop(5/13=1,5/36=2,99/5=2) pseudo=read geom=check guess=(rea
 d,tcheck) scf=(maxcycle=1)\\title\\0,1\C,0,-1.35253943,-1.47049072,-0.
 24894324\C,0,-0.39175643,-0.36742139,0.00869851\C,0,1.07477538,-0.5838
 1455,-0.16079655\C,0,1.95592054,0.43483005,0.55667265\O,0,1.91231308,1
 .71472712,-0.03383126\C,0,-1.81919595,1.17584918,-0.16506139\O,0,-0.74
 019436,0.77338114,0.58313174\H,0,-1.5926661,-1.62700749,-1.30268753\H,
 0,-0.92804334,-2.41279295,0.12419433\H,0,-2.29754731,-1.22772155,0.245

 Normal termination of Gaussian 16 at Wed Apr  9 15:55:21 2025.
