 Gaussian 16, Revision C.01,

 ----------------------------------------------------------------------
 #t hf aug-cc-pvdz symm=none int=(grid=ultrafine) guess=(read,tcheck) s
 table=(opt,rrhf)
 ----------------------------------------------------------------------
 -----
 title
 -----
 Symbolic Z-matrix:
 Charge =  0 Multiplicity = 1

 SCF Done:  E(RHF) =  -322.476605974     A.U. after   17 cycles
 Normal termination of Gaussian 16 at Wed Apr  9 03:34:28 2025.
 Gaussian 16:  ES64L-G16RevC.01  3-Jul-2019

 ----------------------------------------------------------------------
 #t hf aug-cc-pvdz iop(5/13=1,5/36=2,99/5=2) pseudo=read geom=check gue
 ss=(read,tcheck) scf=(maxcycle=1)
 ----------------------------------------------------------------------
 -----
 title
 -----
 Structure from the checkpoint file:  "Grambow2020_wb97xd3_007139_forward_mol1.chk"
 Charge =  0 Multiplicity = 1

                         Standard orientation:
 ---------------------------------------------------------------------
 Center     Atomic      Atomic             Coordinates (Angstroms)
 Number     Number       Type             X           Y           Z
 ---------------------------------------------------------------------
      1          7           0        2.284973   -0.431945   -0.147304
      2          6           0        1.099953   -0.064631    0.009884
      3          8           0       -0.502863   -1.539389    0.190893
      4          6           0       -1.544358   -0.848594   -0.133668
      5          6           0       -1.131483    0.796016   -0.204390
      6          6           0       -0.284112    1.349000    0.729979
      7          6           0        0.314692    1.008084   -0.587981
      8          1           0        2.603413   -1.079050    0.565387
      9          1           0       -2.368122   -0.832926    0.600477
     10          1           0       -1.921818   -0.994789   -1.158322
     11          1           0       -1.964093    1.339760   -0.626794
     12          1           0        0.472420   -0.232004    1.016581
     13          1           0       -0.189548    2.010870    1.574269
     14          1           0        0.667682    1.687622   -1.350550
 ---------------------------------------------------------------------

 SCF Done:  E(RHF) =  -322.572830063     A.U. after    2 cycles

 The electronic state is 1-A.
 Alpha  occ. eigenvalues --  -20.51295 -15.59727 -11.36287 -11.33316 -11.30174
 Alpha  occ. eigenvalues --  -11.29407 -11.29148  -1.29024  -1.23384  -1.16493
 Alpha  occ. eigenvalues --   -0.94198  -0.88102  -0.82575  -0.78527  -0.73221
 Alpha  occ. eigenvalues --   -0.67419  -0.64388  -0.60871  -0.58644  -0.57055
 Alpha  occ. eigenvalues --   -0.52089  -0.48486  -0.43524  -0.41059  -0.37998
 Alpha  occ. eigenvalues --   -0.34514
 Alpha virt. eigenvalues --    0.00409   0.01926   0.03339   0.04304   0.05284
 Alpha virt. eigenvalues --    0.06132   0.06483   0.08493   0.09476   0.10841
 Alpha virt. eigenvalues --    0.11604   0.12811   0.12998   0.13736   0.14281

 Mulliken charges:
               1
     1  N   -0.367734
     2  C   -0.059226
     3  O   -0.708144
     4  C    0.723308
     5  C    0.211105
     6  C    0.177245
     7  C    0.937770
     8  H    0.029183
     9  H   -0.086250
    10  H   -0.107499
    11  H   -0.309499
    12  H    0.251030
    13  H   -0.369341
    14  H   -0.321948
 Sum of Mulliken charges =  -0.00000

 Dipole moment (field-independent basis, Debye):
    X=             -2.8793    Y=              5.5264    Z=              1.3913  Tot=              6.3849

 Test job not archived.
 1\1\GINC-SE106\SP\RHF\Aug-CC-pVDZ\C5H7N1O1\OHZDE\09-Apr-2025\0\\#t hf
 aug-cc-pvdz iop(5/13=1,5/36=2,99/5=2) pseudo=read geom=check guess=(re
 ad,tcheck) scf=(maxcycle=1)\\title\\0,1\N,0,1.53431946,-1.97987711,-0.
 11033231\C,0,0.70850245,-1.07523417,-0.36241507\O,0,1.3659903,0.808718
 26,-1.25411311\C,0,0.40571613,1.60997309,-0.9329999\C,0,-0.89277127,0.
 71332273,-0.30837312\C,0,-1.24966328,-0.49225133,-0.87059317\C,0,-0.43
 751614,-0.55597299,0.37365948\H,0,2.09220312,-2.25022624,-0.91267572\H
 ,0,-0.08238511,2.14546274,-1.76535279\H,0,0.60046315,2.28194744,-0.081

 Normal termination of Gaussian 16 at Wed Apr  9 03:34:33 2025.
