 Gaussian 16, Revision C.01,

 ----------------------------------------------------------------------
 #t hf aug-cc-pvdz symm=none int=(grid=ultrafine) guess=(read,tcheck) s
 table=(opt,rrhf)
 ----------------------------------------------------------------------
 -----
 title
 -----
 Symbolic Z-matrix:
 Charge =  0 Multiplicity = 1

 SCF Done:  E(RHF) =  -342.382281555     A.U. after   18 cycles
 Normal termination of Gaussian 16 at Wed Apr  9 16:32:04 2025.
 Gaussian 16:  ES64L-G16RevC.01  3-Jul-2019

 ----------------------------------------------------------------------
 #t hf aug-cc-pvdz iop(5/13=1,5/36=2,99/5=2) pseudo=read geom=check gue
 ss=(read,tcheck) scf=(maxcycle=1)
 ----------------------------------------------------------------------
 -----
 title
 -----
 Structure from the checkpoint file:  "Grambow2020_wb97xd3_008526_forward_mol1.chk"
 Charge =  0 Multiplicity = 1

                         Standard orientation:
 ---------------------------------------------------------------------
 Center     Atomic      Atomic             Coordinates (Angstroms)
 Number     Number       Type             X           Y           Z
 ---------------------------------------------------------------------
      1          8           0        2.120145    0.106815   -0.442566
      2          6           0        0.994553   -0.094387   -0.038613
      3          6           0        0.471120   -1.209696    0.711579
      4          8           0       -1.335919   -1.141123   -0.114499
      5          6           0       -1.338261   -0.051414   -0.682440
      6          6           0       -0.539490    1.538863    0.812108
      7          6           0       -0.189361    0.849941   -0.411360
      8          1           0       -0.021065   -1.101866    1.662366
      9          1           0        0.867300   -2.190997    0.479560
     10          1           0       -2.161182    0.238331   -1.336155
     11          1           0       -0.939354    0.993572    1.654306
     12          1           0       -0.493347    2.615689    0.872187
     13          1           0        0.082474    1.519893   -1.223394
 ---------------------------------------------------------------------

 SCF Done:  E(RHF) =  -342.486850516     A.U. after    2 cycles

 The electronic state is 1-A.
 Alpha  occ. eigenvalues --  -20.64169 -20.56665 -11.37981 -11.36541 -11.35916
 Alpha  occ. eigenvalues --  -11.27715 -11.22087  -1.42077  -1.35825  -1.10623
 Alpha  occ. eigenvalues --   -1.03569  -0.88374  -0.83442  -0.78466  -0.74160
 Alpha  occ. eigenvalues --   -0.69323  -0.68552  -0.65260  -0.63653  -0.61346
 Alpha  occ. eigenvalues --   -0.57702  -0.54394  -0.52249  -0.48582  -0.44762
 Alpha  occ. eigenvalues --   -0.24552
 Alpha virt. eigenvalues --    0.01144   0.03180   0.03768   0.04663   0.05234
 Alpha virt. eigenvalues --    0.06147   0.07448   0.08073   0.09238   0.10069
 Alpha virt. eigenvalues --    0.12069   0.12928   0.13701   0.14265   0.14485

 Mulliken charges:
               1
     1  O   -0.480990
     2  C    0.173334
     3  C    0.815183
     4  O   -0.493306
     5  C    0.676382
     6  C    0.491321
     7  C    0.296450
     8  H   -0.134974
     9  H   -0.147755
    10  H   -0.221577
    11  H   -0.357845
    12  H   -0.376717
    13  H   -0.239505
 Sum of Mulliken charges =  -0.00000

 Dipole moment (field-independent basis, Debye):
    X=             -2.5384    Y=             -1.8709    Z=             -0.2732  Tot=              3.1652

 Test job not archived.
 1\1\GINC-SE141\SP\RHF\Aug-CC-pVDZ\C5H6O2\OHZDE\09-Apr-2025\0\\#t hf au
 g-cc-pvdz iop(5/13=1,5/36=2,99/5=2) pseudo=read geom=check guess=(read
 ,tcheck) scf=(maxcycle=1)\\title\\0,1\O,0,0.87413151,2.14897986,0.5376
 7076\C,0,0.67202658,0.98374159,0.26935684\C,0,1.60575421,-0.10943932,0
 .15191592\O,0,0.58989046,-1.05239625,-1.27333798\C,0,-0.49965274,-0.48
 436349,-1.25714723\C,0,-1.20300122,-0.34328821,0.95330316\C,0,-0.74140
 185,0.47370874,-0.14829569\H,0,1.52883537,-1.01513726,0.72781767\H,0,2
 .57708688,0.11361165,-0.27294303\H,0,-1.25426085,-0.69733856,-2.014579

 Normal termination of Gaussian 16 at Wed Apr  9 16:32:08 2025.
