 Gaussian 16, Revision C.01,

 ----------------------------------------------------------------------
 #t hf aug-cc-pvdz symm=none int=(grid=ultrafine) guess=(read,tcheck) s
 table=(opt,rrhf)
 ----------------------------------------------------------------------
 -----
 title
 -----
 Symbolic Z-matrix:
 Charge =  0 Multiplicity = 1

 SCF Done:  E(RHF) =  -359.619890452     A.U. after   16 cycles
 Normal termination of Gaussian 16 at Wed Apr  9 14:43:59 2025.
 Gaussian 16:  ES64L-G16RevC.01  3-Jul-2019

 ----------------------------------------------------------------------
 #t hf aug-cc-pvdz iop(5/13=1,5/36=2,99/5=2) pseudo=read geom=check gue
 ss=(read,tcheck) scf=(maxcycle=1)
 ----------------------------------------------------------------------
 -----
 title
 -----
 Structure from the checkpoint file:  "Grambow2020_wb97xd3_006598_reverse_mol2.chk"
 Charge =  0 Multiplicity = 1

                         Standard orientation:
 ---------------------------------------------------------------------
 Center     Atomic      Atomic             Coordinates (Angstroms)
 Number     Number       Type             X           Y           Z
 ---------------------------------------------------------------------
      1          6           0        2.574783   -0.239938    0.099703
      2          7           0        1.478766    0.621461   -0.277548
      3          6           0        0.298441    0.225759   -0.181402
      4          6           0       -0.924370    1.024633   -0.537156
      5          8           0       -1.903710    0.224776   -0.273217
      6          6           0       -1.479674   -1.076105    0.238472
      7          8           0       -0.100329   -1.025475    0.274457
      8          1           0        3.196382   -0.407719   -0.781970
      9          1           0        3.192594    0.290362    0.826123
     10          1           0        2.273516   -1.204009    0.515600
     11          1           0       -1.030005    3.254348    1.094915
     12          1           0       -1.015145    3.549442    1.780972
     13          1           0       -1.841717   -1.837168   -0.454399
     14          1           0       -1.909746   -1.195984    1.233980
 ---------------------------------------------------------------------

 SCF Done:  E(RHF) =  -359.736573947     A.U. after    2 cycles

 The electronic state is 1-A.
 Alpha  occ. eigenvalues --  -20.67024 -20.63848 -15.64451 -11.39003 -11.35614
 Alpha  occ. eigenvalues --  -11.32794 -11.26936  -1.48529  -1.38391  -1.22153
 Alpha  occ. eigenvalues --   -1.03520  -0.96057  -0.88027  -0.83327  -0.75638
 Alpha  occ. eigenvalues --   -0.72722  -0.67673  -0.63863  -0.62050  -0.60733
 Alpha  occ. eigenvalues --   -0.59992  -0.57728  -0.56547  -0.54601  -0.43692
 Alpha  occ. eigenvalues --   -0.41147  -0.39117
 Alpha virt. eigenvalues --    0.02828   0.04072   0.04163   0.05777   0.06149
 Alpha virt. eigenvalues --    0.06456   0.07460   0.08521   0.08963   0.09836
 Alpha virt. eigenvalues --    0.12352   0.12734   0.13442   0.13512   0.14821

 Mulliken charges:
               1
     1  C    0.738179
     2  N   -0.480580
     3  C    0.485797
     4  C    0.077514
     5  O   -0.489098
     6  C    1.066584
     7  O   -0.637579
     8  H   -0.132010
     9  H   -0.142577
    10  H   -0.120673
    11  H    0.026204
    12  H   -0.004606
    13  H   -0.194085
    14  H   -0.193072
 Sum of Mulliken charges =  -0.00000

 Dipole moment (field-independent basis, Debye):
    X=             -0.0552    Y=             -3.8898    Z=              1.3583  Tot=              4.1205

 Test job not archived.
 1\1\GINC-SE113\SP\RHF\Aug-CC-pVDZ\C4H7N1O2\OHZDE\09-Apr-2025\0\\#t hf
 aug-cc-pvdz iop(5/13=1,5/36=2,99/5=2) pseudo=read geom=check guess=(re
 ad,tcheck) scf=(maxcycle=1)\\title\\0,1\C,0,2.31845947,-0.42096866,-0.
 7544088\N,0,1.24176101,0.54028435,-0.80228985\C,0,0.05728875,0.1744486
 6,-0.65336192\C,0,-1.14663738,1.07441831,-0.67875476\O,0,-2.13774794,0
 .27052434,-0.4787611\C,0,-1.73960778,-1.12541912,-0.31521085\O,0,-0.36
 405325,-1.13208531,-0.43460956\H,0,2.82881606,-0.41046698,-1.71945218\
 H,0,3.04274483,-0.08691054,-0.00982053\H,0,2.0068145,-1.44220364,-0.52

 Normal termination of Gaussian 16 at Wed Apr  9 14:44:03 2025.
