 Gaussian 16, Revision C.01,

 ----------------------------------------------------------------------
 #t hf aug-cc-pvdz symm=none int=(grid=ultrafine) guess=(read,tcheck) s
 table=(opt,rrhf)
 ----------------------------------------------------------------------
 -----
 title
 -----
 Symbolic Z-matrix:
 Charge =  0 Multiplicity = 1

 SCF Done:  E(RHF) =  -358.293906770     A.U. after   17 cycles
 Normal termination of Gaussian 16 at Wed Apr  9 03:33:09 2025.
 Gaussian 16:  ES64L-G16RevC.01  3-Jul-2019

 ----------------------------------------------------------------------
 #t hf aug-cc-pvdz iop(5/13=1,5/36=2,99/5=2) pseudo=read geom=check gue
 ss=(read,tcheck) scf=(maxcycle=1)
 ----------------------------------------------------------------------
 -----
 title
 -----
 Structure from the checkpoint file:  "Grambow2020_wb97xd3_007073_reverse_mol1.chk"
 Charge =  0 Multiplicity = 1

                         Standard orientation:
 ---------------------------------------------------------------------
 Center     Atomic      Atomic             Coordinates (Angstroms)
 Number     Number       Type             X           Y           Z
 ---------------------------------------------------------------------
      1          8           0        2.124688   -0.490148    0.061732
      2          6           0        0.988361   -0.108531    0.072472
      3          7           0        0.525881    1.137019   -0.328059
      4          6           0       -0.814699    1.237346   -0.051629
      5          6           0       -1.433498   -0.082705    0.017952
      6          8           0       -0.949159   -1.313265   -0.577345
      7          6           0       -0.279684   -0.785764    0.535221
      8          1           0        1.101899    1.860028   -0.727759
      9          1           0       -1.319991    2.178698   -0.226446
     10          1           0       -0.740318    1.026342    1.609099
     11          1           0       -2.383583   -0.181885    0.524761
     12          1           0       -0.506291    0.022906    1.797573
 ---------------------------------------------------------------------

 SCF Done:  E(RHF) =  -358.404029487     A.U. after    2 cycles

 The electronic state is 1-A.
 Alpha  occ. eigenvalues --  -20.64646 -20.56686 -15.70852 -11.39117 -11.38875
 Alpha  occ. eigenvalues --  -11.32568 -11.32093  -1.43697  -1.37749  -1.28298
 Alpha  occ. eigenvalues --   -1.04983  -0.97942  -0.86766  -0.80962  -0.75633
 Alpha  occ. eigenvalues --   -0.72229  -0.68704  -0.67891  -0.64202  -0.62350
 Alpha  occ. eigenvalues --   -0.56963  -0.54707  -0.50436  -0.45578  -0.40538
 Alpha  occ. eigenvalues --   -0.34554
 Alpha virt. eigenvalues --    0.01047   0.02694   0.03646   0.04908   0.05920
 Alpha virt. eigenvalues --    0.07688   0.09174   0.09862   0.10640   0.11214
 Alpha virt. eigenvalues --    0.12567   0.13277   0.13619   0.14478   0.14894

 Mulliken charges:
               1
     1  O   -0.439264
     2  C    0.726002
     3  N   -0.334026
     4  C    0.501065
     5  C    1.020759
     6  O   -0.690352
     7  C   -0.666259
     8  H   -0.119991
     9  H   -0.220784
    10  H    0.134738
    11  H   -0.240241
    12  H    0.328353
 Sum of Mulliken charges =   0.00000

 Dipole moment (field-independent basis, Debye):
    X=             -3.1914    Y=              5.1657    Z=             -0.7293  Tot=              6.1157

 Test job not archived.
 1\1\GINC-SE322\SP\RHF\Aug-CC-pVDZ\C4H5N1O2\OHZDE\09-Apr-2025\0\\#t hf
 aug-cc-pvdz iop(5/13=1,5/36=2,99/5=2) pseudo=read geom=check guess=(re
 ad,tcheck) scf=(maxcycle=1)\\title\\0,1\O,0,0.99077382,2.27284893,0.71
 380123\C,0,0.53978518,1.19668556,0.43909015\N,0,1.25377356,0.06645523,
 0.0669251\C,0,0.37941035,-0.93107833,-0.28528152\C,0,-0.91973563,-0.73
 488449,0.35034036\O,0,-1.20627539,0.03360286,1.54640275\C,0,-0.8882626
 3,0.7114998,0.36167388\H,0,2.25871632,0.00997768,0.03229507\H,0,0.7707
 5008,-1.85966826,-0.68100546\H,0,-0.38995562,-0.14858857,-1.55171614\H

 Normal termination of Gaussian 16 at Wed Apr  9 03:33:14 2025.
