 Gaussian 16, Revision C.01,

 ----------------------------------------------------------------------
 #t hf aug-cc-pvdz symm=none int=(grid=ultrafine) guess=(read,tcheck) s
 table=(opt,rrhf)
 ----------------------------------------------------------------------
 -----
 title
 -----
 Symbolic Z-matrix:
 Charge =  0 Multiplicity = 1

 SCF Done:  E(RHF) =  -279.800167815     A.U. after   15 cycles
 Normal termination of Gaussian 16 at Wed Apr  9 03:15:50 2025.
 Gaussian 16:  ES64L-G16RevC.01  3-Jul-2019

 ----------------------------------------------------------------------
 #t hf aug-cc-pvdz iop(5/13=1,5/36=2,99/5=2) pseudo=read geom=check gue
 ss=(read,tcheck) scf=(maxcycle=1)
 ----------------------------------------------------------------------
 -----
 title
 -----
 Structure from the checkpoint file:  "Grambow2020_b97d3_007051_reverse_mol2.chk"
 Charge =  0 Multiplicity = 1

                         Standard orientation:
 ---------------------------------------------------------------------
 Center     Atomic      Atomic             Coordinates (Angstroms)
 Number     Number       Type             X           Y           Z
 ---------------------------------------------------------------------
      1          7           0       -2.035745   -0.076366   -0.085720
      2          6           0       -0.659741    0.066288    0.020931
      3          6           0        0.150629    1.193325   -0.000966
      4          6           0        1.535212    0.814622    0.012462
      5          7           0        1.470823   -0.528990   -0.068326
      6          7           0        0.129618   -1.068735    0.088594
      7          1           0       -2.525486    0.811814   -0.009735
      8          1           0       -2.445901   -0.770178    0.536994
      9          1           0       -0.223331    2.215091    0.013580
     10          1           0        2.194763   -1.153328    0.274275
     11          1           0       -0.109515   -1.830185   -0.551512
 ---------------------------------------------------------------------

 SCF Done:  E(RHF) =  -279.880939456     A.U. after    2 cycles

 The electronic state is 1-A.
 Alpha  occ. eigenvalues --  -15.69402 -15.68516 -15.66745 -11.34919 -11.23769
 Alpha  occ. eigenvalues --  -11.21332  -1.31968  -1.20714  -1.08157  -1.01661
 Alpha  occ. eigenvalues --   -0.81164  -0.79517  -0.74319  -0.70549  -0.63190
 Alpha  occ. eigenvalues --   -0.61646  -0.57879  -0.55577  -0.49595  -0.39759
 Alpha  occ. eigenvalues --   -0.34117  -0.33309
 Alpha virt. eigenvalues --    0.02286   0.03232   0.04600   0.05229   0.06692
 Alpha virt. eigenvalues --    0.10069   0.12112   0.12228   0.12572   0.13952
 Alpha virt. eigenvalues --    0.14226   0.14917   0.15351   0.15918   0.16449

 Mulliken charges:
               1
     1  N   -0.280906
     2  C    0.312015
     3  C    0.907468
     4  C   -0.202138
     5  N   -0.175794
     6  N   -0.315660
     7  H    0.063934
     8  H   -0.004405
     9  H   -0.363782
    10  H    0.023751
    11  H    0.035516
 Sum of Mulliken charges =  -0.00000

 Dipole moment (field-independent basis, Debye):
    X=             -4.1065    Y=             -3.2923    Z=              0.5062  Tot=              5.2876

 Test job not archived.
 1\1\GINC-SE128\SP\RHF\Aug-CC-pVDZ\C3H5N3\OHZDE\09-Apr-2025\0\\#t hf au
 g-cc-pvdz iop(5/13=1,5/36=2,99/5=2) pseudo=read geom=check guess=(read
 ,tcheck) scf=(maxcycle=1)\\title\\0,1\N,0,-1.8107648,0.06550247,0.1117
 763\C,0,-0.43409351,-0.07652702,0.01320408\C,0,0.38695116,-1.18641023,
 0.15961164\C,0,1.76781499,-0.79975283,0.09343931\N,0,1.69123943,0.5435
 9269,0.01911469\N,0,0.34416512,1.0499281,-0.19015542\H,0,-2.29254383,-
 0.82973947,0.14199476\H,0,-2.23088459,0.67921332,-0.58409292\H,0,0.022
 54483,-2.20624279,0.26550344\H,0,2.40735916,1.13049431,-0.39799718\H,0

 Normal termination of Gaussian 16 at Wed Apr  9 03:15:54 2025.
