 Gaussian 16, Revision C.01,

 ----------------------------------------------------------------------
 #t hf aug-cc-pvdz symm=none int=(grid=ultrafine) guess=(read,tcheck) s
 table=(opt,rrhf)
 ----------------------------------------------------------------------
 -----
 title
 -----
 Symbolic Z-matrix:
 Charge =  0 Multiplicity = 1

 SCF Done:  E(RHF) =  -344.776625898     A.U. after   16 cycles

 1\1\GINC-SE452\Stability\RHF\Aug-CC-pVDZ\C5H10O2\OHZDE\09-Apr-2025\0\\
 #t hf aug-cc-pvdz symm=none int=(grid=ultrafine) guess=(read,tcheck) s
 table=(opt,rrhf)\\title\\0,1\C,0,-2.19767571,-0.1808494,-0.46711243\C,
 0,-0.69687335,-0.33547461,-0.65543759\O,0,-0.15579209,0.74859389,-1.39
 165658\C,0,0.0243234,-0.53166451,0.6766937\C,0,1.54223149,-0.57243299,
 0.54023976\C,0,2.23908997,0.74458176,0.55489377\O,0,1.54388993,1.81391
 737,0.82354118\H,0,-2.62612338,-1.05863497,0.02185633\H,0,-2.41873635,
 0.69297414,0.15227212\H,0,-2.6868178,-0.04917407,-1.43243622\H,0,-0.50

 Normal termination of Gaussian 16 at Wed Apr  9 03:33:33 2025.
 Gaussian 16:  ES64L-G16RevC.01  3-Jul-2019

 ----------------------------------------------------------------------
 #t hf aug-cc-pvdz iop(5/13=1,5/36=2,99/5=2) pseudo=read geom=check gue
 ss=(read,tcheck) scf=(maxcycle=1)
 ----------------------------------------------------------------------
 -----
 title
 -----
 Structure from the checkpoint file:  "Grambow2020_wb97xd3_007087_forward_mol1.chk"
 Charge =  0 Multiplicity = 1

                         Standard orientation:
 ---------------------------------------------------------------------
 Center     Atomic      Atomic             Coordinates (Angstroms)
 Number     Number       Type             X           Y           Z
 ---------------------------------------------------------------------
      1          6           0       -2.482307   -0.077072   -0.489336
      2          6           0       -1.235519    0.132827    0.355203
      3          8           0       -0.705601   -1.102091    0.807039
      4          6           0       -0.186249    0.964474   -0.380042
      5          6           0        1.124262    1.097070    0.387620
      6          6           0        2.112295   -0.001771    0.196063
      7          8           0        1.865357   -0.911175   -0.704470
      8          1           0       -2.939054    0.877010   -0.761872
      9          1           0       -2.235618   -0.609793   -1.412064
     10          1           0       -3.215325   -0.666910    0.061322
     11          1           0       -1.513378    0.658686    1.274975
     12          1           0       -0.275410   -1.538754    0.065803
     13          1           0        0.009029    0.514801   -1.359836
     14          1           0       -0.600772    1.956663   -0.572409
     15          1           0        0.969679    1.198197    1.466493
     16          1           0        1.675931    2.000625    0.098419
     17          1           0        2.851971   -0.977566   -0.098426
 ---------------------------------------------------------------------

 SCF Done:  E(RHF) =  -344.884923426     A.U. after    2 cycles

 The electronic state is 1-A.
 Alpha  occ. eigenvalues --  -20.61426 -20.56391 -11.33401 -11.28986 -11.25050
 Alpha  occ. eigenvalues --  -11.23870 -11.22533  -1.39788  -1.32156  -1.07518
 Alpha  occ. eigenvalues --   -1.00815  -0.90861  -0.82643  -0.77570  -0.73642
 Alpha  occ. eigenvalues --   -0.67689  -0.65407  -0.63850  -0.60094  -0.58216
 Alpha  occ. eigenvalues --   -0.57049  -0.54889  -0.53344  -0.52567  -0.51047
 Alpha  occ. eigenvalues --   -0.47088  -0.44600  -0.36126
 Alpha virt. eigenvalues --    0.03349   0.04345   0.04459   0.04863   0.06067
 Alpha virt. eigenvalues --    0.06542   0.07007   0.07202   0.08638   0.09074
 Alpha virt. eigenvalues --    0.10381   0.11268   0.12593   0.13695   0.14597

 Mulliken charges:
               1
     1  C    0.536737
     2  C    0.034434
     3  O   -0.599470
     4  C    0.490752
     5  C    0.175894
     6  C   -0.073819
     7  O   -0.613434
     8  H   -0.014509
     9  H   -0.066791
    10  H   -0.014595
    11  H   -0.254591
    12  H    0.200865
    13  H   -0.126855
    14  H   -0.109994
    15  H   -0.015861
    16  H    0.061282
    17  H    0.389954
 Sum of Mulliken charges =   0.00000

 Dipole moment (field-independent basis, Debye):
    X=             -0.1406    Y=              2.0543    Z=             -0.7805  Tot=              2.2021

 Test job not archived.
 1\1\GINC-SE452\SP\RHF\Aug-CC-pVDZ\C5H10O2\OHZDE\09-Apr-2025\0\\#t hf a
 ug-cc-pvdz iop(5/13=1,5/36=2,99/5=2) pseudo=read geom=check guess=(rea
 d,tcheck) scf=(maxcycle=1)\\title\\0,1\C,0,-2.19767571,-0.1808494,-0.4
 6711243\C,0,-0.69687335,-0.33547461,-0.65543759\O,0,-0.15579209,0.7485
 9389,-1.39165658\C,0,0.0243234,-0.53166451,0.6766937\C,0,1.54223149,-0
 .57243299,0.54023976\C,0,2.23908997,0.74458176,0.55489377\O,0,1.543889
 93,1.81391737,0.82354118\H,0,-2.62612338,-1.05863497,0.02185633\H,0,-2
 .41873635,0.69297414,0.15227212\H,0,-2.6868178,-0.04917407,-1.43243622

 Normal termination of Gaussian 16 at Wed Apr  9 03:33:38 2025.
