 Gaussian 16, Revision C.01,

 ----------------------------------------------------------------------
 #t hf aug-cc-pvdz symm=none int=(grid=ultrafine) guess=(read,tcheck) s
 table=(opt,rrhf)
 ----------------------------------------------------------------------
 -----
 title
 -----
 Symbolic Z-matrix:
 Charge =  0 Multiplicity = 1

 SCF Done:  E(RHF) =  -286.839805648     A.U. after   15 cycles
 Normal termination of Gaussian 16 at Wed Apr  9 15:58:10 2025.
 Gaussian 16:  ES64L-G16RevC.01  3-Jul-2019

 ----------------------------------------------------------------------
 #t hf aug-cc-pvdz iop(5/13=1,5/36=2,99/5=2) pseudo=read geom=check gue
 ss=(read,tcheck) scf=(maxcycle=1)
 ----------------------------------------------------------------------
 -----
 title
 -----
 Structure from the checkpoint file:  "Grambow2020_wb97xd3_007632_reverse_mol2.chk"
 Charge =  0 Multiplicity = 1

                         Standard orientation:
 ---------------------------------------------------------------------
 Center     Atomic      Atomic             Coordinates (Angstroms)
 Number     Number       Type             X           Y           Z
 ---------------------------------------------------------------------
      1          6           0       -2.083247   -0.472924   -0.422937
      2          6           0       -0.699251   -0.159619    0.072592
      3          6           0       -0.446694    1.071409    0.904470
      4          6           0        0.164042    0.977681   -0.455932
      5          6           0        1.571394    0.448154   -0.503544
      6          7           0        1.407962   -0.873076    0.135485
      7          6           0        0.207372   -1.286428    0.449292
      8          1           0       -2.046269   -1.098333   -1.316955
      9          1           0       -2.630124    0.439688   -0.669334
     10          1           0       -2.642472   -1.016559    0.340221
     11          1           0       -1.284125    1.746733    1.028925
     12          1           0        0.197007    0.985184    1.773454
     13          1           0       -0.181809    1.631653   -1.244722
     14          1           0        2.288591    1.052354    0.058050
     15          1           0        2.219758   -1.432332    0.343896
     16          1           0        1.942008    0.333503   -1.525572
 ---------------------------------------------------------------------

 SCF Done:  E(RHF) =  -286.925732985     A.U. after    2 cycles

 The electronic state is 1-A.
 Alpha  occ. eigenvalues --  -15.66000 -11.28047 -11.24477 -11.24388 -11.24093
 Alpha  occ. eigenvalues --  -11.23951 -11.22293  -1.25461  -1.12713  -0.99776
 Alpha  occ. eigenvalues --   -0.94287  -0.86583  -0.79163  -0.73775  -0.68249
 Alpha  occ. eigenvalues --   -0.65002  -0.61619  -0.59366  -0.56612  -0.54767
 Alpha  occ. eigenvalues --   -0.52552  -0.50154  -0.46832  -0.41907  -0.39273
 Alpha  occ. eigenvalues --   -0.33153
 Alpha virt. eigenvalues --    0.03069   0.03865   0.04083   0.04864   0.06339
 Alpha virt. eigenvalues --    0.06551   0.06823   0.07593   0.07990   0.11381
 Alpha virt. eigenvalues --    0.11564   0.12154   0.12648   0.13485   0.14277

 Mulliken charges:
               1
     1  C    0.748399
     2  C   -0.690284
     3  C    0.918759
     4  C    0.107200
     5  C    0.924677
     6  N   -0.225189
     7  C   -0.258513
     8  H    0.017088
     9  H   -0.064747
    10  H    0.021625
    11  H   -0.344324
    12  H   -0.364122
    13  H   -0.435045
    14  H   -0.094323
    15  H   -0.123820
    16  H   -0.137382
 Sum of Mulliken charges =  -0.00000

 Dipole moment (field-independent basis, Debye):
    X=              1.6557    Y=              2.4353    Z=             -1.2319  Tot=              3.1921

 Test job not archived.
 1\1\GINC-SE220\SP\RHF\Aug-CC-pVDZ\C6H9N1\OHZDE\09-Apr-2025\0\\#t hf au
 g-cc-pvdz iop(5/13=1,5/36=2,99/5=2) pseudo=read geom=check guess=(read
 ,tcheck) scf=(maxcycle=1)\\title\\0,1\C,0,1.79704504,-0.72723855,0.739
 30971\C,0,0.56670907,-0.32141088,-0.02274664\C,0,0.56008026,0.94137831
 ,-0.84527663\C,0,-0.32714064,0.85223357,0.35362553\C,0,-1.73898883,0.4
 056746,0.08796027\N,0,-1.51482748,-0.90767957,-0.54888258\C,0,-0.29863
 04,-1.38371868,-0.61961772\H,0,1.53993398,-1.3699939,1.58342511\H,0,2.
 32728656,0.14555171,1.12625594\H,0,2.47474277,-1.28502155,0.09101451\H

 Normal termination of Gaussian 16 at Wed Apr  9 15:58:16 2025.
