 Gaussian 16, Revision C.01,

 ----------------------------------------------------------------------
 #t hf aug-cc-pvdz symm=none int=(grid=ultrafine) guess=(read,tcheck) s
 table=(opt,rrhf)
 ----------------------------------------------------------------------
 -----
 title
 -----
 Symbolic Z-matrix:
 Charge =  0 Multiplicity = 1

 SCF Done:  E(RHF) =  -339.749405086     A.U. after   15 cycles
 Normal termination of Gaussian 16 at Wed Apr  9 14:27:36 2025.
 Gaussian 16:  ES64L-G16RevC.01  3-Jul-2019

 ----------------------------------------------------------------------
 #t hf aug-cc-pvdz iop(5/13=1,5/36=2,99/5=2) pseudo=read geom=check gue
 ss=(read,tcheck) scf=(maxcycle=1)
 ----------------------------------------------------------------------
 -----
 title
 -----
 Structure from the checkpoint file:  "Grambow2020_wb97xd3_006541_reverse_mol1.chk"
 Charge =  0 Multiplicity = 1

                         Standard orientation:
 ---------------------------------------------------------------------
 Center     Atomic      Atomic             Coordinates (Angstroms)
 Number     Number       Type             X           Y           Z
 ---------------------------------------------------------------------
      1          6           0       -0.889266    1.884279    0.286949
      2          7           0       -0.120425    1.060365   -0.634229
      3          6           0        0.418957   -0.136246   -0.211914
      4          6           0       -0.410744   -1.400342   -0.169170
      5          8           0       -1.730779   -1.207840    0.276900
      6          6           0        1.897326   -0.338155   -0.490941
      7          7           0        1.878088   -0.137902    0.761504
      8          1           0       -0.256400    2.334902    1.061276
      9          1           0       -1.382223    2.682378   -0.267726
     10          1           0       -1.648397    1.276371    0.775419
     11          1           0        0.526535    1.590615   -1.199326
     12          1           0        0.766307   -0.000779    1.152925
     13          1           0        0.060444   -2.123817    0.494979
     14          1           0       -0.392502   -1.819483   -1.183547
     15          1           0       -2.228809   -0.791923   -0.429661
 ---------------------------------------------------------------------

 SCF Done:  E(RHF) =  -339.848891703     A.U. after    2 cycles

 The electronic state is 1-A.
 Alpha  occ. eigenvalues --  -20.59676 -15.68421 -15.65639 -11.35158 -11.32069
 Alpha  occ. eigenvalues --  -11.28324 -11.27179  -1.35578  -1.29644  -1.20011
 Alpha  occ. eigenvalues --   -1.00979  -0.94532  -0.82522  -0.79618  -0.72881
 Alpha  occ. eigenvalues --   -0.70950  -0.67169  -0.64284  -0.61495  -0.60197
 Alpha  occ. eigenvalues --   -0.56943  -0.54827  -0.51572  -0.48020  -0.45916
 Alpha  occ. eigenvalues --   -0.41795  -0.35389
 Alpha virt. eigenvalues --    0.02694   0.03882   0.04258   0.05162   0.06455
 Alpha virt. eigenvalues --    0.06842   0.07898   0.08401   0.09230   0.11493
 Alpha virt. eigenvalues --    0.11917   0.12699   0.13531   0.14185   0.14577

 Mulliken charges:
               1
     1  C    0.767639
     2  N   -0.541867
     3  C   -0.004730
     4  C    0.955349
     5  O   -0.530714
     6  C   -0.101191
     7  N   -0.389628
     8  H   -0.095944
     9  H   -0.190979
    10  H   -0.139049
    11  H   -0.034305
    12  H    0.283393
    13  H   -0.142986
    14  H   -0.009356
    15  H    0.174368
 Sum of Mulliken charges =  -0.00000

 Dipole moment (field-independent basis, Debye):
    X=             -3.2250    Y=              1.8024    Z=             -0.5882  Tot=              3.7410

 Test job not archived.
 1\1\GINC-SE037\SP\RHF\Aug-CC-pVDZ\C4H8N2O1\OHZDE\09-Apr-2025\0\\#t hf
 aug-cc-pvdz iop(5/13=1,5/36=2,99/5=2) pseudo=read geom=check guess=(re
 ad,tcheck) scf=(maxcycle=1)\\title\\0,1\C,0,-1.46313709,0.84734067,0.7
 7202331\N,0,-0.65766302,-0.36139792,0.86520138\C,0,0.1867145,-0.715092
 21,-0.16585995\C,0,1.56586583,-0.10737198,-0.2954154\O,0,1.62175349,1.
 26429478,0.01107495\C,0,0.05122838,-2.13584892,-0.68286306\N,0,-0.4707
 1732,-1.45231786,-1.61530576\H,0,-2.26129632,0.75265448,0.02560518\H,0
 ,-1.91583938,1.05523562,1.74128825\H,0,-0.83074905,1.68799807,0.493070

 Normal termination of Gaussian 16 at Wed Apr  9 14:27:41 2025.
