 Gaussian 16, Revision C.01,

 ----------------------------------------------------------------------
 #t hf aug-cc-pvdz symm=none int=(grid=ultrafine) guess=(read,tcheck) s
 table=(opt,rrhf)
 ----------------------------------------------------------------------
 -----
 title
 -----
 Symbolic Z-matrix:
 Charge =  0 Multiplicity = 1

 SCF Done:  E(RHF) =  -359.528980600     A.U. after   17 cycles
 Normal termination of Gaussian 16 at Wed Apr  9 15:41:00 2025.
 Gaussian 16:  ES64L-G16RevC.01  3-Jul-2019

 ----------------------------------------------------------------------
 #t hf aug-cc-pvdz iop(5/13=1,5/36=2,99/5=2) pseudo=read geom=check gue
 ss=(read,tcheck) scf=(maxcycle=1)
 ----------------------------------------------------------------------
 -----
 title
 -----
 Structure from the checkpoint file:  "Grambow2020_wb97xd3_007295_forward_mol1.chk"
 Charge =  0 Multiplicity = 1

                         Standard orientation:
 ---------------------------------------------------------------------
 Center     Atomic      Atomic             Coordinates (Angstroms)
 Number     Number       Type             X           Y           Z
 ---------------------------------------------------------------------
      1          8           0        1.964390   -1.150702   -0.064598
      2          6           0        0.691769   -0.801230   -0.170100
      3          6           0       -1.769493   -0.929773    0.465329
      4          7           0       -1.641258   -0.024193   -0.608454
      5          6           0       -0.961840    1.124244   -0.064918
      6          6           0        0.449073    0.595652    0.054633
      7          8           0        1.421798    1.343724    0.195247
      8          1           0        2.432015   -0.310160    0.128942
      9          1           0        0.047158   -1.561999   -0.559334
     10          1           0       -2.010629   -1.959238    0.226076
     11          1           0       -1.472307   -0.660077    1.475522
     12          1           0       -2.731348   -0.240478    0.090800
     13          1           0       -1.352266    1.463464    0.905097
     14          1           0       -0.970378    1.960301   -0.762789
 ---------------------------------------------------------------------

 SCF Done:  E(RHF) =  -359.637175143     A.U. after    2 cycles

 The electronic state is 1-A.
 Alpha  occ. eigenvalues --  -20.60272 -20.53194 -15.72280 -11.34985 -11.32960
 Alpha  occ. eigenvalues --  -11.32181 -11.29908  -1.38779  -1.31697  -1.27719
 Alpha  occ. eigenvalues --   -1.03044  -0.95781  -0.86271  -0.80881  -0.72654
 Alpha  occ. eigenvalues --   -0.71484  -0.70005  -0.66152  -0.61883  -0.60343
 Alpha  occ. eigenvalues --   -0.58643  -0.57479  -0.54333  -0.51518  -0.48695
 Alpha  occ. eigenvalues --   -0.43390  -0.25946
 Alpha virt. eigenvalues --    0.00982   0.02822   0.03690   0.04266   0.05032
 Alpha virt. eigenvalues --    0.06857   0.07071   0.07743   0.09648   0.11682
 Alpha virt. eigenvalues --    0.12991   0.13445   0.13791   0.14574   0.14616

 Mulliken charges:
               1
     1  O   -0.477148
     2  C    0.667648
     3  C    0.623457
     4  N   -0.736700
     5  C    0.627024
     6  C   -0.025492
     7  O   -0.716414
     8  H    0.187292
     9  H   -0.239977
    10  H   -0.220063
    11  H   -0.020199
    12  H    0.339654
    13  H    0.043329
    14  H   -0.052412
 Sum of Mulliken charges =  -0.00000

 Dipole moment (field-independent basis, Debye):
    X=             -5.7485    Y=             -1.6436    Z=              1.1305  Tot=              6.0848

 Test job not archived.
 1\1\GINC-SE174\SP\RHF\Aug-CC-pVDZ\C4H7N1O2\OHZDE\09-Apr-2025\0\\#t hf
 aug-cc-pvdz iop(5/13=1,5/36=2,99/5=2) pseudo=read geom=check guess=(re
 ad,tcheck) scf=(maxcycle=1)\\title\\0,1\O,0,2.34444279,-0.69057785,0.6
 9384681\C,0,1.14849413,-0.17875826,0.44773331\C,0,-0.4318785,1.5538237
 3,-0.54155273\N,0,-1.20342284,0.61815003,0.17869827\C,0,-1.13481916,-0
 .6041292,-0.58108829\C,0,0.26992276,-1.06307389,-0.26415389\O,0,0.6440
 1772,-2.22278765,-0.46588364\H,0,2.3019665,-1.59744359,0.3217829\H,0,0
 .94525058,0.74811438,0.94310706\H,0,-0.12872789,2.45693843,-0.02418254

 Normal termination of Gaussian 16 at Wed Apr  9 15:41:05 2025.
