 Gaussian 16, Revision C.01,

 ----------------------------------------------------------------------
 #t hf aug-cc-pvdz symm=none int=(grid=ultrafine) guess=(read,tcheck) s
 table=(opt,rrhf)
 ----------------------------------------------------------------------
 -----
 title
 -----
 Symbolic Z-matrix:
 Charge =  0 Multiplicity = 1

 SCF Done:  E(RHF) =  -307.913447853     A.U. after   14 cycles

 1\1\GINC-SE232\Stability\RHF\Aug-CC-pVDZ\C6H10O1\OHZDE\09-Apr-2025\0\\
 #t hf aug-cc-pvdz symm=none int=(grid=ultrafine) guess=(read,tcheck) s
 table=(opt,rrhf)\\title\\0,1\C,0,1.83177906,-0.55974298,-0.32484476\C,
 0,0.55626648,-0.14143601,0.39815918\C,0,0.09839856,1.29119529,0.077566
 89\C,0,-1.44202575,1.2583978,0.09143716\C,0,-1.75151626,-0.19292049,-0
 .15108119\C,0,-0.66912898,-0.94114458,0.02399084\O,0,-0.63554923,-2.29
 506306,-0.04399005\H,0,1.69323672,-0.52735919,-1.40833725\H,0,2.655343
 59,0.10908763,-0.06873818\H,0,2.15488151,-1.5698279,-0.05273207\H,0,0.

 Normal termination of Gaussian 16 at Wed Apr  9 16:09:14 2025.
 Gaussian 16:  ES64L-G16RevC.01  3-Jul-2019

 ----------------------------------------------------------------------
 #t hf aug-cc-pvdz iop(5/13=1,5/36=2,99/5=2) pseudo=read geom=check gue
 ss=(read,tcheck) scf=(maxcycle=1)
 ----------------------------------------------------------------------
 -----
 title
 -----
 Structure from the checkpoint file:  "Grambow2020_wb97xd3_007813_reverse_mol2.chk"
 Charge =  0 Multiplicity = 1

                         Standard orientation:
 ---------------------------------------------------------------------
 Center     Atomic      Atomic             Coordinates (Angstroms)
 Number     Number       Type             X           Y           Z
 ---------------------------------------------------------------------
      1          6           0       -1.610969   -1.312685   -0.256673
      2          6           0       -0.417665   -0.638434    0.411205
      3          6           0        0.941535   -1.235742    0.010390
      4          6           0        1.933173   -0.056688   -0.015310
      5          6           0        1.035681    1.136063   -0.196350
      6          6           0       -0.229684    0.814255    0.043117
      7          8           0       -1.270943    1.682943    0.040854
      8          1           0       -1.553347   -1.217485   -1.343787
      9          1           0       -1.638534   -2.375718   -0.010940
     10          1           0       -2.566999   -0.892289    0.071939
     11          1           0       -0.551348   -0.698166    1.500243
     12          1           0        0.854172   -1.652449   -0.996901
     13          1           0        1.253378   -2.045077    0.671921
     14          1           0        2.670060   -0.164226   -0.814762
     15          1           0        1.382586    2.134036   -0.427332
     16          1           0        2.497874    0.011796    0.921757
     17          1           0       -2.092727    1.195424    0.122765
 ---------------------------------------------------------------------

 SCF Done:  E(RHF) =  -308.008977866     A.U. after    2 cycles

 The electronic state is 1-A.
 Alpha  occ. eigenvalues --  -20.59703 -11.28942 -11.24604 -11.23772 -11.23018
 Alpha  occ. eigenvalues --  -11.22827 -11.20959  -1.36152  -1.12661  -1.01590
 Alpha  occ. eigenvalues --   -0.95431  -0.89077  -0.80081  -0.76015  -0.70302
 Alpha  occ. eigenvalues --   -0.65042  -0.63740  -0.58999  -0.58683  -0.56934
 Alpha  occ. eigenvalues --   -0.55280  -0.52467  -0.49172  -0.48264  -0.47766
 Alpha  occ. eigenvalues --   -0.46652  -0.32278
 Alpha virt. eigenvalues --    0.03273   0.04275   0.04617   0.04745   0.06197
 Alpha virt. eigenvalues --    0.06530   0.06681   0.06936   0.08274   0.08943
 Alpha virt. eigenvalues --    0.11626   0.12771   0.13757   0.13972   0.14240

 Mulliken charges:
               1
     1  C    0.661640
     2  C   -0.735096
     3  C    0.469870
     4  C    0.354741
     5  C    0.383341
     6  C    0.186202
     7  O   -0.613230
     8  H    0.020853
     9  H   -0.061819
    10  H   -0.128285
    11  H   -0.035926
    12  H   -0.159754
    13  H   -0.068362
    14  H   -0.015197
    15  H   -0.328102
    16  H   -0.052093
    17  H    0.121215
 Sum of Mulliken charges =  -0.00000

 Dipole moment (field-independent basis, Debye):
    X=             -0.7407    Y=             -2.0112    Z=              0.3532  Tot=              2.1722

 Test job not archived.
 1\1\GINC-SE232\SP\RHF\Aug-CC-pVDZ\C6H10O1\OHZDE\09-Apr-2025\0\\#t hf a
 ug-cc-pvdz iop(5/13=1,5/36=2,99/5=2) pseudo=read geom=check guess=(rea
 d,tcheck) scf=(maxcycle=1)\\title\\0,1\C,0,1.83177906,-0.55974298,-0.3
 2484476\C,0,0.55626648,-0.14143601,0.39815918\C,0,0.09839856,1.2911952
 9,0.07756689\C,0,-1.44202575,1.2583978,0.09143716\C,0,-1.75151626,-0.1
 9292049,-0.15108119\C,0,-0.66912898,-0.94114458,0.02399084\O,0,-0.6355
 4923,-2.29506306,-0.04399005\H,0,1.69323672,-0.52735919,-1.40833725\H,
 0,2.65534359,0.10908763,-0.06873818\H,0,2.15488151,-1.5698279,-0.05273

 Normal termination of Gaussian 16 at Wed Apr  9 16:09:20 2025.
