 Gaussian 16, Revision C.01,

 ----------------------------------------------------------------------
 #t hf aug-cc-pvdz symm=none int=(grid=ultrafine) guess=(read,tcheck) s
 table=(opt,rrhf)
 ----------------------------------------------------------------------
 -----
 title
 -----
 Symbolic Z-matrix:
 Charge =  0 Multiplicity = 1

 SCF Done:  E(RHF) =  -305.728845047     A.U. after   15 cycles
 Normal termination of Gaussian 16 at Wed Apr  9 13:59:01 2025.
 Gaussian 16:  ES64L-G16RevC.01  3-Jul-2019

 ----------------------------------------------------------------------
 #t hf aug-cc-pvdz iop(5/13=1,5/36=2,99/5=2) pseudo=read geom=check gue
 ss=(read,tcheck) scf=(maxcycle=1)
 ----------------------------------------------------------------------
 -----
 title
 -----
 Structure from the checkpoint file:  "Grambow2020_b97d3_006756_forward_mol1.chk"
 Charge =  0 Multiplicity = 1

                         Standard orientation:
 ---------------------------------------------------------------------
 Center     Atomic      Atomic             Coordinates (Angstroms)
 Number     Number       Type             X           Y           Z
 ---------------------------------------------------------------------
      1          6           0        3.029175   -0.476473   -0.106366
      2          6           0        0.900171    1.310232    0.049889
      3          6           0       -0.097630    0.190175    0.019696
      4          8           0        0.235182   -0.992848    0.080922
      5          6           0       -1.580580    0.530164   -0.077560
      6          8           0       -2.392234   -0.608866    0.005724
      7          1           0        2.850728   -0.988346    0.872331
      8          1           0        1.949601    0.894333   -0.141760
      9          1           0        2.659127   -1.246975   -0.825969
     10          1           0        0.683493    2.095528   -0.688308
     11          1           0        0.915481    1.774561    1.048093
     12          1           0       -1.823835    1.254704    0.722224
     13          1           0       -1.723595    1.067723   -1.036985
     14          1           0       -1.761399   -1.362407    0.043247
 ---------------------------------------------------------------------

 SCF Done:  E(RHF) =  -305.823972372     A.U. after    2 cycles

 The electronic state is 1-A.
 Alpha  occ. eigenvalues --  -20.59061 -20.58029 -11.37031 -11.31513 -11.29167
 Alpha  occ. eigenvalues --  -11.26495  -1.38041  -1.32536  -1.04458  -0.95617
 Alpha  occ. eigenvalues --   -0.88162  -0.78306  -0.72570  -0.67404  -0.67245
 Alpha  occ. eigenvalues --   -0.61296  -0.60696  -0.59826  -0.55330  -0.54973
 Alpha  occ. eigenvalues --   -0.52960  -0.47476  -0.45800  -0.37984
 Alpha virt. eigenvalues --    0.02986   0.03455   0.04469   0.05143   0.06004
 Alpha virt. eigenvalues --    0.06770   0.07366   0.07683   0.08411   0.09875
 Alpha virt. eigenvalues --    0.11078   0.13069   0.13356   0.14436   0.15014

 Mulliken charges:
               1
     1  C   -0.005446
     2  C    0.479805
     3  C   -0.230063
     4  O   -0.596310
     5  C    0.705339
     6  O   -0.548187
     7  H   -0.061420
     8  H   -0.130261
     9  H   -0.062010
    10  H    0.087810
    11  H    0.121486
    12  H    0.006390
    13  H    0.038430
    14  H    0.194438
 Sum of Mulliken charges =  -0.00000

 Dipole moment (field-independent basis, Debye):
    X=              0.4373    Y=              2.0897    Z=              0.1605  Tot=              2.1409

 Test job not archived.
 1\1\GINC-SE054\SP\RHF\Aug-CC-pVDZ\C4H8O2\OHZDE\09-Apr-2025\0\\#t hf au
 g-cc-pvdz iop(5/13=1,5/36=2,99/5=2) pseudo=read geom=check guess=(read
 ,tcheck) scf=(maxcycle=1)\\title\\0,1\C,0,-2.62073875,0.96574553,-0.53
 184856\C,0,-0.74106556,-0.96093254,0.17817363\C,0,0.38553565,0.0162435
 5,0.01402846\O,0,0.19600781,1.21369418,-0.19631856\C,0,1.8191401,-0.49
 044978,0.12462804\O,0,2.75598501,0.54872245,0.05013054\H,0,-2.44846739
 ,1.65147318,0.33521796\H,0,-1.71642484,-0.48713796,-0.18951881\H,0,-2.
 11127304,1.52331569,-1.35525501\H,0,-0.57183401,-1.90295592,-0.3626835

 Normal termination of Gaussian 16 at Wed Apr  9 13:59:05 2025.
