 Gaussian 16, Revision C.01,

 ----------------------------------------------------------------------
 #t hf aug-cc-pvdz symm=none int=(grid=ultrafine) guess=(read,tcheck) s
 table=(opt,rrhf)
 ----------------------------------------------------------------------
 -----
 title
 -----
 Symbolic Z-matrix:
 Charge =  0 Multiplicity = 1

 SCF Done:  E(RHF) =  -264.992122868     A.U. after   14 cycles
 Normal termination of Gaussian 16 at Wed Apr  9 03:07:54 2025.
 Gaussian 16:  ES64L-G16RevC.01  3-Jul-2019

 ----------------------------------------------------------------------
 #t hf aug-cc-pvdz iop(5/13=1,5/36=2,99/5=2) pseudo=read geom=check gue
 ss=(read,tcheck) scf=(maxcycle=1)
 ----------------------------------------------------------------------
 -----
 title
 -----
 Structure from the checkpoint file:  "Grambow2020_b97d3_006627_reverse_mol2.chk"
 Charge =  0 Multiplicity = 1

                         Standard orientation:
 ---------------------------------------------------------------------
 Center     Atomic      Atomic             Coordinates (Angstroms)
 Number     Number       Type             X           Y           Z
 ---------------------------------------------------------------------
      1          6           0        1.908815   -0.335543   -0.202013
      2          6           0        1.783593    1.145632    0.151990
      3          6           0       -1.607163   -0.153318    0.521470
      4          7           0       -2.490063    0.573605   -0.345566
      5          6           0       -0.423180   -0.640568    0.171198
      6          7           0        0.660384   -1.126324   -0.178975
      7          1           0        2.331750   -0.463044   -1.210010
      8          1           0        2.603484   -0.843544    0.484398
      9          1           0        2.768981    1.630396    0.108075
     10          1           0        1.375658    1.276307    1.163311
     11          1           0        1.112157    1.662699   -0.547703
     12          1           0       -1.921216   -0.225069    1.563253
     13          1           0       -2.069642    0.677016   -1.270819
     14          1           0       -3.365810    0.057055   -0.474592
 ---------------------------------------------------------------------

 SCF Done:  E(RHF) =  -265.073340410     A.U. after    2 cycles

 The electronic state is 1-A.
 Alpha  occ. eigenvalues --  -15.64612 -15.63281 -11.30575 -11.27989 -11.27806
 Alpha  occ. eigenvalues --  -11.23466  -1.21398  -1.16193  -1.01986  -0.95643
 Alpha  occ. eigenvalues --   -0.86465  -0.72189  -0.66522  -0.64126  -0.63207
 Alpha  occ. eigenvalues --   -0.60410  -0.59017  -0.52684  -0.51802  -0.49939
 Alpha  occ. eigenvalues --   -0.44905  -0.42393  -0.30832
 Alpha virt. eigenvalues --    0.03414   0.03906   0.04075   0.05212   0.06275
 Alpha virt. eigenvalues --    0.06629   0.08422   0.08839   0.09847   0.11775
 Alpha virt. eigenvalues --    0.12733   0.13667   0.14025   0.14321   0.15091

 Mulliken charges:
               1
     1  C    0.594618
     2  C    0.242837
     3  C    1.214370
     4  N   -0.521142
     5  C   -0.579175
     6  N   -0.414102
     7  H   -0.119801
     8  H   -0.112412
     9  H   -0.082569
    10  H   -0.020881
    11  H   -0.034287
    12  H   -0.230518
    13  H    0.014460
    14  H    0.048602
 Sum of Mulliken charges =  -0.00000

 Dipole moment (field-independent basis, Debye):
    X=              0.2832    Y=              0.6551    Z=             -0.3916  Tot=              0.8140

 Test job not archived.
 1\1\GINC-SE120\SP\RHF\Aug-CC-pVDZ\C4H8N2\OHZDE\09-Apr-2025\0\\#t hf au
 g-cc-pvdz iop(5/13=1,5/36=2,99/5=2) pseudo=read geom=check guess=(read
 ,tcheck) scf=(maxcycle=1)\\title\\0,1\C,0,-1.49634624,0.99378874,-0.23
 575253\C,0,-1.7178576,-0.51329289,-0.35623224\C,0,1.71824968,-0.205476
 49,0.83516721\N,0,2.60208289,-0.84496021,-0.09734428\C,0,0.73508001,0.
 62461437,0.50921416\N,0,-0.15162204,1.4296965,0.19569346\H,0,-1.685647
 58,1.49565736,-1.19673218\H,0,-2.20438598,1.43626004,0.48166541\H,0,-2
 .74851095,-0.7204212,-0.67680066\H,0,-1.54423858,-1.01552586,0.6049521

 Normal termination of Gaussian 16 at Wed Apr  9 03:07:59 2025.
