 Gaussian 16, Revision C.01,

 ----------------------------------------------------------------------
 #t hf aug-cc-pvdz symm=none int=(grid=ultrafine) guess=(read,tcheck) s
 table=(opt,rrhf)
 ----------------------------------------------------------------------
 -----
 title
 -----
 Symbolic Z-matrix:
 Charge =  0 Multiplicity = 1

 SCF Done:  E(RHF) =  -320.701794906     A.U. after   15 cycles
 Normal termination of Gaussian 16 at Wed Apr  9 14:18:04 2025.
 Gaussian 16:  ES64L-G16RevC.01  3-Jul-2019

 ----------------------------------------------------------------------
 #t hf aug-cc-pvdz iop(5/13=1,5/36=2,99/5=2) pseudo=read geom=check gue
 ss=(read,tcheck) scf=(maxcycle=1)
 ----------------------------------------------------------------------
 -----
 title
 -----
 Structure from the checkpoint file:  "Grambow2020_b97d3_007123_reverse_mol2.chk"
 Charge =  0 Multiplicity = 1

                         Standard orientation:
 ---------------------------------------------------------------------
 Center     Atomic      Atomic             Coordinates (Angstroms)
 Number     Number       Type             X           Y           Z
 ---------------------------------------------------------------------
      1          6           0        2.858481   -0.956022    0.137497
      2          7           0        1.653149   -0.286751   -0.288175
      3          6           0        1.029482    0.721065   -0.038956
      4          8           0        0.309904    1.659533    0.094663
      5          6           0       -2.463017   -0.162684   -0.081160
      6          8           0       -3.532339   -0.708677    0.095376
      7          1           0        3.738948   -0.315180   -0.011742
      8          1           0        2.798373   -1.236605    1.198671
      9          1           0        2.986372   -1.867296   -0.457826
     10          1           0       -1.532860   -0.736577   -0.312279
     11          1           0       -2.333074    0.941918   -0.024202
 ---------------------------------------------------------------------

 SCF Done:  E(RHF) =  -320.806114011     A.U. after    2 cycles

 The electronic state is 1-A.
 Alpha  occ. eigenvalues --  -20.63461 -20.58356 -15.67414 -11.43430 -11.34763
 Alpha  occ. eigenvalues --  -11.31933  -1.42421  -1.35630  -1.25023  -1.00758
 Alpha  occ. eigenvalues --   -0.85691  -0.76128  -0.71313  -0.68642  -0.67976
 Alpha  occ. eigenvalues --   -0.67553  -0.65332  -0.61521  -0.60625  -0.53951
 Alpha  occ. eigenvalues --   -0.45845  -0.44560  -0.43696
 Alpha virt. eigenvalues --    0.02303   0.04379   0.04467   0.05162   0.06868
 Alpha virt. eigenvalues --    0.07842   0.08362   0.10546   0.11533   0.12275
 Alpha virt. eigenvalues --    0.12436   0.13370   0.14784   0.15469   0.15800

 Mulliken charges:
               1
     1  C    0.807917
     2  N   -0.104977
     3  C   -0.164000
     4  O   -0.254768
     5  C    0.656756
     6  O   -0.430082
     7  H   -0.075364
     8  H   -0.056489
     9  H   -0.148493
    10  H   -0.155873
    11  H   -0.074627
 Sum of Mulliken charges =  -0.00000

 Dipole moment (field-independent basis, Debye):
    X=              5.8741    Y=             -0.7366    Z=              0.1051  Tot=              5.9210

 Test job not archived.
 1\1\GINC-SE112\SP\RHF\Aug-CC-pVDZ\C3H5N1O2\OHZDE\09-Apr-2025\0\\#t hf
 aug-cc-pvdz iop(5/13=1,5/36=2,99/5=2) pseudo=read geom=check guess=(re
 ad,tcheck) scf=(maxcycle=1)\\title\\0,1\C,0,-1.63112287,1.82916443,-0.
 05583722\N,0,-1.03198416,0.53100795,-0.25018139\C,0,-0.92938694,-0.525
 79351,0.33240558\O,0,-0.73943885,-1.61294909,0.77780509\C,0,2.4386108,
 -1.69435429,-0.18855581\O,0,3.64615105,-1.77740934,-0.27614281\H,0,-2.
 71801305,1.74469744,0.08455028\H,0,-1.19766904,2.33512552,0.81854853\H
 ,0,-1.44156652,2.44293901,-0.9438323\H,0,1.87295404,-0.81335398,-0.578

 Normal termination of Gaussian 16 at Wed Apr  9 14:18:07 2025.
