 Gaussian 16, Revision C.01,

 ----------------------------------------------------------------------
 #t hf aug-cc-pvdz symm=none int=(grid=ultrafine) guess=(read,tcheck) s
 table=(opt,rrhf)
 ----------------------------------------------------------------------
 -----
 title
 -----
 Symbolic Z-matrix:
 Charge =  0 Multiplicity = 1

 SCF Done:  E(RHF) =  -305.600726516     A.U. after   16 cycles
 Normal termination of Gaussian 16 at Wed Apr  9 03:03:51 2025.
 Gaussian 16:  ES64L-G16RevC.01  3-Jul-2019

 ----------------------------------------------------------------------
 #t hf aug-cc-pvdz iop(5/13=1,5/36=2,99/5=2) pseudo=read geom=check gue
 ss=(read,tcheck) scf=(maxcycle=1)
 ----------------------------------------------------------------------
 -----
 title
 -----
 Structure from the checkpoint file:  "Grambow2020_b97d3_006513_forward_mol1.chk"
 Charge =  0 Multiplicity = 1

                         Standard orientation:
 ---------------------------------------------------------------------
 Center     Atomic      Atomic             Coordinates (Angstroms)
 Number     Number       Type             X           Y           Z
 ---------------------------------------------------------------------
      1          8           0        1.879677   -0.623113   -0.537041
      2          6           0        1.415532    0.247615    0.378725
      3          6           0       -0.010720    0.324369    0.661838
      4          6           0       -0.810587    0.902906   -0.532419
      5          6           0       -1.844953   -0.203636   -0.263386
      6          8           0       -0.803328   -0.918939    0.479995
      7          1           0        1.092991   -1.105956   -0.883890
      8          1           0        2.195338    0.642397    1.022946
      9          1           0        0.929051    2.187409   -0.208509
     10          1           0       -0.217988    0.821985    1.620652
     11          1           0        0.050516    2.187234   -0.390457
     12          1           0       -0.270596    0.688958   -1.471465
     13          1           0       -2.215805   -0.800015   -1.106536
     14          1           0       -2.669933    0.086885    0.405083
 ---------------------------------------------------------------------

 SCF Done:  E(RHF) =  -305.696262031     A.U. after    2 cycles

 The electronic state is 1-A.
 Alpha  occ. eigenvalues --  -20.66383 -20.59980 -11.40199 -11.31501 -11.29349
 Alpha  occ. eigenvalues --  -11.23517  -1.42271  -1.34908  -1.04804  -0.97401
 Alpha  occ. eigenvalues --   -0.90220  -0.79564  -0.76119  -0.71582  -0.66626
 Alpha  occ. eigenvalues --   -0.64174  -0.63305  -0.60645  -0.58212  -0.53665
 Alpha  occ. eigenvalues --   -0.51138  -0.45248  -0.44367  -0.27922
 Alpha virt. eigenvalues --    0.02139   0.03691   0.04152   0.04735   0.06110
 Alpha virt. eigenvalues --    0.06293   0.06792   0.08472   0.09022   0.11146
 Alpha virt. eigenvalues --    0.11706   0.12386   0.13637   0.14370   0.14703

 Mulliken charges:
               1
     1  O   -0.493481
     2  C    0.738710
     3  C    0.670586
     4  C   -0.184357
     5  C    0.908404
     6  O   -0.878691
     7  H    0.252179
     8  H   -0.236135
     9  H   -0.274849
    10  H   -0.346378
    11  H    0.547246
    12  H   -0.343060
    13  H   -0.169209
    14  H   -0.190965
 Sum of Mulliken charges =  -0.00000

 Dipole moment (field-independent basis, Debye):
    X=              0.4808    Y=             -1.0805    Z=              0.5402  Tot=              1.3002

 Test job not archived.
 1\1\GINC-SE459\SP\RHF\Aug-CC-pVDZ\C4H8O2\OHZDE\09-Apr-2025\0\\#t hf au
 g-cc-pvdz iop(5/13=1,5/36=2,99/5=2) pseudo=read geom=check guess=(read
 ,tcheck) scf=(maxcycle=1)\\title\\0,1\O,0,-2.15222764,0.5302359,-0.280
 9656\C,0,-1.47415375,-0.51773021,0.22322544\C,0,-0.08364364,-0.3661863
 4,0.62789117\C,0,0.85312446,-0.1346522,-0.58437894\C,0,1.54259787,0.94
 654994,0.26553516\O,0,0.33925341,0.97661841,1.10238379\H,0,-1.52538386
 ,1.2914081,-0.28152921\H,0,-2.12075453,-1.33494079,0.52825916\H,0,-0.4
 7030295,-1.80550007,-1.07224427\H,0,0.24482323,-1.17454186,1.29764976\

 Normal termination of Gaussian 16 at Wed Apr  9 03:03:54 2025.
