 Gaussian 16, Revision C.01,

 ----------------------------------------------------------------------
 #t hf aug-cc-pvdz symm=none int=(grid=ultrafine) guess=(read,tcheck) s
 table=(opt,rrhf)
 ----------------------------------------------------------------------
 -----
 title
 -----
 Symbolic Z-matrix:
 Charge =  0 Multiplicity = 1

 SCF Done:  E(RHF) =  -310.184622980     A.U. after   13 cycles

 1\1\GINC-SE129\Stability\RHF\Aug-CC-pVDZ\C6H14O1\OHZDE\09-Apr-2025\0\\
 #t hf aug-cc-pvdz symm=none int=(grid=ultrafine) guess=(read,tcheck) s
 table=(opt,rrhf)\\title\\0,1\C,0,-2.75473021,-0.00060456,-0.76602924\C
 ,0,-2.08866435,-0.06673409,0.37665274\C,0,-1.16570823,-1.17882821,0.77
 460588\C,0,0.2534181,-0.70597293,1.09688025\C,0,0.93249004,-0.05303709
 ,-0.08834442\O,0,2.26105223,0.25302214,0.25397313\C,0,2.95140517,0.885
 50467,-0.78885258\H,0,-2.66651458,-0.78017175,-1.51631957\H,0,-0.41536
 826,1.27956555,-3.33389228\H,0,-3.41403657,0.82808173,-0.99391157\H,0,

 Normal termination of Gaussian 16 at Wed Apr  9 16:03:30 2025.
 Gaussian 16:  ES64L-G16RevC.01  3-Jul-2019

 ----------------------------------------------------------------------
 #t hf aug-cc-pvdz iop(5/13=1,5/36=2,99/5=2) pseudo=read geom=check gue
 ss=(read,tcheck) scf=(maxcycle=1)
 ----------------------------------------------------------------------
 -----
 title
 -----
 Structure from the checkpoint file:  "Grambow2020_wb97xd3_007721_reverse_mol2.chk"
 Charge =  0 Multiplicity = 1

                         Standard orientation:
 ---------------------------------------------------------------------
 Center     Atomic      Atomic             Coordinates (Angstroms)
 Number     Number       Type             X           Y           Z
 ---------------------------------------------------------------------
      1          6           0        2.748498    1.107674   -0.013007
      2          6           0        2.188362   -0.002435   -0.468688
      3          6           0        1.516047   -1.040517    0.378276
      4          6           0        0.060553   -1.298957   -0.016842
      5          6           0       -0.808988   -0.067982    0.127451
      6          8           0       -2.143611   -0.412815   -0.147869
      7          6           0       -3.010392    0.684843   -0.058730
      8          1           0        2.752322    1.343744    1.046568
      9          1           0        0.038194    3.572799    0.518768
     10          1           0        3.226444    1.818292   -0.676276
     11          1           0        2.205485   -0.199824   -1.539468
     12          1           0        2.069928   -1.980450    0.289967
     13          1           0        1.569553   -0.742328    1.429833
     14          1           0        0.427563    2.950904    0.385203
     15          1           0       -0.353470   -2.093189    0.608885
     16          1           0        0.006586   -1.651912   -1.050935
     17          1           0       -0.725574    0.339188    1.148471
     18          1           0       -0.473643    0.723666   -0.558326
     19          1           0       -3.001423    1.123868    0.948208
     20          1           0       -4.016604    0.331601   -0.281157
     21          1           0       -2.740947    1.470404   -0.777546
 ---------------------------------------------------------------------

 SCF Done:  E(RHF) =  -310.289874546     A.U. after    2 cycles

 The electronic state is 1-A.
 Alpha  occ. eigenvalues --  -20.56626 -11.27827 -11.27799 -11.24445 -11.23764
 Alpha  occ. eigenvalues --  -11.23121 -11.22901  -1.33652  -1.08703  -1.02078
 Alpha  occ. eigenvalues --   -0.94769  -0.87978  -0.81855  -0.76027  -0.68010
 Alpha  occ. eigenvalues --   -0.66498  -0.65402  -0.62194  -0.61633  -0.59196
 Alpha  occ. eigenvalues --   -0.56934  -0.56398  -0.51625  -0.50682  -0.49923
 Alpha  occ. eigenvalues --   -0.47850  -0.47184  -0.43179  -0.36672
 Alpha virt. eigenvalues --    0.03580   0.04264   0.04390   0.04580   0.06026
 Alpha virt. eigenvalues --    0.06391   0.06512   0.06760   0.06806   0.08540
 Alpha virt. eigenvalues --    0.09159   0.09564   0.09846   0.11380   0.12845

 Mulliken charges:
               1
     1  C    0.402582
     2  C    0.819133
     3  C    0.248800
     4  C    0.059314
     5  C    0.675712
     6  O   -0.661252
     7  C    0.765478
     8  H   -0.331415
     9  H    0.050251
    10  H   -0.341495
    11  H   -0.435792
    12  H   -0.001088
    13  H   -0.214676
    14  H   -0.043657
    15  H   -0.093259
    16  H   -0.134631
    17  H   -0.170862
    18  H   -0.208870
    19  H   -0.051524
    20  H   -0.269684
    21  H   -0.063066
 Sum of Mulliken charges =  -0.00000

 Dipole moment (field-independent basis, Debye):
    X=              0.3556    Y=              0.8949    Z=              0.3062  Tot=              1.0105

 Test job not archived.
 1\1\GINC-SE129\SP\RHF\Aug-CC-pVDZ\C6H14O1\OHZDE\09-Apr-2025\0\\#t hf a
 ug-cc-pvdz iop(5/13=1,5/36=2,99/5=2) pseudo=read geom=check guess=(rea
 d,tcheck) scf=(maxcycle=1)\\title\\0,1\C,0,-2.75473021,-0.00060456,-0.
 76602924\C,0,-2.08866435,-0.06673409,0.37665274\C,0,-1.16570823,-1.178
 82821,0.77460588\C,0,0.2534181,-0.70597293,1.09688025\C,0,0.93249004,-
 0.05303709,-0.08834442\O,0,2.26105223,0.25302214,0.25397313\C,0,2.9514
 0517,0.88550467,-0.78885258\H,0,-2.66651458,-0.78017175,-1.51631957\H,
 0,-0.41536826,1.27956555,-3.33389228\H,0,-3.41403657,0.82808173,-0.993

 Normal termination of Gaussian 16 at Wed Apr  9 16:03:54 2025.
