 Gaussian 16, Revision C.01,

 ----------------------------------------------------------------------
 #t hf aug-cc-pvdz symm=none int=(grid=ultrafine) guess=(read,tcheck) s
 table=(opt,rrhf)
 ----------------------------------------------------------------------
 -----
 title
 -----
 Symbolic Z-matrix:
 Charge =  0 Multiplicity = 1

 SCF Done:  E(RHF) =  -307.791342044     A.U. after   14 cycles

 1\1\GINC-SE113\Stability\RHF\Aug-CC-pVDZ\C6H10O1\OHZDE\09-Apr-2025\0\\
 #t hf aug-cc-pvdz symm=none int=(grid=ultrafine) guess=(read,tcheck) s
 table=(opt,rrhf)\\title\\0,1\C,0,1.8740169,-0.66059853,1.11166482\C,0,
 0.52489365,-0.08988029,0.8737975\C,0,0.01340617,1.14462673,0.79780477\
 C,0,-1.36756106,0.65389253,0.45430878\O,0,-1.61675431,0.53437301,-0.96
 707728\C,0,-1.0968612,-0.80197011,-0.98799773\C,0,-0.77805314,-0.77267
 493,0.52138292\H,0,1.86124888,-1.33559822,1.97119197\H,0,2.61163733,0.
 12042569,1.29608852\H,0,2.19813924,-1.24767012,0.24803478\H,0,0.646458

 Normal termination of Gaussian 16 at Wed Apr  9 16:31:16 2025.
 Gaussian 16:  ES64L-G16RevC.01  3-Jul-2019

 ----------------------------------------------------------------------
 #t hf aug-cc-pvdz iop(5/13=1,5/36=2,99/5=2) pseudo=read geom=check gue
 ss=(read,tcheck) scf=(maxcycle=1)
 ----------------------------------------------------------------------
 -----
 title
 -----
 Structure from the checkpoint file:  "Grambow2020_wb97xd3_008497_reverse_mol2.chk"
 Charge =  0 Multiplicity = 1

                         Standard orientation:
 ---------------------------------------------------------------------
 Center     Atomic      Atomic             Coordinates (Angstroms)
 Number     Number       Type             X           Y           Z
 ---------------------------------------------------------------------
      1          6           0       -2.426043   -0.241320    0.399016
      2          6           0       -1.090706    0.081565   -0.162283
      3          6           0       -0.407531    1.206220   -0.406873
      4          6           0        0.819165    0.471391   -0.877112
      5          8           0        1.780265    0.193401    0.169659
      6          6           0        1.124891   -1.038216    0.501540
      7          6           0        0.042345   -0.830239   -0.578074
      8          1           0       -3.009348   -0.834376   -0.309938
      9          1           0       -2.987651    0.661452    0.639210
     10          1           0       -2.323614   -0.839153    1.308779
     11          1           0        1.211201    1.700649    2.974208
     12          1           0       -0.613217    2.255084   -0.231214
     13          1           0        1.371696    1.476988    2.279362
     14          1           0        1.295295    0.717453   -1.825494
     15          1           0        0.782130   -1.065552    1.540329
     16          1           0        1.783639   -1.889073    0.309795
     17          1           0       -0.124975   -1.627082   -1.299588
 ---------------------------------------------------------------------

 SCF Done:  E(RHF) =  -307.889748296     A.U. after    2 cycles

 The electronic state is 1-A.
 Alpha  occ. eigenvalues --  -20.55996 -11.29414 -11.28665 -11.25596 -11.24416
 Alpha  occ. eigenvalues --  -11.24196 -11.23390  -1.34563  -1.13966  -0.99198
 Alpha  occ. eigenvalues --   -0.96280  -0.86964  -0.80037  -0.70545  -0.68300
 Alpha  occ. eigenvalues --   -0.66284  -0.64622  -0.59491  -0.58535  -0.57838
 Alpha  occ. eigenvalues --   -0.56735  -0.52772  -0.50389  -0.47151  -0.44034
 Alpha  occ. eigenvalues --   -0.41650  -0.35882
 Alpha virt. eigenvalues --    0.03141   0.04066   0.04324   0.05008   0.05992
 Alpha virt. eigenvalues --    0.06510   0.07067   0.07523   0.08275   0.09975
 Alpha virt. eigenvalues --    0.11186   0.11961   0.12405   0.13150   0.13460

 Mulliken charges:
               1
     1  C    0.312981
     2  C   -0.506547
     3  C    0.380815
     4  C    0.901524
     5  O   -0.848599
     6  C    0.955386
     7  C    0.158734
     8  H    0.048245
     9  H   -0.038509
    10  H    0.033170
    11  H   -0.011413
    12  H   -0.301054
    13  H    0.025819
    14  H   -0.262373
    15  H   -0.234163
    16  H   -0.251202
    17  H   -0.362814
 Sum of Mulliken charges =  -0.00000

 Dipole moment (field-independent basis, Debye):
    X=             -2.2807    Y=             -1.2806    Z=             -0.6615  Tot=              2.6980

 Test job not archived.
 1\1\GINC-SE113\SP\RHF\Aug-CC-pVDZ\C6H10O1\OHZDE\09-Apr-2025\0\\#t hf a
 ug-cc-pvdz iop(5/13=1,5/36=2,99/5=2) pseudo=read geom=check guess=(rea
 d,tcheck) scf=(maxcycle=1)\\title\\0,1\C,0,1.8740169,-0.66059853,1.111
 66482\C,0,0.52489365,-0.08988029,0.8737975\C,0,0.01340617,1.14462673,0
 .79780477\C,0,-1.36756106,0.65389253,0.45430878\O,0,-1.61675431,0.5343
 7301,-0.96707728\C,0,-1.0968612,-0.80197011,-0.98799773\C,0,-0.7780531
 4,-0.77267493,0.52138292\H,0,1.86124888,-1.33559822,1.97119197\H,0,2.6
 1163733,0.12042569,1.29608852\H,0,2.19813924,-1.24767012,0.24803478\H,

 Normal termination of Gaussian 16 at Wed Apr  9 16:31:22 2025.
