 Gaussian 16, Revision C.01,

 ----------------------------------------------------------------------
 #t hf aug-cc-pvdz symm=none int=(grid=ultrafine) guess=(read,tcheck) s
 table=(opt,rrhf)
 ----------------------------------------------------------------------
 -----
 title
 -----
 Symbolic Z-matrix:
 Charge =  0 Multiplicity = 1

 SCF Done:  E(RHF) =  -321.312242101     A.U. after   17 cycles
 Normal termination of Gaussian 16 at Wed Apr  9 03:39:35 2025.
 Gaussian 16:  ES64L-G16RevC.01  3-Jul-2019

 ----------------------------------------------------------------------
 #t hf aug-cc-pvdz iop(5/13=1,5/36=2,99/5=2) pseudo=read geom=check gue
 ss=(read,tcheck) scf=(maxcycle=1)
 ----------------------------------------------------------------------
 -----
 title
 -----
 Structure from the checkpoint file:  "Grambow2020_wb97xd3_007503_reverse_mol1.chk"
 Charge =  0 Multiplicity = 1

                         Standard orientation:
 ---------------------------------------------------------------------
 Center     Atomic      Atomic             Coordinates (Angstroms)
 Number     Number       Type             X           Y           Z
 ---------------------------------------------------------------------
      1          8           0        0.019105    1.527623   -0.126086
      2          6           0       -0.286426    0.264776    0.010863
      3          6           0       -1.666028   -0.099045   -0.012945
      4          6           0       -2.802754   -0.474552   -0.017481
      5          6           0        0.827345   -0.535984    0.677924
      6          6           0        1.477307   -0.879744   -0.556309
      7          7           0        2.050311    0.088219    0.166225
      8          1           0       -3.818268   -0.795947   -0.024023
      9          1           0        0.757971   -1.042917    1.628586
     10          1           0        0.411899   -0.369841   -1.228177
     11          1           0        1.809231   -1.761684   -1.087336
     12          1           0        1.037482    1.479169   -0.056256
 ---------------------------------------------------------------------

 SCF Done:  E(RHF) =  -321.408784462     A.U. after    2 cycles

 The electronic state is 1-A.
 Alpha  occ. eigenvalues --  -20.63427 -15.60132 -11.41565 -11.31510 -11.29674
 Alpha  occ. eigenvalues --  -11.28811 -11.28189  -1.42625  -1.26936  -1.09209
 Alpha  occ. eigenvalues --   -0.98408  -0.86189  -0.82892  -0.77381  -0.76788
 Alpha  occ. eigenvalues --   -0.72534  -0.67867  -0.62955  -0.56693  -0.51022
 Alpha  occ. eigenvalues --   -0.48709  -0.46279  -0.43608  -0.40313  -0.33005
 Alpha virt. eigenvalues --    0.02565   0.03250   0.03899   0.04584   0.05773
 Alpha virt. eigenvalues --    0.07143   0.08772   0.09256   0.10243   0.11583
 Alpha virt. eigenvalues --    0.11850   0.12530   0.13513   0.13794   0.14473

 Mulliken charges:
               1
     1  O   -0.595599
     2  C   -0.052677
     3  C   -0.044583
     4  C    0.961227
     5  C    0.731592
     6  C    0.183738
     7  N   -0.853622
     8  H   -0.492014
     9  H   -0.325080
    10  H    0.400938
    11  H   -0.222797
    12  H    0.308876
 Sum of Mulliken charges =  -0.00000

 Dipole moment (field-independent basis, Debye):
    X=             -3.4065    Y=             -2.5878    Z=             -0.1673  Tot=              4.2813

 Test job not archived.
 1\1\GINC-SE074\SP\RHF\Aug-CC-pVDZ\C5H5N1O1\OHZDE\09-Apr-2025\0\\#t hf
 aug-cc-pvdz iop(5/13=1,5/36=2,99/5=2) pseudo=read geom=check guess=(re
 ad,tcheck) scf=(maxcycle=1)\\title\\0,1\O,0,-0.03363078,0.72570964,1.6
 0650674\C,0,0.2849999,0.24456364,0.43438925\C,0,1.62809058,-0.19190803
 ,0.22985088\C,0,2.73731053,-0.57090062,-0.0133911\C,0,-0.67408556,0.69
 65297,-0.66222086\C,0,-1.56507552,-0.41917366,-0.50318075\N,0,-1.97166
 352,0.74338496,0.01690149\H,0,3.72783713,-0.90560833,-0.21694779\H,0,-
 0.41509203,1.30381522,-1.51643288\H,0,-0.65625812,-0.99178625,0.329086

 Normal termination of Gaussian 16 at Wed Apr  9 03:39:39 2025.
