 Gaussian 16, Revision C.01,

 ----------------------------------------------------------------------
 #t hf aug-cc-pvdz symm=none int=(grid=ultrafine) guess=(read,tcheck) s
 table=(opt,rrhf)
 ----------------------------------------------------------------------
 -----
 title
 -----
 Symbolic Z-matrix:
 Charge =  0 Multiplicity = 1

 SCF Done:  E(RHF) =  -268.693847294     A.U. after   15 cycles
 Normal termination of Gaussian 16 at Wed Apr  9 03:15:36 2025.
 Gaussian 16:  ES64L-G16RevC.01  3-Jul-2019

 ----------------------------------------------------------------------
 #t hf aug-cc-pvdz iop(5/13=1,5/36=2,99/5=2) pseudo=read geom=check gue
 ss=(read,tcheck) scf=(maxcycle=1)
 ----------------------------------------------------------------------
 -----
 title
 -----
 Structure from the checkpoint file:  "Grambow2020_b97d3_007039_reverse_mol1.chk"
 Charge =  0 Multiplicity = 1

                         Standard orientation:
 ---------------------------------------------------------------------
 Center     Atomic      Atomic             Coordinates (Angstroms)
 Number     Number       Type             X           Y           Z
 ---------------------------------------------------------------------
      1          6           0        3.130694    0.376836    0.114022
      2          6           0        1.750239   -0.076002   -0.053649
      3          6           0        0.592767   -0.450646   -0.191978
      4          6           0       -0.781657   -0.811953   -0.369172
      5          6           0       -1.753433   -0.461127    0.644177
      6          8           0       -2.436950    0.953335   -0.242250
      7          1           0        3.817504   -0.460140    0.316991
      8          1           0        3.501216    0.900197   -0.782167
      9          1           0        3.212800    1.078702    0.959262
     10          1           0       -1.546288    0.352631   -0.878025
     11          1           0       -1.007159   -1.692785   -0.973466
     12          1           0       -2.675714   -1.035027    0.724777
     13          1           0       -1.430603    0.011942    1.574448
     14          1           0       -2.007806    1.755146    0.135779
 ---------------------------------------------------------------------

 SCF Done:  E(RHF) =  -268.777792737     A.U. after    2 cycles

 The electronic state is 1-A.
 Alpha  occ. eigenvalues --  -20.59077 -11.34342 -11.25293 -11.23072 -11.22986
 Alpha  occ. eigenvalues --  -11.22263  -1.30264  -1.06767  -1.01959  -0.93842
 Alpha  occ. eigenvalues --   -0.84569  -0.72965  -0.67663  -0.65155  -0.61095
 Alpha  occ. eigenvalues --   -0.57969  -0.57740  -0.56707  -0.55251  -0.53292
 Alpha  occ. eigenvalues --   -0.42726  -0.36094  -0.29911
 Alpha virt. eigenvalues --    0.03139   0.03882   0.04590   0.05269   0.06167
 Alpha virt. eigenvalues --    0.06726   0.06901   0.08365   0.09979   0.10663
 Alpha virt. eigenvalues --    0.12715   0.13707   0.14367   0.14870   0.15179

 Mulliken charges:
               1
     1  C    0.148778
     2  C   -0.848577
     3  C   -0.033424
     4  C   -0.011276
     5  C    0.766173
     6  O   -0.668409
     7  H    0.122369
     8  H    0.130899
     9  H    0.127191
    10  H    0.715868
    11  H   -0.181198
    12  H   -0.246610
    13  H   -0.215538
    14  H    0.193755
 Sum of Mulliken charges =  -0.00000

 Dipole moment (field-independent basis, Debye):
    X=              0.0999    Y=              0.4022    Z=              1.8664  Tot=              1.9119

 Test job not archived.
 1\1\GINC-SE083\SP\RHF\Aug-CC-pVDZ\C5H8O1\OHZDE\09-Apr-2025\0\\#t hf au
 g-cc-pvdz iop(5/13=1,5/36=2,99/5=2) pseudo=read geom=check guess=(read
 ,tcheck) scf=(maxcycle=1)\\title\\0,1\C,0,2.97644906,-0.00130082,-0.08
 08815\C,0,1.55600549,0.28638523,0.11510012\C,0,0.36554483,0.5226586,0.
 27700481\C,0,-1.03841559,0.7198396,0.47948179\C,0,-1.97788511,0.292512
 73,-0.53495961\O,0,-2.48478377,-1.21724939,0.31199072\H,0,3.56127032,0
 .91416265,-0.26348831\H,0,3.41596496,-0.50673907,0.79416468\H,0,3.1260
 1105,-0.66273484,-0.94916919\H,0,-1.65931035,-0.53928143,0.95796989\H,

 Normal termination of Gaussian 16 at Wed Apr  9 03:15:41 2025.
