 Gaussian 16, Revision C.01,

 ----------------------------------------------------------------------
 #t hf aug-cc-pvdz symm=none int=(grid=ultrafine) guess=(read,tcheck) s
 table=(opt,rrhf)
 ----------------------------------------------------------------------
 -----
 title
 -----
 Symbolic Z-matrix:
 Charge =  0 Multiplicity = 1

 SCF Done:  E(RHF) =  -343.577226803     A.U. after   16 cycles
 Normal termination of Gaussian 16 at Wed Apr  9 16:22:11 2025.
 Gaussian 16:  ES64L-G16RevC.01  3-Jul-2019

 ----------------------------------------------------------------------
 #t hf aug-cc-pvdz iop(5/13=1,5/36=2,99/5=2) pseudo=read geom=check gue
 ss=(read,tcheck) scf=(maxcycle=1)
 ----------------------------------------------------------------------
 -----
 title
 -----
 Structure from the checkpoint file:  "Grambow2020_wb97xd3_008132_forward_mol1.chk"
 Charge =  0 Multiplicity = 1

                         Standard orientation:
 ---------------------------------------------------------------------
 Center     Atomic      Atomic             Coordinates (Angstroms)
 Number     Number       Type             X           Y           Z
 ---------------------------------------------------------------------
      1          6           0        1.453749   -0.010102   -0.620947
      2          8           0        0.244523   -0.671071   -0.971943
      3          6           0       -1.023748    0.308006   -0.556859
      4          6           0       -0.233793    1.314395    0.310873
      5          6           0        0.926156    0.406814    0.738128
      6          6           0        0.293862   -0.923867    1.033943
      7          8           0       -1.789025   -0.463618    0.093731
      8          1           0        1.715007    0.793827   -1.313555
      9          1           0        2.268282   -0.737726   -0.582154
     10          1           0       -1.338580    0.660758   -1.552838
     11          1           0       -0.874746    1.631873    1.131260
     12          1           0        0.140935    2.192417   -0.219787
     13          1           0        1.576753    0.802146    1.521074
     14          1           0        0.876866   -1.819358    0.858746
     15          1           0       -0.505867   -1.017894    1.752123
 ---------------------------------------------------------------------

 SCF Done:  E(RHF) =  -343.679970026     A.U. after    2 cycles

 The electronic state is 1-A.
 Alpha  occ. eigenvalues --  -20.57534 -20.47055 -11.38126 -11.32583 -11.30079
 Alpha  occ. eigenvalues --  -11.28199 -11.24139  -1.34680  -1.24813  -1.09996
 Alpha  occ. eigenvalues --   -0.98368  -0.93695  -0.81090  -0.78020  -0.71898
 Alpha  occ. eigenvalues --   -0.70651  -0.66521  -0.62404  -0.58637  -0.56091
 Alpha  occ. eigenvalues --   -0.54941  -0.52470  -0.52019  -0.49564  -0.45578
 Alpha  occ. eigenvalues --   -0.39042  -0.36799
 Alpha virt. eigenvalues --    0.02012   0.03240   0.04033   0.04844   0.05487
 Alpha virt. eigenvalues --    0.06322   0.06543   0.06751   0.08507   0.10606
 Alpha virt. eigenvalues --    0.11725   0.12090   0.13092   0.13668   0.14270

 Mulliken charges:
               1
     1  C    0.977170
     2  O   -0.808023
     3  C    0.873485
     4  C    0.477091
     5  C    0.004047
     6  C    0.962287
     7  O   -0.754042
     8  H   -0.240403
     9  H   -0.280319
    10  H   -0.224962
    11  H   -0.148799
    12  H   -0.176398
    13  H   -0.201717
    14  H   -0.246038
    15  H   -0.213379
 Sum of Mulliken charges =   0.00000

 Dipole moment (field-independent basis, Debye):
    X=              5.4703    Y=              1.6614    Z=              2.7176  Tot=              6.3301

 Test job not archived.
 1\1\GINC-SE141\SP\RHF\Aug-CC-pVDZ\C5H8O2\OHZDE\09-Apr-2025\0\\#t hf au
 g-cc-pvdz iop(5/13=1,5/36=2,99/5=2) pseudo=read geom=check guess=(read
 ,tcheck) scf=(maxcycle=1)\\title\\0,1\C,0,-1.21053428,0.59813959,0.442
 3924\O,0,-0.18020984,1.3399961,-0.19822097\C,0,0.58891851,0.34288097,-
 1.27227943\C,0,-0.01055984,-0.99434334,-0.7800774\C,0,-0.31431727,-0.6
 0337388,0.67133711\C,0,0.86801095,0.21216325,1.11294188\O,0,1.81456612
 ,0.50533566,-0.9971127\H,0,-2.0835695,0.44435806,-0.19668837\H,0,-1.51
 409652,1.11238914,1.35770905\H,0,0.196755,0.73471268,-2.22527686\H,0,0

 Normal termination of Gaussian 16 at Wed Apr  9 16:22:16 2025.
