 Gaussian 16, Revision C.01,

 ----------------------------------------------------------------------
 #t hf aug-cc-pvdz symm=none int=(grid=ultrafine) guess=(read,tcheck) s
 table=(opt,rrhf)
 ----------------------------------------------------------------------
 -----
 title
 -----
 Symbolic Z-matrix:
 Charge =  0 Multiplicity = 1

 SCF Done:  E(RHF) =  -337.396829449     A.U. after   17 cycles
 Normal termination of Gaussian 16 at Wed Apr  9 16:44:53 2025.
 Gaussian 16:  ES64L-G16RevC.01  3-Jul-2019

 ----------------------------------------------------------------------
 #t hf aug-cc-pvdz iop(5/13=1,5/36=2,99/5=2) pseudo=read geom=check gue
 ss=(read,tcheck) scf=(maxcycle=1)
 ----------------------------------------------------------------------
 -----
 title
 -----
 Structure from the checkpoint file:  "Grambow2020_wb97xd3_008699_forward_mol1.chk"
 Charge =  0 Multiplicity = 1

                         Standard orientation:
 ---------------------------------------------------------------------
 Center     Atomic      Atomic             Coordinates (Angstroms)
 Number     Number       Type             X           Y           Z
 ---------------------------------------------------------------------
      1          8           0       -2.577710    0.232390    0.207296
      2          6           0       -1.696562   -0.529211   -0.091394
      3          6           0       -0.281183   -0.114277   -0.147484
      4          6           0        0.863163   -0.906557   -0.169804
      5          7           0        2.054534   -0.362949    0.650637
      6          6           0        1.739301    0.455134   -0.256041
      7          7           0        0.185408    1.137403   -0.116025
      8          1           0       -1.888846   -1.597811   -0.300417
      9          1           0        1.026462   -1.880926   -0.602049
     10          1           0        2.265255    0.967072   -1.057134
     11          1           0       -0.209097    1.800828    0.547286
 ---------------------------------------------------------------------

 SCF Done:  E(RHF) =  -337.494042623     A.U. after    2 cycles

 The electronic state is 1-A.
 Alpha  occ. eigenvalues --  -20.61060 -15.65879 -15.63168 -11.37766 -11.37491
 Alpha  occ. eigenvalues --  -11.34140 -11.30126  -1.39811  -1.32004  -1.18327
 Alpha  occ. eigenvalues --   -1.00643  -0.90267  -0.83360  -0.78148  -0.75170
 Alpha  occ. eigenvalues --   -0.70177  -0.65893  -0.59881  -0.58126  -0.57778
 Alpha  occ. eigenvalues --   -0.54610  -0.50704  -0.47808  -0.38094  -0.32703
 Alpha virt. eigenvalues --    0.01773   0.02968   0.03498   0.04362   0.06048
 Alpha virt. eigenvalues --    0.08160   0.09529   0.10129   0.11136   0.12016
 Alpha virt. eigenvalues --    0.12843   0.13392   0.14191   0.14674   0.15261

 Mulliken charges:
               1
     1  O   -0.457769
     2  C    0.891751
     3  C    0.044560
     4  C    0.521704
     5  N   -0.737932
     6  C    0.914949
     7  N   -0.554070
     8  H   -0.115934
     9  H   -0.280565
    10  H   -0.192646
    11  H   -0.034049
 Sum of Mulliken charges =  -0.00000

 Dipole moment (field-independent basis, Debye):
    X=              0.5059    Y=             -0.5794    Z=             -2.0764  Tot=              2.2143

 Test job not archived.
 1\1\GINC-SE097\SP\RHF\Aug-CC-pVDZ\C4H4N2O1\OHZDE\09-Apr-2025\0\\#t hf
 aug-cc-pvdz iop(5/13=1,5/36=2,99/5=2) pseudo=read geom=check guess=(re
 ad,tcheck) scf=(maxcycle=1)\\title\\0,1\O,0,-2.37509175,-1.38167105,-0
 .04943411\C,0,-1.86058694,-0.30088077,0.06392106\C,0,-0.39568143,-0.12
 033254,0.05563507\C,0,0.34166397,1.04560719,-0.13048728\N,0,1.63087034
 ,0.88106412,-0.9664719\C,0,1.68711251,0.16280564,0.06872752\N,0,0.5274
 373,-1.08088457,0.158539\H,0,-2.45515932,0.62839086,0.13813393\H,0,0.1
 1616462,2.06309533,0.14657752\H,0,2.39180781,0.03115714,0.88514067\H,0

 Normal termination of Gaussian 16 at Wed Apr  9 16:44:57 2025.
