 Gaussian 16, Revision C.01,

 ----------------------------------------------------------------------
 #t hf aug-cc-pvdz symm=none int=(grid=ultrafine) guess=(read,tcheck) s
 table=(opt,rrhf)
 ----------------------------------------------------------------------
 -----
 title
 -----
 Symbolic Z-matrix:
 Charge =  0 Multiplicity = 1

 SCF Done:  E(RHF) =  -289.214173611     A.U. after   12 cycles

 1\1\GINC-SE045\Stability\RHF\Aug-CC-pVDZ\C6H13N1\OHZDE\09-Apr-2025\0\\
 #t hf aug-cc-pvdz symm=none int=(grid=ultrafine) guess=(read,tcheck) s
 table=(opt,rrhf)\\title\\0,1\C,0,-1.33934595,1.76280858,0.5854425\C,0,
 -0.64390667,0.43054644,0.64111245\N,0,-0.76853319,-0.47186824,-0.48548
 593\C,0,-1.11114478,-1.85475054,-0.23555422\C,0,0.55548479,0.04388608,
 -0.15603508\C,0,1.58883935,-0.85576919,0.48564836\C,0,1.14111264,0.977
 0035,-1.18932916\H,0,-2.39582303,1.64952744,0.83895115\H,0,-0.8957318,
 2.46332393,1.2967984\H,0,-1.28375312,2.19996204,-0.4103811\H,0,-0.6874

 Normal termination of Gaussian 16 at Wed Apr  9 17:04:19 2025.
 Gaussian 16:  ES64L-G16RevC.01  3-Jul-2019

 ----------------------------------------------------------------------
 #t hf aug-cc-pvdz iop(5/13=1,5/36=2,99/5=2) pseudo=read geom=check gue
 ss=(read,tcheck) scf=(maxcycle=1)
 ----------------------------------------------------------------------
 -----
 title
 -----
 Structure from the checkpoint file:  "Grambow2020_wb97xd3_009130_forward_mol2.chk"
 Charge =  0 Multiplicity = 1

                         Standard orientation:
 ---------------------------------------------------------------------
 Center     Atomic      Atomic             Coordinates (Angstroms)
 Number     Number       Type             X           Y           Z
 ---------------------------------------------------------------------
      1          6           0       -2.215254   -0.372627    0.309481
      2          6           0       -0.728212   -0.424906    0.527720
      3          7           0        0.133759   -0.733529   -0.595163
      4          6           0        1.162107   -1.737007   -0.428589
      5          6           0        0.257388    0.577903    0.031275
      6          6           0        1.455032    0.902123    0.897005
      7          6           0       -0.174916    1.733483   -0.839996
      8          1           0       -2.634088   -1.381497    0.311306
      9          1           0       -2.705182    0.196658    1.102846
     10          1           0       -2.461677    0.085477   -0.647219
     11          1           0       -0.439189   -0.888862    1.472595
     12          1           0        1.995907   -1.522553   -1.100064
     13          1           0        1.555211   -1.820820    0.593237
     14          1           0        0.750274   -2.708218   -0.708951
     15          1           0        1.257503    1.806202    1.476652
     16          1           0        1.695555    0.107319    1.601905
     17          1           0        2.338585    1.092597    0.281272
     18          1           0       -0.960441    1.434768   -1.531297
     19          1           0        0.670341    2.091407   -1.433662
     20          1           0       -0.535989    2.568408   -0.233859
 ---------------------------------------------------------------------

 SCF Done:  E(RHF) =  -289.304897087     A.U. after    2 cycles

 The electronic state is 1-A.
 Alpha  occ. eigenvalues --  -15.60769 -11.26444 -11.25602 -11.24994 -11.22689
 Alpha  occ. eigenvalues --  -11.22082 -11.21833  -1.24622  -1.02455  -0.99690
 Alpha  occ. eigenvalues --   -0.93572  -0.92348  -0.78091  -0.73322  -0.65672
 Alpha  occ. eigenvalues --   -0.63362  -0.60402  -0.59204  -0.55578  -0.55350
 Alpha  occ. eigenvalues --   -0.54628  -0.53936  -0.53295  -0.52358  -0.47836
 Alpha  occ. eigenvalues --   -0.42450  -0.42313  -0.35124
 Alpha virt. eigenvalues --    0.03448   0.04072   0.04275   0.04544   0.06338
 Alpha virt. eigenvalues --    0.06711   0.06781   0.07112   0.07419   0.08584
 Alpha virt. eigenvalues --    0.09095   0.09384   0.09812   0.12219   0.13690

 Mulliken charges:
               1
     1  C    0.279225
     2  C    0.520459
     3  N   -0.868881
     4  C    0.832950
     5  C   -1.136126
     6  C    0.528313
     7  C    0.818979
     8  H    0.063021
     9  H    0.068229
    10  H   -0.051063
    11  H   -0.486498
    12  H   -0.195461
    13  H   -0.135611
    14  H   -0.240943
    15  H   -0.025541
    16  H   -0.103934
    17  H    0.043596
    18  H   -0.028110
    19  H    0.045876
    20  H    0.071519
 Sum of Mulliken charges =  -0.00000

 Dipole moment (field-independent basis, Debye):
    X=              0.4645    Y=              0.1832    Z=              1.1739  Tot=              1.2756

 Test job not archived.
 1\1\GINC-SE045\SP\RHF\Aug-CC-pVDZ\C6H13N1\OHZDE\09-Apr-2025\0\\#t hf a
 ug-cc-pvdz iop(5/13=1,5/36=2,99/5=2) pseudo=read geom=check guess=(rea
 d,tcheck) scf=(maxcycle=1)\\title\\0,1\C,0,-1.33934595,1.76280858,0.58
 54425\C,0,-0.64390667,0.43054644,0.64111245\N,0,-0.76853319,-0.4718682
 4,-0.48548593\C,0,-1.11114478,-1.85475054,-0.23555422\C,0,0.55548479,0
 .04388608,-0.15603508\C,0,1.58883935,-0.85576919,0.48564836\C,0,1.1411
 1264,0.9770035,-1.18932916\H,0,-2.39582303,1.64952744,0.83895115\H,0,-
 0.8957318,2.46332393,1.2967984\H,0,-1.28375312,2.19996204,-0.4103811\H

 Normal termination of Gaussian 16 at Wed Apr  9 17:04:33 2025.
