 Gaussian 16, Revision C.01,

 ----------------------------------------------------------------------
 #t hf aug-cc-pvdz symm=none int=(grid=ultrafine) guess=(read,tcheck) s
 table=(opt,rrhf)
 ----------------------------------------------------------------------
 -----
 title
 -----
 Symbolic Z-matrix:
 Charge =  0 Multiplicity = 1

 SCF Done:  E(RHF) =  -302.299870765     A.U. after   15 cycles
 Normal termination of Gaussian 16 at Wed Apr  9 03:09:19 2025.
 Gaussian 16:  ES64L-G16RevC.01  3-Jul-2019

 ----------------------------------------------------------------------
 #t hf aug-cc-pvdz iop(5/13=1,5/36=2,99/5=2) pseudo=read geom=check gue
 ss=(read,tcheck) scf=(maxcycle=1)
 ----------------------------------------------------------------------
 -----
 title
 -----
 Structure from the checkpoint file:  "Grambow2020_b97d3_006718_reverse_mol2.chk"
 Charge =  0 Multiplicity = 1

                         Standard orientation:
 ---------------------------------------------------------------------
 Center     Atomic      Atomic             Coordinates (Angstroms)
 Number     Number       Type             X           Y           Z
 ---------------------------------------------------------------------
      1          8           0       -3.106234   -0.021078    0.001596
      2          6           0       -1.925371    0.021020    0.000029
      3          6           0       -0.630260   -0.205119   -0.001819
      4          6           0        0.566586    0.411171   -0.002028
      5          6           0        1.825461   -0.382067   -0.000630
      6          8           0        2.932805    0.135475    0.002157
      7          1           0        0.693674    1.500694   -0.001908
      8          1           0        1.675266   -1.485895   -0.001422
 ---------------------------------------------------------------------

 SCF Done:  E(RHF) =  -302.392847392     A.U. after    2 cycles

 The electronic state is 1-A.
 Alpha  occ. eigenvalues --  -20.67494 -20.60594 -11.43836 -11.37457 -11.33549
 Alpha  occ. eigenvalues --  -11.29302  -1.45279  -1.37806  -1.12130  -0.99585
 Alpha  occ. eigenvalues --   -0.83912  -0.77902  -0.74514  -0.68866  -0.66252
 Alpha  occ. eigenvalues --   -0.65223  -0.65059  -0.57387  -0.48135  -0.43334
 Alpha  occ. eigenvalues --   -0.39606
 Alpha virt. eigenvalues --   -0.01866   0.02887   0.04328   0.06301   0.08416
 Alpha virt. eigenvalues --    0.09093   0.09801   0.10175   0.11730   0.12886
 Alpha virt. eigenvalues --    0.13369   0.13384   0.15068   0.15991   0.16232

 Mulliken charges:
               1
     1  O   -0.221632
     2  C   -0.481536
     3  C    0.498805
     4  C    0.550545
     5  C    0.511038
     6  O   -0.458089
     7  H   -0.283406
     8  H   -0.115724
 Sum of Mulliken charges =  -0.00000

 Dipole moment (field-independent basis, Debye):
    X=             -0.8665    Y=              0.1444    Z=             -0.0078  Tot=              0.8785

 Test job not archived.
 1\1\GINC-SE021\SP\RHF\Aug-CC-pVDZ\C4H2O2\OHZDE\09-Apr-2025\0\\#t hf au
 g-cc-pvdz iop(5/13=1,5/36=2,99/5=2) pseudo=read geom=check guess=(read
 ,tcheck) scf=(maxcycle=1)\\title\\0,1\O,0,-3.26892751,0.57864652,0.315
 04608\C,0,-2.12011293,0.33787976,0.17914244\C,0,-0.81733842,0.34131701
 ,0.00244771\C,0,0.25668767,-0.46628656,-0.07816033\C,0,1.61269988,0.10
 006962,-0.31154283\O,0,2.61428271,-0.59565265,-0.39443641\H,0,0.209771
 26,-1.55800317,0.01757391\H,0,1.63935134,1.20979648,-0.40529857\\Versi
 on=ES64L-G16RevC.01\State=1-A\HF=-302.3928474\RMSD=7.811e-03\Dipole=-0

 Normal termination of Gaussian 16 at Wed Apr  9 03:09:22 2025.
