 Gaussian 16, Revision C.01,

 ----------------------------------------------------------------------
 #t hf aug-cc-pvdz symm=none int=(grid=ultrafine) guess=(read,tcheck) s
 table=(opt,rrhf)
 ----------------------------------------------------------------------
 -----
 title
 -----
 Symbolic Z-matrix:
 Charge =  0 Multiplicity = 1

 SCF Done:  E(RHF) =  -206.698546948     A.U. after   14 cycles
 Normal termination of Gaussian 16 at Wed Apr  9 03:08:35 2025.
 Gaussian 16:  ES64L-G16RevC.01  3-Jul-2019

 ----------------------------------------------------------------------
 #t hf aug-cc-pvdz iop(5/13=1,5/36=2,99/5=2) pseudo=read geom=check gue
 ss=(read,tcheck) scf=(maxcycle=1)
 ----------------------------------------------------------------------
 -----
 title
 -----
 Structure from the checkpoint file:  "Grambow2020_b97d3_006676_reverse_mol2.chk"
 Charge =  0 Multiplicity = 1

                         Standard orientation:
 ---------------------------------------------------------------------
 Center     Atomic      Atomic             Coordinates (Angstroms)
 Number     Number       Type             X           Y           Z
 ---------------------------------------------------------------------
      1          8           0       -1.617098   -0.418157   -0.000101
      2          6           0        1.863349   -0.157259    0.000140
      3          6           0        0.575556    0.124041   -0.000289
      4          7           0       -0.586097    0.567065   -0.000042
      5          1           0       -2.412224    0.151345    0.001282
      6          1           0        2.409491   -0.288219   -0.934752
      7          1           0        2.408759   -0.288016    0.935473
 ---------------------------------------------------------------------

 SCF Done:  E(RHF) =  -206.762469394     A.U. after    2 cycles

 The electronic state is 1-A.
 Alpha  occ. eigenvalues --  -20.63367 -15.71206 -11.32819 -11.27503  -1.38244
 Alpha  occ. eigenvalues --   -1.16311  -1.01441  -0.74598  -0.71180  -0.67603
 Alpha  occ. eigenvalues --   -0.64448  -0.60111  -0.52146  -0.42373  -0.38007
 Alpha virt. eigenvalues --    0.03566   0.04303   0.05054   0.09027   0.09655
 Alpha virt. eigenvalues --    0.10860   0.12060   0.14268   0.15763   0.16651
 Alpha virt. eigenvalues --    0.17121   0.18109   0.19012   0.20447   0.22648

 Mulliken charges:
               1
     1  O   -0.494839
     2  C    0.702404
     3  C   -0.043660
     4  N   -0.091152
     5  H    0.225568
     6  H   -0.149188
     7  H   -0.149132
 Sum of Mulliken charges =  -0.00000

 Dipole moment (field-independent basis, Debye):
    X=              0.7180    Y=              0.1872    Z=              0.0026  Tot=              0.7420

 Test job not archived.
 1\1\GINC-SE162\SP\RHF\Aug-CC-pVDZ\C2H3N1O1\OHZDE\09-Apr-2025\0\\#t hf
 aug-cc-pvdz iop(5/13=1,5/36=2,99/5=2) pseudo=read geom=check guess=(re
 ad,tcheck) scf=(maxcycle=1)\\title\\0,1\O,0,-0.5754052,1.8977427,-0.40
 17079\C,0,0.06581188,-1.48239629,0.18572414\C,0,0.18481258,-0.17387302
 ,0.08015056\N,0,0.47037056,1.03554186,0.04167373\H,0,-0.12934806,2.766
 47634,-0.34790059\H,0,0.29795719,-2.13670529,-0.65536601\H,0,-0.289169
 96,-1.94077029,1.10946608\\Version=ES64L-G16RevC.01\State=1-A\HF=-206.
 7624694\RMSD=3.781e-03\Dipole=0.1012052,-0.2662022,0.0641988\Quadrupol

 Normal termination of Gaussian 16 at Wed Apr  9 03:08:36 2025.
