 Gaussian 16, Revision C.01,

 ----------------------------------------------------------------------
 #t hf aug-cc-pvdz symm=none int=(grid=ultrafine) guess=(read,tcheck) s
 table=(opt,rrhf)
 ----------------------------------------------------------------------
 -----
 title
 -----
 Symbolic Z-matrix:
 Charge =  0 Multiplicity = 1

 SCF Done:  E(RHF) =  -322.671558699     A.U. after   14 cycles
 Normal termination of Gaussian 16 at Wed Apr  9 16:02:58 2025.
 Gaussian 16:  ES64L-G16RevC.01  3-Jul-2019

 ----------------------------------------------------------------------
 #t hf aug-cc-pvdz iop(5/13=1,5/36=2,99/5=2) pseudo=read geom=check gue
 ss=(read,tcheck) scf=(maxcycle=1)
 ----------------------------------------------------------------------
 -----
 title
 -----
 Structure from the checkpoint file:  "Grambow2020_wb97xd3_007710_forward_mol2.chk"
 Charge =  0 Multiplicity = 1

                         Standard orientation:
 ---------------------------------------------------------------------
 Center     Atomic      Atomic             Coordinates (Angstroms)
 Number     Number       Type             X           Y           Z
 ---------------------------------------------------------------------
      1          6           0       -2.569716    0.152609    0.169817
      2          7           0       -1.452818   -0.737962   -0.079153
      3          6           0       -0.305024   -0.266120   -0.132926
      4          8           0        0.129351    1.056394   -0.012696
      5          6           0        1.463883    0.640572   -0.357397
      6          6           0        1.984894   -0.270292    0.682481
      7          6           0        1.057731   -0.803981   -0.398085
      8          1           0       -3.341864   -0.032140   -0.578218
      9          1           0       -2.999683   -0.083110    1.145402
     10          1           0       -2.303826    1.212929    0.151509
     11          1           0        2.022185    1.254486   -1.047767
     12          1           0        1.633519   -0.171633    1.702411
     13          1           0        3.017754   -0.577685    0.570495
     14          1           0        1.316223   -1.604990   -1.071540
 ---------------------------------------------------------------------

 SCF Done:  E(RHF) =  -322.771619936     A.U. after    2 cycles

 The electronic state is 1-A.
 Alpha  occ. eigenvalues --  -20.60445 -15.60715 -11.34823 -11.32122 -11.26734
 Alpha  occ. eigenvalues --  -11.26681 -11.25047  -1.40811  -1.19165  -1.13921
 Alpha  occ. eigenvalues --   -0.95863  -0.87903  -0.84566  -0.74978  -0.70845
 Alpha  occ. eigenvalues --   -0.68517  -0.65367  -0.60543  -0.58441  -0.57319
 Alpha  occ. eigenvalues --   -0.55919  -0.52350  -0.48561  -0.42254  -0.40613
 Alpha  occ. eigenvalues --   -0.38067
 Alpha virt. eigenvalues --    0.02984   0.04330   0.04403   0.04740   0.06033
 Alpha virt. eigenvalues --    0.06904   0.07419   0.09998   0.10612   0.11009
 Alpha virt. eigenvalues --    0.12369   0.12981   0.14237   0.14888   0.15575

 Mulliken charges:
               1
     1  C    0.704143
     2  N   -0.528065
     3  C   -0.066499
     4  O   -0.725341
     5  C    0.858000
     6  C    0.678743
     7  C    0.770280
     8  H   -0.161982
     9  H   -0.126156
    10  H   -0.112168
    11  H   -0.356923
    12  H   -0.293109
    13  H   -0.294275
    14  H   -0.346646
 Sum of Mulliken charges =  -0.00000

 Dipole moment (field-independent basis, Debye):
    X=              2.5647    Y=              0.2020    Z=             -0.3096  Tot=              2.5913

 Test job not archived.
 1\1\GINC-SE009\SP\RHF\Aug-CC-pVDZ\C5H7N1O1\OHZDE\09-Apr-2025\0\\#t hf
 aug-cc-pvdz iop(5/13=1,5/36=2,99/5=2) pseudo=read geom=check guess=(re
 ad,tcheck) scf=(maxcycle=1)\\title\\0,1\C,0,2.47340554,0.01143979,0.67
 340308\N,0,1.29305858,0.83488531,0.49653959\C,0,0.26584383,0.3231503,0
 .02123447\O,0,0.03512784,-0.98079823,-0.42448708\C,0,-1.26229963,-0.57
 905789,-0.90197092\C,0,-2.10542188,-0.16528954,0.23838473\C,0,-1.09321
 577,0.80594383,-0.34832008\H,0,3.33016766,0.52374483,0.2336259\H,0,2.6
 7279277,-0.09657895,1.74147462\H,0,2.38942054,-0.98463382,0.23057538\H

 Normal termination of Gaussian 16 at Wed Apr  9 16:03:03 2025.
