 Gaussian 16, Revision C.01,

 ----------------------------------------------------------------------
 #t hf aug-cc-pvdz symm=none int=(grid=ultrafine) guess=(read,tcheck) s
 table=(opt,rrhf)
 ----------------------------------------------------------------------
 -----
 title
 -----
 Symbolic Z-matrix:
 Charge =  0 Multiplicity = 1

 SCF Done:  E(RHF) =  -284.762070143     A.U. after   14 cycles
 Normal termination of Gaussian 16 at Wed Apr  9 03:05:50 2025.
 Gaussian 16:  ES64L-G16RevC.01  3-Jul-2019

 ----------------------------------------------------------------------
 #t hf aug-cc-pvdz iop(5/13=1,5/36=2,99/5=2) pseudo=read geom=check gue
 ss=(read,tcheck) scf=(maxcycle=1)
 ----------------------------------------------------------------------
 -----
 title
 -----
 Structure from the checkpoint file:  "Grambow2020_b97d3_006561_reverse_mol2.chk"
 Charge =  0 Multiplicity = 1

                         Standard orientation:
 ---------------------------------------------------------------------
 Center     Atomic      Atomic             Coordinates (Angstroms)
 Number     Number       Type             X           Y           Z
 ---------------------------------------------------------------------
      1          8           0        2.220600   -0.020534   -0.384361
      2          6           0        1.060326   -0.013200    0.440434
      3          6           0       -0.056614    1.050289    0.130493
      4          7           0       -1.005658   -0.090571   -0.025852
      5          6           0       -2.316677   -0.042849   -0.211294
      6          6           0       -0.021285   -1.008132    0.175161
      7          1           0        1.925771   -0.372707   -1.248241
      8          1           0        1.454540    0.062998    1.465335
      9          1           0        0.082281    1.600460   -0.806655
     10          1           0       -0.363068    1.718599    0.944883
     11          1           0       -2.779016    0.921693   -0.381812
     12          1           0       -2.881697   -0.969459   -0.222629
     13          1           0       -0.158511   -2.079961    0.296209
 ---------------------------------------------------------------------

 SCF Done:  E(RHF) =  -284.848760752     A.U. after    2 cycles

 The electronic state is 1-A.
 Alpha  occ. eigenvalues --  -20.57248 -15.74212 -11.30886 -11.29940 -11.25897
 Alpha  occ. eigenvalues --  -11.24714  -1.32707  -1.28454  -1.05421  -0.93967
 Alpha  occ. eigenvalues --   -0.86945  -0.75232  -0.71294  -0.67950  -0.67259
 Alpha  occ. eigenvalues --   -0.64575  -0.58116  -0.57628  -0.53848  -0.50539
 Alpha  occ. eigenvalues --   -0.50018  -0.44621  -0.25303
 Alpha virt. eigenvalues --    0.03395   0.04042   0.04168   0.04654   0.06842
 Alpha virt. eigenvalues --    0.07026   0.07284   0.08301   0.10302   0.12636
 Alpha virt. eigenvalues --    0.13160   0.13833   0.15019   0.15262   0.15916

 Mulliken charges:
               1
     1  O   -0.625219
     2  C    0.729367
     3  C    0.764469
     4  N   -0.186356
     5  C    0.460421
     6  C    0.329879
     7  H    0.174475
     8  H   -0.212796
     9  H   -0.186600
    10  H   -0.190029
    11  H   -0.367837
    12  H   -0.339956
    13  H   -0.349818
 Sum of Mulliken charges =  -0.00000

 Dipole moment (field-independent basis, Debye):
    X=             -1.8228    Y=              0.6484    Z=             -0.1505  Tot=              1.9406

 Test job not archived.
 1\1\GINC-SE165\SP\RHF\Aug-CC-pVDZ\C4H7N1O1\OHZDE\09-Apr-2025\0\\#t hf
 aug-cc-pvdz iop(5/13=1,5/36=2,99/5=2) pseudo=read geom=check guess=(re
 ad,tcheck) scf=(maxcycle=1)\\title\\0,1\O,0,-2.36393269,-0.58438692,0.
 44746061\C,0,-1.32503433,0.05624949,-0.28524234\C,0,-0.22053913,0.8288
 2299,0.525835\N,0,0.78605997,-0.05343779,-0.13375817\C,0,2.10710011,0.
 02024079,-0.06403345\C,0,-0.17853555,-0.76283433,-0.77999945\H,0,-1.94
 277429,-1.35369242,0.88108785\H,0,-1.85492854,0.69588439,-1.00753803\H
 ,0,-0.25549169,0.67337171,1.60973505\H,0,-0.05240823,1.88444175,0.2784

 Normal termination of Gaussian 16 at Wed Apr  9 03:05:54 2025.
