 Gaussian 16, Revision C.01,

 ----------------------------------------------------------------------
 #t hf aug-cc-pvdz symm=none int=(grid=ultrafine) guess=(read,tcheck) s
 table=(opt,rrhf)
 ----------------------------------------------------------------------
 -----
 title
 -----
 Symbolic Z-matrix:
 Charge =  0 Multiplicity = 1

 SCF Done:  E(RHF) =  -286.748857762     A.U. after   16 cycles
 Normal termination of Gaussian 16 at Wed Apr  9 16:33:13 2025.
 Gaussian 16:  ES64L-G16RevC.01  3-Jul-2019

 ----------------------------------------------------------------------
 #t hf aug-cc-pvdz iop(5/13=1,5/36=2,99/5=2) pseudo=read geom=check gue
 ss=(read,tcheck) scf=(maxcycle=1)
 ----------------------------------------------------------------------
 -----
 title
 -----
 Structure from the checkpoint file:  "Grambow2020_wb97xd3_008574_reverse_mol1.chk"
 Charge =  0 Multiplicity = 1

                         Standard orientation:
 ---------------------------------------------------------------------
 Center     Atomic      Atomic             Coordinates (Angstroms)
 Number     Number       Type             X           Y           Z
 ---------------------------------------------------------------------
      1          6           0       -1.903992   -0.665202    0.656415
      2          6           0       -1.150825   -0.353835   -0.483748
      3          6           0        0.142551   -0.957925   -0.600230
      4          6           0        0.999986   -0.036146   -0.077780
      5          6           0        2.448108   -0.195813    0.247839
      6          6           0        0.198430    1.106702    0.275387
      7          7           0       -0.952047    1.029007   -0.554523
      8          1           0       -2.777739   -0.068715    0.905858
      9          1           0       -1.943117   -1.690348    1.010601
     10          1           0       -0.735617    0.252435    1.309055
     11          1           0        0.333737   -2.011161   -0.746901
     12          1           0        2.649231    0.100811    1.279232
     13          1           0        3.067878    0.428177   -0.400541
     14          1           0        2.768860   -1.230517    0.123456
     15          1           0        0.635168    2.076831    0.495105
     16          1           0       -1.739619    1.552755   -0.201502
 ---------------------------------------------------------------------

 SCF Done:  E(RHF) =  -286.834205230     A.U. after    2 cycles

 The electronic state is 1-A.
 Alpha  occ. eigenvalues --  -15.63566 -11.28127 -11.28064 -11.25416 -11.25165
 Alpha  occ. eigenvalues --  -11.23851 -11.22945  -1.26750  -1.07071  -1.01689
 Alpha  occ. eigenvalues --   -0.95091  -0.88824  -0.77247  -0.73817  -0.67727
 Alpha  occ. eigenvalues --   -0.64479  -0.60931  -0.58812  -0.57418  -0.57111
 Alpha  occ. eigenvalues --   -0.52236  -0.51362  -0.50796  -0.38806  -0.34346
 Alpha  occ. eigenvalues --   -0.31013
 Alpha virt. eigenvalues --    0.03415   0.03919   0.04171   0.05255   0.06010
 Alpha virt. eigenvalues --    0.06417   0.07640   0.07908   0.08356   0.09423
 Alpha virt. eigenvalues --    0.10772   0.11645   0.11948   0.13555   0.13989

 Mulliken charges:
               1
     1  C    0.753362
     2  C   -0.384247
     3  C    0.627607
     4  C   -0.574786
     5  C    0.592568
     6  C    0.152675
     7  N   -0.521183
     8  H   -0.258959
     9  H   -0.299230
    10  H    0.549521
    11  H   -0.361213
    12  H    0.033687
    13  H    0.081767
    14  H   -0.073467
    15  H   -0.378141
    16  H    0.060038
 Sum of Mulliken charges =   0.00000

 Dipole moment (field-independent basis, Debye):
    X=              0.3324    Y=              0.1518    Z=              1.1895  Tot=              1.2444

 Test job not archived.
 1\1\GINC-SE220\SP\RHF\Aug-CC-pVDZ\C6H9N1\OHZDE\09-Apr-2025\0\\#t hf au
 g-cc-pvdz iop(5/13=1,5/36=2,99/5=2) pseudo=read geom=check guess=(read
 ,tcheck) scf=(maxcycle=1)\\title\\0,1\C,0,2.13754544,-0.2158311,-0.302
 72382\C,0,1.21206827,-0.3907855,0.73509304\C,0,0.01941282,-1.12412956,
 0.43327389\C,0,-0.8958029,-0.16964573,0.10287321\C,0,-2.25261883,-0.35
 180922,-0.49248101\C,0,-0.23734426,1.09897476,0.27709605\N,0,0.8011484
 9,0.85691566,1.21588544\H,0,2.93597278,0.5140722,-0.1968578\H,0,2.3730
 1137,-1.04822656,-0.95814325\H,0,0.93387362,0.74834653,-0.80733619\H,0

 Normal termination of Gaussian 16 at Wed Apr  9 16:33:19 2025.
