 Gaussian 16, Revision C.01,

 ----------------------------------------------------------------------
 #t hf aug-cc-pvdz symm=none int=(grid=ultrafine) guess=(read,tcheck) s
 table=(opt,rrhf)
 ----------------------------------------------------------------------
 -----
 title
 -----
 Symbolic Z-matrix:
 Charge =  0 Multiplicity = 1

 SCF Done:  E(RHF) =  -358.572834171     A.U. after   14 cycles
 Normal termination of Gaussian 16 at Wed Apr  9 03:33:09 2025.
 Gaussian 16:  ES64L-G16RevC.01  3-Jul-2019

 ----------------------------------------------------------------------
 #t hf aug-cc-pvdz iop(5/13=1,5/36=2,99/5=2) pseudo=read geom=check gue
 ss=(read,tcheck) scf=(maxcycle=1)
 ----------------------------------------------------------------------
 -----
 title
 -----
 Structure from the checkpoint file:  "Grambow2020_wb97xd3_007062_forward_mol2.chk"
 Charge =  0 Multiplicity = 1

                         Standard orientation:
 ---------------------------------------------------------------------
 Center     Atomic      Atomic             Coordinates (Angstroms)
 Number     Number       Type             X           Y           Z
 ---------------------------------------------------------------------
      1          8           0       -2.199023   -0.310661   -0.009686
      2          6           0       -1.022536   -0.048346   -0.060832
      3          7           0       -0.447069    1.169348    0.146426
      4          6           0        0.984172    1.233054   -0.069897
      5          6           0        1.343107   -0.208927   -0.357144
      6          8           0        1.034962   -1.078669    0.713319
      7          6           0        0.115263   -0.996566   -0.371415
      8          1           0       -0.989954    1.935857    0.502037
      9          1           0        1.515267    1.604133    0.810455
     10          1           0        1.234397    1.866365   -0.926210
     11          1           0        2.222414   -0.455350   -0.939686
     12          1           0       -0.060192   -1.897086   -0.944916
 ---------------------------------------------------------------------

 SCF Done:  E(RHF) =  -358.683659638     A.U. after    2 cycles

 The electronic state is 1-A.
 Alpha  occ. eigenvalues --  -20.61314 -20.54658 -15.65847 -11.37223 -11.32563
 Alpha  occ. eigenvalues --  -11.31907 -11.30432  -1.42287  -1.35616  -1.22558
 Alpha  occ. eigenvalues --   -1.00739  -0.97758  -0.85332  -0.81998  -0.73858
 Alpha  occ. eigenvalues --   -0.68950  -0.67076  -0.64661  -0.63563  -0.60317
 Alpha  occ. eigenvalues --   -0.59059  -0.54349  -0.50235  -0.48370  -0.43215
 Alpha  occ. eigenvalues --   -0.40633
 Alpha virt. eigenvalues --    0.02575   0.03591   0.04503   0.04746   0.06325
 Alpha virt. eigenvalues --    0.09371   0.10106   0.10898   0.11312   0.12643
 Alpha virt. eigenvalues --    0.13558   0.14167   0.14453   0.14793   0.15433

 Mulliken charges:
               1
     1  O   -0.445273
     2  C    0.326559
     3  N   -0.378540
     4  C    1.061838
     5  C    0.291449
     6  O   -0.725176
     7  C    0.560721
     8  H   -0.121744
     9  H   -0.015572
    10  H   -0.095288
    11  H   -0.215748
    12  H   -0.243226
 Sum of Mulliken charges =  -0.00000

 Dipole moment (field-independent basis, Debye):
    X=              3.8517    Y=              2.7468    Z=             -1.8607  Tot=              5.0836

 Test job not archived.
 1\1\GINC-SE186\SP\RHF\Aug-CC-pVDZ\C4H5N1O2\OHZDE\09-Apr-2025\0\\#t hf
 aug-cc-pvdz iop(5/13=1,5/36=2,99/5=2) pseudo=read geom=check guess=(re
 ad,tcheck) scf=(maxcycle=1)\\title\\0,1\O,0,0.9811392,2.30276394,0.587
 30453\C,0,0.52757298,1.2193162,0.31168891\N,0,1.22109105,0.1293233,-0.
 12172321\C,0,0.42034415,-1.02539727,-0.47489174\C,0,-0.97870332,-0.590
 50588,-0.09516691\O,0,-1.10967642,-0.28965325,1.27947078\C,0,-0.922676
 9,0.79093592,0.37029926\H,0,2.22539093,0.12710421,-0.11190713\H,0,0.72
 079342,-1.91749503,0.08069267\H,0,0.47522492,-1.24135909,-1.54602017\H

 Normal termination of Gaussian 16 at Wed Apr  9 03:33:14 2025.
