 Gaussian 16, Revision C.01,

 ----------------------------------------------------------------------
 #t hf aug-cc-pvdz symm=none int=(grid=ultrafine) guess=(read,tcheck) s
 table=(opt,rrhf)
 ----------------------------------------------------------------------
 -----
 title
 -----
 Symbolic Z-matrix:
 Charge =  0 Multiplicity = 1

 SCF Done:  E(RHF) =  -320.244417083     A.U. after   17 cycles
 Normal termination of Gaussian 16 at Wed Apr  9 15:58:42 2025.
 Gaussian 16:  ES64L-G16RevC.01  3-Jul-2019

 ----------------------------------------------------------------------
 #t hf aug-cc-pvdz iop(5/13=1,5/36=2,99/5=2) pseudo=read geom=check gue
 ss=(read,tcheck) scf=(maxcycle=1)
 ----------------------------------------------------------------------
 -----
 title
 -----
 Structure from the checkpoint file:  "Grambow2020_wb97xd3_007653_reverse_mol2.chk"
 Charge =  0 Multiplicity = 1

                         Standard orientation:
 ---------------------------------------------------------------------
 Center     Atomic      Atomic             Coordinates (Angstroms)
 Number     Number       Type             X           Y           Z
 ---------------------------------------------------------------------
      1          7           0       -1.622123   -0.653589   -0.014008
      2          6           0       -0.429068   -1.293502    0.007142
      3          6           0        0.772311   -1.401912    0.014279
      4          6           0       -1.381796    0.596421   -0.007392
      5          8           0       -0.220306    1.299743    0.024608
      6          6           0        1.146791    0.934550   -0.009378
      7          6           0        1.697151   -0.271683   -0.007362
      8          1           0       -2.207229    1.300294   -0.022112
      9          1           0        1.717734    1.852402   -0.031799
     10          1           0        2.774475   -0.358765   -0.028637
 ---------------------------------------------------------------------

 SCF Done:  E(RHF) =  -320.343385041     A.U. after    2 cycles

 The electronic state is 1-A.
 Alpha  occ. eigenvalues --  -20.65160 -15.67212 -11.40814 -11.33920 -11.29745
 Alpha  occ. eigenvalues --  -11.28636 -11.23530  -1.42273  -1.25950  -1.11812
 Alpha  occ. eigenvalues --   -1.00161  -0.95446  -0.82001  -0.76144  -0.74050
 Alpha  occ. eigenvalues --   -0.67430  -0.66115  -0.59694  -0.58149  -0.53381
 Alpha  occ. eigenvalues --   -0.52829  -0.46153  -0.37871  -0.32072
 Alpha virt. eigenvalues --    0.02969   0.03860   0.05002   0.06011   0.07874
 Alpha virt. eigenvalues --    0.08380   0.09055   0.10396   0.11641   0.12637
 Alpha virt. eigenvalues --    0.12718   0.13178   0.13294   0.14983   0.15465

 Mulliken charges:
               1
     1  N   -0.356499
     2  C   -0.151507
     3  C    0.073531
     4  C    0.541001
     5  O   -0.461829
     6  C    0.713742
     7  C    0.633196
     8  H   -0.312818
     9  H   -0.380898
    10  H   -0.297918
 Sum of Mulliken charges =  -0.00000

 Dipole moment (field-independent basis, Debye):
    X=              0.6521    Y=              2.8194    Z=             -0.0774  Tot=              2.8949

 Test job not archived.
 1\1\GINC-SE226\SP\RHF\Aug-CC-pVDZ\C5H3N1O1\OHZDE\09-Apr-2025\0\\#t hf
 aug-cc-pvdz iop(5/13=1,5/36=2,99/5=2) pseudo=read geom=check guess=(re
 ad,tcheck) scf=(maxcycle=1)\\title\\0,1\N,0,-0.10296185,0.4804894,1.97
 473083\C,0,0.89087077,-0.20296763,1.35950841\C,0,1.47343196,-0.7314678
 8,0.4449458\C,0,-0.9596709,0.78675737,1.08446358\O,0,-1.00422662,0.556
 16786,-0.25329136\C,0,-0.17641328,-0.1585715,-1.1518159\C,0,0.97730022
 ,-0.77242512,-0.92814926\H,0,-1.84768854,1.34323839,1.36508448\H,0,-0.
 65604057,-0.12102183,-2.12005142\H,0,1.47834781,-1.26665605,-1.7487291

 Normal termination of Gaussian 16 at Wed Apr  9 15:58:46 2025.
