 Gaussian 16, Revision C.01,

 ----------------------------------------------------------------------
 #t hf aug-cc-pvdz symm=none int=(grid=ultrafine) guess=(read,tcheck) s
 table=(opt,rrhf)
 ----------------------------------------------------------------------
 -----
 title
 -----
 Symbolic Z-matrix:
 Charge =  0 Multiplicity = 1

 SCF Done:  E(RHF) =  -343.739886634     A.U. after   14 cycles
 Normal termination of Gaussian 16 at Wed Apr  9 15:23:55 2025.
 Gaussian 16:  ES64L-G16RevC.01  3-Jul-2019

 ----------------------------------------------------------------------
 #t hf aug-cc-pvdz iop(5/13=1,5/36=2,99/5=2) pseudo=read geom=check gue
 ss=(read,tcheck) scf=(maxcycle=1)
 ----------------------------------------------------------------------
 -----
 title
 -----
 Structure from the checkpoint file:  "Grambow2020_wb97xd3_006879_forward_mol2.chk"
 Charge =  0 Multiplicity = 1

                         Standard orientation:
 ---------------------------------------------------------------------
 Center     Atomic      Atomic             Coordinates (Angstroms)
 Number     Number       Type             X           Y           Z
 ---------------------------------------------------------------------
      1          6           0        0.607797    1.642360   -0.035674
      2          6           0        0.579884    0.144912   -0.139844
      3          6           0        1.066060   -0.735355    0.958634
      4          6           0        1.827754   -0.642465   -0.340224
      5          8           0       -0.516938   -0.351008   -0.905571
      6          6           0       -1.725187   -0.330575   -0.337536
      7          8           0       -1.992033    0.064063    0.758146
      8          1           0       -0.254841    2.009394    0.520141
      9          1           0        0.609659    2.091820   -1.030577
     10          1           0        1.512524    1.961149    0.482869
     11          1           0        1.470789   -0.258445    1.841253
     12          1           0        0.513924   -1.645435    1.148395
     13          1           0        2.765470   -0.102770   -0.358250
     14          1           0        1.772891   -1.490220   -1.009579
     15          1           0       -2.456494   -0.743188   -1.046986
 ---------------------------------------------------------------------

 SCF Done:  E(RHF) =  -343.850987620     A.U. after    2 cycles

 The electronic state is 1-A.
 Alpha  occ. eigenvalues --  -20.62581 -20.56974 -11.39706 -11.31169 -11.24241
 Alpha  occ. eigenvalues --  -11.24194 -11.23426  -1.43145  -1.34098  -1.15244
 Alpha  occ. eigenvalues --   -0.98185  -0.90459  -0.84172  -0.75605  -0.73510
 Alpha  occ. eigenvalues --   -0.69951  -0.68513  -0.63666  -0.61643  -0.58137
 Alpha  occ. eigenvalues --   -0.55857  -0.54777  -0.52501  -0.50353  -0.48234
 Alpha  occ. eigenvalues --   -0.43029  -0.41960
 Alpha virt. eigenvalues --    0.03445   0.04295   0.04559   0.04997   0.06035
 Alpha virt. eigenvalues --    0.06924   0.07193   0.07904   0.10059   0.11389
 Alpha virt. eigenvalues --    0.11508   0.13241   0.13802   0.14481   0.15100

 Mulliken charges:
               1
     1  C    0.203999
     2  C   -0.029369
     3  C    0.669185
     4  C    0.960357
     5  O   -0.605154
     6  C    0.627639
     7  O   -0.383101
     8  H    0.034822
     9  H    0.026183
    10  H   -0.059531
    11  H   -0.315756
    12  H   -0.280738
    13  H   -0.356833
    14  H   -0.280038
    15  H   -0.211664
 Sum of Mulliken charges =  -0.00000

 Dipole moment (field-independent basis, Debye):
    X=              1.5220    Y=             -0.3078    Z=             -1.3191  Tot=              2.0375

 Test job not archived.
 1\1\GINC-SE332\SP\RHF\Aug-CC-pVDZ\C5H8O2\OHZDE\09-Apr-2025\0\\#t hf au
 g-cc-pvdz iop(5/13=1,5/36=2,99/5=2) pseudo=read geom=check guess=(read
 ,tcheck) scf=(maxcycle=1)\\title\\0,1\C,0,-0.29259435,1.5053124,-0.241
 09103\C,0,-0.13813813,0.08134769,0.20885194\C,0,-0.86201073,-1.0411253
 4,-0.4499003\C,0,-1.22096944,-0.61909323,0.95326595\O,0,1.16288297,-0.
 21752905,0.71214975\C,0,2.15185813,-0.35121308,-0.17498251\O,0,2.06490
 528,-0.24576035,-1.36190421\H,0,0.34713644,1.71349846,-1.09852432\H,0,
 -0.0366842,2.18937462,0.57033886\H,0,-1.32724387,1.69273091,-0.5299160

 Normal termination of Gaussian 16 at Wed Apr  9 15:23:59 2025.
