 Gaussian 16, Revision C.01,

 ----------------------------------------------------------------------
 #t hf aug-cc-pvdz symm=none int=(grid=ultrafine) guess=(read,tcheck) s
 table=(opt,rrhf)
 ----------------------------------------------------------------------
 -----
 title
 -----
 Symbolic Z-matrix:
 Charge =  0 Multiplicity = 1

 SCF Done:  E(RHF) =  -360.897546626     A.U. after   12 cycles
 Normal termination of Gaussian 16 at Wed Apr  9 03:58:45 2025.
 Gaussian 16:  ES64L-G16RevC.01  3-Jul-2019

 ----------------------------------------------------------------------
 #t hf aug-cc-pvdz iop(5/13=1,5/36=2,99/5=2) pseudo=read geom=check gue
 ss=(read,tcheck) scf=(maxcycle=1)
 ----------------------------------------------------------------------
 -----
 title
 -----
 Structure from the checkpoint file:  "Grambow2020_wb97xd3_008730_reverse_mol2.chk"
 Charge =  0 Multiplicity = 1

                         Standard orientation:
 ---------------------------------------------------------------------
 Center     Atomic      Atomic             Coordinates (Angstroms)
 Number     Number       Type             X           Y           Z
 ---------------------------------------------------------------------
      1          6           0        1.638077    1.033439   -0.347994
      2          6           0        0.730588   -0.084753    0.077109
      3          8           0        1.228124   -1.372950   -0.190395
      4          6           0       -0.039981    0.015064    1.367341
      5          6           0       -0.765955    0.086196    0.054741
      6          8           0       -1.299161    1.337325   -0.248072
      7          7           0       -1.554670   -0.982959   -0.459366
      8          1           0        2.591125    0.966320    0.179564
      9          1           0        1.183546    2.000519   -0.140088
     10          1           0        1.835926    0.985415   -1.423681
     11          1           0       -1.598762    1.286269   -1.160737
     12          1           0        1.493204   -1.403362   -1.113147
     13          1           0       -0.147421   -0.897782    1.939154
     14          1           0        0.068228    0.925244    1.943447
     15          1           0       -0.998562   -1.823266   -0.540436
     16          1           0       -2.352667   -1.173324    0.132037
 ---------------------------------------------------------------------

 SCF Done:  E(RHF) =  -361.010148523     A.U. after    2 cycles

 The electronic state is 1-A.
 Alpha  occ. eigenvalues --  -20.58641 -20.57632 -15.61393 -11.32132 -11.29600
 Alpha  occ. eigenvalues --  -11.23125 -11.22742  -1.35515  -1.33484  -1.16445
 Alpha  occ. eigenvalues --   -1.08979  -0.96760  -0.81411  -0.80557  -0.72011
 Alpha  occ. eigenvalues --   -0.70827  -0.67378  -0.64269  -0.62581  -0.59411
 Alpha  occ. eigenvalues --   -0.56465  -0.55275  -0.54630  -0.52872  -0.50871
 Alpha  occ. eigenvalues --   -0.46861  -0.39949  -0.36578
 Alpha virt. eigenvalues --    0.03209   0.04199   0.04798   0.04841   0.06414
 Alpha virt. eigenvalues --    0.06718   0.07235   0.07406   0.08552   0.11418
 Alpha virt. eigenvalues --    0.12552   0.13512   0.14413   0.14881   0.15264

 Mulliken charges:
               1
     1  C    0.526090
     2  C   -0.163218
     3  O   -0.660564
     4  C    0.551951
     5  C    0.956986
     6  O   -0.628019
     7  N   -0.409195
     8  H    0.060685
     9  H   -0.028473
    10  H   -0.012461
    11  H    0.134880
    12  H    0.138024
    13  H   -0.246410
    14  H   -0.299792
    15  H    0.074930
    16  H    0.004585
 Sum of Mulliken charges =   0.00000

 Dipole moment (field-independent basis, Debye):
    X=              0.4085    Y=             -0.5258    Z=             -1.1007  Tot=              1.2864

 Test job not archived.
 1\1\GINC-SE044\SP\RHF\Aug-CC-pVDZ\C4H9N1O2\OHZDE\09-Apr-2025\0\\#t hf
 aug-cc-pvdz iop(5/13=1,5/36=2,99/5=2) pseudo=read geom=check guess=(re
 ad,tcheck) scf=(maxcycle=1)\\title\\0,1\C,0,-1.64808971,-0.11162783,-1
 .03971891\C,0,-0.52408371,0.23374643,-0.10594708\O,0,-0.59861499,1.526
 74312,0.44282992\C,0,0.01436967,-0.80201885,0.84573341\C,0,0.85307977,
 -0.34117282,-0.31150598\O,0,1.04529674,-1.29639759,-1.30746082\N,0,1.9
 7104077,0.52982446,-0.16660106\H,0,-2.6028869,-0.06574302,-0.51304895\
 H,0,-1.51603217,-1.11097024,-1.45074472\H,0,-1.68433346,0.58937851,-1.

 Normal termination of Gaussian 16 at Wed Apr  9 03:58:51 2025.
