 Gaussian 16, Revision C.01,

 ----------------------------------------------------------------------
 #t hf aug-cc-pvdz symm=none int=(grid=ultrafine) guess=(read,tcheck) s
 table=(opt,rrhf)
 ----------------------------------------------------------------------
 -----
 title
 -----
 Symbolic Z-matrix:
 Charge =  0 Multiplicity = 1

 SCF Done:  E(RHF) =  -283.475798397     A.U. after   17 cycles
 Normal termination of Gaussian 16 at Wed Apr  9 03:09:46 2025.
 Gaussian 16:  ES64L-G16RevC.01  3-Jul-2019

 ----------------------------------------------------------------------
 #t hf aug-cc-pvdz iop(5/13=1,5/36=2,99/5=2) pseudo=read geom=check gue
 ss=(read,tcheck) scf=(maxcycle=1)
 ----------------------------------------------------------------------
 -----
 title
 -----
 Structure from the checkpoint file:  "Grambow2020_b97d3_006723_forward_mol1.chk"
 Charge =  0 Multiplicity = 1

                         Standard orientation:
 ---------------------------------------------------------------------
 Center     Atomic      Atomic             Coordinates (Angstroms)
 Number     Number       Type             X           Y           Z
 ---------------------------------------------------------------------
      1          6           0        1.846955   -0.264980   -0.400709
      2          6           0        0.822090    0.240763    0.427940
      3          8           0       -0.093967    1.252049   -0.106739
      4          6           0       -1.227350    0.444006   -0.040542
      5          7           0       -1.248506   -0.846552   -0.519217
      6          6           0       -0.373921   -0.885291    0.524904
      7          1           0        1.623906   -0.557707   -1.423384
      8          1           0        2.813893   -0.536052    0.018019
      9          1           0        1.101224    0.539616    1.441195
     10          1           0       -2.152262    0.988921    0.171688
     11          1           0       -0.302124   -1.732298    1.211355
 ---------------------------------------------------------------------

 SCF Done:  E(RHF) =  -283.558125084     A.U. after    2 cycles

 The electronic state is 1-A.
 Alpha  occ. eigenvalues --  -20.62176 -15.66065 -11.41657 -11.34326 -11.33760
 Alpha  occ. eigenvalues --  -11.24262  -1.41526  -1.25489  -1.04648  -0.89190
 Alpha  occ. eigenvalues --   -0.84044  -0.80114  -0.75124  -0.66540  -0.65259
 Alpha  occ. eigenvalues --   -0.60250  -0.58162  -0.56087  -0.51040  -0.49904
 Alpha  occ. eigenvalues --   -0.42618  -0.26666
 Alpha virt. eigenvalues --    0.01502   0.03521   0.03877   0.05029   0.05216
 Alpha virt. eigenvalues --    0.06654   0.09541   0.10024   0.10487   0.11483
 Alpha virt. eigenvalues --    0.13132   0.14236   0.14606   0.15476   0.15605

 Mulliken charges:
               1
     1  C    0.353807
     2  C    0.892509
     3  O   -0.726487
     4  C    0.988318
     5  N   -0.664880
     6  C    0.343959
     7  H   -0.243779
     8  H   -0.271439
     9  H   -0.223600
    10  H   -0.191839
    11  H   -0.256569
 Sum of Mulliken charges =  -0.00000

 Dipole moment (field-independent basis, Debye):
    X=             -0.6852    Y=             -0.3929    Z=              2.5276  Tot=              2.6481

 Test job not archived.
 1\1\GINC-SE102\SP\RHF\Aug-CC-pVDZ\C4H5N1O1\OHZDE\09-Apr-2025\0\\#t hf
 aug-cc-pvdz iop(5/13=1,5/36=2,99/5=2) pseudo=read geom=check guess=(re
 ad,tcheck) scf=(maxcycle=1)\\title\\0,1\C,0,-1.54578675,0.51658993,-0.
 41590623\C,0,-0.37521676,-0.25299098,-0.58995937\O,0,0.83529385,0.3952
 6419,-1.10198589\C,0,1.57876229,0.21314939,0.06247034\N,0,1.09041377,0
 .52317204,1.31167796\C,0,0.30659451,-0.50689058,0.88601825\H,0,-1.4892
 5104,1.49089447,0.06246303\H,0,-2.52673231,0.0782677,-0.58738279\H,0,-
 0.48162681,-1.2165052,-1.09417213\H,0,2.64857883,0.06109972,-0.1101861

 Normal termination of Gaussian 16 at Wed Apr  9 03:09:50 2025.
