 Gaussian 16, Revision C.01,

 ----------------------------------------------------------------------
 #t hf aug-cc-pvdz symm=none int=(grid=ultrafine) guess=(read,tcheck) s
 table=(opt,rrhf)
 ----------------------------------------------------------------------
 -----
 title
 -----
 Symbolic Z-matrix:
 Charge =  0 Multiplicity = 1

 SCF Done:  E(RHF) =  -322.661802434     A.U. after   15 cycles
 Normal termination of Gaussian 16 at Wed Apr  9 15:35:06 2025.
 Gaussian 16:  ES64L-G16RevC.01  3-Jul-2019

 ----------------------------------------------------------------------
 #t hf aug-cc-pvdz iop(5/13=1,5/36=2,99/5=2) pseudo=read geom=check gue
 ss=(read,tcheck) scf=(maxcycle=1)
 ----------------------------------------------------------------------
 -----
 title
 -----
 Structure from the checkpoint file:  "Grambow2020_wb97xd3_007009_forward_mol1.chk"
 Charge =  0 Multiplicity = 1

                         Standard orientation:
 ---------------------------------------------------------------------
 Center     Atomic      Atomic             Coordinates (Angstroms)
 Number     Number       Type             X           Y           Z
 ---------------------------------------------------------------------
      1          6           0        1.969903   -0.601985   -0.375591
      2          6           0        0.832936   -0.010243    0.456543
      3          6           0        0.507939    1.450282    0.200421
      4          6           0       -0.771569    1.557128   -0.175555
      5          7           0       -1.387248    0.291505   -0.207363
      6          6           0       -0.503421   -0.610069    0.136278
      7          8           0       -1.025487   -1.768530    0.079683
      8          1           0        2.914513   -0.119255   -0.124491
      9          1           0        1.784083   -0.455501   -1.440350
     10          1           0        2.065119   -1.671788   -0.186029
     11          1           0        1.035280   -0.181434    1.519905
     12          1           0        1.212311    2.260211    0.313876
     13          1           0       -1.329286    2.444911   -0.431142
     14          1           0       -1.982113   -0.880128   -0.290275
 ---------------------------------------------------------------------

 SCF Done:  E(RHF) =  -322.759751543     A.U. after    2 cycles

 The electronic state is 1-A.
 Alpha  occ. eigenvalues --  -20.57136 -15.62937 -11.36391 -11.29435 -11.27469
 Alpha  occ. eigenvalues --  -11.24832 -11.24157  -1.38863  -1.22987  -1.07740
 Alpha  occ. eigenvalues --   -0.99523  -0.91126  -0.81853  -0.74767  -0.71684
 Alpha  occ. eigenvalues --   -0.64916  -0.63965  -0.60655  -0.59691  -0.57042
 Alpha  occ. eigenvalues --   -0.54011  -0.51226  -0.49123  -0.47202  -0.46797
 Alpha  occ. eigenvalues --   -0.32551
 Alpha virt. eigenvalues --    0.03066   0.03869   0.04624   0.04808   0.06327
 Alpha virt. eigenvalues --    0.06865   0.07387   0.09717   0.11048   0.11432
 Alpha virt. eigenvalues --    0.12452   0.13227   0.13830   0.14934   0.15163

 Mulliken charges:
               1
     1  C    0.632088
     2  C   -1.071500
     3  C    0.917060
     4  C    0.370875
     5  N   -0.748210
     6  C    0.690575
     7  O   -0.706932
     8  H   -0.046798
     9  H   -0.015602
    10  H   -0.028302
    11  H    0.074958
    12  H   -0.331940
    13  H   -0.233984
    14  H    0.497715
 Sum of Mulliken charges =  -0.00000

 Dipole moment (field-independent basis, Debye):
    X=              1.6958    Y=              2.4373    Z=              0.1119  Tot=              2.9713

 Test job not archived.
 1\1\GINC-SE226\SP\RHF\Aug-CC-pVDZ\C5H7N1O1\OHZDE\09-Apr-2025\0\\#t hf
 aug-cc-pvdz iop(5/13=1,5/36=2,99/5=2) pseudo=read geom=check guess=(re
 ad,tcheck) scf=(maxcycle=1)\\title\\0,1\C,0,-1.75921953,0.09775169,0.2
 5837775\C,0,-0.42519066,0.25967744,-0.46925332\C,0,0.56786431,1.218617
 19,0.16211828\C,0,1.70061622,0.56171956,0.43647894\N,0,1.59770014,-0.7
 8833822,0.05095509\C,0,0.40732082,-0.98728611,-0.45450633\O,0,0.275429
 77,-2.21044168,-0.77743625\H,0,-2.31665281,1.03441413,0.24109945\H,0,-
 1.59789233,-0.18437487,1.29956769\H,0,-2.36313307,-0.67496144,-0.21878

 Normal termination of Gaussian 16 at Wed Apr  9 15:35:12 2025.
