 Gaussian 16, Revision C.01,

 ----------------------------------------------------------------------
 #t hf aug-cc-pvdz symm=none int=(grid=ultrafine) guess=(read,tcheck) s
 table=(opt,rrhf)
 ----------------------------------------------------------------------
 -----
 title
 -----
 Symbolic Z-matrix:
 Charge =  0 Multiplicity = 1

 SCF Done:  E(RHF) =  -307.904134137     A.U. after   14 cycles

 1\1\GINC-SE114\Stability\RHF\Aug-CC-pVDZ\C6H10O1\OHZDE\09-Apr-2025\0\\
 #t hf aug-cc-pvdz symm=none int=(grid=ultrafine) guess=(read,tcheck) s
 table=(opt,rrhf)\\title\\0,1\C,0,-2.2001064,-0.61674197,0.2256051\C,0,
 -1.12587151,-1.2290129,-0.61526054\O,0,-0.26009829,2.13880318,0.043013
 44\C,0,0.89067263,1.98503175,-0.26109808\C,0,1.72212514,0.78049564,0.0
 8815523\C,0,0.92581779,-0.40214788,0.63320092\C,0,0.1882527,-1.1377388
 7,-0.44789237\H,0,-2.85309761,0.00337101,-0.39294527\H,0,-1.8063342,0.
 01706741,1.01716369\H,0,-2.82585417,-1.39319121,0.6742759\H,0,-1.47564

 Normal termination of Gaussian 16 at Wed Apr  9 15:27:08 2025.
 Gaussian 16:  ES64L-G16RevC.01  3-Jul-2019

 ----------------------------------------------------------------------
 #t hf aug-cc-pvdz iop(5/13=1,5/36=2,99/5=2) pseudo=read geom=check gue
 ss=(read,tcheck) scf=(maxcycle=1)
 ----------------------------------------------------------------------
 -----
 title
 -----
 Structure from the checkpoint file:  "Grambow2020_wb97xd3_006912_reverse_mol2.chk"
 Charge =  0 Multiplicity = 1

                         Standard orientation:
 ---------------------------------------------------------------------
 Center     Atomic      Atomic             Coordinates (Angstroms)
 Number     Number       Type             X           Y           Z
 ---------------------------------------------------------------------
      1          6           0       -2.158979    0.922763    0.332986
      2          6           0       -1.841160   -0.275290   -0.503417
      3          8           0        1.135896    1.571718   -0.002648
      4          6           0        1.848461    0.660792   -0.323378
      5          6           0        1.633722   -0.778745    0.058484
      6          6           0        0.266018   -1.074924    0.667983
      7          6           0       -0.821143   -1.114406   -0.366609
      8          1           0       -2.229973    1.812258   -0.297331
      9          1           0       -1.403017    1.121540    1.089521
     10          1           0       -3.127409    0.800867    0.825961
     11          1           0       -2.533371   -0.469314   -1.319305
     12          1           0        2.761666    0.853622   -0.925472
     13          1           0        2.443601   -1.026734    0.756614
     14          1           0        1.821429   -1.393374   -0.829087
     15          1           0        0.049138   -0.334524    1.437833
     16          1           0        0.313425   -2.047141    1.166891
     17          1           0       -0.744168   -1.932090   -1.080734
 ---------------------------------------------------------------------

 SCF Done:  E(RHF) =  -308.001631805     A.U. after    2 cycles

 The electronic state is 1-A.
 Alpha  occ. eigenvalues --  -20.57214 -11.34354 -11.25361 -11.23940 -11.23323
 Alpha  occ. eigenvalues --  -11.22874 -11.21873  -1.36424  -1.08936  -1.03389
 Alpha  occ. eigenvalues --   -0.94623  -0.88631  -0.78074  -0.72455  -0.69594
 Alpha  occ. eigenvalues --   -0.66346  -0.62830  -0.62113  -0.56705  -0.55838
 Alpha  occ. eigenvalues --   -0.55150  -0.52215  -0.51613  -0.50498  -0.46627
 Alpha  occ. eigenvalues --   -0.43422  -0.34727
 Alpha virt. eigenvalues --    0.03115   0.04180   0.04384   0.04779   0.06097
 Alpha virt. eigenvalues --    0.06593   0.06838   0.07073   0.07732   0.09640
 Alpha virt. eigenvalues --    0.10810   0.12027   0.12553   0.13786   0.14298

 Mulliken charges:
               1
     1  C    0.274218
     2  C   -0.043930
     3  O   -0.413747
     4  C    0.494767
     5  C   -0.099338
     6  C    0.368311
     7  C    0.619852
     8  H    0.092940
     9  H   -0.141007
    10  H    0.056863
    11  H   -0.418735
    12  H   -0.172267
    13  H   -0.007609
    14  H   -0.051905
    15  H   -0.106644
    16  H    0.022001
    17  H   -0.473769
 Sum of Mulliken charges =   0.00000

 Dipole moment (field-independent basis, Debye):
    X=              1.5333    Y=             -2.3263    Z=             -0.3634  Tot=              2.8098

 Test job not archived.
 1\1\GINC-SE114\SP\RHF\Aug-CC-pVDZ\C6H10O1\OHZDE\09-Apr-2025\0\\#t hf a
 ug-cc-pvdz iop(5/13=1,5/36=2,99/5=2) pseudo=read geom=check guess=(rea
 d,tcheck) scf=(maxcycle=1)\\title\\0,1\C,0,-2.2001064,-0.61674197,0.22
 56051\C,0,-1.12587151,-1.2290129,-0.61526054\O,0,-0.26009829,2.1388031
 8,0.04301344\C,0,0.89067263,1.98503175,-0.26109808\C,0,1.72212514,0.78
 049564,0.08815523\C,0,0.92581779,-0.40214788,0.63320092\C,0,0.1882527,
 -1.13773887,-0.44789237\H,0,-2.85309761,0.00337101,-0.39294527\H,0,-1.
 8063342,0.01706741,1.01716369\H,0,-2.82585417,-1.39319121,0.6742759\H,

 Normal termination of Gaussian 16 at Wed Apr  9 15:27:14 2025.
