 Gaussian 16, Revision C.01,

 ----------------------------------------------------------------------
 #t hf aug-cc-pvdz symm=none int=(grid=ultrafine) guess=(read,tcheck) s
 table=(opt,rrhf)
 ----------------------------------------------------------------------
 -----
 title
 -----
 Symbolic Z-matrix:
 Charge =  0 Multiplicity = 1

 SCF Done:  E(RHF) =  -317.629895954     A.U. after   15 cycles
 Normal termination of Gaussian 16 at Wed Apr  9 03:46:50 2025.
 Gaussian 16:  ES64L-G16RevC.01  3-Jul-2019

 ----------------------------------------------------------------------
 #t hf aug-cc-pvdz iop(5/13=1,5/36=2,99/5=2) pseudo=read geom=check gue
 ss=(read,tcheck) scf=(maxcycle=1)
 ----------------------------------------------------------------------
 -----
 title
 -----
 Structure from the checkpoint file:  "Grambow2020_wb97xd3_007978_forward_mol1.chk"
 Charge =  0 Multiplicity = 1

                         Standard orientation:
 ---------------------------------------------------------------------
 Center     Atomic      Atomic             Coordinates (Angstroms)
 Number     Number       Type             X           Y           Z
 ---------------------------------------------------------------------
      1          7           0       -1.822528   -0.009055    0.413884
      2          6           0       -0.585313   -0.004421   -0.132593
      3          7           0       -0.117632    1.218914   -0.739669
      4          6           0        0.933630    1.245432   -0.002620
      5          6           0        1.002397    0.006597    0.792113
      6          6           0        0.950490   -1.234246   -0.002055
      7          7           0       -0.102680   -1.223699   -0.736618
      8          1           0       -2.111820   -0.862464    0.860626
      9          1           0       -2.120431    0.846236    0.851570
     10          1           0        1.634031    2.078897    0.002341
     11          1           0        1.426107    0.009686    1.791505
     12          1           0        1.664769   -2.055641    0.001714
 ---------------------------------------------------------------------

 SCF Done:  E(RHF) =  -317.719793793     A.U. after    2 cycles

 The electronic state is 1-A.
 Alpha  occ. eigenvalues --  -15.65504 -15.62762 -15.62742 -11.39403 -11.31365
 Alpha  occ. eigenvalues --  -11.31361 -11.23019  -1.32613  -1.19657  -1.18825
 Alpha  occ. eigenvalues --   -0.97711  -0.87591  -0.83071  -0.74827  -0.72241
 Alpha  occ. eigenvalues --   -0.67022  -0.64735  -0.63767  -0.57464  -0.53752
 Alpha  occ. eigenvalues --   -0.46300  -0.45341  -0.44620  -0.40837  -0.31121
 Alpha virt. eigenvalues --    0.02559   0.03410   0.03849   0.05209   0.06439
 Alpha virt. eigenvalues --    0.07912   0.10105   0.10223   0.11281   0.11929
 Alpha virt. eigenvalues --    0.12413   0.13356   0.14395   0.14557   0.15651

 Mulliken charges:
               1
     1  N   -0.265576
     2  C    0.655879
     3  N   -0.582902
     4  C    0.456370
     5  C    0.689494
     6  C    0.456352
     7  N   -0.582647
     8  H    0.008211
     9  H    0.009047
    10  H   -0.211234
    11  H   -0.422135
    12  H   -0.210859
 Sum of Mulliken charges =  -0.00000

 Dipole moment (field-independent basis, Debye):
    X=              0.7368    Y=              0.0146    Z=              4.0850  Tot=              4.1509

 Test job not archived.
 1\1\GINC-SE120\SP\RHF\Aug-CC-pVDZ\C4H5N3\OHZDE\09-Apr-2025\0\\#t hf au
 g-cc-pvdz iop(5/13=1,5/36=2,99/5=2) pseudo=read geom=check guess=(read
 ,tcheck) scf=(maxcycle=1)\\title\\0,1\N,0,1.88299261,-0.18589215,-0.00
 620557\C,0,0.59824749,-0.14038139,-0.42658614\N,0,-0.05593473,-1.38806
 394,-0.74146416\C,0,-1.0152123,-1.15371608,0.07948826\C,0,-0.86872304,
 0.20773553,0.62357355\C,0,-0.780829,1.26866727,-0.39612654\N,0,0.17686
 113,0.99836348,-1.20768376\H,0,2.30541853,0.69316707,0.23952902\H,0,2.
 13996527,-0.97726042,0.55907207\H,0,-1.79138571,-1.88191992,0.30867467

 Normal termination of Gaussian 16 at Wed Apr  9 03:46:55 2025.
