 Gaussian 16, Revision C.01,

 ----------------------------------------------------------------------
 #t hf aug-cc-pvdz symm=none int=(grid=ultrafine) guess=(read,tcheck) s
 table=(opt,rrhf)
 ----------------------------------------------------------------------
 -----
 title
 -----
 Symbolic Z-matrix:
 Charge =  0 Multiplicity = 1

 SCF Done:  E(RHF) =  -305.607182906     A.U. after   16 cycles
 Normal termination of Gaussian 16 at Wed Apr  9 14:17:21 2025.
 Gaussian 16:  ES64L-G16RevC.01  3-Jul-2019

 ----------------------------------------------------------------------
 #t hf aug-cc-pvdz iop(5/13=1,5/36=2,99/5=2) pseudo=read geom=check gue
 ss=(read,tcheck) scf=(maxcycle=1)
 ----------------------------------------------------------------------
 -----
 title
 -----
 Structure from the checkpoint file:  "Grambow2020_b97d3_006968_reverse_mol1.chk"
 Charge =  0 Multiplicity = 1

                         Standard orientation:
 ---------------------------------------------------------------------
 Center     Atomic      Atomic             Coordinates (Angstroms)
 Number     Number       Type             X           Y           Z
 ---------------------------------------------------------------------
      1          8           0       -2.278732   -0.092126    0.106510
      2          6           0       -0.430058    1.028029    0.097642
      3          6           0        1.150269    1.141732    0.116689
      4          6           0        1.494958   -0.280703   -0.220898
      5          6           0        0.651977   -1.251291    0.479282
      6          8           0       -0.138918   -0.612824   -0.554972
      7          1           0       -2.419022   -0.286772   -0.843205
      8          1           0       -0.902932    1.609089   -0.684393
      9          1           0       -0.883893    1.136266    1.073311
     10          1           0        1.516782    1.840374   -0.646741
     11          1           0        1.541564    1.463806    1.093871
     12          1           0        2.188274   -0.590106   -0.999412
     13          1           0        0.292347   -1.047335    1.491321
     14          1           0        0.805200   -2.312325    0.266658
 ---------------------------------------------------------------------

 SCF Done:  E(RHF) =  -305.698288911     A.U. after    2 cycles

 The electronic state is 1-A.
 Alpha  occ. eigenvalues --  -20.65647 -20.39482 -11.36771 -11.36186 -11.34646
 Alpha  occ. eigenvalues --  -11.29272  -1.39054  -1.08277  -1.08121  -1.00672
 Alpha  occ. eigenvalues --   -0.89825  -0.82990  -0.75337  -0.68988  -0.67061
 Alpha  occ. eigenvalues --   -0.62324  -0.59912  -0.57124  -0.54929  -0.53265
 Alpha  occ. eigenvalues --   -0.48869  -0.45494  -0.32965  -0.31063
 Alpha virt. eigenvalues --    0.01649   0.03281   0.03363   0.04555   0.06013
 Alpha virt. eigenvalues --    0.06368   0.07020   0.07647   0.08964   0.10580
 Alpha virt. eigenvalues --    0.11848   0.12661   0.13024   0.13496   0.13548

 Mulliken charges:
               1
     1  O   -0.838399
     2  C    0.984464
     3  C    0.128972
     4  C    0.496004
     5  C    0.962356
     6  O   -0.696962
     7  H    0.024444
     8  H   -0.142075
     9  H   -0.155820
    10  H   -0.054246
    11  H    0.016654
    12  H   -0.310626
    13  H   -0.197926
    14  H   -0.216839
 Sum of Mulliken charges =  -0.00000

 Dipole moment (field-independent basis, Debye):
    X=              9.7531    Y=              1.2125    Z=             -0.2197  Tot=              9.8307

 Test job not archived.
 1\1\GINC-SE231\SP\RHF\Aug-CC-pVDZ\C4H8O2\OHZDE\09-Apr-2025\0\\#t hf au
 g-cc-pvdz iop(5/13=1,5/36=2,99/5=2) pseudo=read geom=check guess=(read
 ,tcheck) scf=(maxcycle=1)\\title\\0,1\O,0,1.44982543,1.96471055,0.3589
 2232\C,0,1.0475245,-0.15370274,0.20759712\C,0,0.08692469,-1.39485259,-
 0.0103929\C,0,-1.09970715,-0.67825939,-0.58874951\C,0,-1.39399712,0.58
 033138,0.09845591\O,0,-0.19659817,0.75822679,-0.69993228\H,0,1.5985263
 3,2.22447189,-0.57378285\H,0,1.94182925,-0.17780047,-0.4026968\H,0,1.2
 2145559,0.08179621,1.248702\H,0,0.51066222,-2.11706607,-0.72039998\H,0

 Normal termination of Gaussian 16 at Wed Apr  9 14:17:25 2025.
