 Gaussian 16, Revision C.01,

 ----------------------------------------------------------------------
 #t hf aug-cc-pvdz symm=none int=(grid=ultrafine) guess=(read,tcheck) s
 table=(opt,rrhf)
 ----------------------------------------------------------------------
 -----
 title
 -----
 Symbolic Z-matrix:
 Charge =  0 Multiplicity = 1

 SCF Done:  E(RHF) =  -269.803919001     A.U. after   16 cycles

 1\1\GINC-SE131\Stability\RHF\Aug-CC-pVDZ\C5H10O1\OHZDE\09-Apr-2025\0\\
 #t hf aug-cc-pvdz symm=none int=(grid=ultrafine) guess=(read,tcheck) s
 table=(opt,rrhf)\\title\\0,1\C,0,-1.27539291,-1.41370692,0.00046227\C,
 0,-0.47318346,-0.23124663,0.45124465\C,0,-0.63927399,1.69053958,-0.476
 22448\C,0,0.90398712,-0.55391183,1.03697314\C,0,1.56628358,0.25315309,
 -0.0831131\O,0,0.37181856,0.28432018,-0.94343961\H,0,-2.10050096,-1.13
 022006,-0.67197252\H,0,-1.72699379,-1.89250446,0.88586245\H,0,-0.66148
 067,-2.18144654,-0.51982284\H,0,-1.63901154,1.43476676,-0.82416589\H,0

 Normal termination of Gaussian 16 at Wed Apr  9 14:02:14 2025.
 Gaussian 16:  ES64L-G16RevC.01  3-Jul-2019

 ----------------------------------------------------------------------
 #t hf aug-cc-pvdz iop(5/13=1,5/36=2,99/5=2) pseudo=read geom=check gue
 ss=(read,tcheck) scf=(maxcycle=1)
 ----------------------------------------------------------------------
 -----
 title
 -----
 Structure from the checkpoint file:  "Grambow2020_b97d3_006764_forward_mol1.chk"
 Charge =  0 Multiplicity = 1

                         Standard orientation:
 ---------------------------------------------------------------------
 Center     Atomic      Atomic             Coordinates (Angstroms)
 Number     Number       Type             X           Y           Z
 ---------------------------------------------------------------------
      1          6           0        1.860919   -0.564485   -0.227242
      2          6           0        0.582204   -0.179436    0.452158
      3          6           0       -1.166082   -1.412787    0.393945
      4          6           0        0.314085    1.324786    0.548170
      5          6           0       -0.952870    1.149781   -0.293723
      6          8           0       -0.595255   -0.190180   -0.788188
      7          1           0        1.869934   -1.621078   -0.538475
      8          1           0        2.693663   -0.427392    0.483298
      9          1           0        2.079396    0.055857   -1.124155
     10          1           0       -0.542523   -2.285544    0.205724
     11          1           0       -2.126205   -1.471532   -0.143637
     12          1           0       -1.310655   -1.229386    1.456230
     13          1           0        1.072464    1.937841    0.023892
     14          1           0        0.173469    1.728247    1.560309
     15          1           0       -1.094891    1.821802   -1.148920
     16          1           0       -1.882146    1.105474    0.291396
 ---------------------------------------------------------------------

 SCF Done:  E(RHF) =  -269.885865825     A.U. after    2 cycles

 The electronic state is 1-A.
 Alpha  occ. eigenvalues --  -20.58706 -11.33900 -11.29402 -11.22889 -11.22319
 Alpha  occ. eigenvalues --  -11.21008  -1.31153  -1.01716  -0.97355  -0.93650
 Alpha  occ. eigenvalues --   -0.84339  -0.72337  -0.66251  -0.64001  -0.61502
 Alpha  occ. eigenvalues --   -0.59648  -0.57206  -0.54249  -0.52984  -0.52003
 Alpha  occ. eigenvalues --   -0.49050  -0.46160  -0.43612  -0.27240
 Alpha virt. eigenvalues --    0.03269   0.04607   0.04745   0.04933   0.06220
 Alpha virt. eigenvalues --    0.06622   0.06875   0.07437   0.07920   0.09752
 Alpha virt. eigenvalues --    0.10561   0.12344   0.13369   0.13869   0.14714

 Mulliken charges:
               1
     1  C    0.388681
     2  C   -0.563207
     3  C    0.723253
     4  C    0.355498
     5  C    0.850673
     6  O   -0.831299
     7  H   -0.077231
     8  H    0.047282
     9  H   -0.030714
    10  H   -0.066648
    11  H   -0.134902
    12  H    0.054966
    13  H   -0.131416
    14  H   -0.166238
    15  H   -0.234325
    16  H   -0.184373
 Sum of Mulliken charges =  -0.00000

 Dipole moment (field-independent basis, Debye):
    X=             -1.7543    Y=             -0.0539    Z=              0.9340  Tot=              1.9881

 Test job not archived.
 1\1\GINC-SE131\SP\RHF\Aug-CC-pVDZ\C5H10O1\OHZDE\09-Apr-2025\0\\#t hf a
 ug-cc-pvdz iop(5/13=1,5/36=2,99/5=2) pseudo=read geom=check guess=(rea
 d,tcheck) scf=(maxcycle=1)\\title\\0,1\C,0,-1.27539291,-1.41370692,0.0
 0046227\C,0,-0.47318346,-0.23124663,0.45124465\C,0,-0.63927399,1.69053
 958,-0.47622448\C,0,0.90398712,-0.55391183,1.03697314\C,0,1.56628358,0
 .25315309,-0.0831131\O,0,0.37181856,0.28432018,-0.94343961\H,0,-2.1005
 0096,-1.13022006,-0.67197252\H,0,-1.72699379,-1.89250446,0.88586245\H,
 0,-0.66148067,-2.18144654,-0.51982284\H,0,-1.63901154,1.43476676,-0.82

 Normal termination of Gaussian 16 at Wed Apr  9 14:02:19 2025.
