 Gaussian 16, Revision C.01,

 ----------------------------------------------------------------------
 #t hf aug-cc-pvdz symm=none int=(grid=ultrafine) guess=(read,tcheck) s
 table=(opt,rrhf)
 ----------------------------------------------------------------------
 -----
 title
 -----
 Symbolic Z-matrix:
 Charge =  0 Multiplicity = 1

 SCF Done:  E(RHF) =  -322.676514674     A.U. after   14 cycles
 Normal termination of Gaussian 16 at Wed Apr  9 15:30:54 2025.
 Gaussian 16:  ES64L-G16RevC.01  3-Jul-2019

 ----------------------------------------------------------------------
 #t hf aug-cc-pvdz iop(5/13=1,5/36=2,99/5=2) pseudo=read geom=check gue
 ss=(read,tcheck) scf=(maxcycle=1)
 ----------------------------------------------------------------------
 -----
 title
 -----
 Structure from the checkpoint file:  "Grambow2020_wb97xd3_006944_reverse_mol2.chk"
 Charge =  0 Multiplicity = 1

                         Standard orientation:
 ---------------------------------------------------------------------
 Center     Atomic      Atomic             Coordinates (Angstroms)
 Number     Number       Type             X           Y           Z
 ---------------------------------------------------------------------
      1          8           0       -0.331963    1.141749    0.146852
      2          6           0        0.353750   -0.056165    0.528632
      3          7           0       -0.368933   -1.176915   -0.027470
      4          6           0       -1.750483   -0.707806   -0.024236
      5          6           0       -1.627043    0.790495   -0.318053
      6          6           0        1.747277   -0.010515    0.082352
      7          6           0        2.886814    0.022534   -0.278268
      8          1           0        0.329737   -0.123305    1.623478
      9          1           0       -0.054339   -1.330091   -0.978053
     10          1           0       -2.182032   -0.874924    0.965820
     11          1           0       -2.349327   -1.249359   -0.754554
     12          1           0       -1.695868    0.999468   -1.390987
     13          1           0       -2.373605    1.390982    0.206174
     14          1           0        3.901781    0.060382   -0.596958
 ---------------------------------------------------------------------

 SCF Done:  E(RHF) =  -322.777149820     A.U. after    2 cycles

 The electronic state is 1-A.
 Alpha  occ. eigenvalues --  -20.57596 -15.62915 -11.34767 -11.29077 -11.27399
 Alpha  occ. eigenvalues --  -11.25013 -11.24520  -1.36284  -1.18426  -1.06180
 Alpha  occ. eigenvalues --   -0.99969  -0.87888  -0.84825  -0.75956  -0.71076
 Alpha  occ. eigenvalues --   -0.69794  -0.64548  -0.63158  -0.59678  -0.56958
 Alpha  occ. eigenvalues --   -0.52653  -0.50851  -0.44914  -0.40916  -0.40643
 Alpha  occ. eigenvalues --   -0.40207
 Alpha virt. eigenvalues --    0.03341   0.03765   0.04329   0.05123   0.05861
 Alpha virt. eigenvalues --    0.07104   0.07558   0.10495   0.11075   0.11184
 Alpha virt. eigenvalues --    0.11624   0.11847   0.13896   0.14339   0.14661

 Mulliken charges:
               1
     1  O   -0.737492
     2  C    0.707346
     3  N   -0.661907
     4  C    0.586661
     5  C    0.769251
     6  C   -0.304878
     7  C    1.060829
     8  H   -0.228538
     9  H    0.051844
    10  H   -0.197175
    11  H   -0.146460
    12  H   -0.197287
    13  H   -0.187844
    14  H   -0.514351
 Sum of Mulliken charges =  -0.00000

 Dipole moment (field-independent basis, Debye):
    X=             -1.3022    Y=             -0.7612    Z=             -0.9384  Tot=              1.7764

 Test job not archived.
 1\1\GINC-SE454\SP\RHF\Aug-CC-pVDZ\C5H7N1O1\OHZDE\09-Apr-2025\0\\#t hf
 aug-cc-pvdz iop(5/13=1,5/36=2,99/5=2) pseudo=read geom=check guess=(re
 ad,tcheck) scf=(maxcycle=1)\\title\\0,1\O,0,0.14874805,-0.42115462,-0.
 89393231\C,0,-0.26547993,0.70030135,-0.10544884\N,0,-0.44431522,0.2444
 6399,1.25390004\C,0,-0.87750156,-1.13784628,1.07976725\C,0,-0.10604205
 ,-1.60819367,-0.15720318\C,0,0.71177038,1.78540157,-0.20892979\C,0,1.5
 058791,2.67548763,-0.29152263\H,0,-1.23021095,1.04799329,-0.49554856\H
 ,0,0.44981794,0.2730361,1.72903032\H,0,-1.9544995,-1.15395941,0.894861

 Normal termination of Gaussian 16 at Wed Apr  9 15:30:58 2025.
