 Gaussian 16, Revision C.01,

 ----------------------------------------------------------------------
 #t hf aug-cc-pvdz symm=none int=(grid=ultrafine) guess=(read,tcheck) s
 table=(opt,rrhf)
 ----------------------------------------------------------------------
 -----
 title
 -----
 Symbolic Z-matrix:
 Charge =  0 Multiplicity = 1

 SCF Done:  E(RHF) =  -306.909867219     A.U. after   15 cycles

 1\1\GINC-SE037\Stability\RHF\Aug-CC-pVDZ\C4H10O2\OHZDE\09-Apr-2025\0\\
 #t hf aug-cc-pvdz symm=none int=(grid=ultrafine) guess=(read,tcheck) s
 table=(opt,rrhf)\\title\\0,1\C,0,-1.50443312,-0.93251982,0.48847615\C,
 0,-0.70243623,0.02894264,-0.38161837\C,0,0.29817375,-0.52390849,-1.215
 6081\O,0,2.21056375,0.06083958,-0.68944677\C,0,0.14185861,1.22465035,0
 .88636271\O,0,1.03127745,1.95956362,0.31672226\H,0,-2.25997654,-1.4733
 3394,-0.10172287\H,0,-0.84904503,-1.68485793,0.95188308\H,0,-2.0332434
 5,-0.40483478,1.29534316\H,0,-1.29790127,0.79712907,-0.88301633\H,0,0.

 Normal termination of Gaussian 16 at Wed Apr  9 14:18:25 2025.
 Gaussian 16:  ES64L-G16RevC.01  3-Jul-2019

 ----------------------------------------------------------------------
 #t hf aug-cc-pvdz iop(5/13=1,5/36=2,99/5=2) pseudo=read geom=check gue
 ss=(read,tcheck) scf=(maxcycle=1)
 ----------------------------------------------------------------------
 -----
 title
 -----
 Structure from the checkpoint file:  "Grambow2020_b97d3_007103_reverse_mol1.chk"
 Charge =  0 Multiplicity = 1

                         Standard orientation:
 ---------------------------------------------------------------------
 Center     Atomic      Atomic             Coordinates (Angstroms)
 Number     Number       Type             X           Y           Z
 ---------------------------------------------------------------------
      1          6           0       -2.187534    0.023058    0.363868
      2          6           0       -0.928539   -0.072413   -0.490820
      3          6           0       -0.208840   -1.290414   -0.460645
      4          8           0        1.673516   -1.102839    0.374555
      5          6           0        0.213614    1.336619    0.187740
      6          8           0        1.406069    1.242336   -0.286407
      7          1           0       -3.029072   -0.514570   -0.099199
      8          1           0       -2.023176   -0.417785    1.358321
      9          1           0       -2.502790    1.066743    0.506912
     10          1           0       -1.028359    0.338163   -1.499558
     11          1           0        0.307383   -1.650325   -1.346257
     12          1           0       -0.474378   -2.066115    0.259144
     13          1           0        1.437235   -1.067543    1.321498
     14          1           0       -0.411397    2.184356   -0.150109
     15          1           0        0.020034    1.080851    1.253644
     16          1           0        1.735632   -0.050846    0.089556
 ---------------------------------------------------------------------

 SCF Done:  E(RHF) =  -307.006234930     A.U. after    2 cycles

 The electronic state is 1-A.
 Alpha  occ. eigenvalues --  -20.57020 -20.50888 -11.34158 -11.33237 -11.24933
 Alpha  occ. eigenvalues --  -11.24197  -1.30553  -1.26653  -1.08129  -0.95043
 Alpha  occ. eigenvalues --   -0.86625  -0.79440  -0.71905  -0.68958  -0.63502
 Alpha  occ. eigenvalues --   -0.61644  -0.59506  -0.58801  -0.58053  -0.54058
 Alpha  occ. eigenvalues --   -0.53634  -0.51187  -0.49180  -0.41155  -0.33949
 Alpha virt. eigenvalues --    0.02723   0.03357   0.04106   0.04620   0.06159
 Alpha virt. eigenvalues --    0.06363   0.07050   0.07307   0.07653   0.08515
 Alpha virt. eigenvalues --    0.09811   0.12521   0.13832   0.14465   0.14747

 Mulliken charges:
               1
     1  C    0.531438
     2  C   -0.347078
     3  C    0.697395
     4  O   -0.620445
     5  C    0.830766
     6  O   -0.790006
     7  H   -0.069100
     8  H   -0.060561
     9  H   -0.081417
    10  H   -0.161180
    11  H   -0.198825
    12  H   -0.185095
    13  H    0.189150
    14  H   -0.185513
    15  H   -0.071026
    16  H    0.521496
 Sum of Mulliken charges =   0.00000

 Dipole moment (field-independent basis, Debye):
    X=             -4.4001    Y=             -2.1522    Z=              1.2624  Tot=              5.0584

 Test job not archived.
 1\1\GINC-SE037\SP\RHF\Aug-CC-pVDZ\C4H10O2\OHZDE\09-Apr-2025\0\\#t hf a
 ug-cc-pvdz iop(5/13=1,5/36=2,99/5=2) pseudo=read geom=check guess=(rea
 d,tcheck) scf=(maxcycle=1)\\title\\0,1\C,0,-1.50443312,-0.93251982,0.4
 8847615\C,0,-0.70243623,0.02894264,-0.38161837\C,0,0.29817375,-0.52390
 849,-1.2156081\O,0,2.21056375,0.06083958,-0.68944677\C,0,0.14185861,1.
 22465035,0.88636271\O,0,1.03127745,1.95956362,0.31672226\H,0,-2.259976
 54,-1.47333394,-0.10172287\H,0,-0.84904503,-1.68485793,0.95188308\H,0,
 -2.03324345,-0.40483478,1.29534316\H,0,-1.29790127,0.79712907,-0.88301

 Normal termination of Gaussian 16 at Wed Apr  9 14:18:29 2025.
