 Gaussian 16, Revision C.01,

 ----------------------------------------------------------------------
 #t hf aug-cc-pvdz symm=none int=(grid=ultrafine) guess=(read,tcheck) s
 table=(opt,rrhf)
 ----------------------------------------------------------------------
 -----
 title
 -----
 Symbolic Z-matrix:
 Charge =  0 Multiplicity = 1

 SCF Done:  E(RHF) =  -270.028854121     A.U. after   13 cycles

 1\1\GINC-SE123\Stability\RHF\Aug-CC-pVDZ\C5H10O1\OHZDE\09-Apr-2025\0\\
 #t hf aug-cc-pvdz symm=none int=(grid=ultrafine) guess=(read,tcheck) s
 table=(opt,rrhf)\\title\\0,1\C,0,1.67454098,0.18853151,-0.97817905\C,0
 ,0.65289849,0.91644368,-0.09275306\C,0,-0.06318717,-0.00023733,0.90861
 452\O,0,-0.72401146,0.76143652,1.94163166\C,0,-1.06262577,-0.97375316,
 0.32156615\C,0,-1.55007298,-0.97722175,-0.92891228\H,0,2.44747109,-0.2
 9359762,-0.36159152\H,0,2.1776015,0.89205577,-1.65601807\H,0,1.2014202
 9,-0.59267493,-1.58691247\H,0,1.16014571,1.69333491,0.49711589\H,0,-0.

 Normal termination of Gaussian 16 at Wed Apr  9 03:07:30 2025.
 Gaussian 16:  ES64L-G16RevC.01  3-Jul-2019

 ----------------------------------------------------------------------
 #t hf aug-cc-pvdz iop(5/13=1,5/36=2,99/5=2) pseudo=read geom=check gue
 ss=(read,tcheck) scf=(maxcycle=1)
 ----------------------------------------------------------------------
 -----
 title
 -----
 Structure from the checkpoint file:  "Grambow2020_b97d3_006620_reverse_mol2.chk"
 Charge =  0 Multiplicity = 1

                         Standard orientation:
 ---------------------------------------------------------------------
 Center     Atomic      Atomic             Coordinates (Angstroms)
 Number     Number       Type             X           Y           Z
 ---------------------------------------------------------------------
      1          6           0       -2.112938    0.349652    0.235501
      2          6           0       -1.026626   -0.496757   -0.443548
      3          6           0        0.279046   -0.587730    0.358178
      4          8           0        1.117787   -1.660977   -0.119958
      5          6           0        1.110769    0.675483    0.419542
      6          6           0        0.951624    1.785553   -0.317840
      7          1           0       -2.361770   -0.061104    1.225153
      8          1           0       -3.033834    0.359918   -0.363939
      9          1           0       -1.788203    1.388093    0.379962
     10          1           0       -1.387907   -1.526597   -0.576626
     11          1           0       -0.812806   -0.108071   -1.452899
     12          1           0        0.030112   -0.894195    1.386395
     13          1           0        1.968365    0.607408    1.094880
     14          1           0        1.457876   -1.366896   -0.987296
     15          1           0        1.651655    2.618542   -0.242148
     16          1           0        0.122968    1.913512   -1.014822
 ---------------------------------------------------------------------

 SCF Done:  E(RHF) =  -270.113469514     A.U. after    2 cycles

 The electronic state is 1-A.
 Alpha  occ. eigenvalues --  -20.57249 -11.29726 -11.25132 -11.24642 -11.23596
 Alpha  occ. eigenvalues --  -11.23061  -1.31561  -1.07108  -1.01581  -0.91698
 Alpha  occ. eigenvalues --   -0.83768  -0.76156  -0.69251  -0.64147  -0.62278
 Alpha  occ. eigenvalues --   -0.61442  -0.58686  -0.54692  -0.53995  -0.50825
 Alpha  occ. eigenvalues --   -0.49765  -0.47585  -0.44788  -0.37719
 Alpha virt. eigenvalues --    0.03461   0.04248   0.04540   0.04831   0.06467
 Alpha virt. eigenvalues --    0.06571   0.06810   0.07613   0.08242   0.09107
 Alpha virt. eigenvalues --    0.11160   0.13071   0.14035   0.14701   0.15265

 Mulliken charges:
               1
     1  C    0.407741
     2  C    0.149686
     3  C    0.429019
     4  O   -0.646468
     5  C    0.377372
     6  C    0.573534
     7  H   -0.041649
     8  H   -0.049176
     9  H   -0.114352
    10  H   -0.012061
    11  H   -0.028080
    12  H   -0.181937
    13  H   -0.371789
    14  H    0.176751
    15  H   -0.305795
    16  H   -0.362796
 Sum of Mulliken charges =  -0.00000

 Dipole moment (field-independent basis, Debye):
    X=             -0.6031    Y=              1.5945    Z=             -0.7431  Tot=              1.8596

 Test job not archived.
 1\1\GINC-SE123\SP\RHF\Aug-CC-pVDZ\C5H10O1\OHZDE\09-Apr-2025\0\\#t hf a
 ug-cc-pvdz iop(5/13=1,5/36=2,99/5=2) pseudo=read geom=check guess=(rea
 d,tcheck) scf=(maxcycle=1)\\title\\0,1\C,0,1.67454098,0.18853151,-0.97
 817905\C,0,0.65289849,0.91644368,-0.09275306\C,0,-0.06318717,-0.000237
 33,0.90861452\O,0,-0.72401146,0.76143652,1.94163166\C,0,-1.06262577,-0
 .97375316,0.32156615\C,0,-1.55007298,-0.97722175,-0.92891228\H,0,2.447
 47109,-0.29359762,-0.36159152\H,0,2.1776015,0.89205577,-1.65601807\H,0
 ,1.20142029,-0.59267493,-1.58691247\H,0,1.16014571,1.69333491,0.497115

 Normal termination of Gaussian 16 at Wed Apr  9 03:07:35 2025.
