 Gaussian 16, Revision C.01,

 ----------------------------------------------------------------------
 #t hf aug-cc-pvdz symm=none int=(grid=ultrafine) guess=(read,tcheck) s
 table=(opt,rrhf)
 ----------------------------------------------------------------------
 -----
 title
 -----
 Symbolic Z-matrix:
 Charge =  0 Multiplicity = 1

 SCF Done:  E(RHF) =  -315.578051650     A.U. after   16 cycles
 Normal termination of Gaussian 16 at Wed Apr  9 03:08:40 2025.
 Gaussian 16:  ES64L-G16RevC.01  3-Jul-2019

 ----------------------------------------------------------------------
 #t hf aug-cc-pvdz iop(5/13=1,5/36=2,99/5=2) pseudo=read geom=check gue
 ss=(read,tcheck) scf=(maxcycle=1)
 ----------------------------------------------------------------------
 -----
 title
 -----
 Structure from the checkpoint file:  "Grambow2020_b97d3_006679_forward_mol1.chk"
 Charge =  0 Multiplicity = 1

                         Standard orientation:
 ---------------------------------------------------------------------
 Center     Atomic      Atomic             Coordinates (Angstroms)
 Number     Number       Type             X           Y           Z
 ---------------------------------------------------------------------
      1          8           0       -2.022001    0.126578    0.026421
      2          6           0       -0.676385    0.031602   -0.013871
      3          7           0       -0.013493   -1.134582   -0.083250
      4          7           0        1.469738   -0.660444   -0.067037
      5          7           0        1.469790    0.651096    0.030864
      6          6           0        0.216858    1.119368   -0.009696
      7          1           0       -2.385120   -0.780276   -0.025038
      8          1           0        0.852820   -1.309062    0.806743
      9          1           0       -0.016780    2.178404   -0.015714
 ---------------------------------------------------------------------

 SCF Done:  E(RHF) =  -315.666270887     A.U. after    2 cycles

 The electronic state is 1-A.
 Alpha  occ. eigenvalues --  -20.65112 -15.73181 -15.70951 -15.70246 -11.38422
 Alpha  occ. eigenvalues --  -11.30022  -1.42226  -1.37093  -1.16644  -1.07470
 Alpha  occ. eigenvalues --   -0.87734  -0.84837  -0.75725  -0.69972  -0.67982
 Alpha  occ. eigenvalues --   -0.64375  -0.60815  -0.53673  -0.52251  -0.44521
 Alpha  occ. eigenvalues --   -0.43787  -0.38082
 Alpha virt. eigenvalues --    0.02717   0.04073   0.04886   0.08841   0.09709
 Alpha virt. eigenvalues --    0.10164   0.11332   0.11815   0.12144   0.14447
 Alpha virt. eigenvalues --    0.15196   0.15794   0.16843   0.18113   0.19276

 Mulliken charges:
               1
     1  O   -0.502323
     2  C    0.787348
     3  N   -0.623765
     4  N   -0.440857
     5  N   -0.290269
     6  C    0.630620
     7  H    0.152830
     8  H    0.470662
     9  H   -0.184245
 Sum of Mulliken charges =  -0.00000

 Dipole moment (field-independent basis, Debye):
    X=             -2.5648    Y=             -0.1296    Z=              1.0143  Tot=              2.7611

 Test job not archived.
 1\1\GINC-SE106\SP\RHF\Aug-CC-pVDZ\C2H3N3O1\OHZDE\09-Apr-2025\0\\#t hf
 aug-cc-pvdz iop(5/13=1,5/36=2,99/5=2) pseudo=read geom=check guess=(re
 ad,tcheck) scf=(maxcycle=1)\\title\\0,1\O,0,-1.8897548,-0.24368061,-0.
 14132765\C,0,-0.54772301,-0.10574331,-0.10597461\N,0,0.30241769,-1.131
 28323,0.06651527\N,0,1.68138548,-0.40778785,0.05969372\N,0,1.45704486,
 0.88026481,-0.08282973\C,0,0.1502934,1.10656691,-0.26157847\H,0,-2.092
 90304,-1.19543206,-0.04238801\H,0,1.11780661,-0.99488648,1.00968268\H,
 0,-0.25440821,2.09087081,-0.4702452\\Version=ES64L-G16RevC.01\State=1-

 Normal termination of Gaussian 16 at Wed Apr  9 03:08:44 2025.
