 Gaussian 16, Revision C.01,

 ----------------------------------------------------------------------
 #t hf aug-cc-pvdz symm=none int=(grid=ultrafine) guess=(read,tcheck) s
 table=(opt,rrhf)
 ----------------------------------------------------------------------
 -----
 title
 -----
 Symbolic Z-matrix:
 Charge =  0 Multiplicity = 1

 SCF Done:  E(RHF) =  -360.908006477     A.U. after   13 cycles
 Normal termination of Gaussian 16 at Wed Apr  9 03:28:22 2025.
 Gaussian 16:  ES64L-G16RevC.01  3-Jul-2019

 ----------------------------------------------------------------------
 #t hf aug-cc-pvdz iop(5/13=1,5/36=2,99/5=2) pseudo=read geom=check gue
 ss=(read,tcheck) scf=(maxcycle=1)
 ----------------------------------------------------------------------
 -----
 title
 -----
 Structure from the checkpoint file:  "Grambow2020_wb97xd3_006761_forward_mol2.chk"
 Charge =  0 Multiplicity = 1

                         Standard orientation:
 ---------------------------------------------------------------------
 Center     Atomic      Atomic             Coordinates (Angstroms)
 Number     Number       Type             X           Y           Z
 ---------------------------------------------------------------------
      1          6           0        2.582540    0.639434    0.045717
      2          7           0        1.199331    0.225827    0.134183
      3          6           0        0.913657   -0.954097   -0.197557
      4          8           0       -0.300061   -1.491114   -0.155233
      5          6           0       -1.373059   -0.761574    0.465162
      6          6           0       -1.865266    0.449520   -0.314846
      7          8           0       -1.225059    1.650778    0.018583
      8          1           0        2.664497    1.500072   -0.620586
      9          1           0        2.931865    0.954654    1.030426
     10          1           0        3.247535   -0.151484   -0.321883
     11          1           0        1.640319   -1.682757   -0.567016
     12          1           0       -2.164508   -1.506161    0.541413
     13          1           0       -1.065309   -0.458281    1.469801
     14          1           0       -1.789342    0.223915   -1.388731
     15          1           0       -2.926499    0.582985   -0.087771
     16          1           0       -0.280154    1.439261    0.107397
 ---------------------------------------------------------------------

 SCF Done:  E(RHF) =  -361.023910202     A.U. after    2 cycles

 The electronic state is 1-A.
 Alpha  occ. eigenvalues --  -20.61672 -20.54330 -15.62484 -11.36038 -11.29998
 Alpha  occ. eigenvalues --  -11.28120 -11.27071  -1.40127  -1.30445  -1.20590
 Alpha  occ. eigenvalues --   -1.02311  -0.95323  -0.88552  -0.78199  -0.73825
 Alpha  occ. eigenvalues --   -0.70418  -0.68657  -0.63399  -0.62936  -0.60109
 Alpha  occ. eigenvalues --   -0.58509  -0.57441  -0.56301  -0.51931  -0.49225
 Alpha  occ. eigenvalues --   -0.44202  -0.42886  -0.40119
 Alpha virt. eigenvalues --    0.03213   0.04095   0.04518   0.04897   0.06292
 Alpha virt. eigenvalues --    0.06498   0.07008   0.07954   0.09761   0.10122
 Alpha virt. eigenvalues --    0.12078   0.13002   0.13259   0.14185   0.14861

 Mulliken charges:
               1
     1  C    0.716350
     2  N   -0.391734
     3  C    0.494644
     4  O   -0.485841
     5  C    0.679103
     6  C    0.721838
     7  O   -0.528660
     8  H   -0.158057
     9  H   -0.136442
    10  H   -0.146386
    11  H   -0.377041
    12  H   -0.241352
    13  H   -0.090850
    14  H   -0.118257
    15  H   -0.153889
    16  H    0.216574
 Sum of Mulliken charges =  -0.00000

 Dipole moment (field-independent basis, Debye):
    X=              1.7426    Y=             -2.2168    Z=             -0.0610  Tot=              2.8204

 Test job not archived.
 1\1\GINC-SE402\SP\RHF\Aug-CC-pVDZ\C4H9N1O2\OHZDE\09-Apr-2025\0\\#t hf
 aug-cc-pvdz iop(5/13=1,5/36=2,99/5=2) pseudo=read geom=check guess=(re
 ad,tcheck) scf=(maxcycle=1)\\title\\0,1\C,0,2.20120926,-0.30366782,-1.
 30422353\N,0,0.9351854,-0.0065734,-0.67091327\C,0,0.94569091,0.7166151
 ,0.35902351\O,0,-0.12804216,1.09481737,1.04265262\C,0,-1.4358112,0.819
 85635,0.51107117\C,0,-1.85066564,-0.64447009,0.54380575\O,0,-1.5310419
 8,-1.36168863,-0.61701281\H,0,2.34655158,-1.38483622,-1.34063303\H,0,2
 .18710713,0.05855555,-2.33361121\H,0,3.05837889,0.14685766,-0.78926102

 Normal termination of Gaussian 16 at Wed Apr  9 03:28:27 2025.
