 Gaussian 16, Revision C.01,

 ----------------------------------------------------------------------
 #t hf aug-cc-pvdz symm=none int=(grid=ultrafine) guess=(read,tcheck) s
 table=(opt,rrhf)
 ----------------------------------------------------------------------
 -----
 title
 -----
 Symbolic Z-matrix:
 Charge =  0 Multiplicity = 1

 SCF Done:  E(RHF) =  -373.184926466     A.U. after   17 cycles
 Normal termination of Gaussian 16 at Wed Apr  9 03:27:00 2025.
 Gaussian 16:  ES64L-G16RevC.01  3-Jul-2019

 ----------------------------------------------------------------------
 #t hf aug-cc-pvdz iop(5/13=1,5/36=2,99/5=2) pseudo=read geom=check gue
 ss=(read,tcheck) scf=(maxcycle=1)
 ----------------------------------------------------------------------
 -----
 title
 -----
 Structure from the checkpoint file:  "Grambow2020_wb97xd3_006704_forward_mol1.chk"
 Charge =  0 Multiplicity = 1

                         Standard orientation:
 ---------------------------------------------------------------------
 Center     Atomic      Atomic             Coordinates (Angstroms)
 Number     Number       Type             X           Y           Z
 ---------------------------------------------------------------------
      1          8           0        2.412952    0.111836   -0.317201
      2          6           0        1.277175    0.019051   -0.167919
      3          6           0        0.123164    0.110115    0.855478
      4          7           0       -0.679319    1.157052    0.425887
      5          6           0       -1.453152    0.571231   -0.437373
      6          7           0       -1.165189   -0.760333   -0.626310
      7          8           0       -0.503437   -1.062710    0.573743
      8          1           0        0.122986   -0.445986   -1.079565
      9          1           0       -2.170673    1.073564   -1.070927
 ---------------------------------------------------------------------

 SCF Done:  E(RHF) =  -373.294881910     A.U. after    2 cycles

 The electronic state is 1-A.
 Alpha  occ. eigenvalues --  -20.67782 -20.67146 -15.75375 -15.67581 -11.43081
 Alpha  occ. eigenvalues --  -11.37936 -11.36985  -1.50925  -1.47462  -1.25993
 Alpha  occ. eigenvalues --   -1.15324  -0.96840  -0.87083  -0.82888  -0.77854
 Alpha  occ. eigenvalues --   -0.74888  -0.69070  -0.65283  -0.63601  -0.61239
 Alpha  occ. eigenvalues --   -0.56432  -0.53080  -0.49470  -0.45205  -0.38922
 Alpha virt. eigenvalues --    0.00904   0.02917   0.04934   0.06739   0.07496
 Alpha virt. eigenvalues --    0.08402   0.09478   0.10069   0.11432   0.11586
 Alpha virt. eigenvalues --    0.12684   0.13444   0.14756   0.16230   0.16531

 Mulliken charges:
               1
     1  O   -0.188129
     2  C    0.081468
     3  C    0.412505
     4  N   -0.502562
     5  C    0.741457
     6  N   -0.340524
     7  O   -0.621826
     8  H    0.574254
     9  H   -0.156644
 Sum of Mulliken charges =  -0.00000

 Dipole moment (field-independent basis, Debye):
    X=             -1.7819    Y=              0.7564    Z=             -1.9077  Tot=              2.7178

 Test job not archived.
 1\1\GINC-SE059\SP\RHF\Aug-CC-pVDZ\C3H2N2O2\OHZDE\09-Apr-2025\0\\#t hf
 aug-cc-pvdz iop(5/13=1,5/36=2,99/5=2) pseudo=read geom=check guess=(re
 ad,tcheck) scf=(maxcycle=1)\\title\\0,1\O,0,-2.60591782,0.26773416,0.0
 1349812\C,0,-1.48325565,0.02761846,-0.03996127\C,0,-0.32635168,-0.4176
 012,-0.96231138\N,0,0.56768126,0.64299039,-0.98362338\C,0,1.28595014,0
 .41567593,0.07450689\N,0,0.87899372,-0.68256348,0.79557474\O,0,0.19191
 135,-1.40844726,-0.18955692\H,0,-0.37524549,-0.10146448,1.02547798\H,0
 ,2.04629618,1.07795648,0.46415524\\Version=ES64L-G16RevC.01\State=1-A\

 Normal termination of Gaussian 16 at Wed Apr  9 03:27:03 2025.
