 Gaussian 16, Revision C.01,

 ----------------------------------------------------------------------
 #t hf aug-cc-pvdz symm=none int=(grid=ultrafine) guess=(read,tcheck) s
 table=(opt,rrhf)
 ----------------------------------------------------------------------
 -----
 title
 -----
 Symbolic Z-matrix:
 Charge =  0 Multiplicity = 1

 SCF Done:  E(RHF) =  -322.473797235     A.U. after   15 cycles
 Normal termination of Gaussian 16 at Wed Apr  9 14:55:09 2025.
 Gaussian 16:  ES64L-G16RevC.01  3-Jul-2019

 ----------------------------------------------------------------------
 #t hf aug-cc-pvdz iop(5/13=1,5/36=2,99/5=2) pseudo=read geom=check gue
 ss=(read,tcheck) scf=(maxcycle=1)
 ----------------------------------------------------------------------
 -----
 title
 -----
 Structure from the checkpoint file:  "Grambow2020_wb97xd3_006645_forward_mol1.chk"
 Charge =  0 Multiplicity = 1

                         Standard orientation:
 ---------------------------------------------------------------------
 Center     Atomic      Atomic             Coordinates (Angstroms)
 Number     Number       Type             X           Y           Z
 ---------------------------------------------------------------------
      1          6           0        1.908143    0.696807   -0.018013
      2          7           0        1.745894   -0.765515   -0.151846
      3          6           0        0.607777    0.037997   -0.093483
      4          6           0       -0.599248   -0.033973    0.815953
      5          6           0       -1.390527    1.039367    0.083751
      6          6           0       -1.233520   -0.074226   -0.966794
      7          8           0       -1.301927   -1.055386    0.076071
      8          1           0        2.208268    1.106726    0.942461
      9          1           0        2.345144    1.180450   -0.883108
     10          1           0        1.916066   -1.306535    0.688141
     11          1           0       -0.517047   -0.197068    1.903054
     12          1           0       -0.933204    2.011630   -0.089830
     13          1           0       -2.428568    1.112524    0.401439
     14          1           0       -0.152253   -0.101866   -1.436289
 ---------------------------------------------------------------------

 SCF Done:  E(RHF) =  -322.568295975     A.U. after    2 cycles

 The electronic state is 1-A.
 Alpha  occ. eigenvalues --  -20.58102 -15.65715 -11.33050 -11.32684 -11.30682
 Alpha  occ. eigenvalues --  -11.30141 -11.25108  -1.38809  -1.28386  -1.05177
 Alpha  occ. eigenvalues --   -0.91521  -0.91413  -0.87770  -0.76910  -0.70534
 Alpha  occ. eigenvalues --   -0.68149  -0.65535  -0.60636  -0.58681  -0.56391
 Alpha  occ. eigenvalues --   -0.52330  -0.51826  -0.49737  -0.44991  -0.43163
 Alpha  occ. eigenvalues --   -0.30220
 Alpha virt. eigenvalues --    0.02517   0.03629   0.04041   0.05094   0.06166
 Alpha virt. eigenvalues --    0.06610   0.07471   0.08990   0.10295   0.11128
 Alpha virt. eigenvalues --    0.11834   0.12989   0.13144   0.13796   0.14005

 Mulliken charges:
               1
     1  C    1.019279
     2  N   -0.554978
     3  C   -0.433135
     4  C    0.771275
     5  C    0.800060
     6  C   -0.015944
     7  O   -0.753975
     8  H   -0.225623
     9  H   -0.252291
    10  H   -0.001302
    11  H   -0.212649
    12  H   -0.220000
    13  H   -0.151654
    14  H    0.230936
 Sum of Mulliken charges =  -0.00000

 Dipole moment (field-independent basis, Debye):
    X=              2.7258    Y=              2.9559    Z=              2.8951  Tot=              4.9547

 Test job not archived.
 1\1\GINC-SE113\SP\RHF\Aug-CC-pVDZ\C5H7N1O1\OHZDE\09-Apr-2025\0\\#t hf
 aug-cc-pvdz iop(5/13=1,5/36=2,99/5=2) pseudo=read geom=check guess=(re
 ad,tcheck) scf=(maxcycle=1)\\title\\0,1\C,0,-1.555012,-0.88225839,-0.2
 9847258\N,0,-1.82812234,0.55272794,-0.07745852\C,0,-0.50447432,0.12021
 039,-0.14979624\C,0,0.64635176,0.3159926,0.81271802\C,0,1.70179735,-0.
 27730512,-0.10833238\C,0,1.20744207,0.96180418,-0.87553915\O,0,1.00701
 528,1.64211058,0.37022719\H,0,-1.70448492,-1.578364,0.52232731\H,0,-1.
 84861652,-1.24942578,-1.27430717\H,0,-2.13245297,0.80480387,0.85585755

 Normal termination of Gaussian 16 at Wed Apr  9 14:55:14 2025.
