 Gaussian 16, Revision C.01,

 ----------------------------------------------------------------------
 #t hf aug-cc-pvdz symm=none int=(grid=ultrafine) guess=(read,tcheck) s
 table=(opt,rrhf)
 ----------------------------------------------------------------------
 -----
 title
 -----
 Symbolic Z-matrix:
 Charge =  0 Multiplicity = 1

 SCF Done:  E(RHF) =  -338.643536389     A.U. after   15 cycles
 Normal termination of Gaussian 16 at Wed Apr  9 03:59:37 2025.
 Gaussian 16:  ES64L-G16RevC.01  3-Jul-2019

 ----------------------------------------------------------------------
 #t hf aug-cc-pvdz iop(5/13=1,5/36=2,99/5=2) pseudo=read geom=check gue
 ss=(read,tcheck) scf=(maxcycle=1)
 ----------------------------------------------------------------------
 -----
 title
 -----
 Structure from the checkpoint file:  "Grambow2020_wb97xd3_008812_reverse_mol1.chk"
 Charge =  0 Multiplicity = 1

                         Standard orientation:
 ---------------------------------------------------------------------
 Center     Atomic      Atomic             Coordinates (Angstroms)
 Number     Number       Type             X           Y           Z
 ---------------------------------------------------------------------
      1          7           0        1.858301   -0.951802    0.011916
      2          6           0        0.468617   -0.625396   -0.020472
      3          6           0        0.101333    0.694191   -0.019261
      4          8           0        0.869976    1.779897    0.012778
      5          7           0       -1.247656    0.800317   -0.016341
      6          6           0       -1.745537   -0.500572   -0.017140
      7          6           0       -0.689846   -1.460489   -0.106298
      8          1           0        2.121146   -1.495811   -0.799011
      9          1           0        2.081983   -1.509836    0.825164
     10          1           0        1.778246    1.440988    0.029976
     11          1           0       -1.759330    1.660414    0.066457
     12          1           0       -2.799025   -0.669368   -0.190126
     13          1           0       -1.464745   -1.251568    0.975314
 ---------------------------------------------------------------------

 SCF Done:  E(RHF) =  -338.745122870     A.U. after    2 cycles

 The electronic state is 1-A.
 Alpha  occ. eigenvalues --  -20.62661 -15.68040 -15.61519 -11.35482 -11.30417
 Alpha  occ. eigenvalues --  -11.23818 -11.21877  -1.40735  -1.27870  -1.15439
 Alpha  occ. eigenvalues --   -1.04683  -0.97821  -0.82914  -0.79030  -0.76792
 Alpha  occ. eigenvalues --   -0.68926  -0.66792  -0.64341  -0.63445  -0.59669
 Alpha  occ. eigenvalues --   -0.58243  -0.55272  -0.42190  -0.40473  -0.34382
 Alpha  occ. eigenvalues --   -0.32544
 Alpha virt. eigenvalues --    0.02826   0.03641   0.04789   0.05225   0.06339
 Alpha virt. eigenvalues --    0.07256   0.09496   0.11067   0.11966   0.12184
 Alpha virt. eigenvalues --    0.13797   0.14081   0.14770   0.14912   0.16546

 Mulliken charges:
               1
     1  N   -0.508374
     2  C    0.897019
     3  C    0.248535
     4  O   -0.487573
     5  N   -0.374960
     6  C    0.810271
     7  C   -0.755725
     8  H    0.034098
     9  H    0.032723
    10  H    0.157971
    11  H   -0.106624
    12  H   -0.189020
    13  H    0.241661
 Sum of Mulliken charges =  -0.00000

 Dipole moment (field-independent basis, Debye):
    X=             -0.8314    Y=              2.3008    Z=              0.7870  Tot=              2.5699

 Test job not archived.
 1\1\GINC-SE292\SP\RHF\Aug-CC-pVDZ\C4H6N2O1\OHZDE\09-Apr-2025\0\\#t hf
 aug-cc-pvdz iop(5/13=1,5/36=2,99/5=2) pseudo=read geom=check guess=(re
 ad,tcheck) scf=(maxcycle=1)\\title\\0,1\N,0,-1.96617255,0.53226358,-0.
 02915833\C,0,-0.54646838,0.38908089,-0.08159467\C,0,-0.00938774,-0.870
 53379,-0.04805901\O,0,-0.62838172,-2.04559056,0.03369342\N,0,1.3417148
 8,-0.7995824,-0.07105356\C,0,1.66465916,0.55440372,-0.12230214\C,0,0.4
 9083951,1.36489069,-0.21787302\H,0,-2.31216513,1.01020338,-0.85043704\
 H,0,-2.24687318,1.08293222,0.77132838\H,0,-1.5728052,-1.82770782,0.060

 Normal termination of Gaussian 16 at Wed Apr  9 03:59:41 2025.
