 Gaussian 16, Revision C.01,

 ----------------------------------------------------------------------
 #t hf aug-cc-pvdz symm=none int=(grid=ultrafine) guess=(read,tcheck) s
 table=(opt,rrhf)
 ----------------------------------------------------------------------
 -----
 title
 -----
 Symbolic Z-matrix:
 Charge =  0 Multiplicity = 1

 SCF Done:  E(RHF) =  -193.971429707     A.U. after   13 cycles
 Normal termination of Gaussian 16 at Wed Apr  9 03:05:19 2025.
 Gaussian 16:  ES64L-G16RevC.01  3-Jul-2019

 ----------------------------------------------------------------------
 #t hf aug-cc-pvdz iop(5/13=1,5/36=2,99/5=2) pseudo=read geom=check gue
 ss=(read,tcheck) scf=(maxcycle=1)
 ----------------------------------------------------------------------
 -----
 title
 -----
 Structure from the checkpoint file:  "Grambow2020_b97d3_006545_reverse_mol2.chk"
 Charge =  0 Multiplicity = 1

                         Standard orientation:
 ---------------------------------------------------------------------
 Center     Atomic      Atomic             Coordinates (Angstroms)
 Number     Number       Type             X           Y           Z
 ---------------------------------------------------------------------
      1          6           0       -2.059387   -0.429927   -0.277098
      2          6           0        1.411711    0.385080   -0.087813
      3          6           0        0.019334    0.978522   -0.007048
      4          6           0       -1.038867    0.019063    0.467256
      5          6           0        1.706332   -0.922386   -0.047247
      6          1           0       -2.795808   -1.129064    0.120835
      7          1           0       -2.194590   -0.107954   -1.311814
      8          1           0        2.221679    1.112163   -0.199860
      9          1           0       -0.258060    1.385312   -0.994852
     10          1           0        0.054199    1.848738    0.672977
     11          1           0       -0.926299   -0.337039    1.495637
     12          1           0        2.735731   -1.273668   -0.122716
     13          1           0        0.928410   -1.680594    0.051496
 ---------------------------------------------------------------------

 SCF Done:  E(RHF) =  -194.032185777     A.U. after    2 cycles

 The electronic state is 1-A.
 Alpha  occ. eigenvalues --  -11.24925 -11.24862 -11.24746 -11.23639 -11.23304
 Alpha  occ. eigenvalues --   -1.08497  -1.01609  -0.92532  -0.78881  -0.73410
 Alpha  occ. eigenvalues --   -0.64454  -0.64219  -0.59769  -0.56486  -0.53910
 Alpha  occ. eigenvalues --   -0.50717  -0.48161  -0.36967  -0.35984
 Alpha virt. eigenvalues --    0.03602   0.04349   0.04791   0.05038   0.06285
 Alpha virt. eigenvalues --    0.07068   0.07351   0.07699   0.10653   0.11915
 Alpha virt. eigenvalues --    0.12869   0.13789   0.14596   0.15300   0.15632

 Mulliken charges:
               1
     1  C    0.356413
     2  C    0.348646
     3  C   -0.054743
     4  C    0.789086
     5  C    0.385658
     6  H   -0.278689
     7  H   -0.269672
     8  H   -0.377352
     9  H   -0.033610
    10  H    0.069209
    11  H   -0.384991
    12  H   -0.296077
    13  H   -0.253880
 Sum of Mulliken charges =  -0.00000

 Dipole moment (field-independent basis, Debye):
    X=              0.0530    Y=              0.3625    Z=              0.0073  Tot=              0.3664

 Test job not archived.
 1\1\GINC-SE456\SP\RHF\Aug-CC-pVDZ\C5H8\OHZDE\09-Apr-2025\0\\#t hf aug-
 cc-pvdz iop(5/13=1,5/36=2,99/5=2) pseudo=read geom=check guess=(read,t
 check) scf=(maxcycle=1)\\title\\0,1\C,0,-1.10545599,1.41701575,-1.0945
 6767\C,0,0.5908629,-0.96268761,0.95679783\C,0,-0.61176588,-0.77778857,
 0.05296951\C,0,-0.42920106,0.26193448,-1.0198594\C,0,1.63335181,-0.124
 55073,1.04984181\H,0,-0.92735419,2.13543674,-1.89557341\H,0,-1.8656858
 5,1.68076876,-0.35628041\H,0,0.56971967,-1.8606831,1.58162575\H,0,-1.4
 9287456,-0.53023035,0.66985305\H,0,-0.84270547,-1.75068694,-0.41720188

 Normal termination of Gaussian 16 at Wed Apr  9 03:05:22 2025.
