 Gaussian 16, Revision C.01,

 ----------------------------------------------------------------------
 #t hf aug-cc-pvdz symm=none int=(grid=ultrafine) guess=(read,tcheck) s
 table=(opt,rrhf)
 ----------------------------------------------------------------------
 -----
 title
 -----
 Symbolic Z-matrix:
 Charge =  0 Multiplicity = 1

 SCF Done:  E(RHF) =  -299.596126089     A.U. after   15 cycles
 Normal termination of Gaussian 16 at Wed Apr  9 03:06:38 2025.
 Gaussian 16:  ES64L-G16RevC.01  3-Jul-2019

 ----------------------------------------------------------------------
 #t hf aug-cc-pvdz iop(5/13=1,5/36=2,99/5=2) pseudo=read geom=check gue
 ss=(read,tcheck) scf=(maxcycle=1)
 ----------------------------------------------------------------------
 -----
 title
 -----
 Structure from the checkpoint file:  "Grambow2020_b97d3_006604_reverse_mol2.chk"
 Charge =  0 Multiplicity = 1

                         Standard orientation:
 ---------------------------------------------------------------------
 Center     Atomic      Atomic             Coordinates (Angstroms)
 Number     Number       Type             X           Y           Z
 ---------------------------------------------------------------------
      1          6           0        2.099335   -0.458592   -0.000136
      2          6           0        0.771124    0.226872   -0.000009
      3          7           0        0.545376    1.460779    0.000178
      4          6           0       -2.584965    0.098956   -0.000354
      5          7           0       -1.483758   -0.362949    0.000276
      6          8           0       -0.247173   -0.837021    0.000113
      7          1           0        2.886464    0.300116   -0.003685
      8          1           0        2.198782   -1.100794   -0.885508
      9          1           0        2.201686   -1.095699    0.888492
     10          1           0       -0.453828    1.704320   -0.000384
 ---------------------------------------------------------------------

 SCF Done:  E(RHF) =  -299.688783898     A.U. after    2 cycles

 The electronic state is 1-A.
 Alpha  occ. eigenvalues --  -20.71547 -15.74115 -15.65123 -11.40054 -11.32581
 Alpha  occ. eigenvalues --  -11.27799  -1.47597  -1.23100  -1.19137  -1.03485
 Alpha  occ. eigenvalues --   -0.89204  -0.77260  -0.74463  -0.72025  -0.62066
 Alpha  occ. eigenvalues --   -0.61131  -0.59600  -0.50584  -0.49828  -0.48854
 Alpha  occ. eigenvalues --   -0.47245  -0.44940
 Alpha virt. eigenvalues --    0.02951   0.05033   0.05068   0.05643   0.08339
 Alpha virt. eigenvalues --    0.09258   0.10038   0.11635   0.12134   0.13182
 Alpha virt. eigenvalues --    0.13781   0.13852   0.14897   0.15295   0.15932

 Mulliken charges:
               1
     1  C    0.193046
     2  C    0.583767
     3  N   -0.279800
     4  C   -0.068537
     5  N   -0.061510
     6  O   -0.505643
     7  H    0.003657
     8  H    0.041224
     9  H    0.041683
    10  H    0.052111
 Sum of Mulliken charges =  -0.00000

 Dipole moment (field-independent basis, Debye):
    X=              2.9206    Y=             -1.1631    Z=             -0.0009  Tot=              3.1437

 Test job not archived.
 1\1\GINC-SE365\SP\RHF\Aug-CC-pVDZ\C3H4N2O1\OHZDE\09-Apr-2025\0\\#t hf
 aug-cc-pvdz iop(5/13=1,5/36=2,99/5=2) pseudo=read geom=check guess=(re
 ad,tcheck) scf=(maxcycle=1)\\title\\0,1\C,0,-1.5791976,0.07158764,0.06
 266691\C,0,-0.09643283,0.19094514,0.20815644\N,0,0.53913338,0.91890375
 ,1.00791845\C,0,3.01175415,-0.68568327,-0.71401149\N,0,1.81893665,-0.7
 1672214,-0.76131793\O,0,0.49478866,-0.72396488,-0.7829008\H,0,-2.05808
 151,0.73594019,0.78691045\H,0,-1.89933296,-0.9638368,0.24044616\H,0,-1
 .88769432,0.34716591,-0.9546472\H,0,1.56119438,0.83589647,0.92903801\\

 Normal termination of Gaussian 16 at Wed Apr  9 03:06:40 2025.
