 Gaussian 16, Revision C.01,

 ----------------------------------------------------------------------
 #t hf aug-cc-pvdz symm=none int=(grid=ultrafine) guess=(read,tcheck) s
 table=(opt,rrhf)
 ----------------------------------------------------------------------
 -----
 title
 -----
 Symbolic Z-matrix:
 Charge =  0 Multiplicity = 1

 SCF Done:  E(RHF) =  -353.516430353     A.U. after   15 cycles
 Normal termination of Gaussian 16 at Wed Apr  9 03:46:12 2025.
 Gaussian 16:  ES64L-G16RevC.01  3-Jul-2019

 ----------------------------------------------------------------------
 #t hf aug-cc-pvdz iop(5/13=1,5/36=2,99/5=2) pseudo=read geom=check gue
 ss=(read,tcheck) scf=(maxcycle=1)
 ----------------------------------------------------------------------
 -----
 title
 -----
 Structure from the checkpoint file:  "Grambow2020_wb97xd3_007944_reverse_mol2.chk"
 Charge =  0 Multiplicity = 1

                         Standard orientation:
 ---------------------------------------------------------------------
 Center     Atomic      Atomic             Coordinates (Angstroms)
 Number     Number       Type             X           Y           Z
 ---------------------------------------------------------------------
      1          8           0        2.193574    0.114097    0.000425
      2          6           0        0.872175   -0.007810   -0.000389
      3          6           0        0.108187    1.193966   -0.000789
      4          7           0       -1.180518    1.117244    0.000169
      5          7           0       -1.673191   -0.122901    0.000590
      6          6           0       -1.037016   -1.321608   -0.000288
      7          7           0        0.332606   -1.187611   -0.000446
      8          1           0        2.554343   -0.783796    0.002083
      9          1           0        0.565469    2.174903    0.000100
     10          1           0       -2.680755   -0.138297    0.001023
 ---------------------------------------------------------------------

 SCF Done:  E(RHF) =  -353.620246693     A.U. after    2 cycles

 The electronic state is 1-A.
 Alpha  occ. eigenvalues --  -20.64924 -15.73210 -15.72783 -15.64037 -11.39845
 Alpha  occ. eigenvalues --  -11.31894 -11.29402  -1.43691  -1.37011  -1.21092
 Alpha  occ. eigenvalues --   -1.14892  -0.95903  -0.92414  -0.80315  -0.77541
 Alpha  occ. eigenvalues --   -0.75484  -0.67231  -0.66232  -0.63064  -0.60920
 Alpha  occ. eigenvalues --   -0.52869  -0.46343  -0.44856  -0.41540  -0.35283
 Alpha virt. eigenvalues --    0.03002   0.03778   0.04671   0.06159   0.07743
 Alpha virt. eigenvalues --    0.09495   0.10149   0.11061   0.11434   0.12942
 Alpha virt. eigenvalues --    0.13445   0.13935   0.14731   0.15168   0.15538

 Mulliken charges:
               1
     1  O   -0.464693
     2  C    0.400269
     3  C    0.865876
     4  N   -0.342753
     5  N   -0.119011
     6  C    0.155573
     7  N   -0.469749
     8  H    0.165255
     9  H   -0.228955
    10  H    0.038188
 Sum of Mulliken charges =   0.00000

 Dipole moment (field-independent basis, Debye):
    X=              0.7779    Y=              2.6259    Z=              0.0037  Tot=              2.7387

 Test job not archived.
 1\1\GINC-SE365\SP\RHF\Aug-CC-pVDZ\C3H3N3O1\OHZDE\09-Apr-2025\0\\#t hf
 aug-cc-pvdz iop(5/13=1,5/36=2,99/5=2) pseudo=read geom=check guess=(re
 ad,tcheck) scf=(maxcycle=1)\\title\\0,1\O,0,2.17004746,-0.19074944,0.1
 9977592\C,0,0.84703124,-0.18818925,0.09692839\C,0,0.217707,1.06154345,
 -0.16776419\N,0,-1.06821335,1.10571035,-0.27315017\N,0,-1.68888079,-0.
 06535202,-0.11800086\C,0,-1.1858524,-1.30046123,0.13316819\N,0,0.18633
 63,-1.29578791,0.2375508\H,0,2.4319002,-1.10480244,0.37952584\H,0,0.77
 556109,1.98178919,-0.28305868\H,0,-2.68949176,0.01287332,-0.20790124\\

 Normal termination of Gaussian 16 at Wed Apr  9 03:46:15 2025.
