 Gaussian 16, Revision C.01,

 ----------------------------------------------------------------------
 #t hf aug-cc-pvdz symm=none int=(grid=ultrafine) guess=(read,tcheck) s
 table=(opt,rrhf)
 ----------------------------------------------------------------------
 -----
 title
 -----
 Symbolic Z-matrix:
 Charge =  0 Multiplicity = 1

 SCF Done:  E(RHF) =  -358.573076730     A.U. after   15 cycles
 Normal termination of Gaussian 16 at Wed Apr  9 17:06:14 2025.
 Gaussian 16:  ES64L-G16RevC.01  3-Jul-2019

 ----------------------------------------------------------------------
 #t hf aug-cc-pvdz iop(5/13=1,5/36=2,99/5=2) pseudo=read geom=check gue
 ss=(read,tcheck) scf=(maxcycle=1)
 ----------------------------------------------------------------------
 -----
 title
 -----
 Structure from the checkpoint file:  "Grambow2020_wb97xd3_009140_reverse_mol2.chk"
 Charge =  0 Multiplicity = 1

                         Standard orientation:
 ---------------------------------------------------------------------
 Center     Atomic      Atomic             Coordinates (Angstroms)
 Number     Number       Type             X           Y           Z
 ---------------------------------------------------------------------
      1          6           0       -2.198821   -0.871339   -0.093532
      2          6           0       -0.833418   -0.274193    0.023449
      3          6           0       -0.730703    1.230323   -0.171664
      4          8           0        0.222127    1.859356    0.184728
      5          6           0        1.495727   -0.505463    0.362015
      6          8           0        2.250277   -0.494495   -0.568024
      7          7           0        0.182109   -0.970732    0.282269
      8          1           0       -2.160637   -1.940036    0.100692
      9          1           0       -2.887488   -0.397062    0.610596
     10          1           0       -2.596926   -0.700843   -1.097304
     11          1           0       -1.606406    1.716727   -0.643082
     12          1           0        1.800757   -0.278522    1.397979
 ---------------------------------------------------------------------

 SCF Done:  E(RHF) =  -358.684678893     A.U. after    2 cycles

 The electronic state is 1-A.
 Alpha  occ. eigenvalues --  -20.61766 -20.56359 -15.66804 -11.38024 -11.37542
 Alpha  occ. eigenvalues --  -11.34486 -11.27189  -1.40992  -1.37022  -1.24350
 Alpha  occ. eigenvalues --   -1.05099  -0.92599  -0.88584  -0.77245  -0.73388
 Alpha  occ. eigenvalues --   -0.71094  -0.67205  -0.64124  -0.62511  -0.59336
 Alpha  occ. eigenvalues --   -0.58293  -0.56018  -0.51387  -0.47175  -0.46226
 Alpha  occ. eigenvalues --   -0.41605
 Alpha virt. eigenvalues --    0.02372   0.03692   0.04009   0.04470   0.05085
 Alpha virt. eigenvalues --    0.06705   0.09180   0.09547   0.10192   0.11513
 Alpha virt. eigenvalues --    0.12587   0.13406   0.14354   0.14722   0.15450

 Mulliken charges:
               1
     1  C    0.360481
     2  C   -0.250730
     3  C    0.691788
     4  O   -0.398033
     5  C    0.944158
     6  O   -0.474940
     7  N   -0.533524
     8  H   -0.126680
     9  H    0.069639
    10  H    0.068699
    11  H   -0.208785
    12  H   -0.142073
 Sum of Mulliken charges =  -0.00000

 Dipole moment (field-independent basis, Debye):
    X=             -5.7408    Y=             -0.1948    Z=              1.2095  Tot=              5.8701

 Test job not archived.
 1\1\GINC-SE229\SP\RHF\Aug-CC-pVDZ\C4H5N1O2\OHZDE\09-Apr-2025\0\\#t hf
 aug-cc-pvdz iop(5/13=1,5/36=2,99/5=2) pseudo=read geom=check guess=(re
 ad,tcheck) scf=(maxcycle=1)\\title\\0,1\C,0,-1.46979918,-0.49113178,-0
 .86926816\C,0,-0.22932201,-0.09973353,-0.132643\C,0,-0.07475484,1.3754
 3193,0.20229481\O,0,0.69609306,1.76786065,1.02835595\C,0,1.84640002,-0
 .65945013,0.85281501\O,0,2.87259031,-0.44845869,0.27242456\N,0,0.64118
 017,-0.94218076,0.2078832\H,0,-1.49405,-1.56702032,-1.02148438\H,0,-2.
 35981665,-0.18098236,-0.31548836\H,0,-1.50306457,0.01157166,-1.8394729

 Normal termination of Gaussian 16 at Wed Apr  9 17:06:21 2025.
