 Gaussian 16, Revision C.01,

 ----------------------------------------------------------------------
 #t hf aug-cc-pvdz symm=none int=(grid=ultrafine) guess=(read,tcheck) s
 table=(opt,rrhf)
 ----------------------------------------------------------------------
 -----
 title
 -----
 Symbolic Z-matrix:
 Charge =  0 Multiplicity = 1

 SCF Done:  E(RHF) =  -359.601933571     A.U. after   14 cycles
 Normal termination of Gaussian 16 at Wed Apr  9 14:43:58 2025.
 Gaussian 16:  ES64L-G16RevC.01  3-Jul-2019

 ----------------------------------------------------------------------
 #t hf aug-cc-pvdz iop(5/13=1,5/36=2,99/5=2) pseudo=read geom=check gue
 ss=(read,tcheck) scf=(maxcycle=1)
 ----------------------------------------------------------------------
 -----
 title
 -----
 Structure from the checkpoint file:  "Grambow2020_wb97xd3_006597_reverse_mol2.chk"
 Charge =  0 Multiplicity = 1

                         Standard orientation:
 ---------------------------------------------------------------------
 Center     Atomic      Atomic             Coordinates (Angstroms)
 Number     Number       Type             X           Y           Z
 ---------------------------------------------------------------------
      1          6           0       -1.278438   -1.720825   -0.007283
      2          7           0       -1.760259   -0.370841    0.030760
      3          6           0       -1.370883    0.753992   -0.001069
      4          6           0        1.629577    0.132015    1.173411
      5          8           0        1.818695   -0.395662    0.008556
      6          6           0        1.638081    0.100952   -1.172062
      7          8           0       -1.105986    1.894426   -0.023197
      8          1           0       -0.683823   -1.937762    0.881339
      9          1           0       -2.127927   -2.400203   -0.036944
     10          1           0       -0.662915   -1.882190   -0.893325
     11          1           0        1.879458   -0.501704    2.006385
     12          1           0        1.301795    1.160244    1.247554
     13          1           0        1.895446   -0.555275   -1.985059
     14          1           0        1.308090    1.125863   -1.276125
 ---------------------------------------------------------------------

 SCF Done:  E(RHF) =  -359.720580928     A.U. after    2 cycles

 The electronic state is 1-A.
 Alpha  occ. eigenvalues --  -20.72170 -20.61155 -15.64914 -11.40661 -11.29695
 Alpha  occ. eigenvalues --  -11.29352 -11.29233  -1.47691  -1.41664  -1.23810
 Alpha  occ. eigenvalues --   -1.04630  -0.99517  -0.83935  -0.75518  -0.74330
 Alpha  occ. eigenvalues --   -0.72310  -0.69887  -0.68018  -0.66729  -0.65547
 Alpha  occ. eigenvalues --   -0.60298  -0.59417  -0.59171  -0.53601  -0.43690
 Alpha  occ. eigenvalues --   -0.42080  -0.25719
 Alpha virt. eigenvalues --    0.03083   0.03781   0.04511   0.05183   0.05734
 Alpha virt. eigenvalues --    0.07127   0.07497   0.07580   0.09449   0.10510
 Alpha virt. eigenvalues --    0.11779   0.12563   0.13465   0.14284   0.15272

 Mulliken charges:
               1
     1  C    0.892274
     2  N   -0.076365
     3  C   -0.214620
     4  C    0.727637
     5  O   -0.177090
     6  C    0.730127
     7  O   -0.232694
     8  H   -0.099847
     9  H   -0.193831
    10  H   -0.103820
    11  H   -0.379023
    12  H   -0.244652
    13  H   -0.381327
    14  H   -0.246769
 Sum of Mulliken charges =   0.00000

 Dipole moment (field-independent basis, Debye):
    X=              0.5014    Y=             -2.6815    Z=             -0.0071  Tot=              2.7280

 Test job not archived.
 1\1\GINC-SE057\SP\RHF\Aug-CC-pVDZ\C4H7N1O2\OHZDE\09-Apr-2025\0\\#t hf
 aug-cc-pvdz iop(5/13=1,5/36=2,99/5=2) pseudo=read geom=check guess=(re
 ad,tcheck) scf=(maxcycle=1)\\title\\0,1\C,0,1.87623989,-0.14031767,-0.
 98059703\N,0,1.7168676,-0.55994471,0.38122837\C,0,0.87729203,-0.717837
 29,1.21072127\C,0,-1.25594866,1.45369827,-0.01513957\O,0,-1.41901791,0
 .55791463,-0.932786\C,0,-1.70808218,-0.69871122,-0.83060821\O,0,0.1420
 9023,-0.90967914,2.10174554\H,0,1.62255501,0.91557573,-1.08553287\H,0,
 2.91315628,-0.28445095,-1.27740725\H,0,1.23319647,-0.72613039,-1.63885

 Normal termination of Gaussian 16 at Wed Apr  9 14:44:02 2025.
