 Gaussian 16, Revision C.01,

 ----------------------------------------------------------------------
 #t hf aug-cc-pvdz symm=none int=(grid=ultrafine) guess=(read,tcheck) s
 table=(opt,rrhf)
 ----------------------------------------------------------------------
 -----
 title
 -----
 Symbolic Z-matrix:
 Charge =  0 Multiplicity = 1

 SCF Done:  E(RHF) =  -309.043723886     A.U. after   12 cycles

 1\1\GINC-SE219\Stability\RHF\Aug-CC-pVDZ\C6H12O1\OHZDE\09-Apr-2025\0\\
 #t hf aug-cc-pvdz symm=none int=(grid=ultrafine) guess=(read,tcheck) s
 table=(opt,rrhf)\\title\\0,1\C,0,2.01456199,-0.09686381,0.53877733\C,0
 ,0.68518988,-0.32339776,-0.15960463\O,0,-0.16491021,-1.03547567,0.7258
 2388\C,0,0.05445102,0.98807808,-0.58593374\C,0,-1.42921877,1.16681772,
 -0.67195518\C,0,-0.65151837,1.84714057,0.41675444\C,0,-0.8066828,-2.14
 472399,0.15293689\H,0,2.69475941,0.47088295,-0.09934578\H,0,2.48351481
 ,-1.0486883,0.79151073\H,0,1.85711241,0.46666599,1.4599453\H,0,0.85290

 Normal termination of Gaussian 16 at Wed Apr  9 15:54:19 2025.
 Gaussian 16:  ES64L-G16RevC.01  3-Jul-2019

 ----------------------------------------------------------------------
 #t hf aug-cc-pvdz iop(5/13=1,5/36=2,99/5=2) pseudo=read geom=check gue
 ss=(read,tcheck) scf=(maxcycle=1)
 ----------------------------------------------------------------------
 -----
 title
 -----
 Structure from the checkpoint file:  "Grambow2020_wb97xd3_007572_reverse_mol2.chk"
 Charge =  0 Multiplicity = 1

                         Standard orientation:
 ---------------------------------------------------------------------
 Center     Atomic      Atomic             Coordinates (Angstroms)
 Number     Number       Type             X           Y           Z
 ---------------------------------------------------------------------
      1          6           0        0.716249    1.975014    0.041558
      2          6           0        0.456145    0.545783   -0.401081
      3          8           0        1.060255   -0.326809    0.540909
      4          6           0       -1.029258    0.268396   -0.528326
      5          6           0       -1.607649   -1.092342   -0.294916
      6          6           0       -1.856106    0.010128    0.692897
      7          6           0        1.841575   -1.346310   -0.025360
      8          1           0        0.247072    2.683573   -0.644023
      9          1           0        1.787374    2.178054    0.076577
     10          1           0        0.301003    2.134975    1.037997
     11          1           0        0.922788    0.385375   -1.382654
     12          1           0       -1.329567   -0.056974    1.636254
     13          1           0       -1.503824    0.855675   -1.307704
     14          1           0       -0.937856   -1.882004    0.017502
     15          1           0       -2.423855   -1.414230   -0.928245
     16          1           0       -2.845330    0.444908    0.748086
     17          1           0        2.703767   -0.936220   -0.566669
     18          1           0        1.265522   -1.974721   -0.715704
     19          1           0        2.205133   -1.967952    0.792687
 ---------------------------------------------------------------------

 SCF Done:  E(RHF) =  -309.143903588     A.U. after    2 cycles

 The electronic state is 1-A.
 Alpha  occ. eigenvalues --  -20.56431 -11.28684 -11.28040 -11.23188 -11.22575
 Alpha  occ. eigenvalues --  -11.22329 -11.21848  -1.33486  -1.13183  -1.02200
 Alpha  occ. eigenvalues --   -0.91715  -0.86385  -0.81455  -0.76579  -0.69586
 Alpha  occ. eigenvalues --   -0.66657  -0.64550  -0.62907  -0.59020  -0.55758
 Alpha  occ. eigenvalues --   -0.54028  -0.53027  -0.50816  -0.49305  -0.48604
 Alpha  occ. eigenvalues --   -0.43731  -0.40958  -0.40352
 Alpha virt. eigenvalues --    0.03480   0.04307   0.04442   0.04675   0.06165
 Alpha virt. eigenvalues --    0.06198   0.06778   0.06991   0.07406   0.08812
 Alpha virt. eigenvalues --    0.09017   0.09857   0.12311   0.13489   0.14048

 Mulliken charges:
               1
     1  C    0.445157
     2  C    0.052789
     3  O   -0.737233
     4  C    0.555080
     5  C    0.866396
     6  C    0.578255
     7  C    0.723497
     8  H   -0.008089
     9  H   -0.057161
    10  H   -0.015733
    11  H   -0.108045
    12  H   -0.327428
    13  H   -0.441216
    14  H   -0.374628
    15  H   -0.350708
    16  H   -0.350370
    17  H   -0.108910
    18  H   -0.087173
    19  H   -0.254481
 Sum of Mulliken charges =   0.00000

 Dipole moment (field-independent basis, Debye):
    X=              0.2323    Y=             -0.1043    Z=             -1.4125  Tot=              1.4353

 Test job not archived.
 1\1\GINC-SE219\SP\RHF\Aug-CC-pVDZ\C6H12O1\OHZDE\09-Apr-2025\0\\#t hf a
 ug-cc-pvdz iop(5/13=1,5/36=2,99/5=2) pseudo=read geom=check guess=(rea
 d,tcheck) scf=(maxcycle=1)\\title\\0,1\C,0,2.01456199,-0.09686381,0.53
 877733\C,0,0.68518988,-0.32339776,-0.15960463\O,0,-0.16491021,-1.03547
 567,0.72582388\C,0,0.05445102,0.98807808,-0.58593374\C,0,-1.42921877,1
 .16681772,-0.67195518\C,0,-0.65151837,1.84714057,0.41675444\C,0,-0.806
 6828,-2.14472399,0.15293689\H,0,2.69475941,0.47088295,-0.09934578\H,0,
 2.48351481,-1.0486883,0.79151073\H,0,1.85711241,0.46666599,1.4599453\H

 Normal termination of Gaussian 16 at Wed Apr  9 15:54:27 2025.
