 Gaussian 16, Revision C.01,

 ----------------------------------------------------------------------
 #t hf aug-cc-pvdz symm=none int=(grid=ultrafine) guess=(read,tcheck) s
 table=(opt,rrhf)
 ----------------------------------------------------------------------
 -----
 title
 -----
 Symbolic Z-matrix:
 Charge =  0 Multiplicity = 1

 SCF Done:  E(RHF) =  -306.828913159     A.U. after   16 cycles

 1\1\GINC-SE131\Stability\RHF\Aug-CC-pVDZ\C4H10O2\OHZDE\09-Apr-2025\0\\
 #t hf aug-cc-pvdz symm=none int=(grid=ultrafine) guess=(read,tcheck) s
 table=(opt,rrhf)\\title\\0,1\C,0,2.12862233,0.70751866,-1.08709464\O,0
 ,0.74212079,0.41457115,-0.92216188\C,0,0.50080059,-0.67299829,0.008813
 65\C,0,-1.02244524,-0.78503002,0.18100507\C,0,-1.58125145,0.39189097,0
 .83403914\O,0,-1.11151906,1.61664359,0.59848059\H,0,2.66411496,-0.1636
 8582,-1.49925928\H,0,2.197799,1.54262175,-1.79372484\H,0,2.59867896,0.
 99393333,-0.13043518\H,0,1.00330304,-0.45139537,0.96628768\H,0,0.92043

 Normal termination of Gaussian 16 at Wed Apr  9 14:04:15 2025.
 Gaussian 16:  ES64L-G16RevC.01  3-Jul-2019

 ----------------------------------------------------------------------
 #t hf aug-cc-pvdz iop(5/13=1,5/36=2,99/5=2) pseudo=read geom=check gue
 ss=(read,tcheck) scf=(maxcycle=1)
 ----------------------------------------------------------------------
 -----
 title
 -----
 Structure from the checkpoint file:  "Grambow2020_b97d3_006769_forward_mol1.chk"
 Charge =  0 Multiplicity = 1

                         Standard orientation:
 ---------------------------------------------------------------------
 Center     Atomic      Atomic             Coordinates (Angstroms)
 Number     Number       Type             X           Y           Z
 ---------------------------------------------------------------------
      1          6           0        2.431927    0.263254    0.045990
      2          8           0        1.097545    0.055733   -0.414191
      3          6           0        0.379609   -0.938507    0.362864
      4          6           0       -1.065160   -0.958395   -0.161277
      5          6           0       -1.757135    0.294829    0.111599
      6          8           0       -1.132918    1.470751    0.050648
      7          1           0        3.021237   -0.664823   -0.037774
      8          1           0        2.875936    1.033278   -0.595436
      9          1           0        2.450067    0.602495    1.096119
     10          1           0        0.421019   -0.665362    1.431532
     11          1           0        0.858851   -1.922421    0.233425
     12          1           0       -1.022332   -1.259230   -1.215077
     13          1           0       -2.070835   -1.639648    0.048706
     14          1           0       -3.211845   -1.296498   -0.425185
     15          1           0       -2.749627    0.343584    0.545124
     16          1           0       -0.224935    1.289667   -0.328145
 ---------------------------------------------------------------------

 SCF Done:  E(RHF) =  -306.928498598     A.U. after    2 cycles

 The electronic state is 1-A.
 Alpha  occ. eigenvalues --  -20.66116 -20.61437 -11.39661 -11.32016 -11.31530
 Alpha  occ. eigenvalues --  -11.25479  -1.42417  -1.36272  -1.07692  -0.97943
 Alpha  occ. eigenvalues --   -0.90866  -0.87067  -0.74737  -0.72714  -0.68725
 Alpha  occ. eigenvalues --   -0.67779  -0.66527  -0.63610  -0.59989  -0.55600
 Alpha  occ. eigenvalues --   -0.55288  -0.53154  -0.48971  -0.47660  -0.26405
 Alpha virt. eigenvalues --    0.02411   0.03903   0.04253   0.04412   0.05830
 Alpha virt. eigenvalues --    0.06219   0.06397   0.07679   0.07768   0.09300
 Alpha virt. eigenvalues --    0.10313   0.11347   0.12919   0.13984   0.14584

 Mulliken charges:
               1
     1  C    0.680408
     2  O   -0.761258
     3  C    0.503220
     4  C    0.150472
     5  C    0.609184
     6  O   -0.467348
     7  H   -0.064366
     8  H   -0.225843
     9  H   -0.054427
    10  H   -0.111883
    11  H   -0.091693
    12  H    0.019787
    13  H    0.074607
    14  H   -0.316063
    15  H   -0.246538
    16  H    0.301742
 Sum of Mulliken charges =  -0.00000

 Dipole moment (field-independent basis, Debye):
    X=              6.0321    Y=              1.2255    Z=              1.7798  Tot=              6.4074

 Test job not archived.
 1\1\GINC-SE131\SP\RHF\Aug-CC-pVDZ\C4H10O2\OHZDE\09-Apr-2025\0\\#t hf a
 ug-cc-pvdz iop(5/13=1,5/36=2,99/5=2) pseudo=read geom=check guess=(rea
 d,tcheck) scf=(maxcycle=1)\\title\\0,1\C,0,2.12862233,0.70751866,-1.08
 709464\O,0,0.74212079,0.41457115,-0.92216188\C,0,0.50080059,-0.6729982
 9,0.00881365\C,0,-1.02244524,-0.78503002,0.18100507\C,0,-1.58125145,0.
 39189097,0.83403914\O,0,-1.11151906,1.61664359,0.59848059\H,0,2.664114
 96,-0.16368582,-1.49925928\H,0,2.197799,1.54262175,-1.79372484\H,0,2.5
 9867896,0.99393333,-0.13043518\H,0,1.00330304,-0.45139537,0.96628768\H

 Normal termination of Gaussian 16 at Wed Apr  9 14:04:20 2025.
