 Gaussian 16, Revision C.01,

 ----------------------------------------------------------------------
 #t hf aug-cc-pvdz symm=none int=(grid=ultrafine) guess=(read,tcheck) s
 table=(opt,rrhf)
 ----------------------------------------------------------------------
 -----
 title
 -----
 Symbolic Z-matrix:
 Charge =  0 Multiplicity = 1

 SCF Done:  E(RHF) =  -301.655237499     A.U. after   15 cycles
 Normal termination of Gaussian 16 at Wed Apr  9 03:46:31 2025.
 Gaussian 16:  ES64L-G16RevC.01  3-Jul-2019

 ----------------------------------------------------------------------
 #t hf aug-cc-pvdz iop(5/13=1,5/36=2,99/5=2) pseudo=read geom=check gue
 ss=(read,tcheck) scf=(maxcycle=1)
 ----------------------------------------------------------------------
 -----
 title
 -----
 Structure from the checkpoint file:  "Grambow2020_wb97xd3_007932_reverse_mol2.chk"
 Charge =  0 Multiplicity = 1

                         Standard orientation:
 ---------------------------------------------------------------------
 Center     Atomic      Atomic             Coordinates (Angstroms)
 Number     Number       Type             X           Y           Z
 ---------------------------------------------------------------------
      1          6           0       -1.671435    0.633182    0.076774
      2          6           0       -1.520788   -0.878813    0.182014
      3          6           0       -0.243297   -0.718466   -0.189743
      4          7           0        1.065476   -1.211425   -0.071457
      5          6           0        1.756666   -0.154116    0.112350
      6          6           0        0.954985    1.145152    0.132959
      7          7           0       -0.272610    0.657904   -0.470587
      8          1           0       -1.739480    1.135857    1.043101
      9          1           0       -2.404363    1.047991   -0.617060
     10          1           0        0.845027    1.472918    1.178505
     11          1           0       -2.163452   -1.695742    0.457739
     12          1           0        2.829019   -0.200434    0.276462
     13          1           0        1.426391    1.952417   -0.430567
 ---------------------------------------------------------------------

 SCF Done:  E(RHF) =  -301.742402105     A.U. after    2 cycles

 The electronic state is 1-A.
 Alpha  occ. eigenvalues --  -15.64601 -15.62629 -11.31548 -11.30495 -11.29184
 Alpha  occ. eigenvalues --  -11.28073 -11.22593  -1.31317  -1.18999  -1.05405
 Alpha  occ. eigenvalues --   -0.92099  -0.89423  -0.81005  -0.71148  -0.68960
 Alpha  occ. eigenvalues --   -0.67546  -0.63650  -0.60078  -0.55704  -0.52681
 Alpha  occ. eigenvalues --   -0.51070  -0.48265  -0.43737  -0.40812  -0.30806
 Alpha virt. eigenvalues --    0.03012   0.03729   0.04462   0.04796   0.06275
 Alpha virt. eigenvalues --    0.07211   0.08815   0.09079   0.10464   0.11975
 Alpha virt. eigenvalues --    0.12479   0.12973   0.13239   0.14388   0.14888

 Mulliken charges:
               1
     1  C    0.756584
     2  C    0.518199
     3  C    0.258220
     4  N   -0.595628
     5  C    0.250551
     6  C    0.685818
     7  N   -0.812746
     8  H   -0.153340
     9  H   -0.192490
    10  H   -0.067239
    11  H   -0.256616
    12  H   -0.226800
    13  H   -0.164513
 Sum of Mulliken charges =   0.00000

 Dipole moment (field-independent basis, Debye):
    X=              0.6638    Y=              2.5189    Z=              1.4450  Tot=              2.9789

 Test job not archived.
 1\1\GINC-SE084\SP\RHF\Aug-CC-pVDZ\C5H6N2\OHZDE\09-Apr-2025\0\\#t hf au
 g-cc-pvdz iop(5/13=1,5/36=2,99/5=2) pseudo=read geom=check guess=(read
 ,tcheck) scf=(maxcycle=1)\\title\\0,1\C,0,-1.54327432,-0.43685556,0.23
 400051\C,0,-1.32570084,0.98624782,0.73133174\C,0,-0.00957079,0.7376673
 6,0.68766456\N,0,1.26420855,1.2878393,0.47627749\C,0,1.82508544,0.4323
 1627,-0.28721942\C,0,0.95991153,-0.77162768,-0.65219401\N,0,-0.0598946
 6,-0.63049973,0.37188904\H,0,-1.86626845,-0.49351175,-0.80694368\H,0,-
 2.11922395,-1.13244648,0.84644633\H,0,0.58888497,-0.63813592,-1.680399

 Normal termination of Gaussian 16 at Wed Apr  9 03:46:37 2025.
