 Gaussian 16, Revision C.01,

 ----------------------------------------------------------------------
 #t hf aug-cc-pvdz symm=none int=(grid=ultrafine) guess=(read,tcheck) s
 table=(opt,rrhf)
 ----------------------------------------------------------------------
 -----
 title
 -----
 Symbolic Z-matrix:
 Charge =  0 Multiplicity = 1

 SCF Done:  E(RHF) =  -289.017807587     A.U. after   15 cycles

 1\1\GINC-SE454\Stability\RHF\Aug-CC-pVDZ\C6H13N1\OHZDE\09-Apr-2025\0\\
 #t hf aug-cc-pvdz symm=none int=(grid=ultrafine) guess=(read,tcheck) s
 table=(opt,rrhf)\\title\\0,1\C,0,-1.7061035,1.84946971,0.58294514\C,0,
 -0.75921616,0.67937868,0.63347927\N,0,-0.86175497,-0.32403974,-0.42725
 458\C,0,-1.02176077,-1.69837384,-0.29192013\C,0,0.26170834,0.35541138,
 -0.36965044\C,0,1.53116342,-1.37615764,0.66475441\C,0,1.27926765,0.900
 00004,-1.2833935\H,0,-2.6628109,1.60046113,1.04762916\H,0,-1.28421239,
 2.70116712,1.12048973\H,0,-1.8924971,2.15167501,-0.44843759\H,0,-0.563

 Normal termination of Gaussian 16 at Wed Apr  9 17:04:55 2025.
 Gaussian 16:  ES64L-G16RevC.01  3-Jul-2019

 ----------------------------------------------------------------------
 #t hf aug-cc-pvdz iop(5/13=1,5/36=2,99/5=2) pseudo=read geom=check gue
 ss=(read,tcheck) scf=(maxcycle=1)
 ----------------------------------------------------------------------
 -----
 title
 -----
 Structure from the checkpoint file:  "Grambow2020_wb97xd3_009136_reverse_mol1.chk"
 Charge =  0 Multiplicity = 1

                         Standard orientation:
 ---------------------------------------------------------------------
 Center     Atomic      Atomic             Coordinates (Angstroms)
 Number     Number       Type             X           Y           Z
 ---------------------------------------------------------------------
      1          6           0       -2.461524   -0.009369    0.387541
      2          6           0       -0.975344   -0.190777    0.550710
      3          7           0       -0.208951   -0.609942   -0.623794
      4          6           0        0.656303   -1.691974   -0.738915
      5          6           0        0.065849    0.580110   -0.138609
      6          6           0        2.071484   -0.074971    0.969604
      7          6           0        0.469748    1.910888   -0.621127
      8          1           0       -2.988164   -0.958996    0.506215
      9          1           0       -2.843400    0.681968    1.141568
     10          1           0       -2.695830    0.393474   -0.598684
     11          1           0       -0.661795   -0.642294    1.495668
     12          1           0        1.254568   -1.664632   -1.649133
     13          1           0        1.477960   -1.083089    0.242891
     14          1           0        0.169641   -2.652939   -0.586045
     15          1           0        1.629202    0.517852    1.771536
     16          1           0        2.727002   -0.807735    1.451696
     17          1           0        2.697564    0.568205    0.349641
     18          1           0       -0.393493    2.491535   -0.959379
     19          1           0        1.180057    1.818057   -1.442755
     20          1           0        0.950246    2.464752    0.188119
 ---------------------------------------------------------------------

 SCF Done:  E(RHF) =  -289.109461365     A.U. after    2 cycles

 The electronic state is 1-A.
 Alpha  occ. eigenvalues --  -15.66836 -11.31284 -11.29213 -11.25826 -11.23759
 Alpha  occ. eigenvalues --  -11.23454 -11.18956  -1.31206  -1.03336  -1.01547
 Alpha  occ. eigenvalues --   -0.95345  -0.89215  -0.80328  -0.73171  -0.68109
 Alpha  occ. eigenvalues --   -0.63946  -0.62074  -0.59985  -0.58430  -0.57168
 Alpha  occ. eigenvalues --   -0.56792  -0.54019  -0.51337  -0.49789  -0.48290
 Alpha  occ. eigenvalues --   -0.44537  -0.37462  -0.26648
 Alpha virt. eigenvalues --    0.03059   0.03801   0.04239   0.04612   0.06279
 Alpha virt. eigenvalues --    0.06492   0.06769   0.06913   0.07408   0.08651
 Alpha virt. eigenvalues --    0.09113   0.09535   0.10419   0.11382   0.11852

 Mulliken charges:
               1
     1  C    0.361526
     2  C    0.195563
     3  N   -0.477352
     4  C    0.424723
     5  C   -0.627439
     6  C    0.583877
     7  C    0.493388
     8  H    0.042678
     9  H    0.089802
    10  H   -0.035776
    11  H   -0.430651
    12  H   -0.243669
    13  H    0.214228
    14  H   -0.296744
    15  H   -0.206510
    16  H   -0.220163
    17  H   -0.161565
    18  H    0.128773
    19  H    0.083388
    20  H    0.081921
 Sum of Mulliken charges =  -0.00000

 Dipole moment (field-independent basis, Debye):
    X=             -1.9074    Y=              1.4493    Z=             -0.3953  Tot=              2.4279

 Test job not archived.
 1\1\GINC-SE454\SP\RHF\Aug-CC-pVDZ\C6H13N1\OHZDE\09-Apr-2025\0\\#t hf a
 ug-cc-pvdz iop(5/13=1,5/36=2,99/5=2) pseudo=read geom=check guess=(rea
 d,tcheck) scf=(maxcycle=1)\\title\\0,1\C,0,-1.7061035,1.84946971,0.582
 94514\C,0,-0.75921616,0.67937868,0.63347927\N,0,-0.86175497,-0.3240397
 4,-0.42725458\C,0,-1.02176077,-1.69837384,-0.29192013\C,0,0.26170834,0
 .35541138,-0.36965044\C,0,1.53116342,-1.37615764,0.66475441\C,0,1.2792
 6765,0.90000004,-1.2833935\H,0,-2.6628109,1.60046113,1.04762916\H,0,-1
 .28421239,2.70116712,1.12048973\H,0,-1.8924971,2.15167501,-0.44843759\

 Normal termination of Gaussian 16 at Wed Apr  9 17:05:03 2025.
