 Gaussian 16, Revision C.01,

 ----------------------------------------------------------------------
 #t hf aug-cc-pvdz symm=none int=(grid=ultrafine) guess=(read,tcheck) s
 table=(opt,rrhf)
 ----------------------------------------------------------------------
 -----
 title
 -----
 Symbolic Z-matrix:
 Charge =  0 Multiplicity = 1

 SCF Done:  E(RHF) =  -380.596684560     A.U. after   15 cycles
 Normal termination of Gaussian 16 at Wed Apr  9 03:40:31 2025.
 Gaussian 16:  ES64L-G16RevC.01  3-Jul-2019

 ----------------------------------------------------------------------
 #t hf aug-cc-pvdz iop(5/13=1,5/36=2,99/5=2) pseudo=read geom=check gue
 ss=(read,tcheck) scf=(maxcycle=1)
 ----------------------------------------------------------------------
 -----
 title
 -----
 Structure from the checkpoint file:  "Grambow2020_wb97xd3_007511_forward_mol1.chk"
 Charge =  0 Multiplicity = 1

                         Standard orientation:
 ---------------------------------------------------------------------
 Center     Atomic      Atomic             Coordinates (Angstroms)
 Number     Number       Type             X           Y           Z
 ---------------------------------------------------------------------
      1          8           0        1.906433   -1.187679   -0.471346
      2          6           0        1.881671    0.112171   -0.247373
      3          6           0        0.906333    0.648764    0.792444
      4          6           0       -0.471101    0.540068    0.163022
      5          8           0       -0.881766    1.383777   -0.595771
      6          6           0       -1.278192   -0.691685    0.466302
      7          8           0       -2.500592   -0.695218   -0.197285
      8          1           0        2.975574   -0.460043    0.104746
      9          1           0        2.005401    0.798961   -1.100538
     10          1           0        3.105321    0.460098    0.365217
     11          1           0        1.104353    1.697878    1.015445
     12          1           0        0.975631    0.038234    1.692756
     13          1           0       -0.649342   -1.549499    0.183567
     14          1           0       -1.423508   -0.747976    1.554030
     15          1           0       -2.518305    0.099390   -0.746370
 ---------------------------------------------------------------------

 SCF Done:  E(RHF) =  -380.716510064     A.U. after    2 cycles

 The electronic state is 1-A.
 Alpha  occ. eigenvalues --  -20.59401 -20.57468 -20.53624 -11.39838 -11.36926
 Alpha  occ. eigenvalues --  -11.30426 -11.28419  -1.39592  -1.33418  -1.33005
 Alpha  occ. eigenvalues --   -1.08000  -0.98485  -0.89149  -0.78756  -0.75958
 Alpha  occ. eigenvalues --   -0.73109  -0.68814  -0.67870  -0.65863  -0.62242
 Alpha  occ. eigenvalues --   -0.60877  -0.58990  -0.55535  -0.55043  -0.47262
 Alpha  occ. eigenvalues --   -0.46047  -0.44053  -0.42957
 Alpha virt. eigenvalues --    0.02000   0.03872   0.04420   0.04913   0.06414
 Alpha virt. eigenvalues --    0.06965   0.07160   0.07488   0.09345   0.10972
 Alpha virt. eigenvalues --    0.11265   0.12809   0.13415   0.14191   0.14293

 Mulliken charges:
               1
     1  O   -0.861514
     2  C    0.558780
     3  C    0.643164
     4  C   -0.233872
     5  O   -0.596814
     6  C    0.673988
     7  O   -0.523662
     8  H    0.176932
     9  H   -0.084526
    10  H    0.125634
    11  H   -0.046508
    12  H   -0.075293
    13  H    0.050647
    14  H    0.031679
    15  H    0.161366
 Sum of Mulliken charges =  -0.00000

 Dipole moment (field-independent basis, Debye):
    X=              3.6043    Y=              2.5256    Z=              3.0744  Tot=              5.3686

 Test job not archived.
 1\1\GINC-SE021\SP\RHF\Aug-CC-pVDZ\C4H8O3\OHZDE\09-Apr-2025\0\\#t hf au
 g-cc-pvdz iop(5/13=1,5/36=2,99/5=2) pseudo=read geom=check guess=(read
 ,tcheck) scf=(maxcycle=1)\\title\\0,1\O,0,-1.00173336,1.82321681,0.061
 60366\C,0,-1.28116588,0.63398481,-0.43642436\C,0,-0.83619214,-0.598514
 55,0.34035098\C,0,0.67080392,-0.67295755,0.17084213\O,0,1.16728143,-1.
 165623,-0.81254349\C,0,1.52195694,-0.04902244,1.24174545\O,0,2.8797787
 4,-0.14495337,0.95584326\H,0,-2.31292284,1.30696911,-0.07502501\H,0,-1
 .21733271,0.48832655,-1.52710644\H,0,-2.68188199,0.46713441,-0.3748328

 Normal termination of Gaussian 16 at Wed Apr  9 03:40:36 2025.
