 Gaussian 16, Revision C.01,

 ----------------------------------------------------------------------
 #t hf aug-cc-pvdz symm=none int=(grid=ultrafine) guess=(read,tcheck) s
 table=(opt,rrhf)
 ----------------------------------------------------------------------
 -----
 title
 -----
 Symbolic Z-matrix:
 Charge =  0 Multiplicity = 1

 SCF Done:  E(RHF) =  -337.467157159     A.U. after   15 cycles
 Normal termination of Gaussian 16 at Wed Apr  9 16:36:47 2025.
 Gaussian 16:  ES64L-G16RevC.01  3-Jul-2019

 ----------------------------------------------------------------------
 #t hf aug-cc-pvdz iop(5/13=1,5/36=2,99/5=2) pseudo=read geom=check gue
 ss=(read,tcheck) scf=(maxcycle=1)
 ----------------------------------------------------------------------
 -----
 title
 -----
 Structure from the checkpoint file:  "Grambow2020_wb97xd3_008690_reverse_mol1.chk"
 Charge =  0 Multiplicity = 1

                         Standard orientation:
 ---------------------------------------------------------------------
 Center     Atomic      Atomic             Coordinates (Angstroms)
 Number     Number       Type             X           Y           Z
 ---------------------------------------------------------------------
      1          8           0        2.452987    0.434158   -0.157079
      2          6           0        1.695528   -0.483248    0.007990
      3          6           0        0.234015   -0.288341    0.146764
      4          6           0       -0.806075   -1.272806   -0.091342
      5          7           0       -1.976757   -0.497879   -0.134082
      6          6           0       -1.650467    0.762554   -0.054425
      7          7           0       -0.333196    0.973909    0.129146
      8          1           0        2.023048   -1.535505    0.050735
      9          1           0       -0.122552   -1.014622    1.088929
     10          1           0       -2.350808    1.587204   -0.109881
     11          1           0        0.158072    1.848495    0.207478
 ---------------------------------------------------------------------

 SCF Done:  E(RHF) =  -337.565993723     A.U. after    2 cycles

 The electronic state is 1-A.
 Alpha  occ. eigenvalues --  -20.60672 -15.71218 -15.62864 -11.38289 -11.36294
 Alpha  occ. eigenvalues --  -11.33177 -11.28013  -1.40086  -1.34882  -1.16380
 Alpha  occ. eigenvalues --   -1.08481  -0.90772  -0.85490  -0.81136  -0.77676
 Alpha  occ. eigenvalues --   -0.70481  -0.68347  -0.65541  -0.62901  -0.57779
 Alpha  occ. eigenvalues --   -0.49547  -0.46830  -0.43677  -0.42128  -0.36684
 Alpha virt. eigenvalues --    0.02161   0.03669   0.04885   0.05185   0.06514
 Alpha virt. eigenvalues --    0.08494   0.09369   0.09635   0.10042   0.11949
 Alpha virt. eigenvalues --    0.13193   0.13552   0.14128   0.14244   0.15232

 Mulliken charges:
               1
     1  O   -0.465867
     2  C    1.040936
     3  C    0.187211
     4  C   -0.416841
     5  N   -0.526333
     6  C    0.744639
     7  N   -0.406652
     8  H   -0.093511
     9  H    0.203199
    10  H   -0.189427
    11  H   -0.077355
 Sum of Mulliken charges =  -0.00000

 Dipole moment (field-independent basis, Debye):
    X=              0.4091    Y=              3.5601    Z=              1.4880  Tot=              3.8802

 Test job not archived.
 1\1\GINC-SE219\SP\RHF\Aug-CC-pVDZ\C4H4N2O1\OHZDE\09-Apr-2025\0\\#t hf
 aug-cc-pvdz iop(5/13=1,5/36=2,99/5=2) pseudo=read geom=check guess=(re
 ad,tcheck) scf=(maxcycle=1)\\title\\0,1\O,0,-2.24933879,-1.05545468,-0
 .6027198\C,0,-1.81772211,0.01223695,-0.26159517\C,0,-0.38396311,0.2267
 8573,0.04101533\C,0,0.33388452,1.48857083,0.02531139\N,0,1.68065589,1.
 09124805,0.05959537\C,0,1.73789736,-0.2096718,-0.01679001\N,0,0.531912
 89,-0.80897567,-0.01966079\H,0,-2.44575341,0.91368179,-0.1650784\H,0,-
 0.34894477,0.90260558,1.08233213\H,0,2.65371095,-0.78685904,-0.0585197

 Normal termination of Gaussian 16 at Wed Apr  9 16:36:51 2025.
