 Gaussian 16, Revision C.01,

 ----------------------------------------------------------------------
 #t hf aug-cc-pvdz symm=none int=(grid=ultrafine) guess=(read,tcheck) s
 table=(opt,rrhf)
 ----------------------------------------------------------------------
 -----
 title
 -----
 Symbolic Z-matrix:
 Charge =  0 Multiplicity = 1

 SCF Done:  E(RHF) =  -337.573289003     A.U. after   14 cycles
 Normal termination of Gaussian 16 at Wed Apr  9 16:44:52 2025.
 Gaussian 16:  ES64L-G16RevC.01  3-Jul-2019

 ----------------------------------------------------------------------
 #t hf aug-cc-pvdz iop(5/13=1,5/36=2,99/5=2) pseudo=read geom=check gue
 ss=(read,tcheck) scf=(maxcycle=1)
 ----------------------------------------------------------------------
 -----
 title
 -----
 Structure from the checkpoint file:  "Grambow2020_wb97xd3_008701_reverse_mol2.chk"
 Charge =  0 Multiplicity = 1

                         Standard orientation:
 ---------------------------------------------------------------------
 Center     Atomic      Atomic             Coordinates (Angstroms)
 Number     Number       Type             X           Y           Z
 ---------------------------------------------------------------------
      1          8           0       -2.452469   -0.328255   -0.000443
      2          6           0       -1.518192    0.596580   -0.000107
      3          6           0       -0.201001    0.291603    0.000787
      4          6           0        0.969451    1.120528    0.000130
      5          7           0        2.028734    0.364788   -0.000701
      6          6           0        1.512788   -0.928284   -0.000285
      7          7           0        0.221361   -1.035382    0.000933
      8          1           0       -1.900731    1.610580   -0.001362
      9          1           0        1.017021    2.201980    0.001619
     10          1           0        2.173785   -1.784823   -0.001339
     11          1           0       -1.999264   -1.190101   -0.000144
 ---------------------------------------------------------------------

 SCF Done:  E(RHF) =  -337.673703076     A.U. after    2 cycles

 The electronic state is 1-A.
 Alpha  occ. eigenvalues --  -20.64866 -15.62795 -15.62705 -11.37243 -11.31191
 Alpha  occ. eigenvalues --  -11.30668 -11.27429  -1.42724  -1.30639  -1.13258
 Alpha  occ. eigenvalues --   -1.05353  -0.92733  -0.83986  -0.79779  -0.75022
 Alpha  occ. eigenvalues --   -0.70172  -0.64864  -0.64746  -0.59919  -0.57448
 Alpha  occ. eigenvalues --   -0.57402  -0.47110  -0.43369  -0.39451  -0.35148
 Alpha virt. eigenvalues --    0.02843   0.04086   0.04288   0.04570   0.06075
 Alpha virt. eigenvalues --    0.07838   0.09738   0.10819   0.11682   0.12077
 Alpha virt. eigenvalues --    0.13122   0.13912   0.14272   0.14736   0.15517

 Mulliken charges:
               1
     1  O   -0.449710
     2  C    0.880238
     3  C    0.301391
     4  C    0.514518
     5  N   -0.641920
     6  C    0.607240
     7  N   -0.713791
     8  H   -0.233268
     9  H   -0.256159
    10  H   -0.223271
    11  H    0.214732
 Sum of Mulliken charges =  -0.00000

 Dipole moment (field-independent basis, Debye):
    X=             -1.7603    Y=              1.3099    Z=             -0.0008  Tot=              2.1942

 Test job not archived.
 1\1\GINC-SE174\SP\RHF\Aug-CC-pVDZ\C4H4N2O1\OHZDE\09-Apr-2025\0\\#t hf
 aug-cc-pvdz iop(5/13=1,5/36=2,99/5=2) pseudo=read geom=check guess=(re
 ad,tcheck) scf=(maxcycle=1)\\title\\0,1\O,0,-1.90965845,-1.57619724,0.
 09396303\C,0,-1.56464994,-0.31049885,0.00929238\C,0,-0.27200693,0.0854
 8847,-0.00717653\C,0,0.32544404,1.38652925,-0.09332417\N,0,1.62081112,
 1.26431799,-0.07559706\C,0,1.82232745,-0.10979292,0.02159569\N,0,0.758
 46321,-0.84837361,0.0657013\H,0,-2.40380648,0.37310091,-0.04586703\H,0
 ,-0.17534421,2.34376002,-0.16205581\H,0,2.82355539,-0.51831581,0.05664

 Normal termination of Gaussian 16 at Wed Apr  9 16:44:56 2025.
