 Gaussian 16, Revision C.01,

 ----------------------------------------------------------------------
 #t hf aug-cc-pvdz symm=none int=(grid=ultrafine) guess=(read,tcheck) s
 table=(opt,rrhf)
 ----------------------------------------------------------------------
 -----
 title
 -----
 Symbolic Z-matrix:
 Charge =  0 Multiplicity = 1

 SCF Done:  E(RHF) =  -308.804012637     A.U. after   16 cycles

 1\1\GINC-SE273\Stability\RHF\Aug-CC-pVDZ\C6H12O1\OHZDE\09-Apr-2025\0\\
 #t hf aug-cc-pvdz symm=none int=(grid=ultrafine) guess=(read,tcheck) s
 table=(opt,rrhf)\\title\\0,1\C,0,2.43860984,-0.49466538,-0.35203716\O,
 0,1.07425716,-0.81944524,-0.26655332\C,0,0.40116746,-0.05142948,0.6865
 2258\C,0,0.10029129,1.40667042,0.29617982\C,0,-1.11536466,1.00795831,-
 0.3147353\C,0,-1.17752899,-0.28973175,0.48160153\C,0,-1.63264281,-1.58
 785378,-0.14748657\H,0,2.94164763,-0.62506884,0.61500563\H,0,2.5765007
 5,0.54235421,-0.68163477\H,0,2.8882061,-1.16812819,-1.08021715\H,0,0.8

 Normal termination of Gaussian 16 at Wed Apr  9 03:53:40 2025.
 Gaussian 16:  ES64L-G16RevC.01  3-Jul-2019

 ----------------------------------------------------------------------
 #t hf aug-cc-pvdz iop(5/13=1,5/36=2,99/5=2) pseudo=read geom=check gue
 ss=(read,tcheck) scf=(maxcycle=1)
 ----------------------------------------------------------------------
 -----
 title
 -----
 Structure from the checkpoint file:  "Grambow2020_wb97xd3_008395_forward_mol1.chk"
 Charge =  0 Multiplicity = 1

                         Standard orientation:
 ---------------------------------------------------------------------
 Center     Atomic      Atomic             Coordinates (Angstroms)
 Number     Number       Type             X           Y           Z
 ---------------------------------------------------------------------
      1          6           0        2.417344   -0.356943   -0.220454
      2          8           0        1.057051   -0.707831   -0.193456
      3          6           0        0.315434    0.095610    0.675877
      4          6           0        0.008497    1.522809    0.188187
      5          6           0       -1.162070    1.063353   -0.466552
      6          6           0       -1.243914   -0.189805    0.396531
      7          6           0       -1.636442   -1.530589   -0.183315
      8          1           0        2.866730   -0.422524    0.779033
      9          1           0        2.553251    0.663340   -0.599414
     10          1           0        2.921135   -1.058805   -0.883416
     11          1           0        0.668967   -0.036961    1.708747
     12          1           0       -0.029628    2.294764    0.945171
     13          1           0       -0.156794    2.647553   -0.761538
     14          1           0       -1.255343    0.977788   -1.540191
     15          1           0       -1.230195    2.592214   -0.791617
     16          1           0       -1.769341    0.005602    1.333456
     17          1           0       -2.709911   -1.558087   -0.383472
     18          1           0       -1.102714   -1.728340   -1.112690
     19          1           0       -1.405659   -2.340502    0.511945
 ---------------------------------------------------------------------

 SCF Done:  E(RHF) =  -308.902525724     A.U. after    2 cycles

 The electronic state is 1-A.
 Alpha  occ. eigenvalues --  -20.57706 -11.30171 -11.28354 -11.27024 -11.25611
 Alpha  occ. eigenvalues --  -11.25140 -11.22269  -1.35123  -1.14655  -0.99408
 Alpha  occ. eigenvalues --   -0.95296  -0.87340  -0.84250  -0.75161  -0.70923
 Alpha  occ. eigenvalues --   -0.65941  -0.65487  -0.61837  -0.60104  -0.56722
 Alpha  occ. eigenvalues --   -0.55051  -0.53453  -0.50541  -0.49825  -0.44764
 Alpha  occ. eigenvalues --   -0.44233  -0.37937  -0.34630
 Alpha virt. eigenvalues --    0.03288   0.04229   0.04440   0.04630   0.06047
 Alpha virt. eigenvalues --    0.06135   0.06509   0.06741   0.07279   0.08324
 Alpha virt. eigenvalues --    0.08895   0.09840   0.09993   0.12435   0.13107

 Mulliken charges:
               1
     1  C    0.725459
     2  O   -0.730386
     3  C    0.911912
     4  C    0.010161
     5  C    0.369533
     6  C   -0.523282
     7  C    0.613298
     8  H   -0.069390
     9  H   -0.062195
    10  H   -0.260119
    11  H   -0.249895
    12  H   -0.297314
    13  H    0.174158
    14  H   -0.457116
    15  H    0.133675
    16  H   -0.243305
    17  H   -0.018263
    18  H   -0.003577
    19  H   -0.023354
 Sum of Mulliken charges =  -0.00000

 Dipole moment (field-independent basis, Debye):
    X=              0.6336    Y=             -0.5876    Z=              1.2342  Tot=              1.5066

 Test job not archived.
 1\1\GINC-SE273\SP\RHF\Aug-CC-pVDZ\C6H12O1\OHZDE\09-Apr-2025\0\\#t hf a
 ug-cc-pvdz iop(5/13=1,5/36=2,99/5=2) pseudo=read geom=check guess=(rea
 d,tcheck) scf=(maxcycle=1)\\title\\0,1\C,0,2.43860984,-0.49466538,-0.3
 5203716\O,0,1.07425716,-0.81944524,-0.26655332\C,0,0.40116746,-0.05142
 948,0.68652258\C,0,0.10029129,1.40667042,0.29617982\C,0,-1.11536466,1.
 00795831,-0.3147353\C,0,-1.17752899,-0.28973175,0.48160153\C,0,-1.6326
 4281,-1.58785378,-0.14748657\H,0,2.94164763,-0.62506884,0.61500563\H,0
 ,2.57650075,0.54235421,-0.68163477\H,0,2.8882061,-1.16812819,-1.080217

 Normal termination of Gaussian 16 at Wed Apr  9 03:53:48 2025.
