 Gaussian 16, Revision C.01,

 ----------------------------------------------------------------------
 #t hf aug-cc-pvdz symm=none int=(grid=ultrafine) guess=(read,tcheck) s
 table=(opt,rrhf)
 ----------------------------------------------------------------------
 -----
 title
 -----
 Symbolic Z-matrix:
 Charge =  0 Multiplicity = 1

 SCF Done:  E(RHF) =  -338.505468745     A.U. after   17 cycles
 Normal termination of Gaussian 16 at Wed Apr  9 16:30:03 2025.
 Gaussian 16:  ES64L-G16RevC.01  3-Jul-2019

 ----------------------------------------------------------------------
 #t hf aug-cc-pvdz iop(5/13=1,5/36=2,99/5=2) pseudo=read geom=check gue
 ss=(read,tcheck) scf=(maxcycle=1)
 ----------------------------------------------------------------------
 -----
 title
 -----
 Structure from the checkpoint file:  "Grambow2020_wb97xd3_008476_forward_mol1.chk"
 Charge =  0 Multiplicity = 1

                         Standard orientation:
 ---------------------------------------------------------------------
 Center     Atomic      Atomic             Coordinates (Angstroms)
 Number     Number       Type             X           Y           Z
 ---------------------------------------------------------------------
      1          7           0       -0.624025    1.647736    0.415903
      2          6           0       -0.292533    0.657638   -0.391676
      3          6           0        0.856533   -0.210375   -0.164167
      4          8           0        2.106451    0.276020   -0.187199
      5          6           0        0.291563   -1.338684    0.303156
      6          6           0       -1.198006   -1.271412    0.195915
      7          7           0       -1.342749   -0.143252   -0.687448
      8          1           0        0.186718    2.094776    0.833856
      9          1           0       -1.124455    0.730526    1.271098
     10          1           0        2.712401   -0.376319    0.174493
     11          1           0        0.798502   -2.152376    0.804922
     12          1           0       -1.355901   -0.364914    1.316019
     13          1           0       -2.246805    0.305754   -0.661354
 ---------------------------------------------------------------------

 SCF Done:  E(RHF) =  -338.604271330     A.U. after    2 cycles

 The electronic state is 1-A.
 Alpha  occ. eigenvalues --  -20.64463 -15.67739 -15.65911 -11.36901 -11.34077
 Alpha  occ. eigenvalues --  -11.26694 -11.26047  -1.41272  -1.32035  -1.17140
 Alpha  occ. eigenvalues --   -1.07060  -0.93538  -0.83458  -0.81757  -0.75221
 Alpha  occ. eigenvalues --   -0.71434  -0.67906  -0.65623  -0.63623  -0.59201
 Alpha  occ. eigenvalues --   -0.56373  -0.50851  -0.46386  -0.42158  -0.37652
 Alpha  occ. eigenvalues --   -0.31314
 Alpha virt. eigenvalues --    0.02215   0.03909   0.04736   0.05432   0.06489
 Alpha virt. eigenvalues --    0.07161   0.08762   0.09306   0.10257   0.10339
 Alpha virt. eigenvalues --    0.11697   0.12328   0.13659   0.14232   0.15230

 Mulliken charges:
               1
     1  N   -0.525882
     2  C    0.185057
     3  C    0.445377
     4  O   -0.556306
     5  C    0.738583
     6  C   -0.350619
     7  N   -0.320153
     8  H    0.031473
     9  H    0.336392
    10  H    0.160342
    11  H   -0.326256
    12  H    0.167835
    13  H    0.014158
 Sum of Mulliken charges =  -0.00000

 Dipole moment (field-independent basis, Debye):
    X=              3.5221    Y=              1.6884    Z=              0.8131  Tot=              3.9896

 Test job not archived.
 1\1\GINC-SE174\SP\RHF\Aug-CC-pVDZ\C4H6N2O1\OHZDE\09-Apr-2025\0\\#t hf
 aug-cc-pvdz iop(5/13=1,5/36=2,99/5=2) pseudo=read geom=check guess=(re
 ad,tcheck) scf=(maxcycle=1)\\title\\0,1\N,0,1.47632327,0.94348155,0.11
 545801\C,0,0.58748687,0.32179956,-0.63677004\C,0,0.03518332,-0.9866503
 1,-0.30740683\O,0,0.81606984,-2.07651233,-0.2647211\C,0,-1.19091499,-0
 .68554817,0.15808624\C,0,-1.4969084,0.76317921,-0.04782313\N,0,-0.4532
 3633,1.11852599,-0.9743786\H,0,2.11671172,0.29966529,0.5706896\H,0,0.4
 7649824,1.2617267,0.96524154\H,0,0.3399291,-2.79734138,0.15627605\H,0,

 Normal termination of Gaussian 16 at Wed Apr  9 16:30:07 2025.
