 Gaussian 16, Revision C.01,

 ----------------------------------------------------------------------
 #t hf aug-cc-pvdz symm=none int=(grid=ultrafine) guess=(read,tcheck) s
 table=(opt,rrhf)
 ----------------------------------------------------------------------
 -----
 title
 -----
 Symbolic Z-matrix:
 Charge =  0 Multiplicity = 1

 SCF Done:  E(RHF) =  -394.413563593     A.U. after   14 cycles
 Normal termination of Gaussian 16 at Wed Apr  9 15:36:39 2025.
 Gaussian 16:  ES64L-G16RevC.01  3-Jul-2019

 ----------------------------------------------------------------------
 #t hf aug-cc-pvdz iop(5/13=1,5/36=2,99/5=2) pseudo=read geom=check gue
 ss=(read,tcheck) scf=(maxcycle=1)
 ----------------------------------------------------------------------
 -----
 title
 -----
 Structure from the checkpoint file:  "Grambow2020_wb97xd3_007198_reverse_mol2.chk"
 Charge =  0 Multiplicity = 1

                         Standard orientation:
 ---------------------------------------------------------------------
 Center     Atomic      Atomic             Coordinates (Angstroms)
 Number     Number       Type             X           Y           Z
 ---------------------------------------------------------------------
      1          7           0        0.415200    1.592629   -0.001007
      2          6           0       -0.065440    0.374597    0.012762
      3          8           0       -1.421594    0.473982   -0.003962
      4          6           0       -2.081803   -0.726484    0.007545
      5          8           0       -3.263839   -0.777437   -0.008530
      6          6           0        3.160399   -0.059449    0.004371
      7          8           0        3.578972   -1.100450   -0.007559
      8          1           0       -0.168974    2.420404   -0.019788
      9          1           0       -1.380306   -1.571708    0.032492
     10          1           0        1.415628    1.702154    0.006682
 ---------------------------------------------------------------------

 SCF Done:  E(RHF) =  -394.541781818     A.U. after    2 cycles

 The electronic state is 1-A.
 Alpha  occ. eigenvalues --  -20.68906 -20.64881 -20.58412 -15.68106 -11.40584
 Alpha  occ. eigenvalues --  -11.38065 -11.33977  -1.50066  -1.45309  -1.37193
 Alpha  occ. eigenvalues --   -1.22392  -0.93317  -0.83863  -0.82405  -0.77184
 Alpha  occ. eigenvalues --   -0.72904  -0.68108  -0.67697  -0.66578  -0.66562
 Alpha  occ. eigenvalues --   -0.63849  -0.56844  -0.54973  -0.49027  -0.47385
 Alpha  occ. eigenvalues --   -0.40605
 Alpha virt. eigenvalues --    0.02872   0.04811   0.05332   0.06642   0.08510
 Alpha virt. eigenvalues --    0.09243   0.09376   0.10850   0.11989   0.12872
 Alpha virt. eigenvalues --    0.13600   0.14947   0.15247   0.15658   0.16156

 Mulliken charges:
               1
     1  N    0.030545
     2  C    0.213697
     3  O   -0.641403
     4  C    0.833620
     5  O   -0.394062
     6  C    0.240921
     7  O   -0.231586
     8  H   -0.034442
     9  H   -0.101042
    10  H    0.083753
 Sum of Mulliken charges =  -0.00000

 Dipole moment (field-independent basis, Debye):
    X=              3.6975    Y=              2.5663    Z=              0.0220  Tot=              4.5009

 Test job not archived.
 1\1\GINC-SE120\SP\RHF\Aug-CC-pVDZ\C3H3N1O3\OHZDE\09-Apr-2025\0\\#t hf
 aug-cc-pvdz iop(5/13=1,5/36=2,99/5=2) pseudo=read geom=check guess=(re
 ad,tcheck) scf=(maxcycle=1)\\title\\0,1\N,0,-0.91610904,0.93360886,-0.
 55174297\C,0,0.01494437,0.14230481,-0.08080283\O,0,1.20872596,0.767199
 38,-0.26438422\C,0,2.29606439,0.06218856,0.18034257\O,0,3.39203139,0.4
 9731389,0.0824294\C,0,-2.74885802,-1.48083726,0.48603807\O,0,-2.710582
 7,-2.47538589,1.00414595\H,0,-0.71996989,1.83678799,-0.9672178\H,0,2.0
 0062168,-0.90425767,0.61141003\H,0,-1.87101215,0.62117932,-0.49293519\

 Normal termination of Gaussian 16 at Wed Apr  9 15:36:42 2025.
