 Gaussian 16, Revision C.01,

 ----------------------------------------------------------------------
 #t hf aug-cc-pvdz symm=none int=(grid=ultrafine) guess=(read,tcheck) s
 table=(opt,rrhf)
 ----------------------------------------------------------------------
 -----
 title
 -----
 Symbolic Z-matrix:
 Charge =  0 Multiplicity = 1

 SCF Done:  E(RHF) =  -317.595456691     A.U. after   16 cycles
 Normal termination of Gaussian 16 at Wed Apr  9 16:50:58 2025.
 Gaussian 16:  ES64L-G16RevC.01  3-Jul-2019

 ----------------------------------------------------------------------
 #t hf aug-cc-pvdz iop(5/13=1,5/36=2,99/5=2) pseudo=read geom=check gue
 ss=(read,tcheck) scf=(maxcycle=1)
 ----------------------------------------------------------------------
 -----
 title
 -----
 Structure from the checkpoint file:  "Grambow2020_wb97xd3_008976_reverse_mol1.chk"
 Charge =  0 Multiplicity = 1

                         Standard orientation:
 ---------------------------------------------------------------------
 Center     Atomic      Atomic             Coordinates (Angstroms)
 Number     Number       Type             X           Y           Z
 ---------------------------------------------------------------------
      1          7           0        2.277626   -0.014843   -0.081023
      2          6           0        0.892864   -0.037852   -0.011170
      3          6           0        0.149343    1.164600   -0.014167
      4          7           0       -1.158923    1.251492    0.051775
      5          6           0       -1.863764    0.096852   -0.037451
      6          7           0       -1.181393   -1.086336   -0.075425
      7          6           0        0.154583   -1.195439    0.036576
      8          1           0        2.711575    0.832821    0.244310
      9          1           0        2.747841   -0.839076    0.253584
     10          1           0        0.698885    2.106593   -0.025056
     11          1           0       -2.307539   -1.135889    0.303705
     12          1           0        0.589919   -2.185607    0.113433
 ---------------------------------------------------------------------

 SCF Done:  E(RHF) =  -317.687802252     A.U. after    2 cycles

 The electronic state is 1-A.
 Alpha  occ. eigenvalues --  -15.66578 -15.65379 -15.63211 -11.31375 -11.31275
 Alpha  occ. eigenvalues --  -11.30978 -11.28192  -1.29369  -1.21140  -1.17116
 Alpha  occ. eigenvalues --   -1.04577  -0.91922  -0.86814  -0.76606  -0.72712
 Alpha  occ. eigenvalues --   -0.68036  -0.65638  -0.61259  -0.59477  -0.55938
 Alpha  occ. eigenvalues --   -0.50419  -0.43765  -0.41041  -0.34960  -0.32610
 Alpha virt. eigenvalues --    0.02128   0.03098   0.04714   0.06110   0.06494
 Alpha virt. eigenvalues --    0.07416   0.07987   0.10604   0.11100   0.11505
 Alpha virt. eigenvalues --    0.12835   0.13215   0.13538   0.13939   0.14623

 Mulliken charges:
               1
     1  N   -0.376578
     2  C    0.418712
     3  C    0.645478
     4  N   -0.548797
     5  C   -0.096727
     6  N   -0.678143
     7  C    0.981977
     8  H   -0.044025
     9  H   -0.028039
    10  H   -0.340867
    11  H    0.382732
    12  H   -0.315723
 Sum of Mulliken charges =  -0.00000

 Dipole moment (field-independent basis, Debye):
    X=              5.0612    Y=             -1.9086    Z=              1.4800  Tot=              5.6080

 Test job not archived.
 1\1\GINC-SE057\SP\RHF\Aug-CC-pVDZ\C4H5N3\OHZDE\09-Apr-2025\0\\#t hf au
 g-cc-pvdz iop(5/13=1,5/36=2,99/5=2) pseudo=read geom=check guess=(read
 ,tcheck) scf=(maxcycle=1)\\title\\0,1\N,0,-1.9769443,-0.04650359,0.158
 29413\C,0,-0.59306674,-0.00312298,0.08100349\C,0,0.09242113,1.2333151,
 0.08806377\N,0,1.39468511,1.38280436,0.01581497\C,0,2.15413687,0.26247
 974,0.09366848\N,0,1.52904205,-0.95206718,0.12738238\C,0,0.199164,-1.1
 2392598,0.0216936\H,0,-2.45252945,0.78159943,-0.15911924\H,0,-2.409278
 52,-0.89003596,-0.17929356\H,0,-0.50123753,2.14799247,0.10809481\H,0,2

 Normal termination of Gaussian 16 at Wed Apr  9 16:51:03 2025.
