 Gaussian 16, Revision C.01,

 ----------------------------------------------------------------------
 #t hf aug-cc-pvdz symm=none int=(grid=ultrafine) guess=(read,tcheck) s
 table=(opt,rrhf)
 ----------------------------------------------------------------------
 -----
 title
 -----
 Symbolic Z-matrix:
 Charge =  0 Multiplicity = 1

 SCF Done:  E(RHF) =  -302.703420956     A.U. after   19 cycles
 Normal termination of Gaussian 16 at Wed Apr  9 16:53:25 2025.
 Gaussian 16:  ES64L-G16RevC.01  3-Jul-2019

 ----------------------------------------------------------------------
 #t hf aug-cc-pvdz iop(5/13=1,5/36=2,99/5=2) pseudo=read geom=check gue
 ss=(read,tcheck) scf=(maxcycle=1)
 ----------------------------------------------------------------------
 -----
 title
 -----
 Structure from the checkpoint file:  "Grambow2020_wb97xd3_009048_reverse_mol1.chk"
 Charge =  0 Multiplicity = 1

                         Standard orientation:
 ---------------------------------------------------------------------
 Center     Atomic      Atomic             Coordinates (Angstroms)
 Number     Number       Type             X           Y           Z
 ---------------------------------------------------------------------
      1          7           0        0.447955    2.035265    0.203600
      2          6           0        0.111747    0.756580   -0.334462
      3          6           0        1.032954   -0.470849   -0.144220
      4          7           0        2.156533   -0.907219   -0.109785
      5          6           0       -1.060088    0.023965    0.371288
      6          6           0       -0.020535   -1.522558    0.198457
      7          6           0       -2.265993   -0.224431   -0.222135
      8          1           0        0.878368    2.645722   -0.472524
      9          1           0        1.055275    1.960606    1.007094
     10          1           0       -0.119366    0.857335   -1.398962
     11          1           0       -1.063241    0.166123    1.450823
     12          1           0       -0.324426   -2.143356   -0.643966
     13          1           0        0.067538   -2.071389    1.133433
     14          1           0       -3.156901   -0.434392    0.356411
     15          1           0       -2.357167   -0.253212   -1.302578
 ---------------------------------------------------------------------

 SCF Done:  E(RHF) =  -302.791630315     A.U. after    2 cycles

 The electronic state is 1-A.
 Alpha  occ. eigenvalues --  -15.62250 -15.59369 -11.30704 -11.29619 -11.29527
 Alpha  occ. eigenvalues --  -11.28526 -11.26390  -1.20232  -1.14724  -1.08742
 Alpha  occ. eigenvalues --   -0.96819  -0.91431  -0.80554  -0.73199  -0.69279
 Alpha  occ. eigenvalues --   -0.66864  -0.63186  -0.60729  -0.58051  -0.56835
 Alpha  occ. eigenvalues --   -0.52776  -0.49944  -0.44843  -0.41998  -0.39236
 Alpha  occ. eigenvalues --   -0.25874
 Alpha virt. eigenvalues --    0.01166   0.02644   0.03446   0.04087   0.05142
 Alpha virt. eigenvalues --    0.06136   0.06323   0.06913   0.08493   0.10729
 Alpha virt. eigenvalues --    0.11559   0.12209   0.13101   0.13934   0.14214

 Mulliken charges:
               1
     1  N   -0.367773
     2  C    0.551762
     3  C    0.163753
     4  N   -0.578258
     5  C    0.281543
     6  C    0.550907
     7  C    0.697977
     8  H    0.015810
     9  H   -0.000930
    10  H   -0.110615
    11  H   -0.297939
    12  H   -0.159465
    13  H   -0.167334
    14  H   -0.306807
    15  H   -0.272629
 Sum of Mulliken charges =  -0.00000

 Dipole moment (field-independent basis, Debye):
    X=             -4.8380    Y=              0.7101    Z=             -0.0374  Tot=              4.8900

 Test job not archived.
 1\1\GINC-SE041\SP\RHF\Aug-CC-pVDZ\C5H8N2\OHZDE\09-Apr-2025\0\\#t hf au
 g-cc-pvdz iop(5/13=1,5/36=2,99/5=2) pseudo=read geom=check guess=(read
 ,tcheck) scf=(maxcycle=1)\\title\\0,1\N,0,2.08449571,-0.53152142,-0.23
 533184\C,0,0.82614902,-0.1940586,0.34799032\C,0,0.39766884,1.27706662,
 0.55677568\N,0,0.71523242,2.39706581,0.87108281\C,0,-0.41485082,-0.460
 07183,-0.5448486\C,0,-1.05109329,1.18467388,0.08147797\C,0,-1.36449302
 ,-1.40144063,-0.26189704\H,0,2.78966934,-0.75065258,0.45006466\H,0,2.4
 3236488,0.20162572,-0.83657799\H,0,0.70669334,-0.7296086,1.29437279\H,

 Normal termination of Gaussian 16 at Wed Apr  9 16:53:30 2025.
