 Gaussian 16, Revision C.01,

 ----------------------------------------------------------------------
 #t hf aug-cc-pvdz symm=none int=(grid=ultrafine) guess=(read,tcheck) s
 table=(opt,rrhf)
 ----------------------------------------------------------------------
 -----
 title
 -----
 Symbolic Z-matrix:
 Charge =  0 Multiplicity = 1

 SCF Done:  E(RHF) =  -305.321184168     A.U. after   18 cycles
 Normal termination of Gaussian 16 at Wed Apr  9 03:52:40 2025.
 Gaussian 16:  ES64L-G16RevC.01  3-Jul-2019

 ----------------------------------------------------------------------
 #t hf aug-cc-pvdz iop(5/13=1,5/36=2,99/5=2) pseudo=read geom=check gue
 ss=(read,tcheck) scf=(maxcycle=1)
 ----------------------------------------------------------------------
 -----
 title
 -----
 Structure from the checkpoint file:  "Grambow2020_wb97xd3_008345_reverse_mol1.chk"
 Charge =  0 Multiplicity = 1

                         Standard orientation:
 ---------------------------------------------------------------------
 Center     Atomic      Atomic             Coordinates (Angstroms)
 Number     Number       Type             X           Y           Z
 ---------------------------------------------------------------------
      1          8           0        0.654268   -1.277659    0.432172
      2          6           0       -0.385063    0.410622    0.683875
      3          6           0        0.468363    1.417570    0.062675
      4          6           0        1.676930    0.653035   -0.561762
      5          6           0        1.688080   -0.639401   -0.372151
      6          6           0       -1.600694    0.018916    0.064779
      7          6           0       -2.642549   -0.250406   -0.466099
      8          1           0        0.167330   -1.915143   -0.108511
      9          1           0       -0.315734    0.230067    1.748471
     10          1           0        0.864095    2.116594    0.797512
     11          1           0       -0.044455    1.961865   -0.727940
     12          1           0        2.434137   -1.353547   -0.698194
     13          1           0       -3.569914   -0.480582   -0.936607
 ---------------------------------------------------------------------

 SCF Done:  E(RHF) =  -305.414088697     A.U. after    2 cycles

 The electronic state is 1-A.
 Alpha  occ. eigenvalues --  -20.62530 -11.39229 -11.30341 -11.29573 -11.25696
 Alpha  occ. eigenvalues --  -11.24528 -11.17877  -1.35858  -1.13447  -1.05923
 Alpha  occ. eigenvalues --   -0.97979  -0.89201  -0.78211  -0.74795  -0.73522
 Alpha  occ. eigenvalues --   -0.70471  -0.65060  -0.61005  -0.56767  -0.55207
 Alpha  occ. eigenvalues --   -0.52059  -0.45132  -0.44882  -0.32873  -0.28577
 Alpha virt. eigenvalues --    0.01938   0.02196   0.03482   0.04394   0.05453
 Alpha virt. eigenvalues --    0.06592   0.06820   0.09003   0.09723   0.10261
 Alpha virt. eigenvalues --    0.11433   0.12276   0.12486   0.13793   0.14100

 Mulliken charges:
               1
     1  O   -0.610038
     2  C    0.640276
     3  C    0.209429
     4  C   -0.675550
     5  C    0.767354
     6  C   -0.664494
     7  C    1.212407
     8  H    0.243965
     9  H   -0.296114
    10  H    0.029279
    11  H   -0.054197
    12  H   -0.308336
    13  H   -0.493982
 Sum of Mulliken charges =  -0.00000

 Dipole moment (field-independent basis, Debye):
    X=             -6.2424    Y=             -1.6349    Z=              1.6521  Tot=              6.6611

 Test job not archived.
 1\1\GINC-SE102\SP\RHF\Aug-CC-pVDZ\C6H6O1\OHZDE\09-Apr-2025\0\\#t hf au
 g-cc-pvdz iop(5/13=1,5/36=2,99/5=2) pseudo=read geom=check guess=(read
 ,tcheck) scf=(maxcycle=1)\\title\\0,1\O,0,-0.59466593,0.17022647,1.454
 90694\C,0,0.51092727,-0.67084533,0.01820278\C,0,-0.44964242,-0.8698396
 5,-1.06155406\C,0,-1.79301883,-0.2347714,-0.58500656\C,0,-1.78397403,0
 .27142619,0.61921536\C,0,1.52204011,0.31889428,-0.09376724\C,0,2.38998
 239,1.13320098,-0.24676782\H,0,-0.27398816,1.05605957,1.67467684\H,0,0
 .70876491,-1.47360349,0.7162087\H,0,-0.63173045,-1.92710889,-1.2466234

 Normal termination of Gaussian 16 at Wed Apr  9 03:52:44 2025.
