 Gaussian 16, Revision C.01,

 ----------------------------------------------------------------------
 #t hf aug-cc-pvdz symm=none int=(grid=ultrafine) guess=(read,tcheck) s
 table=(opt,rrhf)
 ----------------------------------------------------------------------
 -----
 title
 -----
 Symbolic Z-matrix:
 Charge =  0 Multiplicity = 1

 SCF Done:  E(RHF) =  -270.024012445     A.U. after   12 cycles

 1\1\GINC-SE131\Stability\RHF\Aug-CC-pVDZ\C5H10O1\OHZDE\09-Apr-2025\0\\
 #t hf aug-cc-pvdz symm=none int=(grid=ultrafine) guess=(read,tcheck) s
 table=(opt,rrhf)\\title\\0,1\C,0,-1.19267379,-1.18176376,-0.17131596\C
 ,0,-0.25603464,0.01583723,-0.06086755\C,0,-1.01170757,1.33311317,0.086
 30804\C,0,0.9556811,-0.16233653,0.89454805\C,0,1.81161607,-0.04490779,
 -0.38007553\O,0,0.64287219,0.07084618,-1.22810287\H,0,-1.85740935,-1.0
 6477891,-1.03885536\H,0,-1.81324924,-1.27382893,0.73222837\H,0,-0.6177
 4651,-2.10849794,-0.2993416\H,0,-1.66861775,1.49206699,-0.78042367\H,0

 Normal termination of Gaussian 16 at Wed Apr  9 14:01:07 2025.
 Gaussian 16:  ES64L-G16RevC.01  3-Jul-2019

 ----------------------------------------------------------------------
 #t hf aug-cc-pvdz iop(5/13=1,5/36=2,99/5=2) pseudo=read geom=check gue
 ss=(read,tcheck) scf=(maxcycle=1)
 ----------------------------------------------------------------------
 -----
 title
 -----
 Structure from the checkpoint file:  "Grambow2020_b97d3_006762_forward_mol2.chk"
 Charge =  0 Multiplicity = 1

                         Standard orientation:
 ---------------------------------------------------------------------
 Center     Atomic      Atomic             Coordinates (Angstroms)
 Number     Number       Type             X           Y           Z
 ---------------------------------------------------------------------
      1          6           0       -1.266710   -1.243826   -0.004768
      2          6           0       -0.385044   -0.000996    0.037389
      3          6           0       -1.197841    1.289737    0.001503
      4          6           0        0.768339   -0.028081    1.077482
      5          6           0        1.699715   -0.002273   -0.148468
      6          8           0        0.584609   -0.024485   -1.072890
      7          1           0       -1.878006   -1.244522   -0.918278
      8          1           0       -1.940391   -1.271501    0.864352
      9          1           0       -0.650135   -2.152447   -0.001217
     10          1           0       -1.802970    1.331182   -0.915079
     11          1           0       -0.533782    2.164368    0.016638
     12          1           0       -1.873992    1.346960    0.867434
     13          1           0        0.813108   -0.943246    1.679992
     14          1           0        0.819166    0.846623    1.736904
     15          1           0        2.353335   -0.880642   -0.269925
     16          1           0        2.306038    0.911735   -0.256525
 ---------------------------------------------------------------------

 SCF Done:  E(RHF) =  -270.108268001     A.U. after    2 cycles

 The electronic state is 1-A.
 Alpha  occ. eigenvalues --  -20.55423 -11.29809 -11.28671 -11.23657 -11.22769
 Alpha  occ. eigenvalues --  -11.22738  -1.32644  -1.04387  -0.98662  -0.93529
 Alpha  occ. eigenvalues --   -0.85262  -0.72832  -0.67008  -0.65399  -0.63043
 Alpha  occ. eigenvalues --   -0.57783  -0.56046  -0.55744  -0.53175  -0.51991
 Alpha  occ. eigenvalues --   -0.50222  -0.46390  -0.44372  -0.41800
 Alpha virt. eigenvalues --    0.03469   0.04551   0.04647   0.04994   0.06198
 Alpha virt. eigenvalues --    0.06764   0.06933   0.06988   0.09105   0.09679
 Alpha virt. eigenvalues --    0.10065   0.13224   0.13577   0.14238   0.15211

 Mulliken charges:
               1
     1  C    0.479517
     2  C   -0.747365
     3  C    0.449906
     4  C    0.510713
     5  C    0.887307
     6  O   -0.872142
     7  H    0.044819
     8  H    0.071447
     9  H   -0.030770
    10  H    0.040573
    11  H   -0.043816
    12  H    0.070156
    13  H   -0.207401
    14  H   -0.204774
    15  H   -0.224820
    16  H   -0.223351
 Sum of Mulliken charges =  -0.00000

 Dipole moment (field-independent basis, Debye):
    X=             -0.0826    Y=              0.0439    Z=              2.1903  Tot=              2.1923

 Test job not archived.
 1\1\GINC-SE131\SP\RHF\Aug-CC-pVDZ\C5H10O1\OHZDE\09-Apr-2025\0\\#t hf a
 ug-cc-pvdz iop(5/13=1,5/36=2,99/5=2) pseudo=read geom=check guess=(rea
 d,tcheck) scf=(maxcycle=1)\\title\\0,1\C,0,-1.19267379,-1.18176376,-0.
 17131596\C,0,-0.25603464,0.01583723,-0.06086755\C,0,-1.01170757,1.3331
 1317,0.08630804\C,0,0.9556811,-0.16233653,0.89454805\C,0,1.81161607,-0
 .04490779,-0.38007553\O,0,0.64287219,0.07084618,-1.22810287\H,0,-1.857
 40935,-1.06477891,-1.03885536\H,0,-1.81324924,-1.27382893,0.73222837\H
 ,0,-0.61774651,-2.10849794,-0.2993416\H,0,-1.66861775,1.49206699,-0.78

 Normal termination of Gaussian 16 at Wed Apr  9 14:01:12 2025.
