 Gaussian 16, Revision C.01,

 ----------------------------------------------------------------------
 #t hf aug-cc-pvdz symm=none int=(grid=ultrafine) guess=(read,tcheck) s
 table=(opt,rrhf)
 ----------------------------------------------------------------------
 -----
 title
 -----
 Symbolic Z-matrix:
 Charge =  0 Multiplicity = 1

 SCF Done:  E(RHF) =  -305.309814317     A.U. after   17 cycles
 Normal termination of Gaussian 16 at Wed Apr  9 03:52:39 2025.
 Gaussian 16:  ES64L-G16RevC.01  3-Jul-2019

 ----------------------------------------------------------------------
 #t hf aug-cc-pvdz iop(5/13=1,5/36=2,99/5=2) pseudo=read geom=check gue
 ss=(read,tcheck) scf=(maxcycle=1)
 ----------------------------------------------------------------------
 -----
 title
 -----
 Structure from the checkpoint file:  "Grambow2020_wb97xd3_008352_forward_mol1.chk"
 Charge =  0 Multiplicity = 1

                         Standard orientation:
 ---------------------------------------------------------------------
 Center     Atomic      Atomic             Coordinates (Angstroms)
 Number     Number       Type             X           Y           Z
 ---------------------------------------------------------------------
      1          8           0        0.182687    1.667838   -0.266867
      2          6           0        0.781529    0.837773    0.566611
      3          6           0       -0.958804   -0.537957    1.270322
      4          6           0       -1.593944   -0.520266    0.000233
      5          6           0       -2.037708   -0.405322   -1.112889
      6          6           0        1.548318   -0.210648   -0.023359
      7          6           0        2.279483   -1.035914   -0.502449
      8          1           0        0.014258    1.262165   -1.137419
      9          1           0        0.024606    0.417960    1.462143
     10          1           0       -1.591184   -0.180364    2.083113
     11          1           0       -0.454534   -1.469515    1.514120
     12          1           0       -2.507543   -0.374051   -2.067600
     13          1           0        2.939651   -1.764890   -0.910236
 ---------------------------------------------------------------------

 SCF Done:  E(RHF) =  -305.407619121     A.U. after    2 cycles

 The electronic state is 1-A.
 Alpha  occ. eigenvalues --  -20.62902 -11.34482 -11.27835 -11.26653 -11.26075
 Alpha  occ. eigenvalues --  -11.25870 -11.24347  -1.39910  -1.07389  -1.05285
 Alpha  occ. eigenvalues --   -0.97285  -0.91956  -0.80008  -0.73448  -0.72300
 Alpha  occ. eigenvalues --   -0.68756  -0.64898  -0.63420  -0.61647  -0.53609
 Alpha  occ. eigenvalues --   -0.45660  -0.42995  -0.41333  -0.39820  -0.30560
 Alpha virt. eigenvalues --    0.03111   0.03783   0.04319   0.04919   0.05714
 Alpha virt. eigenvalues --    0.06457   0.07459   0.09482   0.10115   0.10363
 Alpha virt. eigenvalues --    0.11299   0.12126   0.13208   0.13746   0.14037

 Mulliken charges:
               1
     1  O   -0.437227
     2  C    0.115566
     3  C    0.090946
     4  C   -0.419932
     5  C    0.814030
     6  C   -0.185212
     7  C    0.754996
     8  H    0.210092
     9  H    0.190475
    10  H   -0.106599
    11  H   -0.059942
    12  H   -0.509261
    13  H   -0.457932
 Sum of Mulliken charges =  -0.00000

 Dipole moment (field-independent basis, Debye):
    X=              0.0690    Y=             -1.8370    Z=             -1.0541  Tot=              2.1191

 Test job not archived.
 1\1\GINC-SE220\SP\RHF\Aug-CC-pVDZ\C6H6O1\OHZDE\09-Apr-2025\0\\#t hf au
 g-cc-pvdz iop(5/13=1,5/36=2,99/5=2) pseudo=read geom=check guess=(read
 ,tcheck) scf=(maxcycle=1)\\title\\0,1\O,0,-0.37086686,-0.0561258,1.844
 95034\C,0,0.47551471,-0.7514938,1.10846723\C,0,-0.69234387,-1.05157357
 ,-0.88217584\C,0,-1.29701474,0.23166198,-0.81493388\C,0,-1.75462894,1.
 32912342,-0.62692823\C,0,1.55254914,-0.02326457,0.52118904\C,0,2.52030
 184,0.55549901,0.10443762\H,0,-0.39221703,0.88628737,1.59554983\H,0,-0
 .09250585,-1.49350925,0.28510911\H,0,-1.40776401,-1.87262391,-0.931748

 Normal termination of Gaussian 16 at Wed Apr  9 03:52:43 2025.
