 Gaussian 16, Revision C.01,

 ----------------------------------------------------------------------
 #t hf aug-cc-pvdz symm=none int=(grid=ultrafine) guess=(read,tcheck) s
 table=(opt,rrhf)
 ----------------------------------------------------------------------
 -----
 title
 -----
 Symbolic Z-matrix:
 Charge =  0 Multiplicity = 1

 SCF Done:  E(RHF) =  -325.103527692     A.U. after   14 cycles
 Normal termination of Gaussian 16 at Wed Apr  9 16:22:17 2025.
 Gaussian 16:  ES64L-G16RevC.01  3-Jul-2019

 ----------------------------------------------------------------------
 #t hf aug-cc-pvdz iop(5/13=1,5/36=2,99/5=2) pseudo=read geom=check gue
 ss=(read,tcheck) scf=(maxcycle=1)
 ----------------------------------------------------------------------
 -----
 title
 -----
 Structure from the checkpoint file:  "Grambow2020_wb97xd3_008125_reverse_mol2.chk"
 Charge =  0 Multiplicity = 1

                         Standard orientation:
 ---------------------------------------------------------------------
 Center     Atomic      Atomic             Coordinates (Angstroms)
 Number     Number       Type             X           Y           Z
 ---------------------------------------------------------------------
      1          6           0       -3.351489   -0.846082   -0.263517
      2          7           0        0.413486   -0.453622   -0.409110
      3          6           0        1.277920   -1.197217   -0.048027
      4          8           0        2.070723   -2.006702    0.235351
      5          6           0        0.010531    0.923954   -0.196589
      6          6           0       -0.345455    1.158785    1.265061
      7          6           0        1.086845    1.879864   -0.692981
      8          1           0       -3.867730   -0.907330   -1.220305
      9          1           0       -3.399671    0.177740    0.106755
     10          1           0       -3.832472   -1.511152    0.452074
     11          1           0       -2.311016   -1.143072   -0.391533
     12          1           0       -0.888226    1.063956   -0.801109
     13          1           0        0.537032    1.043541    1.898905
     14          1           0       -1.104915    0.450992    1.598048
     15          1           0       -0.733202    2.170221    1.399480
     16          1           0        0.741478    2.911871   -0.609312
     17          1           0        1.997662    1.774549   -0.098785
     18          1           0        1.330762    1.681839   -1.736948
 ---------------------------------------------------------------------

 SCF Done:  E(RHF) =  -325.212061016     A.U. after    2 cycles

 The electronic state is 1-A.
 Alpha  occ. eigenvalues --  -20.61296 -15.64417 -11.40601 -11.30762 -11.24254
 Alpha  occ. eigenvalues --  -11.24186 -11.21953  -1.41850  -1.24142  -1.07256
 Alpha  occ. eigenvalues --   -0.95254  -0.94110  -0.87186  -0.73669  -0.69868
 Alpha  occ. eigenvalues --   -0.66264  -0.66038  -0.62500  -0.59179  -0.56708
 Alpha  occ. eigenvalues --   -0.56019  -0.54925  -0.54897  -0.54772  -0.51774
 Alpha  occ. eigenvalues --   -0.51730  -0.43242  -0.41754
 Alpha virt. eigenvalues --    0.02893   0.04048   0.04122   0.04927   0.06337
 Alpha virt. eigenvalues --    0.06426   0.06870   0.07431   0.07996   0.08947
 Alpha virt. eigenvalues --    0.09636   0.10724   0.11864   0.12515   0.13491

 Mulliken charges:
               1
     1  C    0.745116
     2  N    0.003750
     3  C   -0.253213
     4  O   -0.233895
     5  C   -0.572003
     6  C    0.707363
     7  C    0.800147
     8  H   -0.111746
     9  H   -0.225746
    10  H   -0.123116
    11  H   -0.277017
    12  H   -0.257196
    13  H   -0.027968
    14  H   -0.066007
    15  H   -0.039784
    16  H   -0.022543
    17  H   -0.036531
    18  H   -0.009609
 Sum of Mulliken charges =   0.00000

 Dipole moment (field-independent basis, Debye):
    X=             -1.5645    Y=              3.2297    Z=              0.0171  Tot=              3.5887

 Test job not archived.
 1\1\GINC-SE057\SP\RHF\Aug-CC-pVDZ\C5H11N1O1\OHZDE\09-Apr-2025\0\\#t hf
  aug-cc-pvdz iop(5/13=1,5/36=2,99/5=2) pseudo=read geom=check guess=(r
 ead,tcheck) scf=(maxcycle=1)\\title\\0,1\C,0,2.84475497,0.12028327,-1.
 13209412\N,0,-0.04738529,0.49875269,1.28504083\C,0,-0.12945604,0.19358
 368,2.43859975\O,0,-0.11119787,-0.03834772,3.58314307\C,0,-0.76510144,
 0.25882134,0.04707043\C,0,-0.74739304,-1.22259596,-0.30418765\C,0,-2.1
 7852167,0.81920296,0.12974018\H,0,3.28749613,1.04326613,-1.50328635\H,
 0,2.12782579,-0.25433347,-1.86237384\H,0,3.6265045,-0.62246733,-0.9806

 Normal termination of Gaussian 16 at Wed Apr  9 16:22:24 2025.
