 Gaussian 16, Revision C.01,

 ----------------------------------------------------------------------
 #t hf aug-cc-pvdz symm=none int=(grid=ultrafine) guess=(read,tcheck) s
 table=(opt,rrhf)
 ----------------------------------------------------------------------
 -----
 title
 -----
 Symbolic Z-matrix:
 Charge =  0 Multiplicity = 1

 SCF Done:  E(RHF) =  -360.933511872     A.U. after   12 cycles
 Normal termination of Gaussian 16 at Wed Apr  9 16:35:07 2025.
 Gaussian 16:  ES64L-G16RevC.01  3-Jul-2019

 ----------------------------------------------------------------------
 #t hf aug-cc-pvdz iop(5/13=1,5/36=2,99/5=2) pseudo=read geom=check gue
 ss=(read,tcheck) scf=(maxcycle=1)
 ----------------------------------------------------------------------
 -----
 title
 -----
 Structure from the checkpoint file:  "Grambow2020_wb97xd3_008627_reverse_mol2.chk"
 Charge =  0 Multiplicity = 1

                         Standard orientation:
 ---------------------------------------------------------------------
 Center     Atomic      Atomic             Coordinates (Angstroms)
 Number     Number       Type             X           Y           Z
 ---------------------------------------------------------------------
      1          6           0       -0.287075    0.943692   -0.765577
      2          6           0       -1.624002    0.727886   -0.076673
      3          6           0       -1.555478   -0.769233    0.192989
      4          8           0       -0.191613   -1.044545    0.472909
      5          6           0        0.658327   -0.018848   -0.009263
      6          8           0        1.659186   -0.536784   -0.830470
      7          7           0        1.363506    0.529544    1.115096
      8          1           0       -0.353240    0.638408   -1.814306
      9          1           0        0.083699    1.967067   -0.738730
     10          1           0        1.240620   -0.991249   -1.564215
     11          1           0       -1.674805    1.283154    0.863542
     12          1           0       -2.484197    1.012576   -0.682231
     13          1           0       -2.150206   -1.090733    1.048959
     14          1           0       -1.882208   -1.341097   -0.685421
     15          1           0        2.057458    1.198498    0.812298
     16          1           0        0.727126    0.966227    1.766072
 ---------------------------------------------------------------------

 SCF Done:  E(RHF) =  -361.046429023     A.U. after    2 cycles

 The electronic state is 1-A.
 Alpha  occ. eigenvalues --  -20.57532 -20.56928 -15.60476 -11.37642 -11.29046
 Alpha  occ. eigenvalues --  -11.24453 -11.24161  -1.38627  -1.31069  -1.14384
 Alpha  occ. eigenvalues --   -1.06459  -0.96284  -0.83565  -0.81671  -0.73622
 Alpha  occ. eigenvalues --   -0.70261  -0.67519  -0.63867  -0.61263  -0.60257
 Alpha  occ. eigenvalues --   -0.59324  -0.55091  -0.52377  -0.50929  -0.50088
 Alpha  occ. eigenvalues --   -0.47714  -0.44311  -0.39286
 Alpha virt. eigenvalues --    0.02991   0.03916   0.04279   0.04894   0.06232
 Alpha virt. eigenvalues --    0.06574   0.07013   0.07114   0.08886   0.11451
 Alpha virt. eigenvalues --    0.13389   0.13585   0.13877   0.14092   0.15063

 Mulliken charges:
               1
     1  C    0.247212
     2  C    0.127471
     3  C    0.920622
     4  O   -0.799572
     5  C    1.145234
     6  O   -0.565071
     7  N   -0.390982
     8  H   -0.150880
     9  H   -0.066824
    10  H    0.121225
    11  H   -0.202959
    12  H   -0.034436
    13  H   -0.201516
    14  H   -0.177504
    15  H    0.018141
    16  H    0.009838
 Sum of Mulliken charges =  -0.00000

 Dipole moment (field-independent basis, Debye):
    X=             -3.0425    Y=              2.4730    Z=             -1.6271  Tot=              4.2450

 Test job not archived.
 1\1\GINC-SE168\SP\RHF\Aug-CC-pVDZ\C4H9N1O2\OHZDE\09-Apr-2025\0\\#t hf
 aug-cc-pvdz iop(5/13=1,5/36=2,99/5=2) pseudo=read geom=check guess=(re
 ad,tcheck) scf=(maxcycle=1)\\title\\0,1\C,0,-0.6593411,-0.33611909,-0.
 75041338\C,0,-0.89373044,1.06680442,-0.2161847\C,0,-0.30559545,0.93015
 17,1.18174349\O,0,0.79599488,0.04541669,1.04749458\C,0,0.70893313,-0.7
 2119517,-0.14064142\O,0,0.80612791,-2.08553825,0.13043186\N,0,1.868483
 1,-0.42893421,-0.93576444\H,0,-1.42985854,-1.01424564,-0.37113042\H,0,
 -0.64755076,-0.41831441,-1.83604503\H,0,0.09660539,-2.32402085,0.73028

 Normal termination of Gaussian 16 at Wed Apr  9 16:35:13 2025.
