 Gaussian 16, Revision C.01,

 ----------------------------------------------------------------------
 #t hf aug-cc-pvdz symm=none int=(grid=ultrafine) guess=(read,tcheck) s
 table=(opt,rrhf)
 ----------------------------------------------------------------------
 -----
 title
 -----
 Symbolic Z-matrix:
 Charge =  0 Multiplicity = 1

 SCF Done:  E(RHF) =  -358.337735456     A.U. after   18 cycles
 Normal termination of Gaussian 16 at Wed Apr  9 03:28:03 2025.
 Gaussian 16:  ES64L-G16RevC.01  3-Jul-2019

 ----------------------------------------------------------------------
 #t hf aug-cc-pvdz iop(5/13=1,5/36=2,99/5=2) pseudo=read geom=check gue
 ss=(read,tcheck) scf=(maxcycle=1)
 ----------------------------------------------------------------------
 -----
 title
 -----
 Structure from the checkpoint file:  "Grambow2020_wb97xd3_006759_reverse_mol2.chk"
 Charge =  0 Multiplicity = 1

                         Standard orientation:
 ---------------------------------------------------------------------
 Center     Atomic      Atomic             Coordinates (Angstroms)
 Number     Number       Type             X           Y           Z
 ---------------------------------------------------------------------
      1          8           0        2.446118   -0.822559   -0.220421
      2          6           0        1.486971   -0.185772   -0.132403
      3          6           0        0.398526    0.639613   -0.006000
      4          8           0        0.429348    1.875791    0.187768
      5          7           0       -0.767771   -0.108774   -0.144452
      6          6           0       -2.214439    0.122819   -0.065843
      7          6           0       -1.501909   -1.145114   -0.278734
      8          1           0        0.271308   -1.272159    2.304908
      9          1           0       -2.649850    0.660059   -0.902863
     10          1           0       -2.596299    0.378461    0.918357
     11          1           0       -0.241694   -1.815186    2.283879
     12          1           0       -1.427694   -2.204888   -0.434018
 ---------------------------------------------------------------------

 SCF Done:  E(RHF) =  -358.453161337     A.U. after    2 cycles

 The electronic state is 1-A.
 Alpha  occ. eigenvalues --  -20.65830 -20.47947 -15.77979 -11.39577 -11.37351
 Alpha  occ. eigenvalues --  -11.36035 -11.35705  -1.45330  -1.39304  -1.28017
 Alpha  occ. eigenvalues --   -1.07675  -0.92560  -0.90690  -0.81063  -0.75695
 Alpha  occ. eigenvalues --   -0.72758  -0.67043  -0.66467  -0.62900  -0.61014
 Alpha  occ. eigenvalues --   -0.58090  -0.56157  -0.54808  -0.47748  -0.42560
 Alpha  occ. eigenvalues --   -0.26563
 Alpha virt. eigenvalues --    0.01727   0.02388   0.03262   0.04797   0.06389
 Alpha virt. eigenvalues --    0.07245   0.08290   0.09137   0.10256   0.10338
 Alpha virt. eigenvalues --    0.11430   0.12515   0.13280   0.14034   0.14082

 Mulliken charges:
               1
     1  O   -0.181030
     2  C   -0.348284
     3  C    1.075168
     4  O   -0.630918
     5  N   -0.114676
     6  C    0.919672
     7  C   -0.105092
     8  H    0.067943
     9  H   -0.190970
    10  H   -0.191848
    11  H   -0.017345
    12  H   -0.282619
 Sum of Mulliken charges =  -0.00000

 Dipole moment (field-independent basis, Debye):
    X=             -5.5941    Y=             -5.5414    Z=             -0.8429  Tot=              7.9191

 Test job not archived.
 1\1\GINC-SE452\SP\RHF\Aug-CC-pVDZ\C4H5N1O2\OHZDE\09-Apr-2025\0\\#t hf
 aug-cc-pvdz iop(5/13=1,5/36=2,99/5=2) pseudo=read geom=check guess=(re
 ad,tcheck) scf=(maxcycle=1)\\title\\0,1\O,0,2.42021328,0.89752618,1.49
 057507\C,0,1.71579771,0.1655427,0.9417513\C,0,0.94970512,-0.7536696,0.
 27085449\O,0,1.34423466,-1.8514152,-0.1829439\N,0,-0.35947256,-0.28725
 132,0.18137945\C,0,-1.62116486,-0.72298419,-0.42766458\C,0,-1.33947411
 ,0.52309569,0.29939243\H,0,0.98379484,1.71375085,-1.43853803\H,0,-2.11
 938288,-1.55139674,0.06662695\H,0,-1.6400115,-0.73170031,-1.51366041\H

 Normal termination of Gaussian 16 at Wed Apr  9 03:28:07 2025.
