 Gaussian 16, Revision C.01,

 ----------------------------------------------------------------------
 #t hf aug-cc-pvdz symm=none int=(grid=ultrafine) guess=(read,tcheck) s
 table=(opt,rrhf)
 ----------------------------------------------------------------------
 -----
 title
 -----
 Symbolic Z-matrix:
 Charge =  0 Multiplicity = 1

 SCF Done:  E(RHF) =  -308.960181991     A.U. after   15 cycles

 1\1\GINC-SE102\Stability\RHF\Aug-CC-pVDZ\C6H12O1\OHZDE\09-Apr-2025\0\\
 #t hf aug-cc-pvdz symm=none int=(grid=ultrafine) guess=(read,tcheck) s
 table=(opt,rrhf)\\title\\0,1\C,0,2.09395712,-0.25283406,-0.74161548\O,
 0,0.75815563,-0.64596875,-0.5681102\C,0,0.16011016,-0.23160517,0.65384
 194\C,0,-0.03776707,1.29360813,0.73076963\C,0,-0.99711303,1.80554726,-
 0.33477981\C,0,-1.08378042,-0.92240949,1.01244013\C,0,-1.47525603,-1.9
 9555457,0.09928746\H,0,2.70366783,-0.50224833,0.13724952\H,0,2.1927303
 2,0.82099503,-0.93868603\H,0,2.48333788,-0.79755458,-1.60128869\H,0,0.

 Normal termination of Gaussian 16 at Wed Apr  9 03:54:11 2025.
 Gaussian 16:  ES64L-G16RevC.01  3-Jul-2019

 ----------------------------------------------------------------------
 #t hf aug-cc-pvdz iop(5/13=1,5/36=2,99/5=2) pseudo=read geom=check gue
 ss=(read,tcheck) scf=(maxcycle=1)
 ----------------------------------------------------------------------
 -----
 title
 -----
 Structure from the checkpoint file:  "Grambow2020_wb97xd3_008407_reverse_mol2.chk"
 Charge =  0 Multiplicity = 1

                         Standard orientation:
 ---------------------------------------------------------------------
 Center     Atomic      Atomic             Coordinates (Angstroms)
 Number     Number       Type             X           Y           Z
 ---------------------------------------------------------------------
      1          6           0        1.408457   -1.777082   -0.139632
      2          8           0        0.222271   -1.060343   -0.359340
      3          6           0       -0.083308   -0.081034    0.625594
      4          6           0        0.904144    1.100558    0.614359
      5          6           0        0.860679    1.876538   -0.694758
      6          6           0       -1.464811    0.413341    0.614980
      7          6           0       -2.343479   -0.240693   -0.354001
      8          1           0        1.455013   -2.173092    0.883777
      9          1           0        2.303969   -1.170411   -0.317711
     10          1           0        1.415667   -2.614050   -0.837349
     11          1           0       -0.022676   -0.549495    1.628866
     12          1           0        0.648197    1.747914    1.453353
     13          1           0        1.913273    0.723044    0.796553
     14          1           0        1.057615    1.222842   -1.546271
     15          1           0        1.604573    2.674500   -0.701621
     16          1           0       -0.120844    2.334478   -0.842675
     17          1           0       -3.299309    0.262590   -0.490682
     18          1           0       -1.876332   -0.523100   -1.303403
     19          1           0       -2.547407   -1.202244    0.152631
 ---------------------------------------------------------------------

 SCF Done:  E(RHF) =  -309.057924726     A.U. after    2 cycles

 The electronic state is 1-A.
 Alpha  occ. eigenvalues --  -20.57068 -11.29129 -11.28560 -11.25945 -11.23690
 Alpha  occ. eigenvalues --  -11.22924 -11.22396  -1.34107  -1.07985  -1.01892
 Alpha  occ. eigenvalues --   -0.95191  -0.90507  -0.82403  -0.73201  -0.68533
 Alpha  occ. eigenvalues --   -0.65282  -0.64192  -0.60740  -0.58746  -0.57066
 Alpha  occ. eigenvalues --   -0.55868  -0.53152  -0.52099  -0.50808  -0.48728
 Alpha  occ. eigenvalues --   -0.46220  -0.43443  -0.34340
 Alpha virt. eigenvalues --    0.03295   0.04391   0.04409   0.04712   0.06196
 Alpha virt. eigenvalues --    0.06401   0.06656   0.06952   0.07234   0.08373
 Alpha virt. eigenvalues --    0.09179   0.09348   0.10074   0.12026   0.12900

 Mulliken charges:
               1
     1  C    0.765989
     2  O   -0.797115
     3  C    0.544669
     4  C    0.249803
     5  C    0.534896
     6  C   -0.772846
     7  C    0.423799
     8  H   -0.077806
     9  H   -0.159274
    10  H   -0.264471
    11  H    0.000932
    12  H   -0.120691
    13  H   -0.100333
    14  H   -0.042330
    15  H   -0.097598
    16  H   -0.094251
    17  H   -0.081888
    18  H   -0.004271
    19  H    0.092785
 Sum of Mulliken charges =  -0.00000

 Dipole moment (field-independent basis, Debye):
    X=              1.6080    Y=             -1.2360    Z=             -0.1976  Tot=              2.0377

 Test job not archived.
 1\1\GINC-SE102\SP\RHF\Aug-CC-pVDZ\C6H12O1\OHZDE\09-Apr-2025\0\\#t hf a
 ug-cc-pvdz iop(5/13=1,5/36=2,99/5=2) pseudo=read geom=check guess=(rea
 d,tcheck) scf=(maxcycle=1)\\title\\0,1\C,0,2.09395712,-0.25283406,-0.7
 4161548\O,0,0.75815563,-0.64596875,-0.5681102\C,0,0.16011016,-0.231605
 17,0.65384194\C,0,-0.03776707,1.29360813,0.73076963\C,0,-0.99711303,1.
 80554726,-0.33477981\C,0,-1.08378042,-0.92240949,1.01244013\C,0,-1.475
 25603,-1.99555457,0.09928746\H,0,2.70366783,-0.50224833,0.13724952\H,0
 ,2.19273032,0.82099503,-0.93868603\H,0,2.48333788,-0.79755458,-1.60128

 Normal termination of Gaussian 16 at Wed Apr  9 03:54:19 2025.
