 Gaussian 16, Revision C.01,

 ----------------------------------------------------------------------
 #t hf aug-cc-pvdz symm=none int=(grid=ultrafine) guess=(read,tcheck) s
 table=(opt,rrhf)
 ----------------------------------------------------------------------
 -----
 title
 -----
 Symbolic Z-matrix:
 Charge =  0 Multiplicity = 1

 SCF Done:  E(RHF) =  -232.992024493     A.U. after   13 cycles
 Normal termination of Gaussian 16 at Wed Apr  9 14:17:20 2025.
 Gaussian 16:  ES64L-G16RevC.01  3-Jul-2019

 ----------------------------------------------------------------------
 #t hf aug-cc-pvdz iop(5/13=1,5/36=2,99/5=2) pseudo=read geom=check gue
 ss=(read,tcheck) scf=(maxcycle=1)
 ----------------------------------------------------------------------
 -----
 title
 -----
 Structure from the checkpoint file:  "Grambow2020_b97d3_006949_reverse_mol2.chk"
 Charge =  0 Multiplicity = 1

                         Standard orientation:
 ---------------------------------------------------------------------
 Center     Atomic      Atomic             Coordinates (Angstroms)
 Number     Number       Type             X           Y           Z
 ---------------------------------------------------------------------
      1          6           0        1.541794   -1.235067   -0.431763
      2          6           0        1.393879   -0.129211    0.622432
      3          6           0       -2.308161   -0.812602    0.180877
      4          6           0       -1.478195    0.172937   -0.083736
      5          6           0       -0.630539    1.142426   -0.353299
      6          6           0        0.831945    1.183210    0.054386
      7          1           0        2.221069   -0.917834   -1.237157
      8          1           0        0.573007   -1.481304   -0.884725
      9          1           0        1.950981   -2.152625    0.014132
     10          1           0        2.376506    0.079957    1.072578
     11          1           0       -2.449098   -1.643813   -0.515253
     12          1           0       -2.894457   -0.837821    1.102873
     13          1           0        0.741244   -0.477357    1.437718
     14          1           0       -1.004160    2.017138   -0.897193
     15          1           0        1.427688    1.491333   -0.821844
     16          1           0        0.952885    1.992174    0.795484
 ---------------------------------------------------------------------

 SCF Done:  E(RHF) =  -233.065645211     A.U. after    2 cycles

 The electronic state is 1-A.
 Alpha  occ. eigenvalues --  -11.26350 -11.25208 -11.24640 -11.24400 -11.23090
 Alpha  occ. eigenvalues --  -11.22058  -1.08767  -1.02985  -0.96818  -0.89417
 Alpha  occ. eigenvalues --   -0.80458  -0.69134  -0.64145  -0.62265  -0.60964
 Alpha  occ. eigenvalues --   -0.59534  -0.55209  -0.54487  -0.48588  -0.47886
 Alpha  occ. eigenvalues --   -0.47369  -0.37150  -0.35958
 Alpha virt. eigenvalues --    0.03494   0.04185   0.04610   0.04714   0.06234
 Alpha virt. eigenvalues --    0.06397   0.07033   0.07545   0.07936   0.09625
 Alpha virt. eigenvalues --    0.10993   0.12087   0.12985   0.13543   0.14238

 Mulliken charges:
               1
     1  C    0.383942
     2  C    0.164064
     3  C    0.809378
     4  C   -0.906474
     5  C    0.695281
     6  C    0.099477
     7  H   -0.057904
     8  H   -0.109496
     9  H   -0.071107
    10  H   -0.093319
    11  H   -0.243991
    12  H   -0.234785
    13  H   -0.028665
    14  H   -0.358109
    15  H   -0.011319
    16  H   -0.036973
 Sum of Mulliken charges =   0.00000

 Dipole moment (field-independent basis, Debye):
    X=              0.4553    Y=              0.1875    Z=              0.1001  Tot=              0.5025

 Test job not archived.
 1\1\GINC-SE036\SP\RHF\Aug-CC-pVDZ\C6H10\OHZDE\09-Apr-2025\0\\#t hf aug
 -cc-pvdz iop(5/13=1,5/36=2,99/5=2) pseudo=read geom=check guess=(read,
 tcheck) scf=(maxcycle=1)\\title\\0,1\C,0,1.81415298,-0.10880232,0.1292
 8457\C,0,0.68376067,-0.13823343,1.16729681\C,0,-1.40608248,-1.25992187
 ,-1.78929965\C,0,-1.33279468,-0.19810096,-1.01643701\C,0,-1.23531527,0
 .86103443,-0.24195401\C,0,-0.34412577,0.98859067,0.9812544\H,0,2.36714
 283,0.84102471,0.18164158\H,0,1.41839503,-0.21325436,-0.8889599\H,0,2.
 52865375,-0.9261754,0.30120723\H,0,1.1132182,-0.053046,2.17737029\H,0,

 Normal termination of Gaussian 16 at Wed Apr  9 14:17:25 2025.
