 Gaussian 16, Revision C.01,

 ----------------------------------------------------------------------
 #t hf aug-cc-pvdz symm=none int=(grid=ultrafine) guess=(read,tcheck) s
 table=(opt,rrhf)
 ----------------------------------------------------------------------
 -----
 title
 -----
 Symbolic Z-matrix:
 Charge =  0 Multiplicity = 1

 SCF Done:  E(RHF) =  -302.614084683     A.U. after   16 cycles
 Normal termination of Gaussian 16 at Wed Apr  9 16:56:24 2025.
 Gaussian 16:  ES64L-G16RevC.01  3-Jul-2019

 ----------------------------------------------------------------------
 #t hf aug-cc-pvdz iop(5/13=1,5/36=2,99/5=2) pseudo=read geom=check gue
 ss=(read,tcheck) scf=(maxcycle=1)
 ----------------------------------------------------------------------
 -----
 title
 -----
 Structure from the checkpoint file:  "Grambow2020_wb97xd3_009071_forward_mol1.chk"
 Charge =  0 Multiplicity = 1

                         Standard orientation:
 ---------------------------------------------------------------------
 Center     Atomic      Atomic             Coordinates (Angstroms)
 Number     Number       Type             X           Y           Z
 ---------------------------------------------------------------------
      1          6           0       -2.292137   -0.360588    0.178678
      2          7           0       -0.913463    0.006686   -0.067573
      3          6           0       -0.392508    1.326009    0.272310
      4          6           0        0.889018    1.205612   -0.294094
      5          6           0        1.121433   -0.138107   -0.576861
      6          6           0        1.895415   -0.824840    0.397836
      7          7           0       -0.111223   -0.815369   -0.584333
      8          1           0       -2.563689    0.014244    1.162674
      9          1           0       -2.386694   -1.442080    0.119754
     10          1           0       -2.924734    0.121428   -0.565757
     11          1           0        0.358883    0.434902    1.443812
     12          1           0        1.674545    1.929716   -0.131327
     13          1           0        0.997250   -0.390038    1.458993
     14          1           0        2.787736   -0.346620    0.788500
     15          1           0        1.902176   -1.909297    0.419480
 ---------------------------------------------------------------------

 SCF Done:  E(RHF) =  -302.701921607     A.U. after    2 cycles

 The electronic state is 1-A.
 Alpha  occ. eigenvalues --  -15.76493 -15.72325 -11.31004 -11.29447 -11.27172
 Alpha  occ. eigenvalues --  -11.24331 -11.23234  -1.40376  -1.14583  -1.05884
 Alpha  occ. eigenvalues --   -1.01095  -0.90152  -0.81817  -0.75057  -0.70381
 Alpha  occ. eigenvalues --   -0.69526  -0.62365  -0.61377  -0.60083  -0.58028
 Alpha  occ. eigenvalues --   -0.54980  -0.49603  -0.49013  -0.39274  -0.34869
 Alpha  occ. eigenvalues --   -0.32707
 Alpha virt. eigenvalues --    0.02798   0.03394   0.04465   0.04818   0.06202
 Alpha virt. eigenvalues --    0.06515   0.06889   0.08139   0.09173   0.09587
 Alpha virt. eigenvalues --    0.10332   0.12034   0.13104   0.13272   0.13853

 Mulliken charges:
               1
     1  C    0.857582
     2  N   -0.408245
     3  C   -0.431672
     4  C    0.667495
     5  C   -0.167114
     6  C    0.339116
     7  N   -0.379353
     8  H   -0.111216
     9  H   -0.173323
    10  H   -0.078604
    11  H    0.278035
    12  H   -0.305803
    13  H    0.232064
    14  H   -0.143107
    15  H   -0.175854
 Sum of Mulliken charges =  -0.00000

 Dipole moment (field-independent basis, Debye):
    X=              0.1319    Y=             -2.8794    Z=              0.6667  Tot=              2.9586

 Test job not archived.
 1\1\GINC-SE226\SP\RHF\Aug-CC-pVDZ\C5H8N2\OHZDE\09-Apr-2025\0\\#t hf au
 g-cc-pvdz iop(5/13=1,5/36=2,99/5=2) pseudo=read geom=check guess=(read
 ,tcheck) scf=(maxcycle=1)\\title\\0,1\C,0,2.23065984,-0.61490225,-0.07
 946031\N,0,0.92968881,-0.07757301,0.25968831\C,0,0.59779593,1.32846157
 ,0.05858819\C,0,-0.66854691,1.34192295,0.66999103\C,0,-1.0868629,0.025
 30125,0.84627152\C,0,-1.98449513,-0.45076702,-0.1478602\N,0,0.03234087
 ,-0.81978884,0.73957102\H,0,2.52250367,-0.19426278,-1.03882356\H,0,2.1
 6694003,-1.69955796,-0.11819875\H,0,2.95097351,-0.29911667,0.6742832\H

 Normal termination of Gaussian 16 at Wed Apr  9 16:56:30 2025.
