 Gaussian 16, Revision C.01,

 ----------------------------------------------------------------------
 #t hf aug-cc-pvdz symm=none int=(grid=ultrafine) guess=(read,tcheck) s
 table=(opt,rrhf)
 ----------------------------------------------------------------------
 -----
 title
 -----
 Symbolic Z-matrix:
 Charge =  0 Multiplicity = 1

 SCF Done:  E(RHF) =  -268.838795158     A.U. after   13 cycles
 Normal termination of Gaussian 16 at Wed Apr  9 03:03:50 2025.
 Gaussian 16:  ES64L-G16RevC.01  3-Jul-2019

 ----------------------------------------------------------------------
 #t hf aug-cc-pvdz iop(5/13=1,5/36=2,99/5=2) pseudo=read geom=check gue
 ss=(read,tcheck) scf=(maxcycle=1)
 ----------------------------------------------------------------------
 -----
 title
 -----
 Structure from the checkpoint file:  "Grambow2020_b97d3_006497_reverse_mol2.chk"
 Charge =  0 Multiplicity = 1

                         Standard orientation:
 ---------------------------------------------------------------------
 Center     Atomic      Atomic             Coordinates (Angstroms)
 Number     Number       Type             X           Y           Z
 ---------------------------------------------------------------------
      1          8           0       -2.106603   -0.001024   -0.038454
      2          6           0       -0.891863    0.001562   -0.079143
      3          6           0        0.013324    1.252226   -0.093603
      4          6           0        1.399126    0.679488   -0.229253
      5          6           0        1.401596   -0.666901   -0.244357
      6          6           0        0.016772   -1.245220   -0.125411
      7          1           0       -0.276797    1.926590   -0.914919
      8          1           0       -0.132169    1.821383    0.839861
      9          1           0        2.290576    1.302197   -0.297823
     10          1           0        0.462530   -0.101393    3.173680
     11          1           0        0.981784   -0.049327    2.640030
     12          1           0        2.295318   -1.284196   -0.327320
     13          1           0       -0.271665   -1.894747   -0.966901
     14          1           0       -0.130482   -1.839246    0.791619
 ---------------------------------------------------------------------

 SCF Done:  E(RHF) =  -268.922998074     A.U. after    2 cycles

 The electronic state is 1-A.
 Alpha  occ. eigenvalues --  -20.56694 -11.35099 -11.26051 -11.25908 -11.25831
 Alpha  occ. eigenvalues --  -11.25815  -1.35047  -1.13461  -0.98609  -0.94215
 Alpha  occ. eigenvalues --   -0.76297  -0.75400  -0.69183  -0.64347  -0.61010
 Alpha  occ. eigenvalues --   -0.59515  -0.59233  -0.57610  -0.56061  -0.52589
 Alpha  occ. eigenvalues --   -0.51161  -0.41561  -0.36846
 Alpha virt. eigenvalues --    0.03175   0.04107   0.04853   0.05336   0.06346
 Alpha virt. eigenvalues --    0.06516   0.07644   0.08776   0.09658   0.11463
 Alpha virt. eigenvalues --    0.12238   0.13165   0.13408   0.14287   0.14466

 Mulliken charges:
               1
     1  O   -0.542492
     2  C    0.303182
     3  C   -0.004118
     4  C    0.314740
     5  C    0.301245
     6  C    0.004068
     7  H    0.031818
     8  H    0.052826
     9  H   -0.291848
    10  H    0.016821
    11  H    0.021692
    12  H   -0.291710
    13  H    0.032990
    14  H    0.050786
 Sum of Mulliken charges =   0.00000

 Dipole moment (field-independent basis, Debye):
    X=              3.5668    Y=              0.0068    Z=             -0.1020  Tot=              3.5682

 Test job not archived.
 1\1\GINC-SE132\SP\RHF\Aug-CC-pVDZ\C5H8O1\OHZDE\09-Apr-2025\0\\#t hf au
 g-cc-pvdz iop(5/13=1,5/36=2,99/5=2) pseudo=read geom=check guess=(read
 ,tcheck) scf=(maxcycle=1)\\title\\0,1\O,0,-0.62814859,2.3195959,-0.646
 92727\C,0,-0.33435959,1.25197608,-0.14579601\C,0,-1.32292937,0.1401717
 ,0.26694196\C,0,-0.43570483,-0.9008823,0.89616096\C,0,0.86693374,-0.56
 286337,0.85287476\C,0,1.09287142,0.76962083,0.18971795\H,0,-2.09303613
 ,0.54310782,0.9437539\H,0,-1.85692169,-0.22611931,-0.62588784\H,0,-0.8
 2303375,-1.82389139,1.32648814\H,0,0.2812441,-1.16478517,-2.63700769\H

 Normal termination of Gaussian 16 at Wed Apr  9 03:03:54 2025.
