 Gaussian 16, Revision C.01,

 ----------------------------------------------------------------------
 #t hf aug-cc-pvdz symm=none int=(grid=ultrafine) guess=(read,tcheck) s
 table=(opt,rrhf)
 ----------------------------------------------------------------------
 -----
 title
 -----
 Symbolic Z-matrix:
 Charge =  0 Multiplicity = 1

 SCF Done:  E(RHF) =  -359.782751956     A.U. after   15 cycles
 Normal termination of Gaussian 16 at Wed Apr  9 16:26:02 2025.
 Gaussian 16:  ES64L-G16RevC.01  3-Jul-2019

 ----------------------------------------------------------------------
 #t hf aug-cc-pvdz iop(5/13=1,5/36=2,99/5=2) pseudo=read geom=check gue
 ss=(read,tcheck) scf=(maxcycle=1)
 ----------------------------------------------------------------------
 -----
 title
 -----
 Structure from the checkpoint file:  "Grambow2020_wb97xd3_008279_reverse_mol2.chk"
 Charge =  0 Multiplicity = 1

                         Standard orientation:
 ---------------------------------------------------------------------
 Center     Atomic      Atomic             Coordinates (Angstroms)
 Number     Number       Type             X           Y           Z
 ---------------------------------------------------------------------
      1          6           0       -2.799365   -0.538130    0.098772
      2          6           0       -1.483451    0.180925   -0.014841
      3          6           0       -0.249534   -0.696053   -0.132286
      4          7           0        0.939822    0.101497   -0.085480
      5          6           0        2.191584   -0.393832    0.041077
      6          8           0        3.197737    0.270905    0.085647
      7          8           0       -1.393158    1.381344   -0.007925
      8          1           0       -2.833327   -1.419274   -0.543719
      9          1           0       -3.614438    0.139247   -0.144844
     10          1           0       -2.922517   -0.878549    1.130337
     11          1           0        2.210238   -1.499445    0.103476
     12          1           0       -0.346693   -1.253607   -1.073686
     13          1           0       -0.278811   -1.437676    0.673886
     14          1           0        0.814752    1.103382   -0.125197
 ---------------------------------------------------------------------

 SCF Done:  E(RHF) =  -359.896649048     A.U. after    2 cycles

 The electronic state is 1-A.
 Alpha  occ. eigenvalues --  -20.58996 -20.54195 -15.65544 -11.37137 -11.36652
 Alpha  occ. eigenvalues --  -11.31281 -11.26767  -1.38935  -1.35332  -1.21793
 Alpha  occ. eigenvalues --   -1.05580  -0.97950  -0.85087  -0.78139  -0.71739
 Alpha  occ. eigenvalues --   -0.70866  -0.68101  -0.65472  -0.64161  -0.61343
 Alpha  occ. eigenvalues --   -0.59695  -0.58001  -0.56101  -0.53263  -0.45975
 Alpha  occ. eigenvalues --   -0.44765  -0.40287
 Alpha virt. eigenvalues --    0.02098   0.03726   0.03770   0.05399   0.06010
 Alpha virt. eigenvalues --    0.06853   0.07404   0.09609   0.10541   0.11194
 Alpha virt. eigenvalues --    0.11717   0.12706   0.13580   0.14115   0.14704

 Mulliken charges:
               1
     1  C    0.455018
     2  C   -0.278201
     3  C    0.836613
     4  N   -0.307571
     5  C    0.692875
     6  O   -0.477255
     7  O   -0.543385
     8  H    0.010480
     9  H   -0.060369
    10  H    0.081545
    11  H   -0.194504
    12  H   -0.033175
    13  H   -0.100364
    14  H   -0.081706
 Sum of Mulliken charges =   0.00000

 Dipole moment (field-independent basis, Debye):
    X=             -5.0605    Y=             -4.6840    Z=             -0.1698  Tot=              6.8976

 Test job not archived.
 1\1\GINC-SE141\SP\RHF\Aug-CC-pVDZ\C4H7N1O2\OHZDE\09-Apr-2025\0\\#t hf
 aug-cc-pvdz iop(5/13=1,5/36=2,99/5=2) pseudo=read geom=check guess=(re
 ad,tcheck) scf=(maxcycle=1)\\title\\0,1\C,0,-2.20791736,-0.72211727,0.
 24109445\C,0,-0.72751626,-0.72081561,0.50564695\C,0,0.06690759,0.40002
 644,-0.14091284\N,0,1.47112931,0.20443072,0.06584269\C,0,2.44382127,0.
 90925903,-0.55493303\O,0,3.62825884,0.74791745,-0.38976378\O,0,-0.1849
 3046,-1.55555405,1.18241676\H,0,-2.61799051,0.2889215,0.24287006\H,0,-
 2.71613898,-1.33770487,0.97953526\H,0,-2.38427005,-1.14661835,-0.75081

 Normal termination of Gaussian 16 at Wed Apr  9 16:26:06 2025.
