 Gaussian 16, Revision C.01,

 ----------------------------------------------------------------------
 #t hf aug-cc-pvdz symm=none int=(grid=ultrafine) guess=(read,tcheck) s
 table=(opt,rrhf)
 ----------------------------------------------------------------------
 -----
 title
 -----
 Symbolic Z-matrix:
 Charge =  0 Multiplicity = 1

 SCF Done:  E(RHF) =  -295.750060004     A.U. after   17 cycles
 Normal termination of Gaussian 16 at Wed Apr  9 14:07:54 2025.
 Gaussian 16:  ES64L-G16RevC.01  3-Jul-2019

 ----------------------------------------------------------------------
 #t hf aug-cc-pvdz iop(5/13=1,5/36=2,99/5=2) pseudo=read geom=check gue
 ss=(read,tcheck) scf=(maxcycle=1)
 ----------------------------------------------------------------------
 -----
 title
 -----
 Structure from the checkpoint file:  "Grambow2020_b97d3_006785_reverse_mol2.chk"
 Charge =  0 Multiplicity = 1

                         Standard orientation:
 ---------------------------------------------------------------------
 Center     Atomic      Atomic             Coordinates (Angstroms)
 Number     Number       Type             X           Y           Z
 ---------------------------------------------------------------------
      1          7           0        1.897988    0.746325    0.218309
      2          6           0        0.910738   -0.155235    0.021233
      3          7           0       -1.595983    1.104918   -0.385776
      4          7           0       -1.565849    0.016154    0.150909
      5          6           0       -0.308872   -0.743993    0.479824
      6          7           0        0.566491   -1.172549   -0.679668
      7          1           0        2.535277    0.872794   -0.566625
      8          1           0        1.600046    1.618558    0.645797
      9          1           0       -2.431341   -0.536649    0.455059
     10          1           0       -0.433712   -1.423272    1.333011
 ---------------------------------------------------------------------

 SCF Done:  E(RHF) =  -295.833397469     A.U. after    2 cycles

 The electronic state is 1-A.
 Alpha  occ. eigenvalues --  -15.73996 -15.68083 -15.64895 -15.64423 -11.35662
 Alpha  occ. eigenvalues --  -11.33304  -1.33706  -1.28548  -1.19633  -0.97085
 Alpha  occ. eigenvalues --   -0.83432  -0.79938  -0.72451  -0.71677  -0.65715
 Alpha  occ. eigenvalues --   -0.58005  -0.57689  -0.53339  -0.51494  -0.41233
 Alpha  occ. eigenvalues --   -0.40072  -0.34178
 Alpha virt. eigenvalues --    0.02822   0.02996   0.05117   0.05303   0.09533
 Alpha virt. eigenvalues --    0.10146   0.10780   0.12261   0.12933   0.13993
 Alpha virt. eigenvalues --    0.14330   0.15370   0.16100   0.17489   0.17639

 Mulliken charges:
               1
     1  N   -0.209639
     2  C    0.105014
     3  N   -0.454420
     4  N   -0.164237
     5  C    1.396656
     6  N   -0.581115
     7  H    0.051915
     8  H    0.064171
     9  H    0.002334
    10  H   -0.210679
 Sum of Mulliken charges =  -0.00000

 Dipole moment (field-independent basis, Debye):
    X=              1.3249    Y=              0.2885    Z=              2.6383  Tot=              2.9664

 Test job not archived.
 1\1\GINC-SE120\SP\RHF\Aug-CC-pVDZ\C2H4N4\OHZDE\09-Apr-2025\0\\#t hf au
 g-cc-pvdz iop(5/13=1,5/36=2,99/5=2) pseudo=read geom=check guess=(read
 ,tcheck) scf=(maxcycle=1)\\title\\0,1\N,0,1.80524796,0.37558523,-0.544
 43442\C,0,0.57845717,0.5941551,-0.02143822\N,0,-0.67480241,-1.82487925
 ,0.76271923\N,0,-1.36515478,-0.90382738,0.37616845\C,0,-0.83655876,0.4
 1489942,-0.12137203\N,0,-0.06210853,1.26773305,0.86211322\H,0,2.586942
 85,0.62842344,0.05829072\H,0,1.91915914,-0.52350858,-1.00373804\H,0,-2
 .43561712,-0.9176825,0.34308502\H,0,-1.51506252,0.90403147,-0.83222793

 Normal termination of Gaussian 16 at Wed Apr  9 14:07:58 2025.
