 Gaussian 16, Revision C.01,

 ----------------------------------------------------------------------
 #t hf aug-cc-pvdz symm=none int=(grid=ultrafine) guess=(read,tcheck) s
 table=(opt,rrhf)
 ----------------------------------------------------------------------
 -----
 title
 -----
 Symbolic Z-matrix:
 Charge =  0 Multiplicity = 1

 SCF Done:  E(RHF) =  -286.745545892     A.U. after   15 cycles
 Normal termination of Gaussian 16 at Wed Apr  9 16:12:11 2025.
 Gaussian 16:  ES64L-G16RevC.01  3-Jul-2019

 ----------------------------------------------------------------------
 #t hf aug-cc-pvdz iop(5/13=1,5/36=2,99/5=2) pseudo=read geom=check gue
 ss=(read,tcheck) scf=(maxcycle=1)
 ----------------------------------------------------------------------
 -----
 title
 -----
 Structure from the checkpoint file:  "Grambow2020_wb97xd3_007990_reverse_mol2.chk"
 Charge =  0 Multiplicity = 1

                         Standard orientation:
 ---------------------------------------------------------------------
 Center     Atomic      Atomic             Coordinates (Angstroms)
 Number     Number       Type             X           Y           Z
 ---------------------------------------------------------------------
      1          6           0       -3.514191    0.387419   -0.070109
      2          6           0       -2.139157   -0.088137    0.023831
      3          6           0       -1.006201   -0.468777    0.107164
      4          6           0        0.383060   -0.912644    0.190494
      5          6           0        1.323024    0.096032   -0.450756
      6          6           0        1.961325    1.236196    0.243323
      7          7           0        2.738368   -0.089567   -0.078968
      8          1           0       -4.065960   -0.160679   -0.835211
      9          1           0       -3.535493    1.447229   -0.328319
     10          1           0       -4.033191    0.260285    0.881156
     11          1           0        0.475440   -1.891913   -0.292882
     12          1           0        0.655555   -1.037474    1.244735
     13          1           0        1.175563    0.175297   -1.526997
     14          1           0        1.739847    1.151168    1.316006
     15          1           0        2.924897   -0.792507    0.621555
     16          1           0        3.447616   -0.024964   -0.790954
 ---------------------------------------------------------------------

 SCF Done:  E(RHF) =  -286.833468495     A.U. after    2 cycles

 The electronic state is 1-A.
 Alpha  occ. eigenvalues --  -15.69825 -11.28301 -11.26995 -11.25521 -11.23502
 Alpha  occ. eigenvalues --  -11.22942 -11.20597  -1.26242  -1.07140  -1.02194
 Alpha  occ. eigenvalues --   -0.94940  -0.91346  -0.79409  -0.74648  -0.66557
 Alpha  occ. eigenvalues --   -0.64063  -0.61437  -0.60349  -0.58942  -0.58662
 Alpha  occ. eigenvalues --   -0.54918  -0.49548  -0.44759  -0.37544  -0.37286
 Alpha  occ. eigenvalues --   -0.30032
 Alpha virt. eigenvalues --    0.02421   0.03516   0.04068   0.04725   0.05850
 Alpha virt. eigenvalues --    0.06229   0.06800   0.07572   0.08290   0.10101
 Alpha virt. eigenvalues --    0.11083   0.12346   0.12945   0.14497   0.14920

 Mulliken charges:
               1
     1  C    0.139384
     2  C   -0.886085
     3  C   -0.071510
     4  C   -0.039032
     5  C    0.864360
     6  C   -0.053228
     7  N   -0.183301
     8  H    0.154820
     9  H    0.148633
    10  H    0.156757
    11  H    0.154527
    12  H    0.122946
    13  H   -0.320479
    14  H   -0.209971
    15  H    0.013204
    16  H    0.008977
 Sum of Mulliken charges =  -0.00000

 Dipole moment (field-independent basis, Debye):
    X=              0.4093    Y=             -4.1690    Z=             -0.2248  Tot=              4.1951

 Test job not archived.
 1\1\GINC-SE226\SP\RHF\Aug-CC-pVDZ\C6H9N1\OHZDE\09-Apr-2025\0\\#t hf au
 g-cc-pvdz iop(5/13=1,5/36=2,99/5=2) pseudo=read geom=check guess=(read
 ,tcheck) scf=(maxcycle=1)\\title\\0,1\C,0,2.68637317,0.41167795,2.2779
 1721\C,0,1.64892163,-0.05949716,1.36831015\C,0,0.79735413,-0.43628272,
 0.61446313\C,0,-0.25865032,-0.87625473,-0.29399101\C,0,-1.42114275,0.1
 0389235,-0.30317288\C,0,-1.55107517,1.27276662,-1.20094634\N,0,-2.3333
 3292,-0.06566499,-1.44992104\H,0,2.68938765,-0.16873211,3.20168977\H,0
 ,2.52295604,1.4594235,2.53452428\H,0,3.67207868,0.32554515,1.81814068\

 Normal termination of Gaussian 16 at Wed Apr  9 16:12:16 2025.
