 Gaussian 16, Revision C.01,

 ----------------------------------------------------------------------
 #t hf aug-cc-pvdz symm=none int=(grid=ultrafine) guess=(read,tcheck) s
 table=(opt,rrhf)
 ----------------------------------------------------------------------
 -----
 title
 -----
 Symbolic Z-matrix:
 Charge =  0 Multiplicity = 1

 SCF Done:  E(RHF) =  -342.561101496     A.U. after   15 cycles
 Normal termination of Gaussian 16 at Wed Apr  9 03:58:38 2025.
 Gaussian 16:  ES64L-G16RevC.01  3-Jul-2019

 ----------------------------------------------------------------------
 #t hf aug-cc-pvdz iop(5/13=1,5/36=2,99/5=2) pseudo=read geom=check gue
 ss=(read,tcheck) scf=(maxcycle=1)
 ----------------------------------------------------------------------
 -----
 title
 -----
 Structure from the checkpoint file:  "Grambow2020_wb97xd3_008770_reverse_mol2.chk"
 Charge =  0 Multiplicity = 1

                         Standard orientation:
 ---------------------------------------------------------------------
 Center     Atomic      Atomic             Coordinates (Angstroms)
 Number     Number       Type             X           Y           Z
 ---------------------------------------------------------------------
      1          8           0       -2.380211    0.313327   -0.389328
      2          6           0       -1.496751   -0.479049   -0.228677
      3          6           0       -0.282257   -0.213368    0.648844
      4          8           0        0.730487   -1.172326    0.317945
      5          6           0        1.674316   -0.495984   -0.403078
      6          6           0        1.521650    0.818348   -0.424694
      7          6           0        0.326391    1.178846    0.419553
      8          1           0       -1.512896   -1.482665   -0.699280
      9          1           0       -0.587018   -0.387744    1.683959
     10          1           0        2.435200   -1.120165   -0.848147
     11          1           0        2.174073    1.519677   -0.919496
     12          1           0       -0.394418    1.832452   -0.073951
     13          1           0        0.622749    1.657680    1.356299
 ---------------------------------------------------------------------

 SCF Done:  E(RHF) =  -342.668119450     A.U. after    2 cycles

 The electronic state is 1-A.
 Alpha  occ. eigenvalues --  -20.60831 -20.58492 -11.34998 -11.31791 -11.30896
 Alpha  occ. eigenvalues --  -11.25526 -11.24082  -1.39423  -1.37397  -1.07799
 Alpha  occ. eigenvalues --   -1.03670  -0.89173  -0.80965  -0.78781  -0.73380
 Alpha  occ. eigenvalues --   -0.70420  -0.68064  -0.62654  -0.58613  -0.58029
 Alpha  occ. eigenvalues --   -0.56232  -0.54826  -0.54501  -0.50681  -0.44190
 Alpha  occ. eigenvalues --   -0.35074
 Alpha virt. eigenvalues --    0.03222   0.04200   0.04379   0.05272   0.06282
 Alpha virt. eigenvalues --    0.06726   0.09120   0.10012   0.10926   0.11827
 Alpha virt. eigenvalues --    0.12743   0.13419   0.13844   0.14724   0.14992

 Mulliken charges:
               1
     1  O   -0.468202
     2  C    0.608173
     3  C    0.319578
     4  O   -0.642684
     5  C    0.443057
     6  C    0.479784
     7  C    0.226766
     8  H   -0.106442
     9  H   -0.100021
    10  H   -0.316670
    11  H   -0.302660
    12  H   -0.108483
    13  H   -0.032196
 Sum of Mulliken charges =  -0.00000

 Dipole moment (field-independent basis, Debye):
    X=              2.3583    Y=             -0.2278    Z=              0.4779  Tot=              2.4170

 Test job not archived.
 1\1\GINC-SE080\SP\RHF\Aug-CC-pVDZ\C5H6O2\OHZDE\09-Apr-2025\0\\#t hf au
 g-cc-pvdz iop(5/13=1,5/36=2,99/5=2) pseudo=read geom=check guess=(read
 ,tcheck) scf=(maxcycle=1)\\title\\0,1\O,0,1.79279472,1.85468086,-0.559
 07115\C,0,1.67764292,0.76648022,-0.07252201\C,0,0.65123557,-0.25554639
 ,-0.5389717\O,0,0.52302554,-1.25993302,0.47567802\C,0,-0.67089652,-1.0
 2294933,1.09738024\C,0,-1.43830888,-0.12300164,0.50373512\C,0,-0.74452
 012,0.35271165,-0.74674967\H,0,2.33353297,0.41658031,0.7498836\H,0,1.0
 5415596,-0.73184209,-1.43649496\H,0,-0.8431129,-1.61462424,1.98445153\

 Normal termination of Gaussian 16 at Wed Apr  9 03:58:42 2025.
