 Gaussian 16, Revision C.01,

 ----------------------------------------------------------------------
 #t hf aug-cc-pvdz symm=none int=(grid=ultrafine) guess=(read,tcheck) s
 table=(opt,rrhf)
 ----------------------------------------------------------------------
 -----
 title
 -----
 Symbolic Z-matrix:
 Charge =  0 Multiplicity = 1

 SCF Done:  E(RHF) =  -341.199950819     A.U. after   15 cycles
 Normal termination of Gaussian 16 at Wed Apr  9 16:58:00 2025.
 Gaussian 16:  ES64L-G16RevC.01  3-Jul-2019

 ----------------------------------------------------------------------
 #t hf aug-cc-pvdz iop(5/13=1,5/36=2,99/5=2) pseudo=read geom=check gue
 ss=(read,tcheck) scf=(maxcycle=1)
 ----------------------------------------------------------------------
 -----
 title
 -----
 Structure from the checkpoint file:  "Grambow2020_wb97xd3_009095_reverse_mol1.chk"
 Charge =  0 Multiplicity = 1

                         Standard orientation:
 ---------------------------------------------------------------------
 Center     Atomic      Atomic             Coordinates (Angstroms)
 Number     Number       Type             X           Y           Z
 ---------------------------------------------------------------------
      1          8           0       -1.578028   -1.319950   -0.002714
      2          6           0       -0.837184   -0.394256    0.000251
      3          6           0       -1.160430    1.110318    0.002359
      4          6           0        0.174506    1.843378   -0.002468
      5          6           0        1.035454    0.890710   -0.000351
      6          6           0        0.754242   -0.520965    0.001132
      7          8           0        1.411500   -1.514947    0.001635
      8          1           0       -1.765623    1.377434   -0.867000
      9          1           0       -1.754814    1.377140    0.879336
     10          1           0        2.526839    1.178370    0.392954
     11          1           0        2.526291    1.171127   -0.402192
 ---------------------------------------------------------------------

 SCF Done:  E(RHF) =  -341.303902441     A.U. after    2 cycles

 The electronic state is 1-A.
 Alpha  occ. eigenvalues --  -20.61242 -20.60450 -11.39334 -11.38083 -11.33243
 Alpha  occ. eigenvalues --  -11.29466 -11.26918  -1.41524  -1.39311  -1.18032
 Alpha  occ. eigenvalues --   -0.99772  -0.93776  -0.82119  -0.76386  -0.72199
 Alpha  occ. eigenvalues --   -0.69402  -0.66741  -0.66287  -0.59708  -0.58837
 Alpha  occ. eigenvalues --   -0.55580  -0.54380  -0.45045  -0.44415  -0.37841
 Alpha virt. eigenvalues --    0.02347   0.03276   0.03999   0.04608   0.05926
 Alpha virt. eigenvalues --    0.06951   0.08304   0.08946   0.09976   0.10031
 Alpha virt. eigenvalues --    0.11194   0.13023   0.14236   0.14609   0.14790

 Mulliken charges:
               1
     1  O   -0.441834
     2  C    0.352459
     3  C    0.127791
     4  C   -0.558822
     5  C    0.672735
     6  C    0.033756
     7  O   -0.403158
     8  H    0.042255
     9  H    0.045148
    10  H    0.065405
    11  H    0.064265
 Sum of Mulliken charges =  -0.00000

 Dipole moment (field-independent basis, Debye):
    X=              1.3795    Y=              3.3795    Z=              0.0088  Tot=              3.6502

 Test job not archived.
 1\1\GINC-SE114\SP\RHF\Aug-CC-pVDZ\C5H4O2\OHZDE\09-Apr-2025\0\\#t hf au
 g-cc-pvdz iop(5/13=1,5/36=2,99/5=2) pseudo=read geom=check guess=(read
 ,tcheck) scf=(maxcycle=1)\\title\\0,1\O,0,-0.63849531,2.38271662,-0.14
 308569\C,0,-0.42700858,1.21727065,-0.09038841\C,0,-1.41241994,0.042824
 12,-0.22409599\C,0,-0.59510933,-1.23256644,-0.06650133\C,0,0.60028987,
 -0.79825719,0.11015426\C,0,1.01691077,0.57904495,0.14721813\O,0,2.0542
 0788,1.14580316,0.29818081\H,0,-2.19846987,0.10910812,0.53163218\H,0,-
 1.91877691,0.07085587,-1.1917695\H,0,1.82385428,-1.76223882,-0.077719\

 Normal termination of Gaussian 16 at Wed Apr  9 16:58:04 2025.
