 Gaussian 16, Revision C.01,

 ----------------------------------------------------------------------
 #t hf aug-cc-pvdz symm=none int=(grid=ultrafine) guess=(read,tcheck) s
 table=(opt,rrhf)
 ----------------------------------------------------------------------
 -----
 title
 -----
 Symbolic Z-matrix:
 Charge =  0 Multiplicity = 1

 SCF Done:  E(RHF) =  -245.683646578     A.U. after   16 cycles
 Normal termination of Gaussian 16 at Wed Apr  9 03:20:50 2025.
 Gaussian 16:  ES64L-G16RevC.01  3-Jul-2019

 ----------------------------------------------------------------------
 #t hf aug-cc-pvdz iop(5/13=1,5/36=2,99/5=2) pseudo=read geom=check gue
 ss=(read,tcheck) scf=(maxcycle=1)
 ----------------------------------------------------------------------
 -----
 title
 -----
 Structure from the checkpoint file:  "Grambow2020_wb97xd3_006118_reverse_mol1.chk"
 Charge =  0 Multiplicity = 1

                         Standard orientation:
 ---------------------------------------------------------------------
 Center     Atomic      Atomic             Coordinates (Angstroms)
 Number     Number       Type             X           Y           Z
 ---------------------------------------------------------------------
      1          6           0       -1.402709    0.382787    0.000538
      2          6           0        0.659440    1.259673   -0.000395
      3          7           0        1.186747    0.037952    0.000201
      4          6           0        1.064750   -1.126316    0.000153
      5          8           0       -1.264368   -0.845705   -0.000604
      6          1           0       -1.640889    0.921621    0.930910
      7          1           0       -1.642583    0.923384   -0.928310
      8          1           0        0.789478    1.811635   -0.923615
      9          1           0        0.790091    1.812281    0.922409
     10          1           0        1.582728   -2.065804    0.000257
 ---------------------------------------------------------------------

 SCF Done:  E(RHF) =  -245.762754374     A.U. after    2 cycles

 The electronic state is 1-A.
 Alpha  occ. eigenvalues --  -20.52713 -15.72579 -11.33926 -11.30395 -11.26804
 Alpha  occ. eigenvalues --   -1.30740  -1.27592  -1.02155  -0.82771  -0.79130
 Alpha  occ. eigenvalues --   -0.69733  -0.66431  -0.63169  -0.63006  -0.59985
 Alpha  occ. eigenvalues --   -0.49134  -0.45842  -0.40264  -0.30741
 Alpha virt. eigenvalues --    0.03169   0.04043   0.04714   0.05499   0.07720
 Alpha virt. eigenvalues --    0.08728   0.08857   0.09380   0.11460   0.13048
 Alpha virt. eigenvalues --    0.13933   0.15108   0.15804   0.16318   0.17041

 Mulliken charges:
               1
     1  C    0.652475
     2  C    0.636016
     3  N    0.124864
     4  C    0.111223
     5  O   -0.513849
     6  H   -0.141426
     7  H   -0.141568
     8  H   -0.290208
     9  H   -0.290011
    10  H   -0.147517
 Sum of Mulliken charges =  -0.00000

 Dipole moment (field-independent basis, Debye):
    X=              2.9179    Y=              0.9833    Z=              0.0020  Tot=              3.0791

 Test job not archived.
 1\1\GINC-SE177\SP\RHF\Aug-CC-pVDZ\C3H5N1O1\OHZDE\09-Apr-2025\0\\#t hf
 aug-cc-pvdz iop(5/13=1,5/36=2,99/5=2) pseudo=read geom=check guess=(re
 ad,tcheck) scf=(maxcycle=1)\\title\\0,1\C,0,-0.75685538,-1.24978714,-0
 .07412183\C,0,-0.51234458,0.9501637,0.27490876\N,0,0.79541327,0.847560
 41,0.05153034\C,0,1.73881298,0.20583246,-0.21035423\O,0,0.36789412,-1.
 69406349,-0.33081211\H,0,-1.19378732,-1.36934889,0.92960033\H,0,-1.480
 95222,-1.05051941,-0.87942926\H,0,-1.06602973,1.47595096,-0.49378289\H
 ,0,-0.78348569,1.15955554,1.30284345\H,0,2.79894155,0.22498785,-0.3737

 Normal termination of Gaussian 16 at Wed Apr  9 03:20:53 2025.
