 Gaussian 16, Revision C.01,

 ----------------------------------------------------------------------
 #t hf aug-cc-pvdz symm=none int=(grid=ultrafine) guess=(read,tcheck) s
 table=(opt,rrhf)
 ----------------------------------------------------------------------
 -----
 title
 -----
 Symbolic Z-matrix:
 Charge =  0 Multiplicity = 1

 SCF Done:  E(RHF) =  -344.704170656     A.U. after   15 cycles

 1\1\GINC-SE460\Stability\RHF\Aug-CC-pVDZ\C5H10O2\OHZDE\09-Apr-2025\0\\
 #t hf aug-cc-pvdz symm=none int=(grid=ultrafine) guess=(read,tcheck) s
 table=(opt,rrhf)\\title\\0,1\C,0,1.90763973,0.86828456,-0.47680994\C,0
 ,0.91077305,-0.85988291,-0.00698679\C,0,0.59867999,-0.69742655,1.40745
 336\O,0,-0.6738222,-0.03414068,1.30468243\C,0,-1.2783549,-0.47876916,0
 .14343413\C,0,-2.19866814,0.55118334,-0.44472915\O,0,-0.16551192,-0.74
 879996,-0.78071979\H,0,1.99428706,0.56140839,-1.51554182\H,0,2.9050284
 7,1.05992051,-0.07184985\H,0,1.2613548,1.74266363,-0.39924275\H,0,1.71

 Normal termination of Gaussian 16 at Wed Apr  9 03:33:34 2025.
 Gaussian 16:  ES64L-G16RevC.01  3-Jul-2019

 ----------------------------------------------------------------------
 #t hf aug-cc-pvdz iop(5/13=1,5/36=2,99/5=2) pseudo=read geom=check gue
 ss=(read,tcheck) scf=(maxcycle=1)
 ----------------------------------------------------------------------
 -----
 title
 -----
 Structure from the checkpoint file:  "Grambow2020_wb97xd3_007110_reverse_mol1.chk"
 Charge =  0 Multiplicity = 1

                         Standard orientation:
 ---------------------------------------------------------------------
 Center     Atomic      Atomic             Coordinates (Angstroms)
 Number     Number       Type             X           Y           Z
 ---------------------------------------------------------------------
      1          6           0        2.014573   -1.066329   -0.523296
      2          6           0        1.020592    0.275975    0.664670
      3          6           0        0.714391    1.372449   -0.245507
      4          8           0       -0.558876    0.928505   -0.746980
      5          6           0       -1.168078    0.201822    0.259229
      6          6           0       -2.091399   -0.850363   -0.283080
      7          8           0       -0.059009   -0.428419    0.992822
      8          1           0        2.096991   -1.768422    0.301881
      9          1           0        3.013564   -0.835925   -0.903339
     10          1           0        1.368170   -1.477141   -1.298948
     11          1           0        1.820518    0.331898    1.392091
     12          1           0        1.627186    0.241386   -0.624473
     13          1           0        0.700462    2.367092    0.199940
     14          1           0       -1.660523    0.852250    0.997028
     15          1           0       -1.549629   -1.498164   -0.971961
     16          1           0       -2.506256   -1.447782    0.528566
     17          1           0       -2.907883   -0.367205   -0.819609
 ---------------------------------------------------------------------

 SCF Done:  E(RHF) =  -344.815249648     A.U. after    2 cycles

 The electronic state is 1-A.
 Alpha  occ. eigenvalues --  -20.62226 -20.57505 -11.38495 -11.35559 -11.23650
 Alpha  occ. eigenvalues --  -11.23593 -11.23188  -1.43632  -1.31583  -1.07984
 Alpha  occ. eigenvalues --   -0.99369  -0.92575  -0.86196  -0.82390  -0.75146
 Alpha  occ. eigenvalues --   -0.71760  -0.64527  -0.63678  -0.60771  -0.58275
 Alpha  occ. eigenvalues --   -0.56760  -0.56316  -0.54646  -0.53780  -0.53350
 Alpha  occ. eigenvalues --   -0.47137  -0.44463  -0.28634
 Alpha virt. eigenvalues --    0.03097   0.04242   0.04497   0.05236   0.05854
 Alpha virt. eigenvalues --    0.06430   0.06583   0.07414   0.08892   0.09582
 Alpha virt. eigenvalues --    0.11305   0.11763   0.12868   0.13782   0.14038

 Mulliken charges:
               1
     1  C    0.135808
     2  C    0.350622
     3  C    0.344694
     4  O   -0.752896
     5  C    0.889655
     6  C    0.261014
     7  O   -0.647408
     8  H   -0.129917
     9  H   -0.047875
    10  H   -0.098207
    11  H   -0.348638
    12  H    0.674529
    13  H   -0.333426
    14  H   -0.314968
    15  H   -0.014802
    16  H    0.015091
    17  H    0.016725
 Sum of Mulliken charges =   0.00000

 Dipole moment (field-independent basis, Debye):
    X=              0.2288    Y=             -1.3377    Z=              2.1564  Tot=              2.5480

 Test job not archived.
 1\1\GINC-SE460\SP\RHF\Aug-CC-pVDZ\C5H10O2\OHZDE\09-Apr-2025\0\\#t hf a
 ug-cc-pvdz iop(5/13=1,5/36=2,99/5=2) pseudo=read geom=check guess=(rea
 d,tcheck) scf=(maxcycle=1)\\title\\0,1\C,0,1.90763973,0.86828456,-0.47
 680994\C,0,0.91077305,-0.85988291,-0.00698679\C,0,0.59867999,-0.697426
 55,1.40745336\O,0,-0.6738222,-0.03414068,1.30468243\C,0,-1.2783549,-0.
 47876916,0.14343413\C,0,-2.19866814,0.55118334,-0.44472915\O,0,-0.1655
 1192,-0.74879996,-0.78071979\H,0,1.99428706,0.56140839,-1.51554182\H,0
 ,2.90502847,1.05992051,-0.07184985\H,0,1.2613548,1.74266363,-0.3992427

 Normal termination of Gaussian 16 at Wed Apr  9 03:33:40 2025.
