 Gaussian 16, Revision C.01,

 ----------------------------------------------------------------------
 #t hf aug-cc-pvdz symm=none int=(grid=ultrafine) guess=(read,tcheck) s
 table=(opt,rrhf)
 ----------------------------------------------------------------------
 -----
 title
 -----
 Symbolic Z-matrix:
 Charge =  0 Multiplicity = 1

 SCF Done:  E(RHF) =  -344.711741066     A.U. after   15 cycles

 1\1\GINC-SE114\Stability\RHF\Aug-CC-pVDZ\C5H10O2\OHZDE\09-Apr-2025\0\\
 #t hf aug-cc-pvdz symm=none int=(grid=ultrafine) guess=(read,tcheck) s
 table=(opt,rrhf)\\title\\0,1\C,0,2.12580503,0.9462008,-0.48309957\O,0,
 0.71768369,0.88991205,-0.47500203\C,0,0.23269069,-0.39565032,-0.649546
 81\C,0,0.36111348,-1.50472914,0.41812494\O,0,-0.96480789,-1.76653938,0
 .34555884\C,0,-1.27970332,-0.5921719,-0.46573687\C,0,-2.00723604,0.456
 6653,0.32821648\H,0,2.55277155,0.37076335,0.34613\H,0,2.53153643,0.559
 0879,-1.42578419\H,0,2.40648646,1.99180135,-0.3724126\H,0,0.58223817,-

 Normal termination of Gaussian 16 at Wed Apr  9 14:57:09 2025.
 Gaussian 16:  ES64L-G16RevC.01  3-Jul-2019

 ----------------------------------------------------------------------
 #t hf aug-cc-pvdz iop(5/13=1,5/36=2,99/5=2) pseudo=read geom=check gue
 ss=(read,tcheck) scf=(maxcycle=1)
 ----------------------------------------------------------------------
 -----
 title
 -----
 Structure from the checkpoint file:  "Grambow2020_wb97xd3_006655_forward_mol1.chk"
 Charge =  0 Multiplicity = 1

                         Standard orientation:
 ---------------------------------------------------------------------
 Center     Atomic      Atomic             Coordinates (Angstroms)
 Number     Number       Type             X           Y           Z
 ---------------------------------------------------------------------
      1          6           0        2.513536    0.112640    0.092726
      2          8           0        1.230892    0.680691   -0.042111
      3          6           0        0.299913   -0.213481   -0.544196
      4          6           0       -0.234106   -1.422773    0.255121
      5          8           0       -1.513376   -1.059349    0.003586
      6          6           0       -1.165250    0.248051   -0.549597
      7          6           0       -1.526523    1.365798    0.388405
      8          1           0        2.508815   -0.717833    0.807808
      9          1           0        2.886451   -0.254938   -0.871095
     10          1           0        3.174718    0.895001    0.460236
     11          1           0        0.611946   -0.582052   -1.532142
     12          1           0        0.109194   -0.659263    1.773488
     13          1           0        0.109006   -1.519052    1.482481
     14          1           0       -1.626277    0.374045   -1.531705
     15          1           0       -1.105474    2.303335    0.023716
     16          1           0       -2.610227    1.464961    0.454224
     17          1           0       -1.123705    1.183653    1.386440
 ---------------------------------------------------------------------

 SCF Done:  E(RHF) =  -344.823287789     A.U. after    2 cycles

 The electronic state is 1-A.
 Alpha  occ. eigenvalues --  -20.60470 -20.59125 -11.31521 -11.30811 -11.30759
 Alpha  occ. eigenvalues --  -11.29415 -11.23412  -1.40274  -1.35869  -1.04706
 Alpha  occ. eigenvalues --   -0.99337  -0.92453  -0.88549  -0.77015  -0.72119
 Alpha  occ. eigenvalues --   -0.70737  -0.68422  -0.65742  -0.62715  -0.59354
 Alpha  occ. eigenvalues --   -0.57535  -0.55085  -0.53640  -0.51591  -0.49967
 Alpha  occ. eigenvalues --   -0.48071  -0.44047  -0.33488
 Alpha virt. eigenvalues --    0.03302   0.04129   0.04373   0.05227   0.06096
 Alpha virt. eigenvalues --    0.06297   0.06955   0.07986   0.08473   0.09757
 Alpha virt. eigenvalues --    0.10288   0.12078   0.12669   0.13517   0.14608

 Mulliken charges:
               1
     1  C    0.724714
     2  O   -0.715033
     3  C    0.745577
     4  C    0.032698
     5  O   -0.742440
     6  C    0.321096
     7  C    0.395086
     8  H   -0.113650
     9  H   -0.029985
    10  H   -0.232354
    11  H   -0.185458
    12  H    0.047227
    13  H    0.028883
    14  H   -0.260834
    15  H    0.032166
    16  H   -0.020458
    17  H   -0.027235
 Sum of Mulliken charges =   0.00000

 Dipole moment (field-independent basis, Debye):
    X=              1.4854    Y=              1.5958    Z=             -0.8447  Tot=              2.3380

 Test job not archived.
 1\1\GINC-SE114\SP\RHF\Aug-CC-pVDZ\C5H10O2\OHZDE\09-Apr-2025\0\\#t hf a
 ug-cc-pvdz iop(5/13=1,5/36=2,99/5=2) pseudo=read geom=check guess=(rea
 d,tcheck) scf=(maxcycle=1)\\title\\0,1\C,0,2.12580503,0.9462008,-0.483
 09957\O,0,0.71768369,0.88991205,-0.47500203\C,0,0.23269069,-0.39565032
 ,-0.64954681\C,0,0.36111348,-1.50472914,0.41812494\O,0,-0.96480789,-1.
 76653938,0.34555884\C,0,-1.27970332,-0.5921719,-0.46573687\C,0,-2.0072
 3604,0.4566653,0.32821648\H,0,2.55277155,0.37076335,0.34613\H,0,2.5315
 3643,0.5590879,-1.42578419\H,0,2.40648646,1.99180135,-0.3724126\H,0,0.

 Normal termination of Gaussian 16 at Wed Apr  9 14:57:15 2025.
