 Gaussian 16, Revision C.01,

 ----------------------------------------------------------------------
 #t hf aug-cc-pvdz symm=none int=(grid=ultrafine) guess=(read,tcheck) s
 table=(opt,rrhf)
 ----------------------------------------------------------------------
 -----
 title
 -----
 Symbolic Z-matrix:
 Charge =  0 Multiplicity = 1

 SCF Done:  E(RHF) =  -331.527568610     A.U. after   20 cycles
 Normal termination of Gaussian 16 at Wed Apr  9 03:14:16 2025.
 Gaussian 16:  ES64L-G16RevC.01  3-Jul-2019

 ----------------------------------------------------------------------
 #t hf aug-cc-pvdz iop(5/13=1,5/36=2,99/5=2) pseudo=read geom=check gue
 ss=(read,tcheck) scf=(maxcycle=1)
 ----------------------------------------------------------------------
 -----
 title
 -----
 Structure from the checkpoint file:  "Grambow2020_b97d3_006980_reverse_mol1.chk"
 Charge =  0 Multiplicity = 1

                         Standard orientation:
 ---------------------------------------------------------------------
 Center     Atomic      Atomic             Coordinates (Angstroms)
 Number     Number       Type             X           Y           Z
 ---------------------------------------------------------------------
      1          7           0        0.167306    1.685923   -0.019811
      2          6           0       -0.074364    0.310437   -0.211667
      3          7           0        1.079902   -0.512937    0.501733
      4          8           0        1.904077   -0.934395   -0.261195
      5          7           0       -2.272265   -0.758620    0.011336
      6          7           0       -1.272549   -0.180362   -0.053374
      7          1           0        0.874122    2.041634   -0.662250
      8          1           0        0.422692    1.932876    0.942622
 ---------------------------------------------------------------------

 SCF Done:  E(RHF) =  -331.626393727     A.U. after    2 cycles

 The electronic state is 1-A.
 Alpha  occ. eigenvalues --  -20.67551 -15.82539 -15.80250 -15.76324 -15.66050
 Alpha  occ. eigenvalues --  -11.35711  -1.49645  -1.42271  -1.22270  -1.08639
 Alpha  occ. eigenvalues --   -0.95650  -0.77441  -0.72899  -0.72269  -0.67913
 Alpha  occ. eigenvalues --   -0.67415  -0.64981  -0.61764  -0.60599  -0.47915
 Alpha  occ. eigenvalues --   -0.40986  -0.34380
 Alpha virt. eigenvalues --    0.03081   0.04778   0.05986   0.07343   0.07639
 Alpha virt. eigenvalues --    0.09177   0.09999   0.11298   0.13162   0.13872
 Alpha virt. eigenvalues --    0.15315   0.16634   0.17688   0.18456   0.20825

 Mulliken charges:
               1
     1  N   -0.409178
     2  C    0.916232
     3  N   -0.205340
     4  O   -0.345193
     5  N   -0.218719
     6  N    0.105713
     7  H    0.096250
     8  H    0.060235
 Sum of Mulliken charges =  -0.00000

 Dipole moment (field-independent basis, Debye):
    X=             -0.0286    Y=              1.7966    Z=              0.6970  Tot=              1.9272

 Test job not archived.
 1\1\GINC-SE102\SP\RHF\Aug-CC-pVDZ\C1H2N4O1\OHZDE\09-Apr-2025\0\\#t hf
 aug-cc-pvdz iop(5/13=1,5/36=2,99/5=2) pseudo=read geom=check guess=(re
 ad,tcheck) scf=(maxcycle=1)\\title\\0,1\N,0,1.1934514,0.14729774,0.221
 99224\C,0,-0.19899706,-0.06838857,0.26372825\N,0,-0.86624315,0.6779976
 3,-0.96789852\O,0,-1.39570844,1.71147491,-0.66699836\N,0,-1.25646638,-
 2.23086166,0.74211345\N,0,-0.67858079,-1.25696364,0.50637658\H,0,1.447
 91315,1.06417302,0.58728207\H,0,1.60581627,0.02209557,-0.70901071\\Ver
 sion=ES64L-G16RevC.01\State=1-A\HF=-331.6263937\RMSD=3.189e-03\Dipole=

 Normal termination of Gaussian 16 at Wed Apr  9 03:14:19 2025.
