 Gaussian 16, Revision C.01,

 ----------------------------------------------------------------------
 #t hf aug-cc-pvdz symm=none int=(grid=ultrafine) guess=(read,tcheck) s
 table=(opt,rrhf)
 ----------------------------------------------------------------------
 -----
 title
 -----
 Symbolic Z-matrix:
 Charge =  0 Multiplicity = 1

 SCF Done:  E(RHF) =  -306.705438309     A.U. after   13 cycles
 Normal termination of Gaussian 16 at Wed Apr  9 16:25:04 2025.
 Gaussian 16:  ES64L-G16RevC.01  3-Jul-2019

 ----------------------------------------------------------------------
 #t hf aug-cc-pvdz iop(5/13=1,5/36=2,99/5=2) pseudo=read geom=check gue
 ss=(read,tcheck) scf=(maxcycle=1)
 ----------------------------------------------------------------------
 -----
 title
 -----
 Structure from the checkpoint file:  "Grambow2020_wb97xd3_008206_forward_mol2.chk"
 Charge =  0 Multiplicity = 1

                         Standard orientation:
 ---------------------------------------------------------------------
 Center     Atomic      Atomic             Coordinates (Angstroms)
 Number     Number       Type             X           Y           Z
 ---------------------------------------------------------------------
      1          6           0        1.376863   -0.713385   -0.473274
      2          8           0        1.534609    0.700438   -0.276779
      3          6           0        0.390134    0.734953    0.600273
      4          6           0       -0.863906    1.231929   -0.056264
      5          6           0       -1.686277    0.235377   -0.358606
      6          6           0       -1.160288   -1.115626    0.055480
      7          6           0        0.247931   -0.799250    0.564619
      8          1           0        1.073711   -0.952338   -1.498622
      9          1           0        2.295844   -1.253977   -0.233429
     10          1           0        0.634875    1.238520    1.539033
     11          1           0       -1.043023    2.279157   -0.264182
     12          1           0       -2.644502    0.355940   -0.850785
     13          1           0       -1.788220   -1.558468    0.834149
     14          1           0       -1.152430   -1.824558   -0.778350
     15          1           0        0.520138   -1.331778    1.473046
 ---------------------------------------------------------------------

 SCF Done:  E(RHF) =  -306.798541676     A.U. after    2 cycles

 The electronic state is 1-A.
 Alpha  occ. eigenvalues --  -20.55696 -11.29013 -11.28405 -11.24519 -11.24218
 Alpha  occ. eigenvalues --  -11.23994 -11.23411  -1.34213  -1.11964  -0.99882
 Alpha  occ. eigenvalues --   -0.94157  -0.90094  -0.76219  -0.73112  -0.71344
 Alpha  occ. eigenvalues --   -0.66702  -0.63001  -0.60161  -0.57463  -0.55435
 Alpha  occ. eigenvalues --   -0.53296  -0.49456  -0.46626  -0.45279  -0.42386
 Alpha  occ. eigenvalues --   -0.36515
 Alpha virt. eigenvalues --    0.03243   0.04156   0.04524   0.04902   0.06156
 Alpha virt. eigenvalues --    0.06416   0.06937   0.07303   0.10067   0.11550
 Alpha virt. eigenvalues --    0.12561   0.13579   0.13845   0.14571   0.14881

 Mulliken charges:
               1
     1  C    0.971795
     2  O   -0.849589
     3  C    0.640665
     4  C    0.259724
     5  C    0.112942
     6  C    0.362201
     7  C    0.054820
     8  H   -0.266726
     9  H   -0.209170
    10  H   -0.205291
    11  H   -0.273070
    12  H   -0.307038
    13  H   -0.058695
    14  H   -0.036996
    15  H   -0.195573
 Sum of Mulliken charges =   0.00000

 Dipole moment (field-independent basis, Debye):
    X=             -1.6413    Y=             -1.6828    Z=              0.7312  Tot=              2.4617

 Test job not archived.
 1\1\GINC-SE229\SP\RHF\Aug-CC-pVDZ\C6H8O1\OHZDE\09-Apr-2025\0\\#t hf au
 g-cc-pvdz iop(5/13=1,5/36=2,99/5=2) pseudo=read geom=check guess=(read
 ,tcheck) scf=(maxcycle=1)\\title\\0,1\C,0,-1.4558263,-0.47877006,-0.71
 183596\O,0,-0.84561491,-1.70729142,-0.28667027\C,0,-0.04051414,-1.0050
 9013,0.68232978\C,0,1.37186592,-0.76318583,0.23813759\C,0,1.55260006,0
 .49023948,-0.15819672\C,0,0.31131427,1.33725246,-0.03523362\C,0,-0.757
 05102,0.3282626,0.39247049\H,0,-1.16130401,-0.20749455,-1.73164193\H,0
 ,-2.54570499,-0.53422227,-0.65368494\H,0,-0.1275116,-1.46804992,1.6686

 Normal termination of Gaussian 16 at Wed Apr  9 16:25:09 2025.
