 Gaussian 16, Revision C.01,

 ----------------------------------------------------------------------
 #t hf aug-cc-pvdz symm=none int=(grid=ultrafine) guess=(read,tcheck) s
 table=(opt,rrhf)
 ----------------------------------------------------------------------
 -----
 title
 -----
 Symbolic Z-matrix:
 Charge =  0 Multiplicity = 1

 SCF Done:  E(RHF) =  -338.756387207     A.U. after   14 cycles
 Normal termination of Gaussian 16 at Wed Apr  9 15:18:52 2025.
 Gaussian 16:  ES64L-G16RevC.01  3-Jul-2019

 ----------------------------------------------------------------------
 #t hf aug-cc-pvdz iop(5/13=1,5/36=2,99/5=2) pseudo=read geom=check gue
 ss=(read,tcheck) scf=(maxcycle=1)
 ----------------------------------------------------------------------
 -----
 title
 -----
 Structure from the checkpoint file:  "Grambow2020_wb97xd3_006841_reverse_mol2.chk"
 Charge =  0 Multiplicity = 1

                         Standard orientation:
 ---------------------------------------------------------------------
 Center     Atomic      Atomic             Coordinates (Angstroms)
 Number     Number       Type             X           Y           Z
 ---------------------------------------------------------------------
      1          7           0       -2.404008   -0.526069    0.051515
      2          6           0       -1.083130   -0.197834    0.003238
      3          6           0       -0.610467    1.233491    0.004253
      4          7           0        0.835802    1.194455   -0.004063
      5          6           0        1.139731   -0.044859   -0.001310
      6          8           0        2.423911   -0.441276   -0.006333
      7          6           0        0.015047   -0.978893    0.002435
      8          1           0       -3.073116    0.173781   -0.212467
      9          1           0       -2.673689   -1.471612   -0.150306
     10          1           0       -0.987328    1.773050   -0.871883
     11          1           0       -0.976833    1.762465    0.890245
     12          1           0        2.461174   -1.399021    0.005035
     13          1           0        0.068855   -2.058596    0.006179
 ---------------------------------------------------------------------

 SCF Done:  E(RHF) =  -338.858551545     A.U. after    2 cycles

 The electronic state is 1-A.
 Alpha  occ. eigenvalues --  -20.60709 -15.65793 -15.57842 -11.33830 -11.31011
 Alpha  occ. eigenvalues --  -11.26739 -11.22744  -1.38182  -1.23857  -1.18862
 Alpha  occ. eigenvalues --   -1.01443  -0.95909  -0.80758  -0.79661  -0.73556
 Alpha  occ. eigenvalues --   -0.69477  -0.67477  -0.64172  -0.59298  -0.58922
 Alpha  occ. eigenvalues --   -0.55646  -0.52997  -0.50306  -0.40791  -0.40425
 Alpha  occ. eigenvalues --   -0.31265
 Alpha virt. eigenvalues --    0.02212   0.03063   0.04602   0.05293   0.06153
 Alpha virt. eigenvalues --    0.07554   0.10135   0.11411   0.11662   0.12528
 Alpha virt. eigenvalues --    0.13075   0.13697   0.14076   0.14779   0.15864

 Mulliken charges:
               1
     1  N   -0.331757
     2  C   -0.275485
     3  C    0.921757
     4  N   -0.531813
     5  C    0.404713
     6  O   -0.519300
     7  C    0.799448
     8  H   -0.054388
     9  H   -0.044914
    10  H   -0.041485
    11  H   -0.018022
    12  H    0.143711
    13  H   -0.452463
 Sum of Mulliken charges =  -0.00000

 Dipole moment (field-independent basis, Debye):
    X=             -4.4423    Y=             -3.4468    Z=             -0.6441  Tot=              5.6595

 Test job not archived.
 1\1\GINC-SE226\SP\RHF\Aug-CC-pVDZ\C4H6N2O1\OHZDE\09-Apr-2025\0\\#t hf
 aug-cc-pvdz iop(5/13=1,5/36=2,99/5=2) pseudo=read geom=check guess=(re
 ad,tcheck) scf=(maxcycle=1)\\title\\0,1\N,0,-1.97454847,0.4601735,-0.5
 1648867\C,0,-0.69521291,0.12710934,-0.18914082\C,0,-0.20002741,-1.2959
 923,-0.23007777\N,0,1.20132871,-1.2597623,0.12793934\C,0,1.46593166,-0
 .02798722,0.33040987\O,0,2.70169681,0.36401045,0.68468731\C,0,0.351275
 68,0.90209988,0.15769822\H,0,-2.6694202,-0.26366032,-0.49651107\H,0,-2
 .30817387,1.37815143,-0.28513896\H,0,-0.7607227,-1.92804764,0.46769574

 Normal termination of Gaussian 16 at Wed Apr  9 15:18:57 2025.
