 Gaussian 16, Revision C.01,

 ----------------------------------------------------------------------
 #t hf aug-cc-pvdz symm=none int=(grid=ultrafine) guess=(read,tcheck) s
 table=(opt,rrhf)
 ----------------------------------------------------------------------
 -----
 title
 -----
 Symbolic Z-matrix:
 Charge =  0 Multiplicity = 1

 SCF Done:  E(RHF) =  -360.872307951     A.U. after   14 cycles
 Normal termination of Gaussian 16 at Wed Apr  9 16:35:20 2025.
 Gaussian 16:  ES64L-G16RevC.01  3-Jul-2019

 ----------------------------------------------------------------------
 #t hf aug-cc-pvdz iop(5/13=1,5/36=2,99/5=2) pseudo=read geom=check gue
 ss=(read,tcheck) scf=(maxcycle=1)
 ----------------------------------------------------------------------
 -----
 title
 -----
 Structure from the checkpoint file:  "Grambow2020_wb97xd3_008623_reverse_mol1.chk"
 Charge =  0 Multiplicity = 1

                         Standard orientation:
 ---------------------------------------------------------------------
 Center     Atomic      Atomic             Coordinates (Angstroms)
 Number     Number       Type             X           Y           Z
 ---------------------------------------------------------------------
      1          6           0       -3.041662    0.311088    0.102022
      2          6           0       -1.630870   -0.038148    0.558096
      3          6           0       -0.774318   -0.491887   -0.605559
      4          8           0        0.527698   -0.926433   -0.165872
      5          6           0        1.451254   -0.009069   -0.021774
      6          8           0        1.300489    1.239626   -0.292165
      7          7           0        2.668987   -0.185766    0.404036
      8          1           0       -3.534992   -0.546803   -0.361645
      9          1           0       -3.655771    0.627954    0.945286
     10          1           0       -3.033793    1.124855   -0.626514
     11          1           0       -1.159737    0.829719    1.025595
     12          1           0       -1.660643   -0.834796    1.306120
     13          1           0       -1.203077   -1.368523   -1.091993
     14          1           0       -0.651797    0.302687   -1.343082
     15          1           0        3.054414   -1.076197    0.669667
     16          1           0        2.510567    1.104021    0.115904
 ---------------------------------------------------------------------

 SCF Done:  E(RHF) =  -360.989699739     A.U. after    2 cycles

 The electronic state is 1-A.
 Alpha  occ. eigenvalues --  -20.63417 -20.56778 -15.60991 -11.42137 -11.30841
 Alpha  occ. eigenvalues --  -11.24180 -11.23643  -1.44596  -1.35353  -1.15111
 Alpha  occ. eigenvalues --   -1.06934  -0.95927  -0.85000  -0.79530  -0.78093
 Alpha  occ. eigenvalues --   -0.70730  -0.68273  -0.65683  -0.60544  -0.59735
 Alpha  occ. eigenvalues --   -0.57815  -0.55028  -0.53841  -0.51906  -0.49177
 Alpha  occ. eigenvalues --   -0.48294  -0.45755  -0.39930
 Alpha virt. eigenvalues --    0.03373   0.04212   0.04583   0.04963   0.06012
 Alpha virt. eigenvalues --    0.06707   0.07085   0.07638   0.09080   0.11550
 Alpha virt. eigenvalues --    0.11771   0.13060   0.14292   0.14637   0.15922

 Mulliken charges:
               1
     1  C    0.401985
     2  C   -0.041622
     3  C    0.886825
     4  O   -0.541489
     5  C    0.602172
     6  O   -0.618543
     7  N   -0.394817
     8  H   -0.057401
     9  H   -0.073046
    10  H   -0.045182
    11  H   -0.113310
    12  H   -0.085464
    13  H   -0.248515
    14  H   -0.093481
    15  H   -0.086594
    16  H    0.508483
 Sum of Mulliken charges =  -0.00000

 Dipole moment (field-independent basis, Debye):
    X=             -1.6219    Y=             -1.6129    Z=              0.1326  Tot=              2.2912

 Test job not archived.
 1\1\GINC-SE125\SP\RHF\Aug-CC-pVDZ\C4H9N1O2\OHZDE\09-Apr-2025\0\\#t hf
 aug-cc-pvdz iop(5/13=1,5/36=2,99/5=2) pseudo=read geom=check guess=(re
 ad,tcheck) scf=(maxcycle=1)\\title\\0,1\C,0,-2.50138638,0.08293865,-0.
 29138311\C,0,-1.04847653,0.54048717,-0.29388682\C,0,-0.21250212,-0.281
 34645,0.66496087\O,0,1.13800064,0.21524202,0.748288\C,0,1.99262704,-0.
 2123617,-0.14728213\O,0,1.73271837,-1.0795282,-1.06136606\N,0,3.238419
 66,0.14506553,-0.27240623\H,0,-2.94661426,0.17368064,0.70253665\H,0,-3
 .09967679,0.6841809,-0.97635241\H,0,-2.59001241,-0.96039233,-0.6022655

 Normal termination of Gaussian 16 at Wed Apr  9 16:35:27 2025.
