 Gaussian 16, Revision C.01,

 ----------------------------------------------------------------------
 #t hf aug-cc-pvdz symm=none int=(grid=ultrafine) guess=(read,tcheck) s
 table=(opt,rrhf)
 ----------------------------------------------------------------------
 -----
 title
 -----
 Symbolic Z-matrix:
 Charge =  0 Multiplicity = 1

 SCF Done:  E(RHF) =  -306.712136378     A.U. after   14 cycles
 Normal termination of Gaussian 16 at Wed Apr  9 03:59:44 2025.
 Gaussian 16:  ES64L-G16RevC.01  3-Jul-2019

 ----------------------------------------------------------------------
 #t hf aug-cc-pvdz iop(5/13=1,5/36=2,99/5=2) pseudo=read geom=check gue
 ss=(read,tcheck) scf=(maxcycle=1)
 ----------------------------------------------------------------------
 -----
 title
 -----
 Structure from the checkpoint file:  "Grambow2020_wb97xd3_008798_reverse_mol2.chk"
 Charge =  0 Multiplicity = 1

                         Standard orientation:
 ---------------------------------------------------------------------
 Center     Atomic      Atomic             Coordinates (Angstroms)
 Number     Number       Type             X           Y           Z
 ---------------------------------------------------------------------
      1          8           0        2.609988   -1.074483   -0.010954
      2          6           0        1.502761   -0.595746   -0.051381
      3          6           0       -2.305189   -1.270698   -0.222914
      4          6           0       -1.595114   -0.372160    0.440345
      5          6           0       -1.306029    1.014641   -0.047799
      6          6           0        0.114053    1.509332   -0.036296
      7          6           0        1.279983    0.860594   -0.022552
      8          1           0       -2.695948   -1.067321   -1.214590
      9          1           0       -2.519366   -2.244489    0.199521
     10          1           0       -1.220110   -0.613833    1.432422
     11          1           0        0.615087   -1.244510   -0.130492
     12          1           0       -1.701391    1.142256   -1.062086
     13          1           0       -1.880086    1.714852    0.570490
     14          1           0        0.180120    2.594758   -0.054145
     15          1           0        2.199000    1.438369   -0.009907
 ---------------------------------------------------------------------

 SCF Done:  E(RHF) =  -306.808219279     A.U. after    2 cycles

 The electronic state is 1-A.
 Alpha  occ. eigenvalues --  -20.56430 -11.33584 -11.28217 -11.26804 -11.26226
 Alpha  occ. eigenvalues --  -11.25169 -11.24781  -1.35269  -1.11596  -1.05564
 Alpha  occ. eigenvalues --   -0.96850  -0.86594  -0.78707  -0.76162  -0.68751
 Alpha  occ. eigenvalues --   -0.66744  -0.63834  -0.62768  -0.60025  -0.57011
 Alpha  occ. eigenvalues --   -0.54883  -0.53607  -0.50907  -0.44057  -0.39252
 Alpha  occ. eigenvalues --   -0.37716
 Alpha virt. eigenvalues --    0.02849   0.03799   0.04361   0.04853   0.05914
 Alpha virt. eigenvalues --    0.06409   0.06810   0.07425   0.07687   0.10198
 Alpha virt. eigenvalues --    0.11860   0.12037   0.13277   0.14061   0.14272

 Mulliken charges:
               1
     1  O   -0.490715
     2  C    0.597143
     3  C    0.481682
     4  C    0.909256
     5  C   -0.054553
     6  C   -0.016030
     7  C    0.527381
     8  H   -0.283233
     9  H   -0.313239
    10  H   -0.403117
    11  H   -0.186974
    12  H    0.006830
    13  H    0.115527
    14  H   -0.437582
    15  H   -0.452375
 Sum of Mulliken charges =  -0.00000

 Dipole moment (field-independent basis, Debye):
    X=             -4.0279    Y=              2.3022    Z=             -0.1161  Tot=              4.6409

 Test job not archived.
 1\1\GINC-SE026\SP\RHF\Aug-CC-pVDZ\C6H8O1\OHZDE\09-Apr-2025\0\\#t hf au
 g-cc-pvdz iop(5/13=1,5/36=2,99/5=2) pseudo=read geom=check guess=(read
 ,tcheck) scf=(maxcycle=1)\\title\\0,1\O,0,1.41606605,-2.16388572,2.038
 15343\C,0,0.95171719,-1.36841414,1.25816646\C,0,-2.05253796,-0.4285301
 ,-0.99494974\C,0,-1.25587033,0.30302155,-0.2322952\C,0,-0.02381506,1.0
 0593263,-0.71502312\C,0,1.26473552,0.81557438,0.0365657\C,0,1.67605174
 ,-0.1473022,0.86368819\H,0,-1.82997196,-0.6082622,-2.04167712\H,0,-2.9
 5525273,-0.87788854,-0.60026746\H,0,-1.51298949,0.45997765,0.81293472\

 Normal termination of Gaussian 16 at Wed Apr  9 03:59:50 2025.
