 Gaussian 16, Revision C.01,

 ----------------------------------------------------------------------
 #t hf aug-cc-pvdz symm=none int=(grid=ultrafine) guess=(read,tcheck) s
 table=(opt,rrhf)
 ----------------------------------------------------------------------
 -----
 title
 -----
 Symbolic Z-matrix:
 Charge =  0 Multiplicity = 1

 SCF Done:  E(RHF) =  -322.566843709     A.U. after   15 cycles
 Normal termination of Gaussian 16 at Wed Apr  9 15:34:56 2025.
 Gaussian 16:  ES64L-G16RevC.01  3-Jul-2019

 ----------------------------------------------------------------------
 #t hf aug-cc-pvdz iop(5/13=1,5/36=2,99/5=2) pseudo=read geom=check gue
 ss=(read,tcheck) scf=(maxcycle=1)
 ----------------------------------------------------------------------
 -----
 title
 -----
 Structure from the checkpoint file:  "Grambow2020_wb97xd3_007021_forward_mol1.chk"
 Charge =  0 Multiplicity = 1

                         Standard orientation:
 ---------------------------------------------------------------------
 Center     Atomic      Atomic             Coordinates (Angstroms)
 Number     Number       Type             X           Y           Z
 ---------------------------------------------------------------------
      1          6           0        0.478918    1.872183   -0.412945
      2          6           0        0.011464    0.695744    0.433121
      3          6           0       -1.361845    0.310351    0.238239
      4          6           0       -2.288779   -0.434811   -0.069338
      5          7           0        0.071738   -1.654471   -0.284184
      6          6           0        0.834679   -0.663040    0.055356
      7          8           0        2.047797   -0.479183    0.169348
      8          1           0        0.038941    2.817386   -0.090856
      9          1           0        0.244615    1.707910   -1.465750
     10          1           0        1.561170    1.924790   -0.309171
     11          1           0        0.196648    0.870830    1.494804
     12          1           0       -2.455153    0.882422    0.340580
     13          1           0       -3.161896   -1.008500   -0.301105
     14          1           0        0.644520   -2.462637   -0.500597
 ---------------------------------------------------------------------

 SCF Done:  E(RHF) =  -322.667554861     A.U. after    2 cycles

 The electronic state is 1-A.
 Alpha  occ. eigenvalues --  -20.47105 -15.53679 -11.39636 -11.38166 -11.30982
 Alpha  occ. eigenvalues --  -11.28119 -11.24376  -1.27892  -1.21133  -1.09218
 Alpha  occ. eigenvalues --   -1.05714  -0.91122  -0.83671  -0.73457  -0.69509
 Alpha  occ. eigenvalues --   -0.65860  -0.62220  -0.59023  -0.57562  -0.54315
 Alpha  occ. eigenvalues --   -0.53216  -0.50903  -0.48664  -0.39666  -0.36442
 Alpha  occ. eigenvalues --   -0.32117
 Alpha virt. eigenvalues --    0.00593   0.02507   0.03876   0.04490   0.05230
 Alpha virt. eigenvalues --    0.06155   0.07221   0.07411   0.08374   0.10447
 Alpha virt. eigenvalues --    0.10873   0.11774   0.12006   0.12580   0.13680

 Mulliken charges:
               1
     1  C    0.577367
     2  C   -0.690981
     3  C    0.285197
     4  C    0.729033
     5  N   -0.390079
     6  C    0.519380
     7  O   -0.641185
     8  H   -0.061363
     9  H   -0.038471
    10  H    0.025343
    11  H    0.078062
    12  H    0.045610
    13  H   -0.386775
    14  H   -0.051138
 Sum of Mulliken charges =  -0.00000

 Dipole moment (field-independent basis, Debye):
    X=             -9.6738    Y=              3.3945    Z=              0.3464  Tot=             10.2579

 Test job not archived.
 1\1\GINC-SE454\SP\RHF\Aug-CC-pVDZ\C5H7N1O1\OHZDE\09-Apr-2025\0\\#t hf
 aug-cc-pvdz iop(5/13=1,5/36=2,99/5=2) pseudo=read geom=check guess=(re
 ad,tcheck) scf=(maxcycle=1)\\title\\0,1\C,0,-1.71891452,0.10694703,0.2
 771138\C,0,-0.40395302,0.17174138,-0.48775632\C,0,0.61316883,0.9938256
 3,0.11401182\C,0,1.69971106,1.24205186,0.63062193\N,0,1.51465122,-1.31
 490341,-0.09979185\C,0,0.30430738,-1.29771652,-0.56355372\O,0,-0.46514
 337,-2.12336106,-1.05823415\H,0,-2.27469295,1.04481232,0.22970298\H,0,
 -1.54538843,-0.15460472,1.3219873\H,0,-2.30996067,-0.68539777,-0.17858

 Normal termination of Gaussian 16 at Wed Apr  9 15:35:00 2025.
