 Gaussian 16, Revision C.01,

 ----------------------------------------------------------------------
 #t hf aug-cc-pvdz symm=none int=(grid=ultrafine) guess=(read,tcheck) s
 table=(opt,rrhf)
 ----------------------------------------------------------------------
 -----
 title
 -----
 Symbolic Z-matrix:
 Charge =  0 Multiplicity = 1

 SCF Done:  E(RHF) =  -358.550212086     A.U. after   15 cycles
 Normal termination of Gaussian 16 at Wed Apr  9 03:28:04 2025.
 Gaussian 16:  ES64L-G16RevC.01  3-Jul-2019

 ----------------------------------------------------------------------
 #t hf aug-cc-pvdz iop(5/13=1,5/36=2,99/5=2) pseudo=read geom=check gue
 ss=(read,tcheck) scf=(maxcycle=1)
 ----------------------------------------------------------------------
 -----
 title
 -----
 Structure from the checkpoint file:  "Grambow2020_wb97xd3_006777_forward_mol2.chk"
 Charge =  0 Multiplicity = 1

                         Standard orientation:
 ---------------------------------------------------------------------
 Center     Atomic      Atomic             Coordinates (Angstroms)
 Number     Number       Type             X           Y           Z
 ---------------------------------------------------------------------
      1          8           0       -2.612439   -0.689135    0.061314
      2          6           0       -1.457262   -0.450226    0.267303
      3          6           0       -0.716034    0.665661   -0.382468
      4          6           0        0.290183    1.379174    0.484510
      5          7           0        0.708907    0.524669   -0.571801
      6          6           0        1.435943   -0.641603   -0.392418
      7          8           0        2.341589   -0.758021    0.384919
      8          1           0       -0.856891   -1.053329    0.983652
      9          1           0       -1.260448    1.210857   -1.144541
     10          1           0        0.433443    1.019680    1.499356
     11          1           0        0.432613    2.441879    0.334466
     12          1           0        1.138750   -1.432561   -1.101752
 ---------------------------------------------------------------------

 SCF Done:  E(RHF) =  -358.661001714     A.U. after    2 cycles

 The electronic state is 1-A.
 Alpha  occ. eigenvalues --  -20.59908 -20.58158 -15.68409 -11.39098 -11.37192
 Alpha  occ. eigenvalues --  -11.32286 -11.31817  -1.39500  -1.38942  -1.30651
 Alpha  occ. eigenvalues --   -1.02172  -0.95155  -0.85019  -0.80112  -0.75266
 Alpha  occ. eigenvalues --   -0.72101  -0.68950  -0.67503  -0.62094  -0.59743
 Alpha  occ. eigenvalues --   -0.57680  -0.54673  -0.53107  -0.47858  -0.45874
 Alpha  occ. eigenvalues --   -0.42475
 Alpha virt. eigenvalues --    0.02994   0.03763   0.04144   0.05359   0.06914
 Alpha virt. eigenvalues --    0.08206   0.09357   0.09809   0.10584   0.11393
 Alpha virt. eigenvalues --    0.12436   0.13314   0.13698   0.14073   0.14556

 Mulliken charges:
               1
     1  O   -0.425791
     2  C    0.496400
     3  C    0.579006
     4  C    0.932020
     5  N   -0.647339
     6  C    0.686972
     7  O   -0.440247
     8  H   -0.140153
     9  H   -0.337584
    10  H   -0.282396
    11  H   -0.256976
    12  H   -0.163912
 Sum of Mulliken charges =   0.00000

 Dipole moment (field-independent basis, Debye):
    X=             -0.2474    Y=              1.8000    Z=             -0.4961  Tot=              1.8834

 Test job not archived.
 1\1\GINC-SE080\SP\RHF\Aug-CC-pVDZ\C4H5N1O2\OHZDE\09-Apr-2025\0\\#t hf
 aug-cc-pvdz iop(5/13=1,5/36=2,99/5=2) pseudo=read geom=check guess=(re
 ad,tcheck) scf=(maxcycle=1)\\title\\0,1\O,0,2.67935279,-0.4146608,-0.4
 3065498\C,0,1.48986506,-0.29289113,-0.49573394\C,0,0.67337995,0.404511
 42,0.53567524\C,0,-0.48566225,1.21759394,0.01727105\N,0,-0.7008162,-0.
 00285526,0.71405893\C,0,-1.28841031,-1.12789067,0.15730025\O,0,-2.2360
 8324,-1.09945748,-0.57693915\H,0,0.91028799,-0.69104746,-1.35764835\H,
 0,1.20888124,0.72487079,1.42167188\H,0,-0.669884,1.21646272,-1.0531180

 Normal termination of Gaussian 16 at Wed Apr  9 03:28:08 2025.
