 Gaussian 16, Revision C.01,

 ----------------------------------------------------------------------
 #t hf aug-cc-pvdz symm=none int=(grid=ultrafine) guess=(read,tcheck) s
 table=(opt,rrhf)
 ----------------------------------------------------------------------
 -----
 title
 -----
 Symbolic Z-matrix:
 Charge =  0 Multiplicity = 1

 SCF Done:  E(RHF) =  -358.514699380     A.U. after   15 cycles
 Normal termination of Gaussian 16 at Wed Apr  9 15:09:44 2025.
 Gaussian 16:  ES64L-G16RevC.01  3-Jul-2019

 ----------------------------------------------------------------------
 #t hf aug-cc-pvdz iop(5/13=1,5/36=2,99/5=2) pseudo=read geom=check gue
 ss=(read,tcheck) scf=(maxcycle=1)
 ----------------------------------------------------------------------
 -----
 title
 -----
 Structure from the checkpoint file:  "Grambow2020_wb97xd3_006799_reverse_mol2.chk"
 Charge =  0 Multiplicity = 1

                         Standard orientation:
 ---------------------------------------------------------------------
 Center     Atomic      Atomic             Coordinates (Angstroms)
 Number     Number       Type             X           Y           Z
 ---------------------------------------------------------------------
      1          8           0        0.670460   -1.174873    0.228194
      2          6           0        1.762960   -0.505374   -0.245947
      3          6           0        1.633972    0.808466   -0.268196
      4          6           0        0.278624    1.155703    0.282964
      5          7           0       -0.314326   -0.175081    0.411382
      6          6           0       -1.536684   -0.489436   -0.109902
      7          8           0       -2.413365    0.323664   -0.263338
      8          1           0        2.587075   -1.148768   -0.512578
      9          1           0        2.376416    1.518645   -0.590960
     10          1           0       -0.349433    1.753872   -0.381474
     11          1           0        0.332985    1.661271    1.251798
     12          1           0       -1.636756   -1.565929   -0.318819
 ---------------------------------------------------------------------

 SCF Done:  E(RHF) =  -358.627191366     A.U. after    2 cycles

 The electronic state is 1-A.
 Alpha  occ. eigenvalues --  -20.65543 -20.55847 -15.71395 -11.37418 -11.32550
 Alpha  occ. eigenvalues --  -11.29991 -11.25701  -1.44831  -1.36320  -1.16841
 Alpha  occ. eigenvalues --   -1.09469  -0.93710  -0.83923  -0.81297  -0.74555
 Alpha  occ. eigenvalues --   -0.71446  -0.68301  -0.64322  -0.61939  -0.60278
 Alpha  occ. eigenvalues --   -0.58402  -0.56370  -0.56143  -0.46369  -0.42324
 Alpha  occ. eigenvalues --   -0.35809
 Alpha virt. eigenvalues --    0.02855   0.03934   0.04797   0.05133   0.06487
 Alpha virt. eigenvalues --    0.09153   0.09620   0.10112   0.11450   0.12765
 Alpha virt. eigenvalues --    0.12953   0.13589   0.14526   0.14975   0.16033

 Mulliken charges:
               1
     1  O   -0.724274
     2  C    0.481842
     3  C    0.310183
     4  C    0.771720
     5  N   -0.179954
     6  C    0.671080
     7  O   -0.426780
     8  H   -0.279912
     9  H   -0.266203
    10  H   -0.110047
    11  H   -0.086516
    12  H   -0.161140
 Sum of Mulliken charges =  -0.00000

 Dipole moment (field-independent basis, Debye):
    X=              3.9460    Y=             -0.1833    Z=             -0.3760  Tot=              3.9681

 Test job not archived.
 1\1\GINC-SE113\SP\RHF\Aug-CC-pVDZ\C4H5N1O2\OHZDE\09-Apr-2025\0\\#t hf
 aug-cc-pvdz iop(5/13=1,5/36=2,99/5=2) pseudo=read geom=check guess=(re
 ad,tcheck) scf=(maxcycle=1)\\title\\0,1\O,0,0.91718244,-1.09438335,0.1
 35379\C,0,1.6296709,-0.01317393,-0.3004455\C,0,0.99270362,1.13917626,-
 0.20211195\C,0,-0.35707523,0.87805566,0.40717689\N,0,-0.36995217,-0.58
 428524,0.42868787\C,0,-1.39658267,-1.31884358,-0.09204971\O,0,-2.52965
 686,-0.91181455,-0.1529987\H,0,2.62441458,-0.25488516,-0.64143421\H,0,
 1.37637097,2.10744993,-0.47597384\H,0,-1.20569729,1.22482424,-0.187240

 Normal termination of Gaussian 16 at Wed Apr  9 15:09:49 2025.
