 Gaussian 16, Revision C.01,

 ----------------------------------------------------------------------
 #t hf aug-cc-pvdz symm=none int=(grid=ultrafine) guess=(read,tcheck) s
 table=(opt,rrhf)
 ----------------------------------------------------------------------
 -----
 title
 -----
 Symbolic Z-matrix:
 Charge =  0 Multiplicity = 1

 SCF Done:  E(RHF) =  -322.612193714     A.U. after   15 cycles
 Normal termination of Gaussian 16 at Wed Apr  9 03:33:54 2025.
 Gaussian 16:  ES64L-G16RevC.01  3-Jul-2019

 ----------------------------------------------------------------------
 #t hf aug-cc-pvdz iop(5/13=1,5/36=2,99/5=2) pseudo=read geom=check gue
 ss=(read,tcheck) scf=(maxcycle=1)
 ----------------------------------------------------------------------
 -----
 title
 -----
 Structure from the checkpoint file:  "Grambow2020_wb97xd3_007116_forward_mol1.chk"
 Charge =  0 Multiplicity = 1

                         Standard orientation:
 ---------------------------------------------------------------------
 Center     Atomic      Atomic             Coordinates (Angstroms)
 Number     Number       Type             X           Y           Z
 ---------------------------------------------------------------------
      1          7           0       -2.233595   -0.371170   -0.036973
      2          6           0       -1.006641   -0.102563   -0.116682
      3          8           0       -0.506293    1.140539    0.185736
      4          6           0        0.899423    1.290270    0.049598
      5          6           0        1.471588   -0.045133   -0.366962
      6          6           0        1.023181   -1.181985    0.563287
      7          6           0       -0.040257   -1.188180   -0.460726
      8          1           0       -2.751717    0.422367    0.334646
      9          1           0        1.302683    1.630520    1.006872
     10          1           0        1.097244    2.054787   -0.705225
     11          1           0        2.520678   -0.089042   -0.646217
     12          1           0        0.787412   -0.821605    1.563895
     13          1           0        1.684186   -2.043261    0.573381
     14          1           0        0.961264   -0.314351   -1.365520
 ---------------------------------------------------------------------

 SCF Done:  E(RHF) =  -322.708251501     A.U. after    2 cycles

 The electronic state is 1-A.
 Alpha  occ. eigenvalues --  -20.61790 -15.60018 -11.35299 -11.32575 -11.29604
 Alpha  occ. eigenvalues --  -11.28514 -11.26911  -1.40118  -1.17704  -1.15539
 Alpha  occ. eigenvalues --   -0.99853  -0.88339  -0.86794  -0.76717  -0.71363
 Alpha  occ. eigenvalues --   -0.69560  -0.67372  -0.60942  -0.60375  -0.57531
 Alpha  occ. eigenvalues --   -0.54975  -0.52733  -0.49365  -0.43382  -0.41190
 Alpha  occ. eigenvalues --   -0.35615
 Alpha virt. eigenvalues --    0.02391   0.03923   0.04053   0.05061   0.06119
 Alpha virt. eigenvalues --    0.06831   0.07170   0.09547   0.10474   0.11209
 Alpha virt. eigenvalues --    0.12403   0.13075   0.13426   0.14123   0.14542

 Mulliken charges:
               1
     1  N   -0.408036
     2  C    0.807058
     3  O   -0.676627
     4  C    0.941944
     5  C   -0.379464
     6  C    0.914690
     7  C   -0.567967
     8  H    0.017490
     9  H   -0.167260
    10  H   -0.171825
    11  H   -0.172504
    12  H   -0.181376
    13  H   -0.240739
    14  H    0.284616
 Sum of Mulliken charges =  -0.00000

 Dipole moment (field-independent basis, Debye):
    X=              4.6997    Y=              2.3884    Z=              1.1447  Tot=              5.3946

 Test job not archived.
 1\1\GINC-SE219\SP\RHF\Aug-CC-pVDZ\C5H7N1O1\OHZDE\09-Apr-2025\0\\#t hf
 aug-cc-pvdz iop(5/13=1,5/36=2,99/5=2) pseudo=read geom=check guess=(re
 ad,tcheck) scf=(maxcycle=1)\\title\\0,1\N,0,1.82506011,-1.86116514,-0.
 27757402\C,0,1.01276065,-0.90005942,-0.2966346\O,0,1.37121237,0.355515
 66,-0.72342687\C,0,0.34443214,1.33607992,-0.68871684\C,0,-0.9228479,0.
 66627399,-0.20959653\C,0,-1.2523226,-0.59558914,-1.0207766\C,0,-0.4158
 0893,-1.14142821,0.06635138\H,0,2.72024132,-1.58293633,-0.67442812\H,0
 ,0.23500406,1.75418938,-1.69269546\H,0,0.64782109,2.13480205,-0.007999

 Normal termination of Gaussian 16 at Wed Apr  9 03:33:59 2025.
