 Gaussian 16, Revision C.01,

 ----------------------------------------------------------------------
 #t hf aug-cc-pvdz symm=none int=(grid=ultrafine) guess=(read,tcheck) s
 table=(opt,rrhf)
 ----------------------------------------------------------------------
 -----
 title
 -----
 Symbolic Z-matrix:
 Charge =  0 Multiplicity = 1

 SCF Done:  E(RHF) =  -306.579093846     A.U. after   16 cycles
 Normal termination of Gaussian 16 at Wed Apr  9 15:04:01 2025.
 Gaussian 16:  ES64L-G16RevC.01  3-Jul-2019

 ----------------------------------------------------------------------
 #t hf aug-cc-pvdz iop(5/13=1,5/36=2,99/5=2) pseudo=read geom=check gue
 ss=(read,tcheck) scf=(maxcycle=1)
 ----------------------------------------------------------------------
 -----
 title
 -----
 Structure from the checkpoint file:  "Grambow2020_wb97xd3_006668_reverse_mol1.chk"
 Charge =  0 Multiplicity = 1

                         Standard orientation:
 ---------------------------------------------------------------------
 Center     Atomic      Atomic             Coordinates (Angstroms)
 Number     Number       Type             X           Y           Z
 ---------------------------------------------------------------------
      1          6           0       -2.463143   -0.003535   -0.265188
      2          6           0       -1.000749    0.254516   -0.421026
      3          6           0       -0.096050    0.085490    0.800626
      4          8           0        0.562640   -1.169933    0.609776
      5          6           0        1.140794   -0.812486   -0.577199
      6          6           0        1.607910    0.514832   -0.545727
      7          6           0        0.906503    1.122649    0.465057
      8          1           0       -2.954401    0.766150    0.344735
      9          1           0       -2.640617   -0.964722    0.225373
     10          1           0       -2.961675   -0.004106   -1.235717
     11          1           0       -0.722341    1.015915   -1.135614
     12          1           0       -0.591134    0.118704    1.769869
     13          1           0        1.520325   -1.615938   -1.195118
     14          1           0        2.311013    0.947112   -1.241605
     15          1           0        0.966122    2.127548    0.850618
 ---------------------------------------------------------------------

 SCF Done:  E(RHF) =  -306.673313780     A.U. after    2 cycles

 The electronic state is 1-A.
 Alpha  occ. eigenvalues --  -20.58419 -11.32920 -11.30525 -11.25745 -11.25477
 Alpha  occ. eigenvalues --  -11.24160 -11.22916  -1.38481  -1.10015  -1.03139
 Alpha  occ. eigenvalues --   -0.96737  -0.85057  -0.78636  -0.76509  -0.73599
 Alpha  occ. eigenvalues --   -0.65639  -0.61304  -0.58995  -0.58498  -0.56155
 Alpha  occ. eigenvalues --   -0.55488  -0.53693  -0.50639  -0.46126  -0.37993
 Alpha  occ. eigenvalues --   -0.26312
 Alpha virt. eigenvalues --    0.03399   0.04068   0.04318   0.04859   0.05823
 Alpha virt. eigenvalues --    0.05876   0.06727   0.07158   0.07965   0.10415
 Alpha virt. eigenvalues --    0.11598   0.12461   0.13203   0.13664   0.14011

 Mulliken charges:
               1
     1  C    0.315727
     2  C   -0.198579
     3  C    0.849181
     4  O   -0.751564
     5  C    0.589370
     6  C    0.599567
     7  C    0.366892
     8  H    0.071109
     9  H    0.007804
    10  H   -0.016662
    11  H   -0.454424
    12  H   -0.333783
    13  H   -0.362684
    14  H   -0.335787
    15  H   -0.346167
 Sum of Mulliken charges =  -0.00000

 Dipole moment (field-independent basis, Debye):
    X=             -0.2201    Y=              1.6215    Z=             -0.6533  Tot=              1.7619

 Test job not archived.
 1\1\GINC-SE113\SP\RHF\Aug-CC-pVDZ\C6H8O1\OHZDE\09-Apr-2025\0\\#t hf au
 g-cc-pvdz iop(5/13=1,5/36=2,99/5=2) pseudo=read geom=check guess=(read
 ,tcheck) scf=(maxcycle=1)\\title\\0,1\C,0,2.17822547,0.04741004,-0.123
 30119\C,0,0.70475958,-0.07673553,-0.33056793\C,0,-0.20516819,-0.101331
 42,0.89862196\O,0,-0.77918248,1.2071512,0.96763831\C,0,-1.36148323,1.1
 3810125,-0.26811997\C,0,-1.91309451,-0.13409823,-0.50935289\C,0,-1.267
 05497,-0.98005589,0.35672164\H,0,2.61011092,-0.8610849,0.31700262\H,0,
 2.40966497,0.87455039,0.55367869\H,0,2.69002783,0.21314334,-1.07253825

 Normal termination of Gaussian 16 at Wed Apr  9 15:04:07 2025.
