 Gaussian 16, Revision C.01,

 ----------------------------------------------------------------------
 #t hf aug-cc-pvdz symm=none int=(grid=ultrafine) guess=(read,tcheck) s
 table=(opt,rrhf)
 ----------------------------------------------------------------------
 -----
 title
 -----
 Symbolic Z-matrix:
 Charge =  0 Multiplicity = 1

 SCF Done:  E(RHF) =  -283.473362481     A.U. after   17 cycles
 Normal termination of Gaussian 16 at Wed Apr  9 14:20:05 2025.
 Gaussian 16:  ES64L-G16RevC.01  3-Jul-2019

 ----------------------------------------------------------------------
 #t hf aug-cc-pvdz iop(5/13=1,5/36=2,99/5=2) pseudo=read geom=check gue
 ss=(read,tcheck) scf=(maxcycle=1)
 ----------------------------------------------------------------------
 -----
 title
 -----
 Structure from the checkpoint file:  "Grambow2020_b97d3_007177_forward_mol1.chk"
 Charge =  0 Multiplicity = 1

                         Standard orientation:
 ---------------------------------------------------------------------
 Center     Atomic      Atomic             Coordinates (Angstroms)
 Number     Number       Type             X           Y           Z
 ---------------------------------------------------------------------
      1          6           0       -1.491962   -0.876881   -0.469922
      2          7           0       -1.019304   -0.740002    0.803447
      3          6           0       -0.036521    0.668504   -0.117642
      4          8           0       -0.417177    1.793692    0.089025
      5          6           0        1.205852   -0.025968   -0.067483
      6          6           0        2.313072   -0.533476   -0.068635
      7          1           0       -1.395966   -1.815045   -1.044209
      8          1           0       -0.620864    0.000462   -1.185626
      9          1           0       -2.390029   -0.292308   -0.703865
     10          1           0       -0.356828   -1.493207    1.022370
     11          1           0        3.293588   -0.962498   -0.082904
 ---------------------------------------------------------------------

 SCF Done:  E(RHF) =  -283.559343688     A.U. after    2 cycles

 The electronic state is 1-A.
 Alpha  occ. eigenvalues --  -20.58109 -15.62199 -11.44950 -11.35590 -11.30067
 Alpha  occ. eigenvalues --  -11.29215  -1.37931  -1.18863  -1.07361  -0.92900
 Alpha  occ. eigenvalues --   -0.89385  -0.75179  -0.71502  -0.68125  -0.67160
 Alpha  occ. eigenvalues --   -0.61707  -0.60809  -0.48272  -0.45564  -0.44158
 Alpha  occ. eigenvalues --   -0.42719  -0.34611
 Alpha virt. eigenvalues --    0.02472   0.03324   0.04546   0.05040   0.06124
 Alpha virt. eigenvalues --    0.06991   0.08249   0.10079   0.10552   0.11202
 Alpha virt. eigenvalues --    0.12653   0.12972   0.13302   0.14585   0.14752

 Mulliken charges:
               1
     1  C    0.613376
     2  N   -0.562037
     3  C    0.086819
     4  O   -0.469211
     5  C    0.014534
     6  C    0.653804
     7  H   -0.130206
     8  H    0.300180
     9  H   -0.130156
    10  H    0.067120
    11  H   -0.444223
 Sum of Mulliken charges =  -0.00000

 Dipole moment (field-independent basis, Debye):
    X=              1.4384    Y=             -4.5819    Z=             -2.5014  Tot=              5.4148

 Test job not archived.
 1\1\GINC-SE009\SP\RHF\Aug-CC-pVDZ\C4H5N1O1\OHZDE\09-Apr-2025\0\\#t hf
 aug-cc-pvdz iop(5/13=1,5/36=2,99/5=2) pseudo=read geom=check guess=(re
 ad,tcheck) scf=(maxcycle=1)\\title\\0,1\C,0,-1.40328037,-0.11262816,-0
 .57160346\N,0,-0.66450193,-1.20059172,-0.20533643\C,0,0.02283858,0.151
 87289,1.01800298\O,0,-0.35232792,0.06364177,2.16042365\C,0,1.27499814,
 0.26589652,0.34913049\C,0,2.37565978,0.43089956,-0.1456619\H,0,-1.3959
 1588,0.29546379,-1.59755587\H,0,-0.75478706,0.92485129,0.16587064\H,0,
 -2.35635486,0.00872098,-0.04254511\H,0,0.06344313,-1.39074795,-0.90394

 Normal termination of Gaussian 16 at Wed Apr  9 14:20:08 2025.
