 Gaussian 16, Revision C.01,

 ----------------------------------------------------------------------
 #t hf aug-cc-pvdz symm=none int=(grid=ultrafine) guess=(read,tcheck) s
 table=(opt,rrhf)
 ----------------------------------------------------------------------
 -----
 title
 -----
 Symbolic Z-matrix:
 Charge =  0 Multiplicity = 1

 SCF Done:  E(RHF) =  -304.662572773     A.U. after   14 cycles
 Normal termination of Gaussian 16 at Wed Apr  9 03:14:25 2025.
 Gaussian 16:  ES64L-G16RevC.01  3-Jul-2019

 ----------------------------------------------------------------------
 #t hf aug-cc-pvdz iop(5/13=1,5/36=2,99/5=2) pseudo=read geom=check gue
 ss=(read,tcheck) scf=(maxcycle=1)
 ----------------------------------------------------------------------
 -----
 title
 -----
 Structure from the checkpoint file:  "Grambow2020_b97d3_006985_reverse_mol2.chk"
 Charge =  0 Multiplicity = 1

                         Standard orientation:
 ---------------------------------------------------------------------
 Center     Atomic      Atomic             Coordinates (Angstroms)
 Number     Number       Type             X           Y           Z
 ---------------------------------------------------------------------
      1          6           0       -2.133001   -0.112368    0.476466
      2          6           0       -0.974935    0.105107   -0.473795
      3          6           0        0.092823    1.130028   -0.141863
      4          6           0        0.930399    0.072972   -0.012111
      5          8           0        2.206196   -0.230575    0.278578
      6          8           0        0.079559   -0.967383   -0.290824
      7          1           0       -1.776438   -0.148176    1.513286
      8          1           0       -2.662519   -1.047158    0.242647
      9          1           0       -2.846232    0.719410    0.380170
     10          1           0       -1.291863    0.068470   -1.525701
     11          1           0        2.672418    0.609960    0.446447
     12          1           0        0.126878    2.206735   -0.051060
 ---------------------------------------------------------------------

 SCF Done:  E(RHF) =  -304.758683833     A.U. after    2 cycles

 The electronic state is 1-A.
 Alpha  occ. eigenvalues --  -20.63428 -20.59486 -11.38119 -11.31361 -11.23559
 Alpha  occ. eigenvalues --  -11.22577  -1.41718  -1.35328  -1.04102  -0.98914
 Alpha  occ. eigenvalues --   -0.87262  -0.78180  -0.71429  -0.69664  -0.67535
 Alpha  occ. eigenvalues --   -0.62130  -0.60161  -0.56835  -0.55185  -0.52212
 Alpha  occ. eigenvalues --   -0.49571  -0.48469  -0.33447
 Alpha virt. eigenvalues --    0.02877   0.04014   0.04958   0.05106   0.06795
 Alpha virt. eigenvalues --    0.07115   0.10242   0.10771   0.11827   0.12279
 Alpha virt. eigenvalues --    0.13497   0.14926   0.15302   0.15689   0.16110

 Mulliken charges:
               1
     1  C    0.264109
     2  C    0.308086
     3  C    0.540645
     4  C    0.406061
     5  O   -0.479583
     6  O   -0.769485
     7  H    0.013220
     8  H    0.005342
     9  H    0.048615
    10  H   -0.222571
    11  H    0.156805
    12  H   -0.271243
 Sum of Mulliken charges =  -0.00000

 Dipole moment (field-independent basis, Debye):
    X=             -0.3478    Y=              3.0260    Z=              0.2825  Tot=              3.0590

 Test job not archived.
 1\1\GINC-SE108\SP\RHF\Aug-CC-pVDZ\C4H6O2\OHZDE\09-Apr-2025\0\\#t hf au
 g-cc-pvdz iop(5/13=1,5/36=2,99/5=2) pseudo=read geom=check guess=(read
 ,tcheck) scf=(maxcycle=1)\\title\\0,1\C,0,-1.65572573,-0.30399258,0.46
 096849\C,0,-0.53361863,-0.03643341,-0.51918207\C,0,0.58331224,0.919817
 09,-0.14662468\C,0,1.38785078,-0.17033035,-0.15242714\O,0,2.66365908,-
 0.53899132,0.04931964\O,0,0.48928676,-1.15360461,-0.48364042\H,0,-1.25
 538298,-0.44599725,1.47239103\H,0,-2.22776918,-1.19635854,0.16883571\H
 ,0,-2.34261822,0.55498286,0.47385521\H,0,-0.89761735,0.03361699,-1.554

 Normal termination of Gaussian 16 at Wed Apr  9 03:14:29 2025.
