 Gaussian 16, Revision C.01,

 ----------------------------------------------------------------------
 #t hf aug-cc-pvdz symm=none int=(grid=ultrafine) guess=(read,tcheck) s
 table=(opt,rrhf)
 ----------------------------------------------------------------------
 -----
 title
 -----
 Symbolic Z-matrix:
 Charge =  0 Multiplicity = 1

 SCF Done:  E(RHF) =  -374.444850533     A.U. after   16 cycles
 Normal termination of Gaussian 16 at Wed Apr  9 16:35:50 2025.
 Gaussian 16:  ES64L-G16RevC.01  3-Jul-2019

 ----------------------------------------------------------------------
 #t hf aug-cc-pvdz iop(5/13=1,5/36=2,99/5=2) pseudo=read geom=check gue
 ss=(read,tcheck) scf=(maxcycle=1)
 ----------------------------------------------------------------------
 -----
 title
 -----
 Structure from the checkpoint file:  "Grambow2020_wb97xd3_008645_forward_mol1.chk"
 Charge =  0 Multiplicity = 1

                         Standard orientation:
 ---------------------------------------------------------------------
 Center     Atomic      Atomic             Coordinates (Angstroms)
 Number     Number       Type             X           Y           Z
 ---------------------------------------------------------------------
      1          6           0        1.509488    1.259854    0.215599
      2          7           0        0.525366    0.235007   -0.001794
      3          7           0        1.062844   -1.085435   -0.650996
      4          6           0        0.257170   -1.401031    0.284380
      5          8           0       -1.184485   -0.967679    0.154807
      6          6           0       -0.876890    0.317280   -0.059569
      7          8           0       -1.571087    1.274542   -0.156832
      8          1           0        2.293548    0.875582    0.866613
      9          1           0        1.949575    1.576995   -0.730766
     10          1           0        1.007003    2.098041    0.697419
     11          1           0        0.338368   -2.109146    1.110013
 ---------------------------------------------------------------------

 SCF Done:  E(RHF) =  -374.558448492     A.U. after    2 cycles

 The electronic state is 1-A.
 Alpha  occ. eigenvalues --  -20.64094 -20.58309 -15.73055 -15.66113 -11.44744
 Alpha  occ. eigenvalues --  -11.44650 -11.30472  -1.48429  -1.37963  -1.30017
 Alpha  occ. eigenvalues --   -1.13965  -0.98560  -0.89348  -0.79144  -0.76075
 Alpha  occ. eigenvalues --   -0.73493  -0.67776  -0.66389  -0.64505  -0.60661
 Alpha  occ. eigenvalues --   -0.58408  -0.56735  -0.52567  -0.50732  -0.46281
 Alpha  occ. eigenvalues --   -0.37250
 Alpha virt. eigenvalues --    0.02581   0.03478   0.05398   0.05606   0.07073
 Alpha virt. eigenvalues --    0.09005   0.09674   0.11109   0.11731   0.12322
 Alpha virt. eigenvalues --    0.13797   0.14843   0.14952   0.15537   0.16160

 Mulliken charges:
               1
     1  C    0.835441
     2  N   -0.638155
     3  N   -0.532622
     4  C    1.312657
     5  O   -0.631162
     6  C    0.498811
     7  O   -0.347838
     8  H   -0.132669
     9  H   -0.078051
    10  H   -0.162575
    11  H   -0.123837
 Sum of Mulliken charges =  -0.00000

 Dipole moment (field-independent basis, Debye):
    X=              3.3187    Y=             -0.9672    Z=              2.6185  Tot=              4.3365

 Test job not archived.
 1\1\GINC-SE026\SP\RHF\Aug-CC-pVDZ\C3H4N2O2\OHZDE\09-Apr-2025\0\\#t hf
 aug-cc-pvdz iop(5/13=1,5/36=2,99/5=2) pseudo=read geom=check guess=(re
 ad,tcheck) scf=(maxcycle=1)\\title\\0,1\C,0,-1.45903475,-0.25669943,0.
 10250156\N,0,-0.04149228,-0.02671623,0.16371939\N,0,0.82290868,-1.2664
 301,0.57582778\C,0,1.41203609,-0.6721001,-0.38507911\O,0,1.87953324,0.
 74711342,-0.16096113\C,0,0.68239082,1.17474082,0.2581778\O,0,0.2987191
 8,2.26540759,0.52456486\H,0,-1.66591408,-1.04824905,-0.61644518\H,0,-1
 .84365135,-0.54828725,1.08071806\H,0,-1.92649344,0.67139433,-0.2250981

 Normal termination of Gaussian 16 at Wed Apr  9 16:35:55 2025.
