 Gaussian 16, Revision C.01,

 ----------------------------------------------------------------------
 #t hf aug-cc-pvdz symm=none int=(grid=ultrafine) guess=(read,tcheck) s
 table=(opt,rrhf)
 ----------------------------------------------------------------------
 -----
 title
 -----
 Symbolic Z-matrix:
 Charge =  0 Multiplicity = 1

 SCF Done:  E(RHF) =  -283.479992036     A.U. after   16 cycles
 Normal termination of Gaussian 16 at Wed Apr  9 14:24:08 2025.
 Gaussian 16:  ES64L-G16RevC.01  3-Jul-2019

 ----------------------------------------------------------------------
 #t hf aug-cc-pvdz iop(5/13=1,5/36=2,99/5=2) pseudo=read geom=check gue
 ss=(read,tcheck) scf=(maxcycle=1)
 ----------------------------------------------------------------------
 -----
 title
 -----
 Structure from the checkpoint file:  "Grambow2020_wb97xd3_006230_forward_mol1.chk"
 Charge =  0 Multiplicity = 1

                         Standard orientation:
 ---------------------------------------------------------------------
 Center     Atomic      Atomic             Coordinates (Angstroms)
 Number     Number       Type             X           Y           Z
 ---------------------------------------------------------------------
      1          8           0       -1.168661    0.927527   -0.544831
      2          6           0       -0.393839    0.435550    0.366518
      3          6           0        1.109762    0.687118    0.520834
      4          6           0        1.229864   -0.406424   -0.511268
      5          6           0        0.032498   -1.063992   -0.531234
      6          7           0       -0.674399   -0.847581    0.796194
      7          1           0        1.485075    0.503207    1.525537
      8          1           0        1.425405    1.656636    0.145350
      9          1           0        1.862823   -0.353352   -1.387228
     10          1           0       -0.917582   -0.159533   -1.204473
     11          1           0       -1.655341   -1.047620    0.637007
 ---------------------------------------------------------------------

 SCF Done:  E(RHF) =  -283.561837510     A.U. after    2 cycles

 The electronic state is 1-A.
 Alpha  occ. eigenvalues --  -20.59065 -15.66516 -11.41124 -11.28893 -11.28299
 Alpha  occ. eigenvalues --  -11.27328  -1.40804  -1.24569  -1.08910  -0.95245
 Alpha  occ. eigenvalues --   -0.81642  -0.75588  -0.71190  -0.68276  -0.64876
 Alpha  occ. eigenvalues --   -0.60344  -0.59752  -0.57037  -0.50405  -0.47755
 Alpha  occ. eigenvalues --   -0.38323  -0.34730
 Alpha virt. eigenvalues --    0.03358   0.04368   0.04675   0.05118   0.06973
 Alpha virt. eigenvalues --    0.07485   0.08251   0.10177   0.10639   0.11805
 Alpha virt. eigenvalues --    0.12676   0.14151   0.14767   0.15386   0.15527

 Mulliken charges:
               1
     1  O   -0.784113
     2  C    0.411035
     3  C    0.500710
     4  C    0.616890
     5  C   -0.502172
     6  N   -0.537408
     7  H   -0.070842
     8  H   -0.060882
     9  H   -0.269503
    10  H    0.619217
    11  H    0.077068
 Sum of Mulliken charges =  -0.00000

 Dipole moment (field-independent basis, Debye):
    X=              1.3527    Y=              0.7917    Z=              0.7284  Tot=              1.7284

 Test job not archived.
 1\1\GINC-SE113\SP\RHF\Aug-CC-pVDZ\C4H5N1O1\OHZDE\09-Apr-2025\0\\#t hf
 aug-cc-pvdz iop(5/13=1,5/36=2,99/5=2) pseudo=read geom=check guess=(re
 ad,tcheck) scf=(maxcycle=1)\\title\\0,1\O,0,0.01333139,1.06951621,1.37
 089771\C,0,-0.29984282,0.77436923,0.15116091\C,0,-1.13478526,-0.423458
 99,-0.3135916\C,0,0.17651949,-1.16288587,-0.21756846\C,0,1.16210571,-0
 .21721567,-0.18915124\N,0,0.63992462,1.06250563,-0.82021627\H,0,-1.589
 88636,-0.28826031,-1.29273137\H,0,-1.86012956,-0.75554173,0.42409451\H
 ,0,0.30124981,-2.12699087,0.25751394\H,0,1.09885625,0.39671715,1.14989

 Normal termination of Gaussian 16 at Wed Apr  9 14:24:12 2025.
