 Gaussian 16, Revision C.01,

 ----------------------------------------------------------------------
 #t hf aug-cc-pvdz symm=none int=(grid=ultrafine) guess=(read,tcheck) s
 table=(opt,rrhf)
 ----------------------------------------------------------------------
 -----
 title
 -----
 Symbolic Z-matrix:
 Charge =  0 Multiplicity = 1

 SCF Done:  E(RHF) =  -343.553693182     A.U. after   14 cycles
 Normal termination of Gaussian 16 at Wed Apr  9 03:27:19 2025.
 Gaussian 16:  ES64L-G16RevC.01  3-Jul-2019

 ----------------------------------------------------------------------
 #t hf aug-cc-pvdz iop(5/13=1,5/36=2,99/5=2) pseudo=read geom=check gue
 ss=(read,tcheck) scf=(maxcycle=1)
 ----------------------------------------------------------------------
 -----
 title
 -----
 Structure from the checkpoint file:  "Grambow2020_wb97xd3_006712_reverse_mol2.chk"
 Charge =  0 Multiplicity = 1

                         Standard orientation:
 ---------------------------------------------------------------------
 Center     Atomic      Atomic             Coordinates (Angstroms)
 Number     Number       Type             X           Y           Z
 ---------------------------------------------------------------------
      1          8           0       -2.299537   -0.210943    0.401330
      2          6           0       -1.519221    0.109098   -0.720597
      3          6           0       -0.062647   -0.069798   -0.441907
      4          8           0        0.338821   -1.176062    0.157963
      5          6           0        1.255059   -0.211669    0.941963
      6          6           0        2.255126    0.083118   -0.090080
      7          6           0        0.974320    0.828399   -0.448463
      8          1           0       -1.887871   -0.958161    0.847081
      9          1           0       -1.769625   -0.526372   -1.582579
     10          1           0       -1.721907    1.144956   -0.994515
     11          1           0       -1.533416    2.170610    1.496594
     12          1           0       -1.291497    2.873459    1.431964
     13          1           0        2.554843   -0.682980   -0.803854
     14          1           0        3.048627    0.743417    0.241278
     15          1           0        0.870751    1.896230   -0.555816
 ---------------------------------------------------------------------

 SCF Done:  E(RHF) =  -343.662384647     A.U. after    2 cycles

 The electronic state is 1-A.
 Alpha  occ. eigenvalues --  -20.61935 -20.59197 -11.36614 -11.32278 -11.31863
 Alpha  occ. eigenvalues --  -11.28221 -11.26365  -1.42626  -1.34739  -1.13245
 Alpha  occ. eigenvalues --   -1.03192  -0.91757  -0.81695  -0.77223  -0.73815
 Alpha  occ. eigenvalues --   -0.70384  -0.68797  -0.63305  -0.62389  -0.59197
 Alpha  occ. eigenvalues --   -0.58175  -0.56538  -0.55551  -0.51117  -0.47844
 Alpha  occ. eigenvalues --   -0.38961  -0.37706
 Alpha virt. eigenvalues --    0.03148   0.03957   0.04565   0.05477   0.06383
 Alpha virt. eigenvalues --    0.06637   0.07397   0.08693   0.09555   0.09863
 Alpha virt. eigenvalues --    0.11533   0.12243   0.12737   0.13924   0.14093

 Mulliken charges:
               1
     1  O   -0.540757
     2  C    0.836819
     3  C   -0.249280
     4  O   -0.767588
     5  C   -0.128907
     6  C    0.854860
     7  C    0.636563
     8  H    0.199070
     9  H   -0.004383
    10  H   -0.126129
    11  H    0.067842
    12  H   -0.039429
    13  H   -0.230507
    14  H   -0.148209
    15  H   -0.359966
 Sum of Mulliken charges =  -0.00000

 Dipole moment (field-independent basis, Debye):
    X=              1.1275    Y=              1.1821    Z=             -3.1813  Tot=              3.5762

 Test job not archived.
 1\1\GINC-SE403\SP\RHF\Aug-CC-pVDZ\C5H8O2\OHZDE\09-Apr-2025\0\\#t hf au
 g-cc-pvdz iop(5/13=1,5/36=2,99/5=2) pseudo=read geom=check guess=(read
 ,tcheck) scf=(maxcycle=1)\\title\\0,1\O,0,1.95452066,0.4832045,1.25138
 736\C,0,1.654204,-0.09953702,0.01031443\C,0,0.29217921,0.29206321,-0.4
 617183\O,0,-0.06199726,1.56300545,-0.39764233\C,0,-1.40940621,0.983235
 38,0.08459833\C,0,-1.93525093,0.47297252,-1.18633264\C,0,-0.82237688,-
 0.4624957,-0.72724979\H,0,1.57443831,1.36742705,1.26499059\H,0,2.37162
 65,0.20666196,-0.76498213\H,0,1.71449067,-1.18307622,0.11719329\H,0,0.

 Normal termination of Gaussian 16 at Wed Apr  9 03:27:24 2025.
