 Gaussian 16, Revision C.01,

 ----------------------------------------------------------------------
 #t hf aug-cc-pvdz symm=none int=(grid=ultrafine) guess=(read,tcheck) s
 table=(opt,rrhf)
 ----------------------------------------------------------------------
 -----
 title
 -----
 Symbolic Z-matrix:
 Charge =  0 Multiplicity = 1

 SCF Done:  E(RHF) =  -360.816184446     A.U. after   15 cycles
 Normal termination of Gaussian 16 at Wed Apr  9 03:58:50 2025.
 Gaussian 16:  ES64L-G16RevC.01  3-Jul-2019

 ----------------------------------------------------------------------
 #t hf aug-cc-pvdz iop(5/13=1,5/36=2,99/5=2) pseudo=read geom=check gue
 ss=(read,tcheck) scf=(maxcycle=1)
 ----------------------------------------------------------------------
 -----
 title
 -----
 Structure from the checkpoint file:  "Grambow2020_wb97xd3_008730_reverse_mol1.chk"
 Charge =  0 Multiplicity = 1

                         Standard orientation:
 ---------------------------------------------------------------------
 Center     Atomic      Atomic             Coordinates (Angstroms)
 Number     Number       Type             X           Y           Z
 ---------------------------------------------------------------------
      1          6           0       -2.365514   -0.578972    0.047542
      2          6           0       -0.979131   -0.036225   -0.221126
      3          8           0       -1.041581    1.397356   -0.426502
      4          6           0       -0.053486   -0.217103    0.964475
      5          6           0        1.171459   -0.220306    0.160975
      6          8           0        1.475158   -1.232494   -0.627189
      7          7           0        2.033112    0.768431    0.180798
      8          1           0       -2.868354   -0.050327    0.876192
      9          1           0       -2.327604   -1.643700    0.295418
     10          1           0       -3.003873   -0.481900   -0.833972
     11          1           0        0.570200   -1.508397   -0.916910
     12          1           0       -1.052348    1.539063   -1.371305
     13          1           0       -0.072742    0.569831    1.735908
     14          1           0       -0.183746   -1.201023    1.419172
     15          1           0        2.743299    0.836354   -0.528461
     16          1           0        1.854794    1.557819    0.776699
 ---------------------------------------------------------------------

 SCF Done:  E(RHF) =  -360.929718825     A.U. after    2 cycles

 The electronic state is 1-A.
 Alpha  occ. eigenvalues --  -20.63859 -20.52560 -15.70954 -11.42944 -11.24240
 Alpha  occ. eigenvalues --  -11.19970 -11.18512  -1.43617  -1.27039  -1.25564
 Alpha  occ. eigenvalues --   -1.05213  -0.93539  -0.88401  -0.79525  -0.75748
 Alpha  occ. eigenvalues --   -0.73541  -0.72077  -0.64182  -0.62695  -0.60650
 Alpha  occ. eigenvalues --   -0.57093  -0.54242  -0.52001  -0.50836  -0.50483
 Alpha  occ. eigenvalues --   -0.47515  -0.41366  -0.24199
 Alpha virt. eigenvalues --    0.02212   0.04200   0.04536   0.05372   0.06614
 Alpha virt. eigenvalues --    0.06697   0.07217   0.07851   0.09098   0.10439
 Alpha virt. eigenvalues --    0.11699   0.12787   0.13348   0.13526   0.14145

 Mulliken charges:
               1
     1  C    0.560870
     2  C   -0.915617
     3  O   -0.596265
     4  C    0.605924
     5  C    0.865268
     6  O   -0.549542
     7  N   -0.136920
     8  H   -0.000691
     9  H   -0.013681
    10  H   -0.103443
    11  H    0.302649
    12  H    0.111592
    13  H   -0.145095
    14  H   -0.047079
    15  H   -0.006292
    16  H    0.068322
 Sum of Mulliken charges =  -0.00000

 Dipole moment (field-independent basis, Debye):
    X=              4.9663    Y=              0.6868    Z=              0.6738  Tot=              5.0586

 Test job not archived.
 1\1\GINC-SE016\SP\RHF\Aug-CC-pVDZ\C4H9N1O2\OHZDE\09-Apr-2025\0\\#t hf
 aug-cc-pvdz iop(5/13=1,5/36=2,99/5=2) pseudo=read geom=check guess=(re
 ad,tcheck) scf=(maxcycle=1)\\title\\0,1\C,0,-2.09339686,-0.1761821,-0.
 84670207\C,0,-0.65860413,0.25031349,-0.62696466\O,0,-0.62254964,1.5576
 7144,-0.00186557\C,0,0.06813933,-0.66117459,0.34061933\C,0,1.39879482,
 -0.37468504,-0.20103951\O,0,1.77047562,-0.81938336,-1.38512367\N,0,2.2
 9267715,0.32781376,0.45310842\H,0,-2.69033883,-0.12972104,0.08091744\H
 ,0,-2.14292476,-1.19825147,-1.23328506\H,0,-2.58623612,0.46442087,-1.5

 Normal termination of Gaussian 16 at Wed Apr  9 03:58:55 2025.
