 Gaussian 16, Revision C.01,

 ----------------------------------------------------------------------
 #t hf aug-cc-pvdz symm=none int=(grid=ultrafine) guess=(read,tcheck) s
 table=(opt,rrhf)
 ----------------------------------------------------------------------
 -----
 title
 -----
 Symbolic Z-matrix:
 Charge =  0 Multiplicity = 1

 SCF Done:  E(RHF) =  -394.440217464     A.U. after   14 cycles
 Normal termination of Gaussian 16 at Wed Apr  9 15:36:44 2025.
 Gaussian 16:  ES64L-G16RevC.01  3-Jul-2019

 ----------------------------------------------------------------------
 #t hf aug-cc-pvdz iop(5/13=1,5/36=2,99/5=2) pseudo=read geom=check gue
 ss=(read,tcheck) scf=(maxcycle=1)
 ----------------------------------------------------------------------
 -----
 title
 -----
 Structure from the checkpoint file:  "Grambow2020_wb97xd3_007195_reverse_mol2.chk"
 Charge =  0 Multiplicity = 1

                         Standard orientation:
 ---------------------------------------------------------------------
 Center     Atomic      Atomic             Coordinates (Angstroms)
 Number     Number       Type             X           Y           Z
 ---------------------------------------------------------------------
      1          7           0       -0.620198   -0.603709    0.072942
      2          6           0       -1.731019   -1.062862    0.006900
      3          8           0       -2.845477   -1.389467   -0.050245
      4          6           0        2.777228   -0.551647   -0.027393
      5          8           0        2.100821   -1.544433    0.015149
      6          6           0        0.393824    2.466987   -0.043237
      7          8           0       -0.601855    2.980900    0.023298
      8          1           0        0.265363   -1.105911    0.063615
      9          1           0        3.877330   -0.616356   -0.083414
     10          1           0        2.330588    0.457358   -0.014031
 ---------------------------------------------------------------------

 SCF Done:  E(RHF) =  -394.569254052     A.U. after    2 cycles

 The electronic state is 1-A.
 Alpha  occ. eigenvalues --  -20.68276 -20.62147 -20.61973 -15.63763 -11.41302
 Alpha  occ. eigenvalues --  -11.37865 -11.37437  -1.49433  -1.42881  -1.40491
 Alpha  occ. eigenvalues --   -1.21640  -0.89369  -0.81798  -0.80286  -0.73908
 Alpha  occ. eigenvalues --   -0.71945  -0.69304  -0.66109  -0.65961  -0.65671
 Alpha  occ. eigenvalues --   -0.64446  -0.58482  -0.56422  -0.48603  -0.46483
 Alpha  occ. eigenvalues --   -0.43952
 Alpha virt. eigenvalues --    0.02769   0.04737   0.05252   0.05289   0.08285
 Alpha virt. eigenvalues --    0.08483   0.09461   0.09681   0.10337   0.12070
 Alpha virt. eigenvalues --    0.13547   0.13827   0.14763   0.15290   0.16718

 Mulliken charges:
               1
     1  N    0.158214
     2  C   -0.091966
     3  O   -0.186834
     4  C    0.715630
     5  O   -0.404853
     6  C    0.219279
     7  O   -0.221917
     8  H    0.123815
     9  H   -0.165757
    10  H   -0.145612
 Sum of Mulliken charges =  -0.00000

 Dipole moment (field-independent basis, Debye):
    X=              5.2626    Y=              1.6103    Z=             -0.1165  Tot=              5.5047

 Test job not archived.
 1\1\GINC-SE041\SP\RHF\Aug-CC-pVDZ\C3H3N1O3\OHZDE\09-Apr-2025\0\\#t hf
 aug-cc-pvdz iop(5/13=1,5/36=2,99/5=2) pseudo=read geom=check guess=(re
 ad,tcheck) scf=(maxcycle=1)\\title\\0,1\N,0,-0.1379958,0.37766173,-1.2
 269775\C,0,-0.35519931,0.84971558,-2.31283919\O,0,-0.67217925,1.242898
 9,-3.36016095\C,0,1.43810939,-0.08122418,1.74969719\O,0,1.88752498,0.5
 2571492,0.81449097\C,0,-2.04770311,-1.34940302,0.73291351\O,0,-2.90019
 693,-1.53331394,0.02627304\H,0,0.6755831,0.52461978,-0.63283565\H,0,2.
 00125489,-0.16603448,2.69480282\H,0,0.45151203,-0.57342229,1.70363376\

 Normal termination of Gaussian 16 at Wed Apr  9 15:36:48 2025.
