 Gaussian 16, Revision C.01,

 ----------------------------------------------------------------------
 #t hf aug-cc-pvdz symm=none int=(grid=ultrafine) guess=(read,tcheck) s
 table=(opt,rrhf)
 ----------------------------------------------------------------------
 -----
 title
 -----
 Symbolic Z-matrix:
 Charge =  0 Multiplicity = 1

 SCF Done:  E(RHF) =  -308.815419542     A.U. after   18 cycles

 1\1\GINC-SE057\Stability\RHF\Aug-CC-pVDZ\C6H12O1\OHZDE\09-Apr-2025\0\\
 #t hf aug-cc-pvdz symm=none int=(grid=ultrafine) guess=(read,tcheck) s
 table=(opt,rrhf)\\title\\0,1\C,0,1.99503622,0.28012413,-0.64887166\C,0
 ,0.77376258,-0.32255599,0.76447901\O,0,1.3441791,-0.27081241,1.9886043
 1\C,0,-0.23078204,0.725059,0.34725313\C,0,0.16229156,0.81538547,-1.081
 53604\C,0,-1.63458765,0.40141248,0.41834755\C,0,-2.24549696,-0.8625226
 8,-0.10790211\H,0,2.17322437,0.45109397,-1.72371116\H,0,2.57079597,-0.
 63932696,-0.47294114\H,0,2.46354189,1.10033785,-0.10733587\H,0,0.53454

 Normal termination of Gaussian 16 at Wed Apr  9 15:55:34 2025.
 Gaussian 16:  ES64L-G16RevC.01  3-Jul-2019

 ----------------------------------------------------------------------
 #t hf aug-cc-pvdz iop(5/13=1,5/36=2,99/5=2) pseudo=read geom=check gue
 ss=(read,tcheck) scf=(maxcycle=1)
 ----------------------------------------------------------------------
 -----
 title
 -----
 Structure from the checkpoint file:  "Grambow2020_wb97xd3_007583_forward_mol1.chk"
 Charge =  0 Multiplicity = 1

                         Standard orientation:
 ---------------------------------------------------------------------
 Center     Atomic      Atomic             Coordinates (Angstroms)
 Number     Number       Type             X           Y           Z
 ---------------------------------------------------------------------
      1          6           0        1.829690    1.026208   -0.375526
      2          6           0        0.730615   -0.594920   -0.247961
      3          8           0        1.443787   -1.663731    0.171043
      4          6           0       -0.208724    0.112909    0.699302
      5          6           0        0.019963    1.494424    0.206127
      6          6           0       -1.619228   -0.177162    0.616796
      7          6           0       -2.408742   -0.213459   -0.657186
      8          1           0        1.895689    2.095858   -0.635823
      9          1           0        2.329389    0.558316   -1.235305
     10          1           0        2.436848    0.870375    0.514746
     11          1           0        0.355174   -0.680143   -1.270566
     12          1           0        1.628740   -2.266479   -0.551934
     13          1           0        0.176306   -0.003565    1.714009
     14          1           0       -0.463134    1.737597   -0.735434
     15          1           0        0.056468    2.330795    0.902340
     16          1           0       -2.127021   -0.544904    1.502619
     17          1           0       -1.868344    0.223463   -1.501937
     18          1           0       -3.351616    0.335426   -0.565164
     19          1           0       -2.680239   -1.234891   -0.955210
 ---------------------------------------------------------------------

 SCF Done:  E(RHF) =  -308.912085462     A.U. after    2 cycles

 The electronic state is 1-A.
 Alpha  occ. eigenvalues --  -20.62461 -11.34277 -11.27365 -11.24087 -11.24001
 Alpha  occ. eigenvalues --  -11.21364 -11.20053  -1.38804  -1.10688  -0.98201
 Alpha  occ. eigenvalues --   -0.92124  -0.91178  -0.83402  -0.77277  -0.74740
 Alpha  occ. eigenvalues --   -0.65950  -0.63251  -0.61688  -0.57547  -0.56955
 Alpha  occ. eigenvalues --   -0.55013  -0.53682  -0.53074  -0.51660  -0.49930
 Alpha  occ. eigenvalues --   -0.46957  -0.37730  -0.20762
 Alpha virt. eigenvalues --    0.02652   0.03911   0.04544   0.04600   0.05952
 Alpha virt. eigenvalues --    0.06360   0.06571   0.06626   0.06954   0.08537
 Alpha virt. eigenvalues --    0.08927   0.09387   0.09642   0.12619   0.12826

 Mulliken charges:
               1
     1  C    0.400340
     2  C    0.557735
     3  O   -0.561235
     4  C    0.438116
     5  C    0.502187
     6  C    0.281769
     7  C    0.433711
     8  H   -0.201143
     9  H   -0.095903
    10  H   -0.097849
    11  H   -0.308996
    12  H    0.185323
    13  H   -0.190629
    14  H   -0.209137
    15  H   -0.318415
    16  H   -0.471960
    17  H   -0.323673
    18  H   -0.039023
    19  H    0.018781
 Sum of Mulliken charges =   0.00000

 Dipole moment (field-independent basis, Debye):
    X=              1.9330    Y=             -0.3871    Z=             -2.2627  Tot=              3.0010

 Test job not archived.
 1\1\GINC-SE057\SP\RHF\Aug-CC-pVDZ\C6H12O1\OHZDE\09-Apr-2025\0\\#t hf a
 ug-cc-pvdz iop(5/13=1,5/36=2,99/5=2) pseudo=read geom=check guess=(rea
 d,tcheck) scf=(maxcycle=1)\\title\\0,1\C,0,1.99503622,0.28012413,-0.64
 887166\C,0,0.77376258,-0.32255599,0.76447901\O,0,1.3441791,-0.27081241
 ,1.98860431\C,0,-0.23078204,0.725059,0.34725313\C,0,0.16229156,0.81538
 547,-1.08153604\C,0,-1.63458765,0.40141248,0.41834755\C,0,-2.24549696,
 -0.86252268,-0.10790211\H,0,2.17322437,0.45109397,-1.72371116\H,0,2.57
 079597,-0.63932696,-0.47294114\H,0,2.46354189,1.10033785,-0.10733587\H

 Normal termination of Gaussian 16 at Wed Apr  9 15:55:42 2025.
