 Gaussian 16, Revision C.01,

 ----------------------------------------------------------------------
 #t hf aug-cc-pvdz symm=none int=(grid=ultrafine) guess=(read,tcheck) s
 table=(opt,rrhf)
 ----------------------------------------------------------------------
 -----
 title
 -----
 Symbolic Z-matrix:
 Charge =  0 Multiplicity = 1

 SCF Done:  E(RHF) =  -322.503693536     A.U. after   17 cycles
 Normal termination of Gaussian 16 at Wed Apr  9 15:30:54 2025.
 Gaussian 16:  ES64L-G16RevC.01  3-Jul-2019

 ----------------------------------------------------------------------
 #t hf aug-cc-pvdz iop(5/13=1,5/36=2,99/5=2) pseudo=read geom=check gue
 ss=(read,tcheck) scf=(maxcycle=1)
 ----------------------------------------------------------------------
 -----
 title
 -----
 Structure from the checkpoint file:  "Grambow2020_wb97xd3_006944_reverse_mol1.chk"
 Charge =  0 Multiplicity = 1

                         Standard orientation:
 ---------------------------------------------------------------------
 Center     Atomic      Atomic             Coordinates (Angstroms)
 Number     Number       Type             X           Y           Z
 ---------------------------------------------------------------------
      1          8           0       -0.394905   -1.086219    1.141107
      2          6           0       -0.121469   -1.117923   -0.144069
      3          7           0       -1.091723   -0.300465   -0.930753
      4          6           0       -1.259171    0.942280   -0.156966
      5          6           0       -0.051672    1.345671    0.609970
      6          6           0        1.198402   -0.422404   -0.308066
      7          6           0        2.166884    0.303963   -0.259119
      8          1           0       -0.108957   -2.117796   -0.616508
      9          1           0       -0.718652   -0.093712   -1.852091
     10          1           0       -2.046057    0.765469    0.578767
     11          1           0       -1.544417    1.738895   -0.848595
     12          1           0        0.599193    2.115781    0.216570
     13          1           0       -0.015691    1.158785    1.672945
     14          1           0        3.038040    0.916065   -0.215171
 ---------------------------------------------------------------------

 SCF Done:  E(RHF) =  -322.601018047     A.U. after    2 cycles

 The electronic state is 1-A.
 Alpha  occ. eigenvalues --  -20.43820 -15.61978 -11.39297 -11.31035 -11.29794
 Alpha  occ. eigenvalues --  -11.27772 -11.27399  -1.25891  -1.15087  -1.06006
 Alpha  occ. eigenvalues --   -1.03956  -0.88980  -0.82732  -0.74963  -0.72351
 Alpha  occ. eigenvalues --   -0.67530  -0.66910  -0.63120  -0.56080  -0.54077
 Alpha  occ. eigenvalues --   -0.52290  -0.44869  -0.43393  -0.38770  -0.36245
 Alpha  occ. eigenvalues --   -0.35261
 Alpha virt. eigenvalues --   -0.00158   0.01873   0.03453   0.04885   0.05194
 Alpha virt. eigenvalues --    0.05782   0.06877   0.07663   0.09563   0.10527
 Alpha virt. eigenvalues --    0.11036   0.12135   0.12753   0.13307   0.14282

 Mulliken charges:
               1
     1  O   -0.881200
     2  C    0.834062
     3  N   -0.601225
     4  C    0.525780
     5  C    0.772564
     6  C   -0.267411
     7  C    0.734877
     8  H   -0.199045
     9  H    0.013833
    10  H   -0.075722
    11  H   -0.114775
    12  H   -0.141272
    13  H   -0.082744
    14  H   -0.517722
 Sum of Mulliken charges =  -0.00000

 Dipole moment (field-independent basis, Debye):
    X=              2.4111    Y=              6.9056    Z=             -2.4616  Tot=              7.7175

 Test job not archived.
 1\1\GINC-SE332\SP\RHF\Aug-CC-pVDZ\C5H7N1O1\OHZDE\09-Apr-2025\0\\#t hf
 aug-cc-pvdz iop(5/13=1,5/36=2,99/5=2) pseudo=read geom=check guess=(re
 ad,tcheck) scf=(maxcycle=1)\\title\\0,1\O,0,-1.29775205,0.07981298,-1.
 10644292\C,0,-1.02057864,0.91023237,-0.12612229\N,0,-1.13715649,0.2445
 7357,1.20497041\C,0,-0.49064211,-1.06830178,1.03298788\C,0,0.61701968,
 -1.07288234,0.04201154\C,0,0.43427257,1.25161741,-0.26599985\C,0,1.633
 18671,1.27186948,-0.43965912\H,0,-1.64255708,1.82285782,-0.06816006\H,
 0,-0.65417589,0.78408442,1.91662259\H,0,-1.24687395,-1.75745621,0.6522

 Normal termination of Gaussian 16 at Wed Apr  9 15:30:58 2025.
