 Gaussian 16, Revision C.01,

 ----------------------------------------------------------------------
 #t hf aug-cc-pvdz symm=none int=(grid=ultrafine) guess=(read,tcheck) s
 table=(opt,rrhf)
 ----------------------------------------------------------------------
 -----
 title
 -----
 Symbolic Z-matrix:
 Charge =  0 Multiplicity = 1

 SCF Done:  E(RHF) =  -286.676919029     A.U. after   15 cycles
 Normal termination of Gaussian 16 at Wed Apr  9 04:04:57 2025.
 Gaussian 16:  ES64L-G16RevC.01  3-Jul-2019

 ----------------------------------------------------------------------
 #t hf aug-cc-pvdz iop(5/13=1,5/36=2,99/5=2) pseudo=read geom=check gue
 ss=(read,tcheck) scf=(maxcycle=1)
 ----------------------------------------------------------------------
 -----
 title
 -----
 Structure from the checkpoint file:  "Grambow2020_wb97xd3_009265_forward_mol1.chk"
 Charge =  0 Multiplicity = 1

                         Standard orientation:
 ---------------------------------------------------------------------
 Center     Atomic      Atomic             Coordinates (Angstroms)
 Number     Number       Type             X           Y           Z
 ---------------------------------------------------------------------
      1          6           0        1.954342    0.003562   -0.478115
      2          6           0        0.508437    0.024150   -0.131124
      3          6           0       -0.514308    1.098724   -0.248808
      4          6           0       -1.493697    0.009614   -0.712069
      5          7           0       -0.452905   -1.057087   -0.457187
      6          6           0       -0.161712   -1.055077    0.935056
      7          6           0       -0.258260    1.040781    1.207636
      8          1           0        2.067583   -0.161142   -1.551721
      9          1           0        2.486400   -0.793114    0.044431
     10          1           0        2.418691    0.953885   -0.214546
     11          1           0       -0.295368    1.968916   -0.854452
     12          1           0       -2.413514   -0.114358   -0.139877
     13          1           0       -1.700931    0.028006   -1.780312
     14          1           0        0.663781   -1.713817    1.192365
     15          1           0       -0.961802   -1.048491    1.655066
     16          1           0        0.696685    1.549199    1.413902
 ---------------------------------------------------------------------

 SCF Done:  E(RHF) =  -286.758857427     A.U. after    2 cycles

 The electronic state is 1-A.
 Alpha  occ. eigenvalues --  -15.64215 -11.31350 -11.30823 -11.27163 -11.25050
 Alpha  occ. eigenvalues --  -11.24708 -11.23023  -1.30780  -1.06041  -1.01985
 Alpha  occ. eigenvalues --   -0.95823  -0.84696  -0.76303  -0.72222  -0.69431
 Alpha  occ. eigenvalues --   -0.65434  -0.61973  -0.59416  -0.57184  -0.56174
 Alpha  occ. eigenvalues --   -0.52477  -0.50289  -0.46881  -0.45025  -0.36692
 Alpha  occ. eigenvalues --   -0.29586
 Alpha virt. eigenvalues --    0.02964   0.03954   0.04498   0.04948   0.06208
 Alpha virt. eigenvalues --    0.06528   0.07113   0.07611   0.08754   0.10398
 Alpha virt. eigenvalues --    0.11046   0.12365   0.12612   0.13031   0.13879

 Mulliken charges:
               1
     1  C    0.576517
     2  C   -0.817729
     3  C    0.506577
     4  C    0.985217
     5  N   -1.045353
     6  C    1.175887
     7  C   -0.199206
     8  H    0.143606
     9  H    0.028201
    10  H    0.003457
    11  H   -0.359261
    12  H   -0.119811
    13  H   -0.256970
    14  H   -0.243623
    15  H   -0.248020
    16  H   -0.129488
 Sum of Mulliken charges =  -0.00000

 Dipole moment (field-independent basis, Debye):
    X=              1.3329    Y=              0.0023    Z=             -1.3883  Tot=              1.9245

 Test job not archived.
 1\1\GINC-SE069\SP\RHF\Aug-CC-pVDZ\C6H9N1\OHZDE\09-Apr-2025\0\\#t hf au
 g-cc-pvdz iop(5/13=1,5/36=2,99/5=2) pseudo=read geom=check guess=(read
 ,tcheck) scf=(maxcycle=1)\\title\\0,1\C,0,1.84479799,-0.22527836,-0.06
 814895\C,0,0.37247103,-0.01908872,-0.03343625\C,0,-0.50169297,0.651668
 9,0.96680884\C,0,-1.28609705,1.23004613,-0.22069468\N,0,-0.44416301,0.
 42866039,-1.18764499\C,0,-0.67315692,-0.94992521,-0.92269286\C,0,-0.78
 861858,-0.7839281,1.18333616\H,0,2.33071498,0.68666872,-0.4214437\H,0,
 2.12545703,-1.03961469,-0.73816318\H,0,2.21593244,-0.46086866,0.929327

 Normal termination of Gaussian 16 at Wed Apr  9 04:05:02 2025.
