 Gaussian 16, Revision C.01,

 ----------------------------------------------------------------------
 #t hf aug-cc-pvdz symm=none int=(grid=ultrafine) guess=(read,tcheck) s
 table=(opt,rrhf)
 ----------------------------------------------------------------------
 -----
 title
 -----
 Symbolic Z-matrix:
 Charge =  0 Multiplicity = 1

 SCF Done:  E(RHF) =  -302.841500929     A.U. after   14 cycles
 Normal termination of Gaussian 16 at Wed Apr  9 16:53:15 2025.
 Gaussian 16:  ES64L-G16RevC.01  3-Jul-2019

 ----------------------------------------------------------------------
 #t hf aug-cc-pvdz iop(5/13=1,5/36=2,99/5=2) pseudo=read geom=check gue
 ss=(read,tcheck) scf=(maxcycle=1)
 ----------------------------------------------------------------------
 -----
 title
 -----
 Structure from the checkpoint file:  "Grambow2020_wb97xd3_009046_reverse_mol2.chk"
 Charge =  0 Multiplicity = 1

                         Standard orientation:
 ---------------------------------------------------------------------
 Center     Atomic      Atomic             Coordinates (Angstroms)
 Number     Number       Type             X           Y           Z
 ---------------------------------------------------------------------
      1          7           0       -2.716524   -0.763404    0.407730
      2          6           0       -1.850823   -0.201126   -0.570342
      3          6           0       -0.855669    0.611301   -0.319920
      4          7           0        0.041918    1.409359   -0.094738
      5          6           0        1.591674   -0.499991    0.414363
      6          6           0        1.393342    0.977088    0.274944
      7          6           0        2.477502   -1.198732   -0.276223
      8          1           0       -3.685720   -0.569798    0.194657
      9          1           0       -2.517494   -0.411258    1.332747
     10          1           0       -1.983009   -0.546184   -1.588070
     11          1           0        0.955151   -1.005303    1.136604
     12          1           0        2.072599    1.387814   -0.475393
     13          1           0        1.627954    1.484810    1.215015
     14          1           0        2.596039   -2.265505   -0.130836
     15          1           0        3.120568   -0.727501   -1.012601
 ---------------------------------------------------------------------

 SCF Done:  E(RHF) =  -302.934851532     A.U. after    2 cycles

 The electronic state is 1-A.
 Alpha  occ. eigenvalues --  -15.64380 -15.62960 -11.29892 -11.28067 -11.27418
 Alpha  occ. eigenvalues --  -11.24753 -11.24012  -1.22498  -1.16910  -1.06321
 Alpha  occ. eigenvalues --   -0.98198  -0.92450  -0.78583  -0.72803  -0.68664
 Alpha  occ. eigenvalues --   -0.65424  -0.63973  -0.61937  -0.59494  -0.57741
 Alpha  occ. eigenvalues --   -0.53610  -0.50078  -0.45473  -0.43100  -0.37839
 Alpha  occ. eigenvalues --   -0.30505
 Alpha virt. eigenvalues --    0.03421   0.03891   0.04083   0.04913   0.06030
 Alpha virt. eigenvalues --    0.06896   0.07477   0.07841   0.09982   0.10577
 Alpha virt. eigenvalues --    0.12026   0.13113   0.13357   0.13894   0.14698

 Mulliken charges:
               1
     1  N   -0.485460
     2  C    1.360396
     3  C   -0.694854
     4  N   -0.357088
     5  C    0.583670
     6  C    0.616765
     7  C    0.485272
     8  H    0.019349
     9  H   -0.011563
    10  H   -0.256078
    11  H   -0.426953
    12  H   -0.209766
    13  H   -0.055798
    14  H   -0.307502
    15  H   -0.260390
 Sum of Mulliken charges =  -0.00000

 Dipole moment (field-independent basis, Debye):
    X=             -0.0816    Y=             -0.4423    Z=              0.4605  Tot=              0.6437

 Test job not archived.
 1\1\GINC-SE113\SP\RHF\Aug-CC-pVDZ\C5H8N2\OHZDE\09-Apr-2025\0\\#t hf au
 g-cc-pvdz iop(5/13=1,5/36=2,99/5=2) pseudo=read geom=check guess=(read
 ,tcheck) scf=(maxcycle=1)\\title\\0,1\N,0,2.95909593,-0.30422115,-0.13
 396912\C,0,1.93618083,-0.11868353,0.83630964\C,0,0.90649864,0.67849094
 ,0.70459712\N,0,-0.0283505,1.45926856,0.60606123\C,0,-1.32423613,-0.27
 594898,-0.66525476\C,0,-1.28114722,1.09331781,-0.06210773\C,0,-2.21662
 462,-1.19940611,-0.34790606\H,0,3.87444362,-0.1361379,0.26113926\H,0,2
 .83843656,0.30653285,-0.92876266\H,0,1.9791973,-0.75492661,1.71132529\

 Normal termination of Gaussian 16 at Wed Apr  9 16:53:20 2025.
