 Gaussian 16, Revision C.01,

 ----------------------------------------------------------------------
 #t hf aug-cc-pvdz symm=none int=(grid=ultrafine) guess=(read,tcheck) s
 table=(opt,rrhf)
 ----------------------------------------------------------------------
 -----
 title
 -----
 Symbolic Z-matrix:
 Charge =  0 Multiplicity = 1

 SCF Done:  E(RHF) =  -270.741161853     A.U. after   15 cycles
 Normal termination of Gaussian 16 at Wed Apr  9 03:52:53 2025.
 Gaussian 16:  ES64L-G16RevC.01  3-Jul-2019

 ----------------------------------------------------------------------
 #t hf aug-cc-pvdz iop(5/13=1,5/36=2,99/5=2) pseudo=read geom=check gue
 ss=(read,tcheck) scf=(maxcycle=1)
 ----------------------------------------------------------------------
 -----
 title
 -----
 Structure from the checkpoint file:  "Grambow2020_wb97xd3_008380_forward_mol1.chk"
 Charge =  0 Multiplicity = 1

                         Standard orientation:
 ---------------------------------------------------------------------
 Center     Atomic      Atomic             Coordinates (Angstroms)
 Number     Number       Type             X           Y           Z
 ---------------------------------------------------------------------
      1          6           0        2.143412    0.224879    0.003499
      2          6           0        0.644276    0.096032   -0.004893
      3          6           0       -0.118931   -0.739169    1.065196
      4          6           0       -1.253290   -0.685587    0.016729
      5          6           0       -0.120914   -0.789335   -1.044208
      6          6           0       -1.457543    0.819244   -0.044544
      7          6           0       -0.179159    1.393175   -0.131207
      8          1           0        2.486905    0.745015   -0.892464
      9          1           0        2.470228    0.806913    0.867471
     10          1           0        2.629764   -0.752991    0.042756
     11          1           0       -0.302670   -0.283063    2.041292
     12          1           0        0.305950   -1.737308    1.184657
     13          1           0       -2.114343   -1.349704    0.041288
     14          1           0       -0.308965   -0.368419   -2.033140
     15          1           0        0.299221   -1.792659   -1.125361
     16          1           0       -2.394733    1.336296   -0.225456
     17          1           0       -1.018464    1.480480    0.935524
 ---------------------------------------------------------------------

 SCF Done:  E(RHF) =  -270.818849954     A.U. after    2 cycles

 The electronic state is 1-A.
 Alpha  occ. eigenvalues --  -11.27549 -11.25633 -11.24788 -11.24454 -11.24360
 Alpha  occ. eigenvalues --  -11.23706 -11.21703  -1.21134  -1.02727  -0.98583
 Alpha  occ. eigenvalues --   -0.90891  -0.87071  -0.76950  -0.69326  -0.66081
 Alpha  occ. eigenvalues --   -0.65053  -0.59801  -0.57116  -0.56414  -0.51555
 Alpha  occ. eigenvalues --   -0.50102  -0.47884  -0.45760  -0.44814  -0.42282
 Alpha  occ. eigenvalues --   -0.33819
 Alpha virt. eigenvalues --    0.03047   0.03921   0.04507   0.04632   0.06116
 Alpha virt. eigenvalues --    0.06387   0.06896   0.07263   0.07686   0.09041
 Alpha virt. eigenvalues --    0.11052   0.11652   0.11862   0.12436   0.12607

 Mulliken charges:
               1
     1  C    1.024627
     2  C   -0.906433
     3  C    0.498395
     4  C    0.669054
     5  C    0.524674
     6  C    0.436909
     7  C   -0.837118
     8  H    0.043646
     9  H    0.044796
    10  H   -0.003607
    11  H   -0.213666
    12  H   -0.302955
    13  H   -0.420955
    14  H   -0.272071
    15  H   -0.268694
    16  H   -0.282757
    17  H    0.266153
 Sum of Mulliken charges =   0.00000

 Dipole moment (field-independent basis, Debye):
    X=             -1.4196    Y=             -2.4435    Z=              0.6319  Tot=              2.8957

 Test job not archived.
 1\1\GINC-SE345\SP\RHF\Aug-CC-pVDZ\C7H10\OHZDE\09-Apr-2025\0\\#t hf aug
 -cc-pvdz iop(5/13=1,5/36=2,99/5=2) pseudo=read geom=check guess=(read,
 tcheck) scf=(maxcycle=1)\\title\\0,1\C,0,2.0591493,-0.13083477,-0.0045
 4652\C,0,0.5680966,0.0700146,-0.02698333\C,0,-0.38018462,-0.6717905,0.
 96075274\C,0,-1.45351135,-0.27988972,-0.08006668\C,0,-0.34784383,-0.53
 174654,-1.14434782\C,0,-1.32658306,1.23271517,-0.00321857\C,0,0.047137
 43,1.52091769,-0.03490014\H,0,2.52595054,0.38024286,-0.84845136\H,0,2.
 4854028,0.28686161,0.90970578\H,0,2.32187654,-1.19045101,-0.05451095\H

 Normal termination of Gaussian 16 at Wed Apr  9 03:52:59 2025.
