 Gaussian 16, Revision C.01,

 ----------------------------------------------------------------------
 #t hf aug-cc-pvdz symm=none int=(grid=ultrafine) guess=(read,tcheck) s
 table=(opt,rrhf)
 ----------------------------------------------------------------------
 -----
 title
 -----
 Symbolic Z-matrix:
 Charge =  0 Multiplicity = 1

 SCF Done:  E(RHF) =  -354.808409334     A.U. after   14 cycles
 Normal termination of Gaussian 16 at Wed Apr  9 03:39:13 2025.
 Gaussian 16:  ES64L-G16RevC.01  3-Jul-2019

 ----------------------------------------------------------------------
 #t hf aug-cc-pvdz iop(5/13=1,5/36=2,99/5=2) pseudo=read geom=check gue
 ss=(read,tcheck) scf=(maxcycle=1)
 ----------------------------------------------------------------------
 -----
 title
 -----
 Structure from the checkpoint file:  "Grambow2020_wb97xd3_007474_reverse_mol2.chk"
 Charge =  0 Multiplicity = 1

                         Standard orientation:
 ---------------------------------------------------------------------
 Center     Atomic      Atomic             Coordinates (Angstroms)
 Number     Number       Type             X           Y           Z
 ---------------------------------------------------------------------
      1          7           0        2.372370   -0.489873   -0.005841
      2          6           0        1.152125   -0.169664    0.002647
      3          6           0        0.662948    1.267257    0.019270
      4          7           0       -0.771168    1.108762   -0.045317
      5          6           0       -1.167458   -0.194381   -0.006166
      6          8           0       -2.286394   -0.637674    0.011683
      7          7           0        0.011069   -0.945677    0.004146
      8          1           0        2.510450   -1.496566   -0.012519
      9          1           0        0.996391    1.757326    0.937043
     10          1           0        1.069262    1.811136   -0.835084
     11          1           0       -1.440681    1.847056    0.056758
     12          1           0       -0.015855   -1.949320   -0.005086
 ---------------------------------------------------------------------

 SCF Done:  E(RHF) =  -354.915869624     A.U. after    2 cycles

 The electronic state is 1-A.
 Alpha  occ. eigenvalues --  -20.54937 -15.68176 -15.66529 -15.61363 -11.41198
 Alpha  occ. eigenvalues --  -11.35797 -11.30817  -1.38868  -1.29896  -1.20504
 Alpha  occ. eigenvalues --   -1.15264  -0.99035  -0.86735  -0.83472  -0.74025
 Alpha  occ. eigenvalues --   -0.69666  -0.69068  -0.67448  -0.63483  -0.59504
 Alpha  occ. eigenvalues --   -0.58518  -0.52586  -0.48414  -0.43479  -0.42705
 Alpha  occ. eigenvalues --   -0.38296
 Alpha virt. eigenvalues --    0.02856   0.03182   0.04480   0.05094   0.06622
 Alpha virt. eigenvalues --    0.09326   0.10326   0.11043   0.12529   0.12744
 Alpha virt. eigenvalues --    0.13128   0.13994   0.14361   0.14858   0.16256

 Mulliken charges:
               1
     1  N   -0.424753
     2  C    0.482019
     3  C    0.785650
     4  N   -0.319396
     5  C    0.681370
     6  O   -0.432136
     7  N   -0.456741
     8  H   -0.027683
     9  H   -0.019091
    10  H   -0.035410
    11  H   -0.122179
    12  H   -0.111649
 Sum of Mulliken charges =  -0.00000

 Dipole moment (field-independent basis, Debye):
    X=              1.2845    Y=              1.1777    Z=              0.1810  Tot=              1.7520

 Test job not archived.
 1\1\GINC-SE398\SP\RHF\Aug-CC-pVDZ\C3H5N3O1\OHZDE\09-Apr-2025\0\\#t hf
 aug-cc-pvdz iop(5/13=1,5/36=2,99/5=2) pseudo=read geom=check guess=(re
 ad,tcheck) scf=(maxcycle=1)\\title\\0,1\N,0,2.17091691,-0.2386524,-0.3
 2395472\C,0,0.92532601,-0.15260682,-0.14311432\C,0,0.19492309,1.164739
 88,0.04509323\N,0,-1.18374401,0.74534872,0.14189745\C,0,-1.33305727,-0
 .60898626,0.12628216\O,0,-2.34278046,-1.25348874,0.24427345\N,0,-0.048
 93989,-1.12670558,-0.06472709\H,0,2.48377286,-1.20001163,-0.42618808\H
 ,0,0.55495406,1.6571783,0.95148198\H,0,0.38063257,1.82099698,-0.806760

 Normal termination of Gaussian 16 at Wed Apr  9 03:39:18 2025.
