 Gaussian 16, Revision C.01,

 ----------------------------------------------------------------------
 #t hf aug-cc-pvdz symm=none int=(grid=ultrafine) guess=(read,tcheck) s
 table=(opt,rrhf)
 ----------------------------------------------------------------------
 -----
 title
 -----
 Symbolic Z-matrix:
 Charge =  0 Multiplicity = 1

 SCF Done:  E(RHF) =  -342.403136210     A.U. after   15 cycles
 Normal termination of Gaussian 16 at Wed Apr  9 03:58:37 2025.
 Gaussian 16:  ES64L-G16RevC.01  3-Jul-2019

 ----------------------------------------------------------------------
 #t hf aug-cc-pvdz iop(5/13=1,5/36=2,99/5=2) pseudo=read geom=check gue
 ss=(read,tcheck) scf=(maxcycle=1)
 ----------------------------------------------------------------------
 -----
 title
 -----
 Structure from the checkpoint file:  "Grambow2020_wb97xd3_008759_reverse_mol1.chk"
 Charge =  0 Multiplicity = 1

                         Standard orientation:
 ---------------------------------------------------------------------
 Center     Atomic      Atomic             Coordinates (Angstroms)
 Number     Number       Type             X           Y           Z
 ---------------------------------------------------------------------
      1          8           0       -2.279800    0.612779    0.025302
      2          6           0       -1.575414   -0.314702   -0.257366
      3          6           0       -0.275456   -0.612201    0.448583
      4          8           0        0.707232   -1.242165   -0.395158
      5          6           0        1.735199   -0.405118    0.078773
      6          6           0        1.073292    1.249180   -0.463051
      7          6           0        0.702690    0.503289    0.761490
      8          1           0       -1.844124   -1.033634   -1.058030
      9          1           0       -0.491116   -1.247979    1.314741
     10          1           0        2.082174    0.434891   -0.830512
     11          1           0        1.662396    2.144352   -0.300046
     12          1           0        0.399574    1.252615   -1.311347
     13          1           0        0.809776    0.962156    1.733466
 ---------------------------------------------------------------------

 SCF Done:  E(RHF) =  -342.507470594     A.U. after    2 cycles

 The electronic state is 1-A.
 Alpha  occ. eigenvalues --  -20.60440 -20.59485 -11.36054 -11.32834 -11.32006
 Alpha  occ. eigenvalues --  -11.30102 -11.27642  -1.40366  -1.38254  -1.12273
 Alpha  occ. eigenvalues --   -1.01502  -0.89848  -0.82409  -0.76811  -0.72736
 Alpha  occ. eigenvalues --   -0.71406  -0.69186  -0.65776  -0.61307  -0.58510
 Alpha  occ. eigenvalues --   -0.56849  -0.55190  -0.50222  -0.46383  -0.44883
 Alpha  occ. eigenvalues --   -0.35299
 Alpha virt. eigenvalues --    0.03175   0.03946   0.04241   0.05617   0.06244
 Alpha virt. eigenvalues --    0.06318   0.08634   0.09581   0.10203   0.11532
 Alpha virt. eigenvalues --    0.13042   0.13289   0.13852   0.14126   0.14359

 Mulliken charges:
               1
     1  O   -0.501792
     2  C    0.736725
     3  C    0.381330
     4  O   -0.719975
     5  C   -0.065410
     6  C    0.341723
     7  C    0.495033
     8  H   -0.055974
     9  H   -0.140480
    10  H    0.223094
    11  H   -0.177858
    12  H   -0.137524
    13  H   -0.378891
 Sum of Mulliken charges =  -0.00000

 Dipole moment (field-independent basis, Debye):
    X=              0.2837    Y=              0.9779    Z=              0.0660  Tot=              1.0204

 Test job not archived.
 1\1\GINC-SE364\SP\RHF\Aug-CC-pVDZ\C5H6O2\OHZDE\09-Apr-2025\0\\#t hf au
 g-cc-pvdz iop(5/13=1,5/36=2,99/5=2) pseudo=read geom=check guess=(read
 ,tcheck) scf=(maxcycle=1)\\title\\0,1\O,0,1.38064233,1.92019897,-0.893
 03835\C,0,1.596639,0.92997785,-0.25343677\C,0,0.85212677,-0.36640633,-
 0.458013\O,0,0.71825772,-1.1495984,0.74328506\C,0,-0.63680969,-1.42673
 655,0.48067934\C,0,-1.32537264,0.30351002,0.50357258\C,0,-0.65407205,-
 0.36915268,-0.63224418\H,0,2.37913392,0.89713336,0.53190024\H,0,1.3733
 1025,-0.94540523,-1.22877862\H,0,-1.39113172,-0.78260319,1.29853971\H,

 Normal termination of Gaussian 16 at Wed Apr  9 03:58:41 2025.
