 Gaussian 16, Revision C.01,

 ----------------------------------------------------------------------
 #t hf aug-cc-pvdz symm=none int=(grid=ultrafine) guess=(read,tcheck) s
 table=(opt,rrhf)
 ----------------------------------------------------------------------
 -----
 title
 -----
 Symbolic Z-matrix:
 Charge =  0 Multiplicity = 1

 SCF Done:  E(RHF) =  -284.641060883     A.U. after   15 cycles
 Normal termination of Gaussian 16 at Wed Apr  9 03:05:51 2025.
 Gaussian 16:  ES64L-G16RevC.01  3-Jul-2019

 ----------------------------------------------------------------------
 #t hf aug-cc-pvdz iop(5/13=1,5/36=2,99/5=2) pseudo=read geom=check gue
 ss=(read,tcheck) scf=(maxcycle=1)
 ----------------------------------------------------------------------
 -----
 title
 -----
 Structure from the checkpoint file:  "Grambow2020_b97d3_006564_reverse_mol1.chk"
 Charge =  0 Multiplicity = 1

                         Standard orientation:
 ---------------------------------------------------------------------
 Center     Atomic      Atomic             Coordinates (Angstroms)
 Number     Number       Type             X           Y           Z
 ---------------------------------------------------------------------
      1          8           0        1.893410   -0.525323   -0.215962
      2          6           0        0.886569    0.239873    0.437858
      3          6           0        0.069540    1.318113   -0.311399
      4          7           0       -1.257001    0.518594   -0.013678
      5          6           0       -1.245150   -0.919601   -0.447986
      6          6           0       -0.457192   -0.464934    0.750311
      7          1           0        1.552532   -0.736197   -1.106051
      8          1           0        1.382710    0.587851    1.355095
      9          1           0        0.239768    1.468265   -1.384358
     10          1           0       -1.341696    1.589791    0.318040
     11          1           0       -0.760197   -1.088571   -1.410912
     12          1           0       -2.159859   -1.480762   -0.256033
     13          1           0       -0.784128   -0.808660    1.734957
 ---------------------------------------------------------------------

 SCF Done:  E(RHF) =  -284.725103815     A.U. after    2 cycles

 The electronic state is 1-A.
 Alpha  occ. eigenvalues --  -20.57389 -15.68124 -11.32514 -11.30427 -11.29878
 Alpha  occ. eigenvalues --  -11.22311  -1.32589  -1.28550  -1.00382  -0.95355
 Alpha  occ. eigenvalues --   -0.84819  -0.77552  -0.73260  -0.68290  -0.64429
 Alpha  occ. eigenvalues --   -0.61090  -0.58581  -0.56586  -0.51081  -0.47997
 Alpha  occ. eigenvalues --   -0.44241  -0.43735  -0.29188
 Alpha virt. eigenvalues --    0.02708   0.03627   0.04681   0.05049   0.06706
 Alpha virt. eigenvalues --    0.07138   0.07395   0.09588   0.11161   0.12813
 Alpha virt. eigenvalues --    0.13260   0.13755   0.14024   0.14986   0.15357

 Mulliken charges:
               1
     1  O   -0.625784
     2  C    0.685002
     3  C    0.175108
     4  N   -0.798258
     5  C    0.841061
     6  C    0.587002
     7  H    0.150223
     8  H   -0.202231
     9  H   -0.331947
    10  H    0.353308
    11  H   -0.300836
    12  H   -0.244868
    13  H   -0.287779
 Sum of Mulliken charges =   0.00000

 Dipole moment (field-independent basis, Debye):
    X=             -3.2822    Y=             -2.5591    Z=             -0.4139  Tot=              4.1825

 Test job not archived.
 1\1\GINC-SE115\SP\RHF\Aug-CC-pVDZ\C4H7N1O1\OHZDE\09-Apr-2025\0\\#t hf
 aug-cc-pvdz iop(5/13=1,5/36=2,99/5=2) pseudo=read geom=check guess=(re
 ad,tcheck) scf=(maxcycle=1)\\title\\0,1\O,0,-1.53572522,-1.09314388,0.
 9096069\C,0,-1.15475485,-0.09860182,-0.03510528\C,0,-0.48166949,1.2232
 0252,0.40228786\N,0,0.79563046,0.85227108,-0.44535175\C,0,1.39665392,-
 0.48987393,-0.13780343\C,0,0.10267519,-0.37523048,-0.89674455\H,0,-0.8
 2524066,-1.13283694,1.5778592\H,0,-2.05247416,0.02194248,-0.65811193\H
 ,0,-0.25269974,1.38102439,1.46315045\H,0,0.41049016,1.87469126,-0.7118

 Normal termination of Gaussian 16 at Wed Apr  9 03:05:54 2025.
