 Gaussian 16, Revision C.01,

 ----------------------------------------------------------------------
 #t hf aug-cc-pvdz symm=none int=(grid=ultrafine) guess=(read,tcheck) s
 table=(opt,rrhf)
 ----------------------------------------------------------------------
 -----
 title
 -----
 Symbolic Z-matrix:
 Charge =  0 Multiplicity = 1

 SCF Done:  E(RHF) =  -375.754411361     A.U. after   14 cycles
 Normal termination of Gaussian 16 at Wed Apr  9 16:11:00 2025.
 Gaussian 16:  ES64L-G16RevC.01  3-Jul-2019

 ----------------------------------------------------------------------
 #t hf aug-cc-pvdz iop(5/13=1,5/36=2,99/5=2) pseudo=read geom=check gue
 ss=(read,tcheck) scf=(maxcycle=1)
 ----------------------------------------------------------------------
 -----
 title
 -----
 Structure from the checkpoint file:  "Grambow2020_wb97xd3_007916_reverse_mol2.chk"
 Charge =  0 Multiplicity = 1

                         Standard orientation:
 ---------------------------------------------------------------------
 Center     Atomic      Atomic             Coordinates (Angstroms)
 Number     Number       Type             X           Y           Z
 ---------------------------------------------------------------------
      1          6           0       -0.938595    1.332736    0.396556
      2          8           0       -2.157298    0.723886   -0.050514
      3          6           0        2.269036   -0.177211    0.025671
      4          7           0        2.850932    0.780909   -0.461640
      5          7           0        1.716148   -1.053375    0.653519
      6          6           0       -2.112415   -0.570399   -0.309727
      7          8           0       -1.150842   -1.282472   -0.204372
      8          1           0       -1.191133    2.364530    0.621516
      9          1           0       -0.182493    1.291855   -0.387393
     10          1           0       -0.565841    0.829288    1.287896
     11          1           0        3.456639    0.617458   -1.252355
     12          1           0        0.768516   -1.319548    0.393957
     13          1           0       -3.098286   -0.918389   -0.642689
 ---------------------------------------------------------------------

 SCF Done:  E(RHF) =  -375.876257311     A.U. after    2 cycles

 The electronic state is 1-A.
 Alpha  occ. eigenvalues --  -20.64272 -20.58949 -15.63398 -15.62870 -11.41683
 Alpha  occ. eigenvalues --  -11.36857 -11.31082  -1.45055  -1.35594  -1.24782
 Alpha  occ. eigenvalues --   -1.16193  -1.00986  -0.83804  -0.78227  -0.77008
 Alpha  occ. eigenvalues --   -0.73724  -0.70482  -0.70400  -0.62029  -0.58087
 Alpha  occ. eigenvalues --   -0.57356  -0.56915  -0.55297  -0.50428  -0.50126
 Alpha  occ. eigenvalues --   -0.40988  -0.40632
 Alpha virt. eigenvalues --    0.03098   0.03902   0.04476   0.06017   0.07038
 Alpha virt. eigenvalues --    0.07534   0.09172   0.09812   0.10357   0.12123
 Alpha virt. eigenvalues --    0.12972   0.13894   0.15121   0.15685   0.16089

 Mulliken charges:
               1
     1  C    0.933800
     2  O   -0.464084
     3  C   -0.174245
     4  N   -0.057058
     5  N    0.013031
     6  C    0.634403
     7  O   -0.358401
     8  H   -0.238167
     9  H   -0.138064
    10  H   -0.126937
    11  H    0.062831
    12  H    0.171811
    13  H   -0.258919
 Sum of Mulliken charges =  -0.00000

 Dipole moment (field-independent basis, Debye):
    X=             -2.1584    Y=              1.1057    Z=             -1.5872  Tot=              2.8984

 Test job not archived.
 1\1\GINC-SE041\SP\RHF\Aug-CC-pVDZ\C3H6N2O2\OHZDE\09-Apr-2025\0\\#t hf
 aug-cc-pvdz iop(5/13=1,5/36=2,99/5=2) pseudo=read geom=check guess=(re
 ad,tcheck) scf=(maxcycle=1)\\title\\0,1\C,0,-1.1470851,-0.65237749,-0.
 48891002\O,0,-0.63486364,-1.99140712,-0.50978667\C,0,0.64936078,2.1230
 3767,0.84384834\N,0,0.50627743,2.88558684,-0.10067081\N,0,0.63970412,1
 .41208283,1.82465991\C,0,0.39183908,-2.24519426,0.28132204\O,0,0.93288
 779,-1.46310105,1.01505706\H,0,-2.0169193,-0.66057031,-1.13875849\H,0,
 -0.40095173,0.04675437,-0.8663168\H,0,-1.43150509,-0.36902748,0.523864

 Normal termination of Gaussian 16 at Wed Apr  9 16:11:05 2025.
