 Gaussian 16, Revision C.01,

 ----------------------------------------------------------------------
 #t hf aug-cc-pvdz symm=none int=(grid=ultrafine) guess=(read,tcheck) s
 table=(opt,rrhf)
 ----------------------------------------------------------------------
 -----
 title
 -----
 Symbolic Z-matrix:
 Charge =  0 Multiplicity = 1

 SCF Done:  E(RHF) =  -286.027949430     A.U. after   13 cycles
 Normal termination of Gaussian 16 at Wed Apr  9 14:22:22 2025.
 Gaussian 16:  ES64L-G16RevC.01  3-Jul-2019

 ----------------------------------------------------------------------
 #t hf aug-cc-pvdz iop(5/13=1,5/36=2,99/5=2) pseudo=read geom=check gue
 ss=(read,tcheck) scf=(maxcycle=1)
 ----------------------------------------------------------------------
 -----
 title
 -----
 Structure from the checkpoint file:  "Grambow2020_wb97xd3_006073_reverse_mol2.chk"
 Charge =  0 Multiplicity = 1

                         Standard orientation:
 ---------------------------------------------------------------------
 Center     Atomic      Atomic             Coordinates (Angstroms)
 Number     Number       Type             X           Y           Z
 ---------------------------------------------------------------------
      1          6           0        1.967146    0.520688    0.586634
      2          6           0        1.346983   -0.587106   -0.238568
      3          6           0       -1.423989    1.311540   -0.030037
      4          6           0       -0.929005    0.080099   -0.139473
      5          8           0        0.165404   -0.165719   -0.916872
      6          7           0       -1.489111   -1.058121    0.419040
      7          1           0        2.887447    0.166304    1.055196
      8          1           0        1.287114    0.852276    1.372819
      9          1           0        2.205079    1.379646   -0.042175
     10          1           0        2.020842   -0.909068   -1.032700
     11          1           0        1.138327   -1.460663    0.390572
     12          1           0       -2.358925    1.494126    0.480590
     13          1           0       -0.902351    2.137028   -0.488560
     14          1           0       -0.989456   -1.918259    0.292316
     15          1           0       -1.954340   -0.960122    1.302301
 ---------------------------------------------------------------------

 SCF Done:  E(RHF) =  -286.121678450     A.U. after    2 cycles

 The electronic state is 1-A.
 Alpha  occ. eigenvalues --  -20.58725 -15.62906 -11.33360 -11.29754 -11.22901
 Alpha  occ. eigenvalues --  -11.19699  -1.36953  -1.17225  -1.03097  -0.98122
 Alpha  occ. eigenvalues --   -0.86463  -0.77807  -0.71442  -0.68169  -0.66844
 Alpha  occ. eigenvalues --   -0.63682  -0.58811  -0.56166  -0.54601  -0.53840
 Alpha  occ. eigenvalues --   -0.50099  -0.47681  -0.45642  -0.31067
 Alpha virt. eigenvalues --    0.03072   0.04235   0.04540   0.05134   0.06365
 Alpha virt. eigenvalues --    0.06597   0.07403   0.08051   0.08872   0.11224
 Alpha virt. eigenvalues --    0.12979   0.13880   0.14140   0.14716   0.15245

 Mulliken charges:
               1
     1  C    0.262532
     2  C    0.707148
     3  C    0.587468
     4  C    0.637817
     5  O   -0.668778
     6  N   -0.247360
     7  H   -0.073433
     8  H   -0.084346
     9  H   -0.033026
    10  H   -0.216809
    11  H   -0.116508
    12  H   -0.328989
    13  H   -0.366838
    14  H   -0.031103
    15  H   -0.027776
 Sum of Mulliken charges =  -0.00000

 Dipole moment (field-independent basis, Debye):
    X=              1.3204    Y=             -1.5793    Z=              2.2185  Tot=              3.0264

 Test job not archived.
 1\1\GINC-SE087\SP\RHF\Aug-CC-pVDZ\C4H9N1O1\OHZDE\09-Apr-2025\0\\#t hf
 aug-cc-pvdz iop(5/13=1,5/36=2,99/5=2) pseudo=read geom=check guess=(re
 ad,tcheck) scf=(maxcycle=1)\\title\\0,1\C,0,1.67077816,0.16425983,-0.8
 0708596\C,0,0.43070155,1.03299014,-0.82405645\C,0,-0.46076545,-0.82870
 809,1.83413702\C,0,-0.87748114,-0.12314315,0.78439476\O,0,-0.25039843,
 1.03568996,0.42889519\N,0,-1.99633398,-0.41443446,0.01985805\H,0,2.180
 4275,0.22277897,-1.77089432\H,0,1.41633311,-0.87939005,-0.61595297\H,0
 ,2.35952636,0.49474573,-0.02848034\H,0,0.68603922,2.07786421,-1.001347

 Normal termination of Gaussian 16 at Wed Apr  9 14:22:26 2025.
