 Gaussian 16, Revision C.01,

 ----------------------------------------------------------------------
 #t hf aug-cc-pvdz symm=none int=(grid=ultrafine) guess=(read,tcheck) s
 table=(opt,rrhf)
 ----------------------------------------------------------------------
 -----
 title
 -----
 Symbolic Z-matrix:
 Charge =  0 Multiplicity = 1

 SCF Done:  E(RHF) =  -304.721066853     A.U. after   14 cycles
 Normal termination of Gaussian 16 at Wed Apr  9 03:14:26 2025.
 Gaussian 16:  ES64L-G16RevC.01  3-Jul-2019

 ----------------------------------------------------------------------
 #t hf aug-cc-pvdz iop(5/13=1,5/36=2,99/5=2) pseudo=read geom=check gue
 ss=(read,tcheck) scf=(maxcycle=1)
 ----------------------------------------------------------------------
 -----
 title
 -----
 Structure from the checkpoint file:  "Grambow2020_b97d3_006985_forward_mol2.chk"
 Charge =  0 Multiplicity = 1

                         Standard orientation:
 ---------------------------------------------------------------------
 Center     Atomic      Atomic             Coordinates (Angstroms)
 Number     Number       Type             X           Y           Z
 ---------------------------------------------------------------------
      1          6           0        2.090487   -0.175351   -0.441792
      2          6           0        0.913988    0.065889    0.478927
      3          6           0       -0.099948    1.158660    0.090195
      4          6           0       -1.083514   -0.009175   -0.037642
      5          8           0       -2.238817   -0.179643   -0.317999
      6          8           0       -0.144676   -0.969763    0.309822
      7          1           0        1.763202   -0.213133   -1.489482
      8          1           0        2.590367   -1.121735   -0.197459
      9          1           0        2.821243    0.639048   -0.332511
     10          1           0        1.216169    0.086195    1.533453
     11          1           0       -0.356960    1.887548    0.867299
     12          1           0        0.107849    1.677192   -0.854009
 ---------------------------------------------------------------------

 SCF Done:  E(RHF) =  -304.816229174     A.U. after    2 cycles

 The electronic state is 1-A.
 Alpha  occ. eigenvalues --  -20.61669 -20.57251 -11.40539 -11.33114 -11.27887
 Alpha  occ. eigenvalues --  -11.25613  -1.41578  -1.33978  -1.06690  -0.99989
 Alpha  occ. eigenvalues --   -0.85759  -0.76239  -0.71872  -0.69339  -0.68462
 Alpha  occ. eigenvalues --   -0.60615  -0.59444  -0.57230  -0.55879  -0.54131
 Alpha  occ. eigenvalues --   -0.50990  -0.47495  -0.46034
 Alpha virt. eigenvalues --    0.02661   0.04078   0.04291   0.05365   0.06305
 Alpha virt. eigenvalues --    0.06989   0.09075   0.10457   0.11010   0.13278
 Alpha virt. eigenvalues --    0.13514   0.14215   0.14394   0.14935   0.15292

 Mulliken charges:
               1
     1  C    0.297024
     2  C    0.414477
     3  C    0.250890
     4  C    0.484466
     5  O   -0.426359
     6  O   -0.724713
     7  H   -0.012117
     8  H    0.010003
     9  H    0.054320
    10  H   -0.237398
    11  H   -0.037624
    12  H   -0.072970
 Sum of Mulliken charges =   0.00000

 Dipole moment (field-independent basis, Debye):
    X=              4.5406    Y=              2.8580    Z=              0.6712  Tot=              5.4071

 Test job not archived.
 1\1\GINC-SE094\SP\RHF\Aug-CC-pVDZ\C4H6O2\OHZDE\09-Apr-2025\0\\#t hf au
 g-cc-pvdz iop(5/13=1,5/36=2,99/5=2) pseudo=read geom=check guess=(read
 ,tcheck) scf=(maxcycle=1)\\title\\0,1\C,0,-1.53247433,-0.11661271,0.32
 220869\C,0,-0.27437181,-0.16698341,-0.51726065\C,0,0.89013368,0.767080
 68,-0.13676353\C,0,1.64000196,-0.53510391,0.16255745\O,0,2.72584255,-0
 .87433996,0.54759526\O,0,0.57004365,-1.34856713,-0.18145407\H,0,-1.286
 09827,-0.11266466,1.39248015\H,0,-2.17560951,-0.9818228,0.1148196\H,0,
 -2.09813668,0.79729919,0.08986486\H,0,-0.49875881,-0.19300898,-1.59091

 Normal termination of Gaussian 16 at Wed Apr  9 03:14:30 2025.
