 Gaussian 16, Revision C.01,

 ----------------------------------------------------------------------
 #t hf aug-cc-pvdz symm=none int=(grid=ultrafine) guess=(read,tcheck) s
 table=(opt,rrhf)
 ----------------------------------------------------------------------
 -----
 title
 -----
 Symbolic Z-matrix:
 Charge =  0 Multiplicity = 1

 SCF Done:  E(RHF) =  -336.269161056     A.U. after   18 cycles
 Normal termination of Gaussian 16 at Wed Apr  9 03:45:42 2025.
 Gaussian 16:  ES64L-G16RevC.01  3-Jul-2019

 ----------------------------------------------------------------------
 #t hf aug-cc-pvdz iop(5/13=1,5/36=2,99/5=2) pseudo=read geom=check gue
 ss=(read,tcheck) scf=(maxcycle=1)
 ----------------------------------------------------------------------
 -----
 title
 -----
 Structure from the checkpoint file:  "Grambow2020_wb97xd3_007921_reverse_mol2.chk"
 Charge =  0 Multiplicity = 1

                         Standard orientation:
 ---------------------------------------------------------------------
 Center     Atomic      Atomic             Coordinates (Angstroms)
 Number     Number       Type             X           Y           Z
 ---------------------------------------------------------------------
      1          7           0       -1.442615    1.123237   -0.045506
      2          6           0       -1.770175   -0.207911   -0.034519
      3          8           0       -2.668817   -0.970536    0.055845
      4          6           0       -0.377240    0.208000   -0.082872
      5          6           0        0.914429    0.119264   -0.028310
      6          6           0        2.167562   -0.090259    0.002692
      7          7           0        3.356002   -0.378174    0.022410
      8          1           0        4.007500    0.392602    0.127517
      9          1           0       -1.658131    1.981680    0.445448
 ---------------------------------------------------------------------

 SCF Done:  E(RHF) =  -336.372183791     A.U. after    2 cycles

 The electronic state is 1-A.
 Alpha  occ. eigenvalues --  -20.60117 -15.71244 -15.65937 -11.43034 -11.37664
 Alpha  occ. eigenvalues --  -11.35602 -11.26351  -1.41585  -1.33054  -1.22744
 Alpha  occ. eigenvalues --   -1.06370  -0.94642  -0.89254  -0.75441  -0.74368
 Alpha  occ. eigenvalues --   -0.69942  -0.66596  -0.63170  -0.55955  -0.54726
 Alpha  occ. eigenvalues --   -0.50760  -0.48258  -0.36823  -0.35962
 Alpha virt. eigenvalues --    0.02329   0.03627   0.04396   0.06936   0.07618
 Alpha virt. eigenvalues --    0.08411   0.09652   0.10717   0.11534   0.11751
 Alpha virt. eigenvalues --    0.13338   0.14237   0.15484   0.16047   0.16929

 Mulliken charges:
               1
     1  N   -0.362450
     2  C   -0.496439
     3  O   -0.298959
     4  C    0.926519
     5  C    1.694345
     6  C   -1.459341
     7  N   -0.069335
     8  H    0.065656
     9  H    0.000005
 Sum of Mulliken charges =  -0.00000

 Dipole moment (field-independent basis, Debye):
    X=              1.1102    Y=              4.5967    Z=              0.8220  Tot=              4.7998

 Test job not archived.
 1\1\GINC-SE051\SP\RHF\Aug-CC-pVDZ\C4H2N2O1\OHZDE\09-Apr-2025\0\\#t hf
 aug-cc-pvdz iop(5/13=1,5/36=2,99/5=2) pseudo=read geom=check guess=(re
 ad,tcheck) scf=(maxcycle=1)\\title\\0,1\N,0,-1.79836268,-0.42791344,0.
 31229295\C,0,-1.27106814,-1.60936361,0.76562099\O,0,-1.54399078,-2.697
 75503,1.1374261\C,0,-0.40957844,-0.46295771,0.52236188\C,0,0.65381888,
 0.27731855,0.54330975\C,0,1.76210399,0.89809696,0.58257031\N,0,2.86753
 888,1.4181603,0.63932353\H,0,2.90867932,2.41622706,0.46109953\H,0,-2.5
 5645504,0.21270892,0.51055095\\Version=ES64L-G16RevC.01\State=1-A\HF=-

 Normal termination of Gaussian 16 at Wed Apr  9 03:45:46 2025.
