 Gaussian 16, Revision C.01,

 ----------------------------------------------------------------------
 #t hf aug-cc-pvdz symm=none int=(grid=ultrafine) guess=(read,tcheck) s
 table=(opt,rrhf)
 ----------------------------------------------------------------------
 -----
 title
 -----
 Symbolic Z-matrix:
 Charge =  0 Multiplicity = 1

 SCF Done:  E(RHF) =  -323.913686035     A.U. after   14 cycles
 Normal termination of Gaussian 16 at Wed Apr  9 15:39:03 2025.
 Gaussian 16:  ES64L-G16RevC.01  3-Jul-2019

 ----------------------------------------------------------------------
 #t hf aug-cc-pvdz iop(5/13=1,5/36=2,99/5=2) pseudo=read geom=check gue
 ss=(read,tcheck) scf=(maxcycle=1)
 ----------------------------------------------------------------------
 -----
 title
 -----
 Structure from the checkpoint file:  "Grambow2020_wb97xd3_007256_reverse_mol2.chk"
 Charge =  0 Multiplicity = 1

                         Standard orientation:
 ---------------------------------------------------------------------
 Center     Atomic      Atomic             Coordinates (Angstroms)
 Number     Number       Type             X           Y           Z
 ---------------------------------------------------------------------
      1          6           0        0.491090   -1.269100   -0.461913
      2          6           0        1.577313   -0.209163   -0.392559
      3          6           0        2.622570   -0.492879    0.691605
      4          6           0        1.030879    1.177189   -0.185816
      5          8           0       -0.131447    1.461956   -0.054157
      6          6           0       -2.897165    0.083299    0.151851
      7          7           0       -3.876992   -0.504027    0.223631
      8          1           0       -0.049479   -1.337400    0.484244
      9          1           0        0.927544   -2.246659   -0.670342
     10          1           0       -0.234519   -1.048419   -1.245314
     11          1           0        3.124964   -1.439732    0.492662
     12          1           0        3.384690    0.288026    0.734953
     13          1           0        2.150810   -0.562338    1.674314
     14          1           0        1.795728    1.980012   -0.148579
     15          1           0        2.106806   -0.157389   -1.354420
     16          1           0       -1.964141    0.620360    0.081312
 ---------------------------------------------------------------------

 SCF Done:  E(RHF) =  -324.016882448     A.U. after    2 cycles

 The electronic state is 1-A.
 Alpha  occ. eigenvalues --  -20.59955 -15.63710 -11.36688 -11.27399 -11.27387
 Alpha  occ. eigenvalues --  -11.25798 -11.24476  -1.39058  -1.18708  -1.10461
 Alpha  occ. eigenvalues --   -0.95938  -0.90916  -0.79693  -0.76711  -0.71483
 Alpha  occ. eigenvalues --   -0.67745  -0.64836  -0.59153  -0.57152  -0.56006
 Alpha  occ. eigenvalues --   -0.55781  -0.54498  -0.51563  -0.50723  -0.47217
 Alpha  occ. eigenvalues --   -0.47214  -0.45326
 Alpha virt. eigenvalues --    0.02368   0.03786   0.03915   0.04752   0.06024
 Alpha virt. eigenvalues --    0.06593   0.07094   0.07700   0.07999   0.09452
 Alpha virt. eigenvalues --    0.10975   0.11557   0.12323   0.13506   0.14040

 Mulliken charges:
               1
     1  C    0.761622
     2  C   -1.054529
     3  C    0.602812
     4  C    0.655817
     5  O   -0.407826
     6  C    0.504176
     7  N   -0.379503
     8  H   -0.016249
     9  H   -0.072544
    10  H   -0.097476
    11  H   -0.068477
    12  H   -0.095280
    13  H    0.000405
    14  H   -0.263814
    15  H    0.019131
    16  H   -0.088266
 Sum of Mulliken charges =  -0.00000

 Dipole moment (field-independent basis, Debye):
    X=              6.8773    Y=              0.2847    Z=             -0.6404  Tot=              6.9129

 Test job not archived.
 1\1\GINC-SE174\SP\RHF\Aug-CC-pVDZ\C5H9N1O1\OHZDE\09-Apr-2025\0\\#t hf
 aug-cc-pvdz iop(5/13=1,5/36=2,99/5=2) pseudo=read geom=check guess=(re
 ad,tcheck) scf=(maxcycle=1)\\title\\0,1\C,0,0.64642769,0.89447404,0.31
 205705\C,0,0.48167895,-0.55507119,0.73612563\C,0,1.53407036,-1.4827757
 7,0.1194362\C,0,-0.88516412,-1.1036275,0.42931938\O,0,-1.77530467,-0.5
 0630465,-0.1186607\C,0,-2.31137875,2.23236536,-1.46203154\N,0,-2.42444
 885,3.26463041,-1.94349732\H,0,0.55841229,0.99727405,-0.77135346\H,0,1
 .62874207,1.26646446,0.60571724\H,0,-0.1085227,1.53413478,0.77010671\H

 Normal termination of Gaussian 16 at Wed Apr  9 15:39:09 2025.
