 Gaussian 16, Revision C.01,

 ----------------------------------------------------------------------
 #t hf aug-cc-pvdz symm=none int=(grid=ultrafine) guess=(read,tcheck) s
 table=(opt,rrhf)
 ----------------------------------------------------------------------
 -----
 title
 -----
 Symbolic Z-matrix:
 Charge =  0 Multiplicity = 1

 SCF Done:  E(RHF) =  -302.795430756     A.U. after   15 cycles
 Normal termination of Gaussian 16 at Wed Apr  9 16:47:14 2025.
 Gaussian 16:  ES64L-G16RevC.01  3-Jul-2019

 ----------------------------------------------------------------------
 #t hf aug-cc-pvdz iop(5/13=1,5/36=2,99/5=2) pseudo=read geom=check gue
 ss=(read,tcheck) scf=(maxcycle=1)
 ----------------------------------------------------------------------
 -----
 title
 -----
 Structure from the checkpoint file:  "Grambow2020_wb97xd3_008881_reverse_mol2.chk"
 Charge =  0 Multiplicity = 1

                         Standard orientation:
 ---------------------------------------------------------------------
 Center     Atomic      Atomic             Coordinates (Angstroms)
 Number     Number       Type             X           Y           Z
 ---------------------------------------------------------------------
      1          6           0       -2.188933   -0.628602    0.437869
      2          7           0       -1.095240   -0.124277   -0.417028
      3          6           0       -0.696794    1.245510   -0.103850
      4          6           0        0.611191    1.216556    0.133088
      5          6           0        1.101299   -0.150997   -0.028183
      6          7           0        2.446109   -0.468802    0.251832
      7          6           0        0.132427   -1.039170   -0.356981
      8          1           0       -3.073070    0.000402    0.324355
      9          1           0       -2.399656   -1.654786    0.148655
     10          1           0       -1.838353   -0.608052    1.467399
     11          1           0       -1.425619    2.040519   -0.081488
     12          1           0        1.210726    2.073109    0.413197
     13          1           0        3.098334    0.074308   -0.296337
     14          1           0        2.607599   -1.451336    0.079525
     15          1           0       -1.391191   -0.182389   -1.390591
 ---------------------------------------------------------------------

 SCF Done:  E(RHF) =  -302.885410663     A.U. after    2 cycles

 The electronic state is 1-A.
 Alpha  occ. eigenvalues --  -15.72689 -15.59931 -11.29267 -11.27472 -11.25985
 Alpha  occ. eigenvalues --  -11.23788 -11.19616  -1.28516  -1.15284  -1.06280
 Alpha  occ. eigenvalues --   -0.95467  -0.93299  -0.80403  -0.74193  -0.71741
 Alpha  occ. eigenvalues --   -0.68215  -0.64259  -0.61476  -0.59939  -0.55857
 Alpha  occ. eigenvalues --   -0.54398  -0.52937  -0.46849  -0.39575  -0.32643
 Alpha  occ. eigenvalues --   -0.27503
 Alpha virt. eigenvalues --    0.02490   0.03671   0.04366   0.04639   0.05986
 Alpha virt. eigenvalues --    0.06561   0.07497   0.08337   0.10584   0.10958
 Alpha virt. eigenvalues --    0.12053   0.13051   0.13478   0.14515   0.14927

 Mulliken charges:
               1
     1  C    0.847438
     2  N   -0.377190
     3  C    0.322765
     4  C    0.434125
     5  C    0.334596
     6  N   -0.420215
     7  C   -0.251337
     8  H   -0.170436
     9  H   -0.134946
    10  H   -0.068191
    11  H   -0.351177
    12  H   -0.358751
    13  H   -0.018681
    14  H    0.036203
    15  H    0.175796
 Sum of Mulliken charges =  -0.00000

 Dipole moment (field-independent basis, Debye):
    X=             -3.1004    Y=              3.1767    Z=             -0.8322  Tot=              4.5162

 Test job not archived.
 1\1\GINC-SE057\SP\RHF\Aug-CC-pVDZ\C5H8N2\OHZDE\09-Apr-2025\0\\#t hf au
 g-cc-pvdz iop(5/13=1,5/36=2,99/5=2) pseudo=read geom=check guess=(read
 ,tcheck) scf=(maxcycle=1)\\title\\0,1\C,0,2.08778333,0.42699606,0.2461
 4506\N,0,0.89026903,0.01699504,-0.51491703\C,0,0.37652116,-1.2944652,-
 0.12853385\C,0,-0.90148153,-1.12216425,0.19523434\C,0,-1.25880799,0.28
 432408,0.02052502\N,0,-2.54064345,0.74880822,0.3797961\C,0,-0.22963622
 ,1.05679731,-0.40345643\H,0,2.89239955,-0.29405247,0.09477883\H,0,2.38
 170186,1.41719739,-0.09181272\H,0,1.8108035,0.4713127,1.29713465\H,0,1

 Normal termination of Gaussian 16 at Wed Apr  9 16:47:20 2025.
