 Gaussian 16, Revision C.01,

 ----------------------------------------------------------------------
 #t hf aug-cc-pvdz symm=none int=(grid=ultrafine) guess=(read,tcheck) s
 table=(opt,rrhf)
 ----------------------------------------------------------------------
 -----
 title
 -----
 Symbolic Z-matrix:
 Charge =  0 Multiplicity = 1

 SCF Done:  E(RHF) =  -359.673306366     A.U. after   14 cycles
 Normal termination of Gaussian 16 at Wed Apr  9 16:11:03 2025.
 Gaussian 16:  ES64L-G16RevC.01  3-Jul-2019

 ----------------------------------------------------------------------
 #t hf aug-cc-pvdz iop(5/13=1,5/36=2,99/5=2) pseudo=read geom=check gue
 ss=(read,tcheck) scf=(maxcycle=1)
 ----------------------------------------------------------------------
 -----
 title
 -----
 Structure from the checkpoint file:  "Grambow2020_wb97xd3_007895_reverse_mol2.chk"
 Charge =  0 Multiplicity = 1

                         Standard orientation:
 ---------------------------------------------------------------------
 Center     Atomic      Atomic             Coordinates (Angstroms)
 Number     Number       Type             X           Y           Z
 ---------------------------------------------------------------------
      1          6           0        2.165715   -0.389116    0.168009
      2          6           0        0.684335   -0.408904    0.103298
      3          7           0       -0.076193    0.760342    0.463554
      4          8           0        0.071498    1.708008   -0.609993
      5          6           0       -0.161265   -1.341430   -0.320992
      6          6           0       -1.437627    0.254711    0.477852
      7          8           0       -1.468106   -0.962355   -0.273547
      8          1           0        2.511254   -0.191654    1.185176
      9          1           0        2.579614   -1.342753   -0.159557
     10          1           0        2.564300    0.395260   -0.479275
     11          1           0        0.343788    2.507429   -0.153832
     12          1           0        0.031821   -2.335949   -0.693544
     13          1           0       -1.706400    0.011219    1.509738
     14          1           0       -2.125107    0.977267    0.045728
 ---------------------------------------------------------------------

 SCF Done:  E(RHF) =  -359.785884863     A.U. after    2 cycles

 The electronic state is 1-A.
 Alpha  occ. eigenvalues --  -20.60512 -20.59597 -15.68800 -11.32358 -11.29798
 Alpha  occ. eigenvalues --  -11.26397 -11.23886  -1.40181  -1.35169  -1.14215
 Alpha  occ. eigenvalues --   -1.04346  -0.95084  -0.86094  -0.78866  -0.73335
 Alpha  occ. eigenvalues --   -0.70702  -0.66232  -0.62862  -0.60422  -0.59263
 Alpha  occ. eigenvalues --   -0.57825  -0.55734  -0.54328  -0.51867  -0.48472
 Alpha  occ. eigenvalues --   -0.43449  -0.32925
 Alpha virt. eigenvalues --    0.03417   0.04232   0.04317   0.05046   0.06349
 Alpha virt. eigenvalues --    0.07193   0.07616   0.10482   0.11160   0.11592
 Alpha virt. eigenvalues --    0.12990   0.13922   0.14734   0.15758   0.16243

 Mulliken charges:
               1
     1  C    0.289324
     2  C    0.217975
     3  N   -0.733530
     4  O   -0.517193
     5  C    0.762081
     6  C    1.119182
     7  O   -0.689081
     8  H    0.023023
     9  H   -0.020504
    10  H    0.055720
    11  H    0.185417
    12  H   -0.309356
    13  H   -0.174138
    14  H   -0.208920
 Sum of Mulliken charges =  -0.00000

 Dipole moment (field-independent basis, Debye):
    X=              1.1085    Y=              0.4700    Z=              1.2348  Tot=              1.7246

 Test job not archived.
 1\1\GINC-SE229\SP\RHF\Aug-CC-pVDZ\C4H7N1O2\OHZDE\09-Apr-2025\0\\#t hf
 aug-cc-pvdz iop(5/13=1,5/36=2,99/5=2) pseudo=read geom=check guess=(re
 ad,tcheck) scf=(maxcycle=1)\\title\\0,1\C,0,-1.52864511,-0.9867983,-0.
 64445903\C,0,-0.2034414,-0.39611279,-0.33787462\N,0,-0.1102277,0.88772
 25,0.30896556\O,0,-0.4694583,0.69269216,1.68929319\C,0,1.02558843,-0.8
 7775103,-0.48678425\C,0,1.30905777,1.18156145,0.21592041\O,0,2.0020983
 ,-0.04532621,-0.03150641\H,0,-2.09750048,-0.34441262,-1.32029984\H,0,-
 1.41693542,-1.96625794,-1.1094486\H,0,-2.11158625,-1.10916149,0.271127

 Normal termination of Gaussian 16 at Wed Apr  9 16:11:12 2025.
