 Gaussian 16, Revision C.01,

 ----------------------------------------------------------------------
 #t hf aug-cc-pvdz symm=none int=(grid=ultrafine) guess=(read,tcheck) s
 table=(opt,rrhf)
 ----------------------------------------------------------------------
 -----
 title
 -----
 Symbolic Z-matrix:
 Charge =  0 Multiplicity = 1

 SCF Done:  E(RHF) =  -358.513329105     A.U. after   15 cycles
 Normal termination of Gaussian 16 at Wed Apr  9 15:09:43 2025.
 Gaussian 16:  ES64L-G16RevC.01  3-Jul-2019

 ----------------------------------------------------------------------
 #t hf aug-cc-pvdz iop(5/13=1,5/36=2,99/5=2) pseudo=read geom=check gue
 ss=(read,tcheck) scf=(maxcycle=1)
 ----------------------------------------------------------------------
 -----
 title
 -----
 Structure from the checkpoint file:  "Grambow2020_wb97xd3_006798_reverse_mol2.chk"
 Charge =  0 Multiplicity = 1

                         Standard orientation:
 ---------------------------------------------------------------------
 Center     Atomic      Atomic             Coordinates (Angstroms)
 Number     Number       Type             X           Y           Z
 ---------------------------------------------------------------------
      1          8           0       -2.878933   -0.168616    0.354090
      2          6           0       -1.684480   -0.602562   -0.129601
      3          6           0       -0.589748    0.118709   -0.221435
      4          6           0        0.219739    1.320360   -0.037877
      5          7           0        0.745591    0.087408   -0.629780
      6          6           0        1.757356   -0.655555   -0.036867
      7          8           0        2.726491   -0.180115    0.483385
      8          1           0       -1.716681   -1.636185   -0.446957
      9          1           0       -2.802145    0.750136    0.623564
     10          1           0        0.578016    1.562800    0.958220
     11          1           0        0.123675    2.156669   -0.720975
     12          1           0        1.600331   -1.741137   -0.150509
 ---------------------------------------------------------------------

 SCF Done:  E(RHF) =  -358.625879081     A.U. after    2 cycles

 The electronic state is 1-A.
 Alpha  occ. eigenvalues --  -20.61679 -20.57369 -15.67372 -11.38120 -11.32485
 Alpha  occ. eigenvalues --  -11.30960 -11.30267  -1.38385  -1.37884  -1.29356
 Alpha  occ. eigenvalues --   -1.02342  -0.98243  -0.83894  -0.81190  -0.75888
 Alpha  occ. eigenvalues --   -0.69396  -0.68345  -0.67448  -0.61065  -0.60639
 Alpha  occ. eigenvalues --   -0.57076  -0.54375  -0.53000  -0.46627  -0.45098
 Alpha  occ. eigenvalues --   -0.34866
 Alpha virt. eigenvalues --    0.02797   0.03520   0.04794   0.05165   0.06517
 Alpha virt. eigenvalues --    0.08597   0.09425   0.09837   0.11638   0.12483
 Alpha virt. eigenvalues --    0.12973   0.13587   0.14309   0.14780   0.15336

 Mulliken charges:
               1
     1  O   -0.539507
     2  C    1.166912
     3  C   -0.271524
     4  C    0.733759
     5  N   -0.724625
     6  C    0.676044
     7  O   -0.437418
     8  H   -0.271428
     9  H    0.144108
    10  H   -0.150419
    11  H   -0.153150
    12  H   -0.172753
 Sum of Mulliken charges =  -0.00000

 Dipole moment (field-independent basis, Debye):
    X=             -2.3813    Y=              0.6033    Z=             -0.2651  Tot=              2.4708

 Test job not archived.
 1\1\GINC-SE100\SP\RHF\Aug-CC-pVDZ\C4H5N1O2\OHZDE\09-Apr-2025\0\\#t hf
 aug-cc-pvdz iop(5/13=1,5/36=2,99/5=2) pseudo=read geom=check guess=(re
 ad,tcheck) scf=(maxcycle=1)\\title\\0,1\O,0,2.73527659,0.31073613,-0.1
 9927577\C,0,1.62932494,-0.41125302,0.12412127\C,0,0.4127639,0.0695927,
 0.25009697\C,0,-0.60636202,1.11451131,0.20054093\N,0,-0.90634613,-0.27
 587061,0.55251897\C,0,-1.73047306,-1.08274193,-0.22012804\O,0,-2.75190
 554,-0.71406595,-0.72676584\H,0,1.84863896,-1.45947532,0.27663397\H,0,
 2.49262012,1.2314524,-0.32583801\H,0,-0.96491156,1.45021651,-0.7680112

 Normal termination of Gaussian 16 at Wed Apr  9 15:09:47 2025.
