 Gaussian 16, Revision C.01,

 ----------------------------------------------------------------------
 #t hf aug-cc-pvdz symm=none int=(grid=ultrafine) guess=(read,tcheck) s
 table=(opt,rrhf)
 ----------------------------------------------------------------------
 -----
 title
 -----
 Symbolic Z-matrix:
 Charge =  0 Multiplicity = 1

 SCF Done:  E(RHF) =  -272.077128880     A.U. after   13 cycles
 Normal termination of Gaussian 16 at Wed Apr  9 15:53:20 2025.
 Gaussian 16:  ES64L-G16RevC.01  3-Jul-2019

 ----------------------------------------------------------------------
 #t hf aug-cc-pvdz iop(5/13=1,5/36=2,99/5=2) pseudo=read geom=check gue
 ss=(read,tcheck) scf=(maxcycle=1)
 ----------------------------------------------------------------------
 -----
 title
 -----
 Structure from the checkpoint file:  "Grambow2020_wb97xd3_007446_reverse_mol2.chk"
 Charge =  0 Multiplicity = 1

                         Standard orientation:
 ---------------------------------------------------------------------
 Center     Atomic      Atomic             Coordinates (Angstroms)
 Number     Number       Type             X           Y           Z
 ---------------------------------------------------------------------
      1          6           0       -2.689324   -0.355877    0.027099
      2          6           0       -1.554928    0.606330   -0.300373
      3          6           0       -0.242717    0.254015    0.396359
      4          6           0        0.362526   -1.099717   -0.034007
      5          6           0        1.889324   -0.900531   -0.037604
      6          6           0        2.031234    0.595434   -0.129148
      7          6           0        0.884399    1.214777    0.109777
      8          1           0       -3.616362   -0.057863   -0.465773
      9          1           0       -2.878959   -0.386199    1.103331
     10          1           0       -2.456479   -1.373386   -0.295135
     11          1           0       -1.383112    0.626977   -1.382400
     12          1           0       -1.847052    1.622747   -0.016885
     13          1           0       -0.430753    0.250211    1.480013
     14          1           0        0.027852   -1.324747   -1.051380
     15          1           0        0.045956   -1.927975    0.600733
     16          1           0        2.350864   -1.270123    0.885055
     17          1           0        2.975895    1.088582   -0.325055
     18          1           0        2.377862   -1.425478   -0.861709
     19          1           0        0.751204    2.290669    0.136590
 ---------------------------------------------------------------------

 SCF Done:  E(RHF) =  -272.161062916     A.U. after    2 cycles

 The electronic state is 1-A.
 Alpha  occ. eigenvalues --  -11.23052 -11.22805 -11.22740 -11.22453 -11.22444
 Alpha  occ. eigenvalues --  -11.22339 -11.22001  -1.12828  -1.03434  -0.95829
 Alpha  occ. eigenvalues --   -0.93551  -0.83580  -0.76619  -0.72349  -0.67445
 Alpha  occ. eigenvalues --   -0.63503  -0.60345  -0.57799  -0.54633  -0.52026
 Alpha  occ. eigenvalues --   -0.51664  -0.49541  -0.48309  -0.47173  -0.46435
 Alpha  occ. eigenvalues --   -0.45135  -0.34294
 Alpha virt. eigenvalues --    0.03590   0.04198   0.04465   0.04706   0.05902
 Alpha virt. eigenvalues --    0.06247   0.06557   0.06893   0.07617   0.08497
 Alpha virt. eigenvalues --    0.09029   0.09558   0.12372   0.13165   0.13963

 Mulliken charges:
               1
     1  C    0.462038
     2  C    0.247648
     3  C   -0.512210
     4  C    0.268992
     5  C    0.411367
     6  C    0.042832
     7  C    0.757488
     8  H   -0.055922
     9  H   -0.060295
    10  H   -0.093260
    11  H   -0.041745
    12  H   -0.165242
    13  H   -0.146589
    14  H   -0.231808
    15  H   -0.107043
    16  H   -0.018995
    17  H   -0.303480
    18  H   -0.028485
    19  H   -0.425291
 Sum of Mulliken charges =  -0.00000

 Dipole moment (field-independent basis, Debye):
    X=             -0.0839    Y=             -0.1593    Z=              0.1151  Tot=              0.2137

 Test job not archived.
 1\1\GINC-SE219\SP\RHF\Aug-CC-pVDZ\C7H12\OHZDE\09-Apr-2025\0\\#t hf aug
 -cc-pvdz iop(5/13=1,5/36=2,99/5=2) pseudo=read geom=check guess=(read,
 tcheck) scf=(maxcycle=1)\\title\\0,1\C,0,2.44945058,0.4136937,-0.44431
 864\C,0,1.28437822,-0.53286157,-0.70234\C,0,0.15638045,-0.39592325,0.3
 176243\C,0,-0.54902151,0.97753288,0.30539401\C,0,-2.03493989,0.6945508
 8,0.5930866\C,0,-2.17239761,-0.7624521,0.23998731\C,0,-0.9924716,-1.34
 840711,0.0974023\H,0,3.24690203,0.26893833,-1.17524419\H,0,2.87456459,
 0.24996703,0.54947616\H,0,2.13595047,1.4586561,-0.50040796\H,0,0.87519

 Normal termination of Gaussian 16 at Wed Apr  9 15:53:28 2025.
