 Gaussian 16, Revision C.01,

 ----------------------------------------------------------------------
 #t hf aug-cc-pvdz symm=none int=(grid=ultrafine) guess=(read,tcheck) s
 table=(opt,rrhf)
 ----------------------------------------------------------------------
 -----
 title
 -----
 Symbolic Z-matrix:
 Charge =  0 Multiplicity = 1

 SCF Done:  E(RHF) =  -380.732786403     A.U. after   13 cycles
 Normal termination of Gaussian 16 at Wed Apr  9 16:31:03 2025.
 Gaussian 16:  ES64L-G16RevC.01  3-Jul-2019

 ----------------------------------------------------------------------
 #t hf aug-cc-pvdz iop(5/13=1,5/36=2,99/5=2) pseudo=read geom=check gue
 ss=(read,tcheck) scf=(maxcycle=1)
 ----------------------------------------------------------------------
 -----
 title
 -----
 Structure from the checkpoint file:  "Grambow2020_wb97xd3_008491_reverse_mol2.chk"
 Charge =  0 Multiplicity = 1

                         Standard orientation:
 ---------------------------------------------------------------------
 Center     Atomic      Atomic             Coordinates (Angstroms)
 Number     Number       Type             X           Y           Z
 ---------------------------------------------------------------------
      1          6           0       -2.685373   -0.241756    0.254838
      2          8           0       -1.658855    0.669671   -0.112574
      3          6           0       -0.400934    0.208514   -0.135182
      4          8           0       -0.312321   -1.110365   -0.369243
      5          6           0        0.642139    1.026415    0.045414
      6          6           0        2.059312    0.585080   -0.120871
      7          8           0        2.219517   -0.754073    0.381853
      8          1           0       -2.470236   -0.709110    1.218452
      9          1           0       -3.591212    0.355306    0.333835
     10          1           0       -2.819531   -1.017546   -0.499295
     11          1           0        0.440642    2.057748    0.292369
     12          1           0        0.604282   -1.365813   -0.157145
     13          1           0        2.367894    0.599073   -1.175645
     14          1           0        2.721559    1.261671    0.427223
     15          1           0        3.069015   -1.092713    0.094729
 ---------------------------------------------------------------------

 SCF Done:  E(RHF) =  -380.857087771     A.U. after    2 cycles

 The electronic state is 1-A.
 Alpha  occ. eigenvalues --  -20.59535 -20.59463 -20.59341 -11.36088 -11.30000
 Alpha  occ. eigenvalues --  -11.28744 -11.20375  -1.41187  -1.34535  -1.32685
 Alpha  occ. eigenvalues --   -1.04664  -0.96630  -0.88172  -0.82568  -0.73793
 Alpha  occ. eigenvalues --   -0.71307  -0.69006  -0.67397  -0.64539  -0.61908
 Alpha  occ. eigenvalues --   -0.60117  -0.57522  -0.55124  -0.52739  -0.51886
 Alpha  occ. eigenvalues --   -0.49352  -0.47999  -0.31858
 Alpha virt. eigenvalues --    0.03070   0.04294   0.04691   0.05536   0.06195
 Alpha virt. eigenvalues --    0.06448   0.06783   0.08909   0.10598   0.12242
 Alpha virt. eigenvalues --    0.12427   0.13801   0.14241   0.15547   0.15924

 Mulliken charges:
               1
     1  C    0.713585
     2  O   -0.587703
     3  C    0.284902
     4  O   -0.485760
     5  C    0.643799
     6  C    0.714651
     7  O   -0.623443
     8  H   -0.075364
     9  H   -0.236505
    10  H   -0.088720
    11  H   -0.491941
    12  H    0.243483
    13  H   -0.071904
    14  H   -0.114791
    15  H    0.175710
 Sum of Mulliken charges =   0.00000

 Dipole moment (field-independent basis, Debye):
    X=              1.8005    Y=             -0.5683    Z=             -0.1686  Tot=              1.8956

 Test job not archived.
 1\1\GINC-SE129\SP\RHF\Aug-CC-pVDZ\C4H8O3\OHZDE\09-Apr-2025\0\\#t hf au
 g-cc-pvdz iop(5/13=1,5/36=2,99/5=2) pseudo=read geom=check guess=(read
 ,tcheck) scf=(maxcycle=1)\\title\\0,1\C,0,-2.70591122,-0.29367631,-0.0
 2585847\O,0,-1.66751951,0.65341772,0.18434503\C,0,-0.41082611,0.258461
 76,-0.06116196\O,0,-0.32016911,-0.7204091,-0.97531275\C,0,0.62969353,0
 .82794105,0.55737573\C,0,2.04935275,0.52533575,0.20551492\O,0,2.192504
 92,-0.87367517,-0.10108682\H,0,-2.51711618,-1.21455856,0.53054735\H,0,
 -3.61168799,0.17854637,0.34809737\H,0,-2.82289754,-0.53005977,-1.08368

 Normal termination of Gaussian 16 at Wed Apr  9 16:31:08 2025.
