 Gaussian 16, Revision C.01,

 ----------------------------------------------------------------------
 #t hf aug-cc-pvdz symm=none int=(grid=ultrafine) guess=(read,tcheck) s
 table=(opt,rrhf)
 ----------------------------------------------------------------------
 -----
 title
 -----
 Symbolic Z-matrix:
 Charge =  0 Multiplicity = 1

 SCF Done:  E(RHF) =  -358.448437174     A.U. after   16 cycles
 Normal termination of Gaussian 16 at Wed Apr  9 03:28:09 2025.
 Gaussian 16:  ES64L-G16RevC.01  3-Jul-2019

 ----------------------------------------------------------------------
 #t hf aug-cc-pvdz iop(5/13=1,5/36=2,99/5=2) pseudo=read geom=check gue
 ss=(read,tcheck) scf=(maxcycle=1)
 ----------------------------------------------------------------------
 -----
 title
 -----
 Structure from the checkpoint file:  "Grambow2020_wb97xd3_006776_reverse_mol1.chk"
 Charge =  0 Multiplicity = 1

                         Standard orientation:
 ---------------------------------------------------------------------
 Center     Atomic      Atomic             Coordinates (Angstroms)
 Number     Number       Type             X           Y           Z
 ---------------------------------------------------------------------
      1          8           0        2.020742   -0.017667   -0.343096
      2          6           0        1.083513   -0.430306    0.382050
      3          6           0        0.436157    0.858168    0.540809
      4          6           0       -0.505713    1.267322   -0.480072
      5          7           0       -1.552414    0.490397    0.208104
      6          6           0       -1.337974   -0.799695    0.077345
      7          8           0       -0.263131   -1.340809   -0.349672
      8          1           0        1.228625   -1.170981    1.172334
      9          1           0        0.685609    1.492133    1.384763
     10          1           0       -0.256265    0.878836   -1.468207
     11          1           0       -0.750285    2.323911   -0.495310
     12          1           0       -2.157580   -1.461808    0.371049
 ---------------------------------------------------------------------

 SCF Done:  E(RHF) =  -358.556301561     A.U. after    2 cycles

 The electronic state is 1-A.
 Alpha  occ. eigenvalues --  -20.58693 -20.56044 -15.64277 -11.38802 -11.38389
 Alpha  occ. eigenvalues --  -11.37256 -11.30570  -1.39198  -1.34540  -1.21858
 Alpha  occ. eigenvalues --   -1.05989  -0.94042  -0.85877  -0.77145  -0.76554
 Alpha  occ. eigenvalues --   -0.69279  -0.67836  -0.66599  -0.63450  -0.61210
 Alpha  occ. eigenvalues --   -0.55490  -0.54134  -0.47077  -0.44677  -0.44309
 Alpha  occ. eigenvalues --   -0.39001
 Alpha virt. eigenvalues --    0.02680   0.03565   0.03802   0.04569   0.05749
 Alpha virt. eigenvalues --    0.06429   0.09377   0.10014   0.10658   0.11476
 Alpha virt. eigenvalues --    0.12247   0.13192   0.14024   0.14361   0.15019

 Mulliken charges:
               1
     1  O   -0.639188
     2  C    0.954522
     3  C    0.345400
     4  C    0.991551
     5  N   -0.689093
     6  C    0.534732
     7  O   -0.589378
     8  H   -0.197657
     9  H   -0.266246
    10  H   -0.028962
    11  H   -0.173976
    12  H   -0.241705
 Sum of Mulliken charges =  -0.00000

 Dipole moment (field-independent basis, Debye):
    X=             -1.7054    Y=              1.8029    Z=              2.6239  Tot=              3.6116

 Test job not archived.
 1\1\GINC-SE343\SP\RHF\Aug-CC-pVDZ\C4H5N1O2\OHZDE\09-Apr-2025\0\\#t hf
 aug-cc-pvdz iop(5/13=1,5/36=2,99/5=2) pseudo=read geom=check guess=(re
 ad,tcheck) scf=(maxcycle=1)\\title\\0,1\O,0,1.54750368,0.46514025,-1.4
 6843066\C,0,1.07717119,-0.4391941,-0.73667099\C,0,0.8010609,0.41574857
 ,0.40230862\C,0,-0.46413299,1.11972085,0.42307008\N,0,-1.0983705,-0.08
 585904,0.98618571\C,0,-1.17214245,-1.03893704,0.08417659\O,0,-0.568302
 71,-1.05384886,-1.04080788\H,0,1.50407911,-1.44403058,-0.68914056\H,0,
 1.54198685,0.53509781,1.18536768\H,0,-0.82500518,1.37399557,-0.5742627

 Normal termination of Gaussian 16 at Wed Apr  9 03:28:13 2025.
