 Gaussian 16, Revision C.01,

 ----------------------------------------------------------------------
 #t hf aug-cc-pvdz symm=none int=(grid=ultrafine) guess=(read,tcheck) s
 table=(opt,rrhf)
 ----------------------------------------------------------------------
 -----
 title
 -----
 Symbolic Z-matrix:
 Charge =  0 Multiplicity = 1

 SCF Done:  E(RHF) =  -302.683182363     A.U. after   17 cycles
 Normal termination of Gaussian 16 at Wed Apr  9 16:48:45 2025.
 Gaussian 16:  ES64L-G16RevC.01  3-Jul-2019

 ----------------------------------------------------------------------
 #t hf aug-cc-pvdz iop(5/13=1,5/36=2,99/5=2) pseudo=read geom=check gue
 ss=(read,tcheck) scf=(maxcycle=1)
 ----------------------------------------------------------------------
 -----
 title
 -----
 Structure from the checkpoint file:  "Grambow2020_wb97xd3_008921_reverse_mol1.chk"
 Charge =  0 Multiplicity = 1

                         Standard orientation:
 ---------------------------------------------------------------------
 Center     Atomic      Atomic             Coordinates (Angstroms)
 Number     Number       Type             X           Y           Z
 ---------------------------------------------------------------------
      1          6           0       -0.234098    1.896086   -0.217502
      2          7           0       -0.306858    0.602256    0.011249
      3          6           0       -1.530115   -0.063462    0.060286
      4          6           0       -1.237934   -1.376381   -0.080092
      5          6           0        0.211693   -1.548690   -0.073976
      6          6           0        0.774534   -0.330798    0.067115
      7          7           0        2.087107    0.139917    0.044088
      8          1           0        0.730417    2.373455   -0.090279
      9          1           0       -0.988712    2.376158   -0.816225
     10          1           0       -1.902727    2.093624    0.865699
     11          1           0       -2.178907    1.279156    0.648785
     12          1           0       -1.947353   -2.186411   -0.002926
     13          1           0        0.751866   -2.484718   -0.051339
     14          1           0        2.450442    0.376044    0.956469
     15          1           0        2.718750   -0.483052   -0.432525
 ---------------------------------------------------------------------

 SCF Done:  E(RHF) =  -302.776055370     A.U. after    2 cycles

 The electronic state is 1-A.
 Alpha  occ. eigenvalues --  -15.70582 -15.64718 -11.36598 -11.31322 -11.24110
 Alpha  occ. eigenvalues --  -11.21655 -11.21474  -1.30972  -1.18388  -1.09580
 Alpha  occ. eigenvalues --   -0.95136  -0.92049  -0.80535  -0.76799  -0.71679
 Alpha  occ. eigenvalues --   -0.69387  -0.65468  -0.61869  -0.60969  -0.56565
 Alpha  occ. eigenvalues --   -0.53735  -0.52555  -0.44416  -0.38465  -0.30044
 Alpha  occ. eigenvalues --   -0.29123
 Alpha virt. eigenvalues --    0.02297   0.02670   0.03443   0.04648   0.05140
 Alpha virt. eigenvalues --    0.06475   0.06539   0.08047   0.09367   0.11089
 Alpha virt. eigenvalues --    0.11948   0.12807   0.13488   0.13595   0.14407

 Mulliken charges:
               1
     1  C    0.777591
     2  N   -0.412123
     3  C   -0.132465
     4  C    0.198321
     5  C    0.847023
     6  C   -0.029537
     7  N   -0.236450
     8  H   -0.165850
     9  H   -0.260830
    10  H   -0.229336
    11  H    0.325640
    12  H   -0.309673
    13  H   -0.393332
    14  H    0.029983
    15  H   -0.008963
 Sum of Mulliken charges =  -0.00000

 Dipole moment (field-independent basis, Debye):
    X=              4.9516    Y=              0.7095    Z=             -0.5775  Tot=              5.0354

 Test job not archived.
 1\1\GINC-SE141\SP\RHF\Aug-CC-pVDZ\C5H8N2\OHZDE\09-Apr-2025\0\\#t hf au
 g-cc-pvdz iop(5/13=1,5/36=2,99/5=2) pseudo=read geom=check guess=(read
 ,tcheck) scf=(maxcycle=1)\\title\\0,1\C,0,-1.23049626,-1.24819038,0.05
 373594\N,0,-0.16533998,-0.47604469,0.08288712\C,0,1.1108086,-0.9987346
 7,0.2833443\C,0,1.96860241,-0.03582128,-0.1238667\C,0,1.21489642,1.170
 26524,-0.45315321\C,0,-0.09265032,0.91404614,-0.24189741\N,0,-1.269774
 48,1.62712125,-0.46740611\H,0,-2.19988175,-0.76382055,0.0480058\H,0,-1
 .14384319,-2.26556619,-0.28658366\H,0,-0.36687163,-2.34638391,1.483698

 Normal termination of Gaussian 16 at Wed Apr  9 16:48:58 2025.
