 Gaussian 16, Revision C.01,

 ----------------------------------------------------------------------
 #t hf aug-cc-pvdz symm=none int=(grid=ultrafine) guess=(read,tcheck) s
 table=(opt,rrhf)
 ----------------------------------------------------------------------
 -----
 title
 -----
 Symbolic Z-matrix:
 Charge =  0 Multiplicity = 1

 SCF Done:  E(RHF) =  -286.768935804     A.U. after   12 cycles
 Normal termination of Gaussian 16 at Wed Apr  9 04:05:52 2025.
 Gaussian 16:  ES64L-G16RevC.01  3-Jul-2019

 ----------------------------------------------------------------------
 #t hf aug-cc-pvdz iop(5/13=1,5/36=2,99/5=2) pseudo=read geom=check gue
 ss=(read,tcheck) scf=(maxcycle=1)
 ----------------------------------------------------------------------
 -----
 title
 -----
 Structure from the checkpoint file:  "Grambow2020_wb97xd3_009357_reverse_mol2.chk"
 Charge =  0 Multiplicity = 1

                         Standard orientation:
 ---------------------------------------------------------------------
 Center     Atomic      Atomic             Coordinates (Angstroms)
 Number     Number       Type             X           Y           Z
 ---------------------------------------------------------------------
      1          6           0        2.242792    0.288324   -0.000157
      2          7           0        1.088117   -0.590292    0.000513
      3          6           0       -0.021211   -0.195774    0.905252
      4          6           0       -0.576320    0.953501   -0.000842
      5          6           0       -1.986641    0.354622   -0.000253
      6          6           0       -0.020924   -0.197120   -0.905197
      7          6           0       -1.076187   -0.877088    0.000530
      8          1           0        1.991821    1.359355   -0.001172
      9          1           0        2.853634    0.078466   -0.880332
     10          1           0        2.851422    0.080980    0.882181
     11          1           0        0.049252   -0.223588    1.993024
     12          1           0       -0.291035    2.003298   -0.001006
     13          1           0       -2.586626    0.518523   -0.897452
     14          1           0       -2.586301    0.519794    0.896963
     15          1           0        0.051440   -0.226355   -1.992727
     16          1           0       -1.319477   -1.937219    0.000926
 ---------------------------------------------------------------------

 SCF Done:  E(RHF) =  -286.853735989     A.U. after    2 cycles

 The electronic state is 1-A.
 Alpha  occ. eigenvalues --  -15.60846 -11.27649 -11.27603 -11.24840 -11.24737
 Alpha  occ. eigenvalues --  -11.24511 -11.23551  -1.28705  -1.10523  -0.94760
 Alpha  occ. eigenvalues --   -0.87496  -0.86784  -0.82059  -0.70039  -0.68684
 Alpha  occ. eigenvalues --   -0.64024  -0.62441  -0.59763  -0.56763  -0.52351
 Alpha  occ. eigenvalues --   -0.46527  -0.45882  -0.44601  -0.43811  -0.42787
 Alpha  occ. eigenvalues --   -0.35115
 Alpha virt. eigenvalues --    0.03279   0.03968   0.04061   0.04510   0.06397
 Alpha virt. eigenvalues --    0.06483   0.06603   0.07750   0.08540   0.11509
 Alpha virt. eigenvalues --    0.12187   0.12646   0.12907   0.13111   0.13709

 Mulliken charges:
               1
     1  C    0.687862
     2  N   -0.970280
     3  C    0.671780
     4  C    0.189273
     5  C    0.765138
     6  C    0.671704
     7  C    0.417396
     8  H   -0.063621
     9  H   -0.198500
    10  H   -0.198471
    11  H   -0.393013
    12  H   -0.452955
    13  H   -0.183766
    14  H   -0.183677
    15  H   -0.393437
    16  H   -0.365433
 Sum of Mulliken charges =  -0.00000

 Dipole moment (field-independent basis, Debye):
    X=             -0.6069    Y=              1.2207    Z=             -0.0008  Tot=              1.3633

 Test job not archived.
 1\1\GINC-SE253\SP\RHF\Aug-CC-pVDZ\C6H9N1\OHZDE\09-Apr-2025\0\\#t hf au
 g-cc-pvdz iop(5/13=1,5/36=2,99/5=2) pseudo=read geom=check guess=(read
 ,tcheck) scf=(maxcycle=1)\\title\\0,1\C,0,2.18759142,-0.06662154,0.245
 32248\N,0,1.01928913,-0.61767965,-0.41547011\C,0,-0.16770734,-0.835137
 84,0.4497216\C,0,-0.60076864,0.66728962,0.52149987\C,0,-2.01694628,0.3
 4502121,0.03339515\C,0,0.01815767,0.37296312,-0.88582088\C,0,-1.139561
 12,-0.64419805,-0.73970117\H,0,1.96242027,0.74742242,0.95010932\H,0,2.
 88052988,0.31368975,-0.50772209\H,0,2.69769197,-0.86136827,0.79315226\

 Normal termination of Gaussian 16 at Wed Apr  9 04:05:58 2025.
