 Gaussian 16, Revision C.01,

 ----------------------------------------------------------------------
 #t hf aug-cc-pvdz symm=none int=(grid=ultrafine) guess=(read,tcheck) s
 table=(opt,rrhf)
 ----------------------------------------------------------------------
 -----
 title
 -----
 Symbolic Z-matrix:
 Charge =  0 Multiplicity = 1

 SCF Done:  E(RHF) =  -268.898132666     A.U. after   14 cycles
 Normal termination of Gaussian 16 at Wed Apr  9 03:03:22 2025.
 Gaussian 16:  ES64L-G16RevC.01  3-Jul-2019

 ----------------------------------------------------------------------
 #t hf aug-cc-pvdz iop(5/13=1,5/36=2,99/5=2) pseudo=read geom=check gue
 ss=(read,tcheck) scf=(maxcycle=1)
 ----------------------------------------------------------------------
 -----
 title
 -----
 Structure from the checkpoint file:  "Grambow2020_b97d3_006486_forward_mol2.chk"
 Charge =  0 Multiplicity = 1

                         Standard orientation:
 ---------------------------------------------------------------------
 Center     Atomic      Atomic             Coordinates (Angstroms)
 Number     Number       Type             X           Y           Z
 ---------------------------------------------------------------------
      1          8           0        2.147947    0.000445   -0.001907
      2          6           0        0.930541    0.000153    0.000737
      3          6           0        0.025699    1.238410    0.126642
      4          6           0       -1.383454    0.738294   -0.234893
      5          6           0       -1.384136   -0.738751    0.232199
      6          6           0        0.026859   -1.238598   -0.122944
      7          1           0        0.066917    1.565498    1.179332
      8          1           0        0.403310    2.067715   -0.484293
      9          1           0       -2.185353    1.328139    0.226781
     10          1           0       -1.525137    0.780229   -1.325519
     11          1           0       -2.183332   -1.329740   -0.232522
     12          1           0       -1.530271   -0.779450    1.322330
     13          1           0        0.404365   -2.064134    0.492982
     14          1           0        0.072869   -1.568869   -1.174285
 ---------------------------------------------------------------------

 SCF Done:  E(RHF) =  -268.979302969     A.U. after    2 cycles

 The electronic state is 1-A.
 Alpha  occ. eigenvalues --  -20.56019 -11.34323 -11.25004 -11.24979 -11.24940
 Alpha  occ. eigenvalues --  -11.24920  -1.34312  -1.11862  -0.98439  -0.93399
 Alpha  occ. eigenvalues --   -0.80903  -0.73710  -0.67265  -0.67122  -0.60281
 Alpha  occ. eigenvalues --   -0.59464  -0.57125  -0.56388  -0.51026  -0.49470
 Alpha  occ. eigenvalues --   -0.48657  -0.48397  -0.40784
 Alpha virt. eigenvalues --    0.03132   0.04189   0.04357   0.04912   0.06614
 Alpha virt. eigenvalues --    0.06720   0.06934   0.07435   0.09523   0.11738
 Alpha virt. eigenvalues --    0.13923   0.13975   0.14345   0.14617   0.15295

 Mulliken charges:
               1
     1  O   -0.540134
     2  C    0.101754
     3  C    0.065251
     4  C    0.354908
     5  C    0.356244
     6  C    0.063659
     7  H    0.025269
     8  H   -0.038238
     9  H   -0.062575
    10  H   -0.126445
    11  H   -0.063210
    12  H   -0.125212
    13  H   -0.036797
    14  H    0.025525
 Sum of Mulliken charges =  -0.00000

 Dipole moment (field-independent basis, Debye):
    X=             -3.9136    Y=             -0.0011    Z=              0.0069  Tot=              3.9136

 Test job not archived.
 1\1\GINC-SE195\SP\RHF\Aug-CC-pVDZ\C5H8O1\OHZDE\09-Apr-2025\0\\#t hf au
 g-cc-pvdz iop(5/13=1,5/36=2,99/5=2) pseudo=read geom=check guess=(read
 ,tcheck) scf=(maxcycle=1)\\title\\0,1\O,0,-0.5957034,2.51372734,0.0805
 5824\C,0,-0.31500532,1.32967836,0.0442007\C,0,-1.30708938,0.16027785,0
 .17125861\C,0,-0.50743984,-1.08546673,-0.24732904\C,0,0.94388285,-0.75
 673855,0.18329331\C,0,1.09407584,0.74016556,-0.13857345\H,0,-1.6019230
 1,0.09790823,1.23240196\H,0,-2.21967858,0.35150359,-0.40683451\H,0,-0.
 88210552,-2.0134814,0.20268923\H,0,-0.54957643,-1.20511495,-1.34058417

 Normal termination of Gaussian 16 at Wed Apr  9 03:03:26 2025.
