 Gaussian 16, Revision C.01,

 ----------------------------------------------------------------------
 #t hf aug-cc-pvdz symm=none int=(grid=ultrafine) guess=(read,tcheck) s
 table=(opt,rrhf)
 ----------------------------------------------------------------------
 -----
 title
 -----
 Symbolic Z-matrix:
 Charge =  0 Multiplicity = 1

 SCF Done:  E(RHF) =  -279.765832669     A.U. after   16 cycles
 Normal termination of Gaussian 16 at Wed Apr  9 03:15:52 2025.
 Gaussian 16:  ES64L-G16RevC.01  3-Jul-2019

 ----------------------------------------------------------------------
 #t hf aug-cc-pvdz iop(5/13=1,5/36=2,99/5=2) pseudo=read geom=check gue
 ss=(read,tcheck) scf=(maxcycle=1)
 ----------------------------------------------------------------------
 -----
 title
 -----
 Structure from the checkpoint file:  "Grambow2020_b97d3_007050_reverse_mol1.chk"
 Charge =  0 Multiplicity = 1

                         Standard orientation:
 ---------------------------------------------------------------------
 Center     Atomic      Atomic             Coordinates (Angstroms)
 Number     Number       Type             X           Y           Z
 ---------------------------------------------------------------------
      1          7           0        2.038212    0.053299   -0.201986
      2          6           0        0.669637    0.084788    0.097216
      3          6           0       -0.247784    1.170386    0.045195
      4          6           0       -1.492637    0.558935   -0.071248
      5          7           0       -1.410994   -0.799613   -0.056713
      6          7           0       -0.122609   -1.155898    0.012986
      7          1           0        2.400343   -0.899838   -0.168360
      8          1           0        2.596445    0.664628    0.392357
      9          1           0       -0.008296    2.227784    0.069302
     10          1           0       -2.463729    1.043146   -0.137647
     11          1           0        0.367678   -0.604887    1.137358
 ---------------------------------------------------------------------

 SCF Done:  E(RHF) =  -279.843434951     A.U. after    2 cycles

 The electronic state is 1-A.
 Alpha  occ. eigenvalues --  -15.71196 -15.65832 -15.65417 -11.34971 -11.28482
 Alpha  occ. eigenvalues --  -11.25727  -1.33188  -1.19901  -1.05089  -1.02343
 Alpha  occ. eigenvalues --   -0.81176  -0.78303  -0.71428  -0.69536  -0.65835
 Alpha  occ. eigenvalues --   -0.59845  -0.57579  -0.50315  -0.49509  -0.42062
 Alpha  occ. eigenvalues --   -0.38845  -0.34606
 Alpha virt. eigenvalues --    0.02308   0.03451   0.04854   0.05359   0.06438
 Alpha virt. eigenvalues --    0.09938   0.10603   0.11653   0.12491   0.12924
 Alpha virt. eigenvalues --    0.13749   0.14540   0.14723   0.15404   0.16342

 Mulliken charges:
               1
     1  N   -0.380232
     2  C    0.573822
     3  C    0.674176
     4  C    0.466323
     5  N   -0.547000
     6  N   -0.724435
     7  H    0.056388
     8  H    0.035431
     9  H   -0.291535
    10  H   -0.212756
    11  H    0.349817
 Sum of Mulliken charges =  -0.00000

 Dipole moment (field-independent basis, Debye):
    X=              2.7314    Y=              2.5987    Z=              1.6427  Tot=              4.1124

 Test job not archived.
 1\1\GINC-SE125\SP\RHF\Aug-CC-pVDZ\C3H5N3\OHZDE\09-Apr-2025\0\\#t hf au
 g-cc-pvdz iop(5/13=1,5/36=2,99/5=2) pseudo=read geom=check guess=(read
 ,tcheck) scf=(maxcycle=1)\\title\\0,1\N,0,-1.82479471,-0.05920159,-0.3
 3453179\C,0,-0.47101003,0.05168273,0.00968202\C,0,0.60176783,-0.854487
 86,-0.2159093\C,0,1.74009631,-0.05577967,-0.15790392\N,0,1.45207849,1.
 24522881,0.11950157\N,0,0.12370635,1.38685637,0.20377572\H,0,-2.328402
 25,0.80402986,-0.12971404\H,0,-2.2901771,-0.85251512,0.10440466\H,0,0.
 52605887,-1.91877164,-0.40980445\H,0,2.77437664,-0.36865412,-0.277327\

 Normal termination of Gaussian 16 at Wed Apr  9 03:15:56 2025.
