 Gaussian 16, Revision C.01,

 ----------------------------------------------------------------------
 #t hf aug-cc-pvdz symm=none int=(grid=ultrafine) guess=(read,tcheck) s
 table=(opt,rrhf)
 ----------------------------------------------------------------------
 -----
 title
 -----
 Symbolic Z-matrix:
 Charge =  0 Multiplicity = 1

 SCF Done:  E(RHF) =  -306.895803240     A.U. after   16 cycles

 1\1\GINC-SE462\Stability\RHF\Aug-CC-pVDZ\C4H10O2\OHZDE\09-Apr-2025\0\\
 #t hf aug-cc-pvdz symm=none int=(grid=ultrafine) guess=(read,tcheck) s
 table=(opt,rrhf)\\title\\0,1\C,0,2.38640378,-1.02970238,-0.37898467\O,
 0,1.85224667,0.05406201,0.3758582\C,0,-0.01294935,0.78188904,-0.590033
 29\C,0,-1.05123506,0.60276925,0.44443059\C,0,-2.46852871,0.36227458,-0
 .0857014\O,0,-0.45199238,-0.56185937,0.94133213\H,0,1.59381207,-1.7103
 9754,-0.7309639\H,0,2.93132146,-0.62664192,-1.24381234\H,0,3.09574288,
 -1.6052535,0.23894173\H,0,-0.0152772,0.07467962,-1.41774873\H,0,0.6408

 Normal termination of Gaussian 16 at Wed Apr  9 03:05:59 2025.
 Gaussian 16:  ES64L-G16RevC.01  3-Jul-2019

 ----------------------------------------------------------------------
 #t hf aug-cc-pvdz iop(5/13=1,5/36=2,99/5=2) pseudo=read geom=check gue
 ss=(read,tcheck) scf=(maxcycle=1)
 ----------------------------------------------------------------------
 -----
 title
 -----
 Structure from the checkpoint file:  "Grambow2020_b97d3_006571_reverse_mol1.chk"
 Charge =  0 Multiplicity = 1

                         Standard orientation:
 ---------------------------------------------------------------------
 Center     Atomic      Atomic             Coordinates (Angstroms)
 Number     Number       Type             X           Y           Z
 ---------------------------------------------------------------------
      1          6           0       -2.510252   -0.058863    0.539118
      2          8           0       -1.684809    0.057723   -0.616178
      3          6           0        0.244468    1.009283   -0.055766
      4          6           0        1.263647    0.003777   -0.416968
      5          6           0        2.546386    0.042321    0.420107
      6          8           0        0.425917   -1.066784   -0.078631
      7          1           0       -1.930073   -0.366479    1.424670
      8          1           0       -2.987443    0.911316    0.734976
      9          1           0       -3.303152   -0.804527    0.361497
     10          1           0        0.026525    1.130871    1.003942
     11          1           0       -0.180651    1.736835   -0.742026
     12          1           0        1.521162    0.051668   -1.494589
     13          1           0        3.120983   -0.872047    0.215201
     14          1           0        2.297371    0.057362    1.490058
     15          1           0        3.170469    0.915682    0.179421
     16          1           0       -0.929549   -0.667299   -0.533616
 ---------------------------------------------------------------------

 SCF Done:  E(RHF) =  -306.992501154     A.U. after    2 cycles

 The electronic state is 1-A.
 Alpha  occ. eigenvalues --  -20.55723 -20.49781 -11.38111 -11.29868 -11.27901
 Alpha  occ. eigenvalues --  -11.23704  -1.30351  -1.24388  -1.02473  -0.95828
 Alpha  occ. eigenvalues --   -0.90894  -0.80544  -0.70364  -0.69977  -0.63079
 Alpha  occ. eigenvalues --   -0.61510  -0.59563  -0.58985  -0.56350  -0.53120
 Alpha  occ. eigenvalues --   -0.52188  -0.49159  -0.45465  -0.40394  -0.38896
 Alpha virt. eigenvalues --    0.01788   0.03963   0.04414   0.04592   0.05599
 Alpha virt. eigenvalues --    0.06217   0.06525   0.06678   0.07853   0.08373
 Alpha virt. eigenvalues --    0.10379   0.12744   0.12940   0.13432   0.14744

 Mulliken charges:
               1
     1  C    0.763779
     2  O   -0.756989
     3  C    0.670893
     4  C    0.502253
     5  C    0.304953
     6  O   -0.995483
     7  H   -0.134806
     8  H   -0.128231
     9  H   -0.185526
    10  H   -0.163470
    11  H   -0.184877
    12  H   -0.182045
    13  H    0.012215
    14  H   -0.004401
    15  H    0.003464
    16  H    0.478272
 Sum of Mulliken charges =  -0.00000

 Dipole moment (field-independent basis, Debye):
    X=              0.9196    Y=              4.4110    Z=              1.1956  Tot=              4.6617

 Test job not archived.
 1\1\GINC-SE462\SP\RHF\Aug-CC-pVDZ\C4H10O2\OHZDE\09-Apr-2025\0\\#t hf a
 ug-cc-pvdz iop(5/13=1,5/36=2,99/5=2) pseudo=read geom=check guess=(rea
 d,tcheck) scf=(maxcycle=1)\\title\\0,1\C,0,2.38640378,-1.02970238,-0.3
 7898467\O,0,1.85224667,0.05406201,0.3758582\C,0,-0.01294935,0.78188904
 ,-0.59003329\C,0,-1.05123506,0.60276925,0.44443059\C,0,-2.46852871,0.3
 6227458,-0.0857014\O,0,-0.45199238,-0.56185937,0.94133213\H,0,1.593812
 07,-1.71039754,-0.7309639\H,0,2.93132146,-0.62664192,-1.24381234\H,0,3
 .09574288,-1.6052535,0.23894173\H,0,-0.0152772,0.07467962,-1.41774873\

 Normal termination of Gaussian 16 at Wed Apr  9 03:06:03 2025.
