 Gaussian 16, Revision C.01,

 ----------------------------------------------------------------------
 #t hf aug-cc-pvdz symm=none int=(grid=ultrafine) guess=(read,tcheck) s
 table=(opt,rrhf)
 ----------------------------------------------------------------------
 -----
 title
 -----
 Symbolic Z-matrix:
 Charge =  0 Multiplicity = 1

 SCF Done:  E(RHF) =  -317.570189363     A.U. after   20 cycles
 Normal termination of Gaussian 16 at Wed Apr  9 16:11:49 2025.
 Gaussian 16:  ES64L-G16RevC.01  3-Jul-2019

 ----------------------------------------------------------------------
 #t hf aug-cc-pvdz iop(5/13=1,5/36=2,99/5=2) pseudo=read geom=check gue
 ss=(read,tcheck) scf=(maxcycle=1)
 ----------------------------------------------------------------------
 -----
 title
 -----
 Structure from the checkpoint file:  "Grambow2020_wb97xd3_007988_forward_mol1.chk"
 Charge =  0 Multiplicity = 1

                         Standard orientation:
 ---------------------------------------------------------------------
 Center     Atomic      Atomic             Coordinates (Angstroms)
 Number     Number       Type             X           Y           Z
 ---------------------------------------------------------------------
      1          7           0       -1.986171   -0.187664   -0.565483
      2          6           0       -0.724119   -0.016852   -0.013205
      3          7           0        0.154660   -1.083363    0.423128
      4          6           0        1.399531   -0.868721   -0.037414
      5          6           0        1.569484    0.411192   -0.484439
      6          6           0        0.361856    1.103047   -0.159977
      7          7           0       -0.406103    0.710143    1.069314
      8          1           0       -2.706623   -0.221785    0.142259
      9          1           0       -2.041811   -0.980366   -1.186061
     10          1           0        2.157818   -1.624831    0.113329
     11          1           0        2.439109    0.848429   -0.950888
     12          1           0        0.174290    2.132744   -0.437142
 ---------------------------------------------------------------------

 SCF Done:  E(RHF) =  -317.659444764     A.U. after    2 cycles

 The electronic state is 1-A.
 Alpha  occ. eigenvalues --  -15.68310 -15.67838 -15.63479 -11.35817 -11.29492
 Alpha  occ. eigenvalues --  -11.27783 -11.26996  -1.35123  -1.17643  -1.14122
 Alpha  occ. eigenvalues --   -1.03332  -0.85864  -0.81296  -0.76126  -0.72581
 Alpha  occ. eigenvalues --   -0.68587  -0.63007  -0.61004  -0.58390  -0.53299
 Alpha  occ. eigenvalues --   -0.51114  -0.46385  -0.44464  -0.36410  -0.32100
 Alpha virt. eigenvalues --    0.02955   0.03492   0.03854   0.04270   0.05620
 Alpha virt. eigenvalues --    0.06227   0.10134   0.10546   0.11025   0.12527
 Alpha virt. eigenvalues --    0.12954   0.13678   0.14265   0.14744   0.15057

 Mulliken charges:
               1
     1  N   -0.356078
     2  C    0.907087
     3  N   -0.611375
     4  C    0.484525
     5  C    0.502336
     6  C    0.556571
     7  N   -0.725989
     8  H    0.044670
     9  H    0.015241
    10  H   -0.212602
    11  H   -0.286515
    12  H   -0.317869
 Sum of Mulliken charges =  -0.00000

 Dipole moment (field-independent basis, Debye):
    X=              0.5805    Y=             -0.1921    Z=             -2.1872  Tot=              2.2710

 Test job not archived.
 1\1\GINC-SE131\SP\RHF\Aug-CC-pVDZ\C4H5N3\OHZDE\09-Apr-2025\0\\#t hf au
 g-cc-pvdz iop(5/13=1,5/36=2,99/5=2) pseudo=read geom=check guess=(read
 ,tcheck) scf=(maxcycle=1)\\title\\0,1\N,0,2.06666956,0.18337892,0.1334
 442\C,0,0.73577688,0.07917096,-0.24711842\N,0,0.02038162,-1.16039853,-
 0.47462983\C,0,-1.17526801,-1.11872879,0.13901516\C,0,-1.52026313,0.15
 063947,0.50857641\C,0,-0.51046241,1.00448176,-0.03323543\N,0,0.1568956
 ,0.63017265,-1.32545008\H,0,2.68695624,0.20402727,-0.66400829\H,0,2.34
 408857,-0.52275443,0.79752563\H,0,-1.79452628,-2.00514862,0.15331288\H

 Normal termination of Gaussian 16 at Wed Apr  9 16:11:53 2025.
