 Gaussian 16, Revision C.01,

 ----------------------------------------------------------------------
 #t hf aug-cc-pvdz symm=none int=(grid=ultrafine) guess=(read,tcheck) s
 table=(opt,rrhf)
 ----------------------------------------------------------------------
 -----
 title
 -----
 Symbolic Z-matrix:
 Charge =  0 Multiplicity = 1

 SCF Done:  E(RHF) =  -322.454629466     A.U. after   16 cycles
 Normal termination of Gaussian 16 at Wed Apr  9 14:29:42 2025.
 Gaussian 16:  ES64L-G16RevC.01  3-Jul-2019

 ----------------------------------------------------------------------
 #t hf aug-cc-pvdz iop(5/13=1,5/36=2,99/5=2) pseudo=read geom=check gue
 ss=(read,tcheck) scf=(maxcycle=1)
 ----------------------------------------------------------------------
 -----
 title
 -----
 Structure from the checkpoint file:  "Grambow2020_wb97xd3_006562_reverse_mol1.chk"
 Charge =  0 Multiplicity = 1

                         Standard orientation:
 ---------------------------------------------------------------------
 Center     Atomic      Atomic             Coordinates (Angstroms)
 Number     Number       Type             X           Y           Z
 ---------------------------------------------------------------------
      1          8           0        2.460076    0.395976   -0.136187
      2          6           0        0.909301   -0.814995    0.074152
      3          6           0       -0.118637   -0.167976    0.945942
      4          6           0       -0.481553    0.921321   -0.100141
      5          6           0       -1.927014    0.476620   -0.040227
      6          7           0       -1.219736   -0.856330    0.097716
      7          6           0       -0.130977   -0.362510   -0.896450
      8          1           0        2.634849    0.706638    0.758632
      9          1           0        2.206260   -0.722699    0.002817
     10          1           0       -0.200043   -0.121596    2.029842
     11          1           0       -0.020682    1.900644   -0.213775
     12          1           0       -2.517046    0.742299    0.839585
     13          1           0       -2.529925    0.551457   -0.947499
     14          1           0       -0.222590   -0.545007   -1.963778
 ---------------------------------------------------------------------

 SCF Done:  E(RHF) =  -322.545461589     A.U. after    2 cycles

 The electronic state is 1-A.
 Alpha  occ. eigenvalues --  -20.56705 -15.65746 -11.29986 -11.29906 -11.29622
 Alpha  occ. eigenvalues --  -11.28136 -11.27640  -1.33218  -1.28237  -1.04090
 Alpha  occ. eigenvalues --   -0.93740  -0.90562  -0.83124  -0.73099  -0.71712
 Alpha  occ. eigenvalues --   -0.66492  -0.63873  -0.61364  -0.57251  -0.53303
 Alpha  occ. eigenvalues --   -0.50495  -0.48720  -0.48444  -0.46782  -0.39352
 Alpha  occ. eigenvalues --   -0.36750
 Alpha virt. eigenvalues --    0.02883   0.03664   0.04282   0.04772   0.06404
 Alpha virt. eigenvalues --    0.06778   0.07521   0.08454   0.10591   0.11760
 Alpha virt. eigenvalues --    0.12148   0.12816   0.13403   0.13568   0.14231

 Mulliken charges:
               1
     1  O   -0.633932
     2  C   -0.405514
     3  C    0.901598
     4  C    0.092438
     5  C    1.094194
     6  N   -1.065348
     7  C    0.962409
     8  H    0.168902
     9  H    0.341912
    10  H   -0.343018
    11  H   -0.326935
    12  H   -0.224676
    13  H   -0.222199
    14  H   -0.339830
 Sum of Mulliken charges =  -0.00000

 Dipole moment (field-independent basis, Debye):
    X=             -1.5407    Y=              1.9186    Z=              1.2323  Tot=              2.7519

 Test job not archived.
 1\1\GINC-SE113\SP\RHF\Aug-CC-pVDZ\C5H7N1O1\OHZDE\09-Apr-2025\0\\#t hf
 aug-cc-pvdz iop(5/13=1,5/36=2,99/5=2) pseudo=read geom=check guess=(re
 ad,tcheck) scf=(maxcycle=1)\\title\\0,1\O,0,2.53421675,0.14415358,0.35
 969065\C,0,0.97377973,0.6163676,-0.7617583\C,0,0.01930676,-0.53362685,
 -0.80420135\C,0,-0.38642289,-0.39623232,0.68880547\C,0,-1.83448994,-0.
 26610578,0.26824018\N,0,-1.14962228,0.48454651,-0.85581668\C,0,-0.1169
 9968,1.03880064,0.16600134\H,0,2.77361595,-0.7405182,0.06337686\H,0,2.
 26510197,0.70068872,-0.61653805\H,0,0.00952411,-1.42292599,-1.43083559

 Normal termination of Gaussian 16 at Wed Apr  9 14:29:47 2025.
