 Gaussian 16, Revision C.01,

 ----------------------------------------------------------------------
 #t hf aug-cc-pvdz symm=none int=(grid=ultrafine) guess=(read,tcheck) s
 table=(opt,rrhf)
 ----------------------------------------------------------------------
 -----
 title
 -----
 Symbolic Z-matrix:
 Charge =  0 Multiplicity = 1

 SCF Done:  E(RHF) =  -306.692008503     A.U. after   14 cycles
 Normal termination of Gaussian 16 at Wed Apr  9 16:28:05 2025.
 Gaussian 16:  ES64L-G16RevC.01  3-Jul-2019

 ----------------------------------------------------------------------
 #t hf aug-cc-pvdz iop(5/13=1,5/36=2,99/5=2) pseudo=read geom=check gue
 ss=(read,tcheck) scf=(maxcycle=1)
 ----------------------------------------------------------------------
 -----
 title
 -----
 Structure from the checkpoint file:  "Grambow2020_wb97xd3_008443_reverse_mol2.chk"
 Charge =  0 Multiplicity = 1

                         Standard orientation:
 ---------------------------------------------------------------------
 Center     Atomic      Atomic             Coordinates (Angstroms)
 Number     Number       Type             X           Y           Z
 ---------------------------------------------------------------------
      1          6           0       -1.746727   -0.841860   -0.487029
      2          6           0       -1.223587    0.397421    0.183995
      3          6           0       -0.004396    0.414185    1.045953
      4          8           0        0.901707   -0.663929    0.948114
      5          6           0        1.442409   -0.618999   -0.301335
      6          6           0        1.018432    0.394643   -1.049446
      7          6           0        0.011500    1.159686   -0.272821
      8          1           0       -2.297115   -1.460439    0.224494
      9          1           0       -2.423307   -0.579990   -1.302924
     10          1           0       -1.995318    1.056721    0.567607
     11          1           0       -0.003374    0.868555    2.027312
     12          1           0       -0.942801   -1.448647   -0.902317
     13          1           0        2.141001   -1.412464   -0.522915
     14          1           0        1.350435    0.618202   -2.050540
     15          1           0       -0.028975    2.239041   -0.341538
 ---------------------------------------------------------------------

 SCF Done:  E(RHF) =  -306.788087478     A.U. after    2 cycles

 The electronic state is 1-A.
 Alpha  occ. eigenvalues --  -20.59779 -11.29590 -11.29370 -11.24584 -11.24286
 Alpha  occ. eigenvalues --  -11.22883 -11.22269  -1.38419  -1.14019  -1.03229
 Alpha  occ. eigenvalues --   -0.96561  -0.84390  -0.80763  -0.73844  -0.72917
 Alpha  occ. eigenvalues --   -0.66697  -0.61138  -0.59307  -0.56767  -0.56600
 Alpha  occ. eigenvalues --   -0.55708  -0.54242  -0.49303  -0.44671  -0.40345
 Alpha  occ. eigenvalues --   -0.32419
 Alpha virt. eigenvalues --    0.03320   0.04202   0.04500   0.04733   0.06014
 Alpha virt. eigenvalues --    0.06314   0.06880   0.08012   0.10480   0.11792
 Alpha virt. eigenvalues --    0.12458   0.12911   0.13540   0.14103   0.14875

 Mulliken charges:
               1
     1  C    0.340546
     2  C   -0.102664
     3  C    0.917431
     4  O   -0.683212
     5  C    0.557119
     6  C    0.460429
     7  C    0.369031
     8  H   -0.001758
     9  H   -0.012913
    10  H   -0.370709
    11  H   -0.409584
    12  H   -0.039149
    13  H   -0.327543
    14  H   -0.307030
    15  H   -0.389993
 Sum of Mulliken charges =  -0.00000

 Dipole moment (field-independent basis, Debye):
    X=             -0.5908    Y=              0.9125    Z=             -0.7637  Tot=              1.3285

 Test job not archived.
 1\1\GINC-SE168\SP\RHF\Aug-CC-pVDZ\C6H8O1\OHZDE\09-Apr-2025\0\\#t hf au
 g-cc-pvdz iop(5/13=1,5/36=2,99/5=2) pseudo=read geom=check guess=(read
 ,tcheck) scf=(maxcycle=1)\\title\\0,1\C,0,0.90799748,1.28159506,0.8015
 3711\C,0,1.1046092,0.03682359,-0.01800812\C,0,0.33138974,-1.22201015,0
 .19913253\O,0,-0.86913401,-1.15325539,0.93868754\C,0,-1.74597418,-0.40
 93763,0.20841637\C,0,-1.27368809,0.00803784,-0.96188555\C,0,0.13406418
 ,-0.44485286,-1.08627736\H,0,1.41400256,1.19101324,1.76464919\H,0,1.31
 802181,2.15084843,0.28355989\H,0,2.13791932,-0.1669274,-0.27908285\H,0

 Normal termination of Gaussian 16 at Wed Apr  9 16:28:10 2025.
