 Gaussian 16, Revision C.01,

 ----------------------------------------------------------------------
 #t hf aug-cc-pvdz symm=none int=(grid=ultrafine) guess=(read,tcheck) s
 table=(opt,rrhf)
 ----------------------------------------------------------------------
 -----
 title
 -----
 Symbolic Z-matrix:
 Charge =  0 Multiplicity = 1

 SCF Done:  E(RHF) =  -344.725496489     A.U. after   15 cycles

 1\1\GINC-SE087\Stability\RHF\Aug-CC-pVDZ\C5H10O2\OHZDE\09-Apr-2025\0\\
 #t hf aug-cc-pvdz symm=none int=(grid=ultrafine) guess=(read,tcheck) s
 table=(opt,rrhf)\\title\\0,1\C,0,-1.14419513,-1.34832839,0.39287971\C,
 0,-0.54128969,-0.12973494,-0.25583135\C,0,0.83934701,-0.29080527,-0.81
 114944\C,0,2.02559924,0.21486529,0.97909503\O,0,2.05223548,1.54354651,
 0.85211301\C,0,-1.43341366,0.90159044,-0.79623001\O,0,-0.77857701,1.09
 854649,0.45004554\H,0,-1.30253489,-2.1329011,-0.34966089\H,0,-0.481776
 71,-1.74323887,1.16561946\H,0,-2.10135621,-1.10300485,0.85199299\H,0,1

 Normal termination of Gaussian 16 at Wed Apr  9 15:55:16 2025.
 Gaussian 16:  ES64L-G16RevC.01  3-Jul-2019

 ----------------------------------------------------------------------
 #t hf aug-cc-pvdz iop(5/13=1,5/36=2,99/5=2) pseudo=read geom=check gue
 ss=(read,tcheck) scf=(maxcycle=1)
 ----------------------------------------------------------------------
 -----
 title
 -----
 Structure from the checkpoint file:  "Grambow2020_wb97xd3_007586_forward_mol1.chk"
 Charge =  0 Multiplicity = 1

                         Standard orientation:
 ---------------------------------------------------------------------
 Center     Atomic      Atomic             Coordinates (Angstroms)
 Number     Number       Type             X           Y           Z
 ---------------------------------------------------------------------
      1          6           0       -1.615530    1.184399   -0.571792
      2          6           0       -0.844765    0.126955    0.174548
      3          6           0        0.208589    0.618205    1.117732
      4          6           0        1.925187    0.733735   -0.263505
      5          8           0        2.347234   -0.530631   -0.189464
      6          6           0       -1.463090   -1.186367    0.385284
      7          8           0       -0.473643   -1.010572   -0.620150
      8          1           0       -2.211369    1.779444    0.123110
      9          1           0       -0.937257    1.858624   -1.098333
     10          1           0       -2.282687    0.727412   -1.301992
     11          1           0        0.581256   -0.159061    1.783036
     12          1           0       -0.145590    1.479793    1.687790
     13          1           0        1.381593    1.178300    0.755494
     14          1           0        1.236486    0.896365   -1.102281
     15          1           0        1.750564   -1.122937   -0.667299
     16          1           0       -2.466037   -1.375606    0.011454
     17          1           0       -1.158034   -1.794271    1.232334
 ---------------------------------------------------------------------

 SCF Done:  E(RHF) =  -344.835058380     A.U. after    2 cycles

 The electronic state is 1-A.
 Alpha  occ. eigenvalues --  -20.59581 -20.59459 -11.31896 -11.30293 -11.29801
 Alpha  occ. eigenvalues --  -11.25803 -11.24424  -1.39365  -1.36120  -1.05198
 Alpha  occ. eigenvalues --   -0.96833  -0.92371  -0.87512  -0.79531  -0.73279
 Alpha  occ. eigenvalues --   -0.70548  -0.67359  -0.63793  -0.61732  -0.59589
 Alpha  occ. eigenvalues --   -0.57716  -0.56064  -0.54034  -0.52907  -0.49444
 Alpha  occ. eigenvalues --   -0.47316  -0.45936  -0.30922
 Alpha virt. eigenvalues --    0.03037   0.04174   0.04397   0.05057   0.06149
 Alpha virt. eigenvalues --    0.06621   0.06776   0.07569   0.07976   0.09317
 Alpha virt. eigenvalues --    0.10791   0.12165   0.12574   0.13975   0.14101

 Mulliken charges:
               1
     1  C    0.488751
     2  C   -0.440826
     3  C    0.321510
     4  C    0.273724
     5  O   -0.423338
     6  C    1.188774
     7  O   -0.818745
     8  H    0.054155
     9  H   -0.022529
    10  H   -0.046512
    11  H   -0.132456
    12  H   -0.205124
    13  H    0.182332
    14  H   -0.077552
    15  H    0.213574
    16  H   -0.285203
    17  H   -0.270535
 Sum of Mulliken charges =  -0.00000

 Dipole moment (field-independent basis, Debye):
    X=             -4.0745    Y=              0.0546    Z=              0.8773  Tot=              4.1683

 Test job not archived.
 1\1\GINC-SE087\SP\RHF\Aug-CC-pVDZ\C5H10O2\OHZDE\09-Apr-2025\0\\#t hf a
 ug-cc-pvdz iop(5/13=1,5/36=2,99/5=2) pseudo=read geom=check guess=(rea
 d,tcheck) scf=(maxcycle=1)\\title\\0,1\C,0,-1.14419513,-1.34832839,0.3
 9287971\C,0,-0.54128969,-0.12973494,-0.25583135\C,0,0.83934701,-0.2908
 0527,-0.81114944\C,0,2.02559924,0.21486529,0.97909503\O,0,2.05223548,1
 .54354651,0.85211301\C,0,-1.43341366,0.90159044,-0.79623001\O,0,-0.778
 57701,1.09854649,0.45004554\H,0,-1.30253489,-2.1329011,-0.34966089\H,0
 ,-0.48177671,-1.74323887,1.16561946\H,0,-2.10135621,-1.10300485,0.8519

 Normal termination of Gaussian 16 at Wed Apr  9 15:55:22 2025.
