 Gaussian 16, Revision C.01,

 ----------------------------------------------------------------------
 #t hf aug-cc-pvdz symm=none int=(grid=ultrafine) guess=(read,tcheck) s
 table=(opt,rrhf)
 ----------------------------------------------------------------------
 -----
 title
 -----
 Symbolic Z-matrix:
 Charge =  0 Multiplicity = 1

 SCF Done:  E(RHF) =  -302.809452915     A.U. after   14 cycles
 Normal termination of Gaussian 16 at Wed Apr  9 03:59:46 2025.
 Gaussian 16:  ES64L-G16RevC.01  3-Jul-2019

 ----------------------------------------------------------------------
 #t hf aug-cc-pvdz iop(5/13=1,5/36=2,99/5=2) pseudo=read geom=check gue
 ss=(read,tcheck) scf=(maxcycle=1)
 ----------------------------------------------------------------------
 -----
 title
 -----
 Structure from the checkpoint file:  "Grambow2020_wb97xd3_008840_reverse_mol2.chk"
 Charge =  0 Multiplicity = 1

                         Standard orientation:
 ---------------------------------------------------------------------
 Center     Atomic      Atomic             Coordinates (Angstroms)
 Number     Number       Type             X           Y           Z
 ---------------------------------------------------------------------
      1          6           0        0.424023    1.580938   -0.136908
      2          6           0        0.516549    0.083937    0.003180
      3          6           0       -0.778043   -0.656890    0.158093
      4          6           0       -2.026502   -0.016672    0.500241
      5          7           0       -1.958325   -0.273983   -0.718229
      6          6           0        1.643799   -0.628247   -0.636275
      7          7           0        1.586708   -0.491312    0.818692
      8          1           0       -0.184609    1.854956   -1.000115
      9          1           0       -0.030343    2.029365    0.751244
     10          1           0        1.415228    2.018355   -0.268587
     11          1           0       -0.651646   -1.720083    0.347436
     12          1           0       -2.718396    0.437913    1.196412
     13          1           0        2.365863   -0.036658   -1.188975
     14          1           0        1.506215   -1.638095   -1.006213
     15          1           0        2.220060    0.232911    1.135570
 ---------------------------------------------------------------------

 SCF Done:  E(RHF) =  -302.896717657     A.U. after    2 cycles

 The electronic state is 1-A.
 Alpha  occ. eigenvalues --  -15.65298 -15.62235 -11.30367 -11.28473 -11.27741
 Alpha  occ. eigenvalues --  -11.26340 -11.23808  -1.29387  -1.24457  -0.99740
 Alpha  occ. eigenvalues --   -0.91275  -0.87276  -0.79757  -0.76040  -0.68602
 Alpha  occ. eigenvalues --   -0.66310  -0.64113  -0.58834  -0.55766  -0.54357
 Alpha  occ. eigenvalues --   -0.53230  -0.48519  -0.47204  -0.42685  -0.40142
 Alpha  occ. eigenvalues --   -0.37060
 Alpha virt. eigenvalues --    0.03116   0.03511   0.04404   0.05013   0.05960
 Alpha virt. eigenvalues --    0.06658   0.07701   0.08401   0.09951   0.10254
 Alpha virt. eigenvalues --    0.11081   0.12970   0.13979   0.14130   0.14520

 Mulliken charges:
               1
     1  C    0.556788
     2  C   -0.555694
     3  C    0.774831
     4  C    0.528814
     5  N   -0.617809
     6  C    1.069988
     7  N   -0.661455
     8  H    0.075072
     9  H    0.114001
    10  H   -0.155385
    11  H   -0.301248
    12  H   -0.220852
    13  H   -0.270663
    14  H   -0.332103
    15  H   -0.004284
 Sum of Mulliken charges =   0.00000

 Dipole moment (field-independent basis, Debye):
    X=              0.6273    Y=              1.7500    Z=              1.0261  Tot=              2.1234

 Test job not archived.
 1\1\GINC-SE344\SP\RHF\Aug-CC-pVDZ\C5H8N2\OHZDE\09-Apr-2025\0\\#t hf au
 g-cc-pvdz iop(5/13=1,5/36=2,99/5=2) pseudo=read geom=check guess=(read
 ,tcheck) scf=(maxcycle=1)\\title\\0,1\C,0,-0.72152748,1.23872876,0.217
 19811\C,0,-0.1901834,-0.16039746,0.04597902\C,0,1.2720921,-0.29015901,
 -0.26013088\C,0,2.0927989,0.80983482,-0.70962802\N,0,2.26600882,0.5695
 3423,0.50189101\C,0,-0.84051475,-1.26933456,0.77681948\N,0,-0.99766888
 ,-1.14709662,-0.6720761\H,0,-0.19848135,1.75882942,1.02128862\H,0,-0.5
 9267461,1.82080228,-0.69982819\H,0,-1.78519972,1.22059729,0.46098546\H

 Normal termination of Gaussian 16 at Wed Apr  9 03:59:51 2025.
