 Gaussian 16, Revision C.01,

 ----------------------------------------------------------------------
 #t hf aug-cc-pvdz symm=none int=(grid=ultrafine) guess=(read,tcheck) s
 table=(opt,rrhf)
 ----------------------------------------------------------------------
 -----
 title
 -----
 Symbolic Z-matrix:
 Charge =  0 Multiplicity = 1

 SCF Done:  E(RHF) =  -317.561418745     A.U. after   20 cycles
 Normal termination of Gaussian 16 at Wed Apr  9 16:49:58 2025.
 Gaussian 16:  ES64L-G16RevC.01  3-Jul-2019

 ----------------------------------------------------------------------
 #t hf aug-cc-pvdz iop(5/13=1,5/36=2,99/5=2) pseudo=read geom=check gue
 ss=(read,tcheck) scf=(maxcycle=1)
 ----------------------------------------------------------------------
 -----
 title
 -----
 Structure from the checkpoint file:  "Grambow2020_wb97xd3_008971_reverse_mol2.chk"
 Charge =  0 Multiplicity = 1

                         Standard orientation:
 ---------------------------------------------------------------------
 Center     Atomic      Atomic             Coordinates (Angstroms)
 Number     Number       Type             X           Y           Z
 ---------------------------------------------------------------------
      1          7           0        2.301379   -0.296041   -0.004432
      2          6           0        1.040861   -0.167558   -0.004046
      3          6           0       -0.073507   -1.189714    0.002226
      4          7           0       -1.361683   -0.996104    0.005302
      5          6           0       -1.884946    0.210210    0.001571
      6          7           0       -0.970017    1.225325   -0.005419
      7          6           0        0.196916    0.953707   -0.007702
      8          1           0        2.486867    2.019472    0.030560
      9          1           0        2.606748   -1.260775    0.002303
     10          1           0        0.299041   -2.209033    0.008937
     11          1           0       -2.939462    0.422168    0.004985
     12          1           0        2.083106    2.656033    0.032759
 ---------------------------------------------------------------------

 SCF Done:  E(RHF) =  -317.656284193     A.U. after    2 cycles

 The electronic state is 1-A.
 Alpha  occ. eigenvalues --  -15.72778 -15.67606 -15.60144 -11.38959 -11.36446
 Alpha  occ. eigenvalues --  -11.34095 -11.31877  -1.36044  -1.21896  -1.20066
 Alpha  occ. eigenvalues --   -1.04596  -0.92671  -0.88015  -0.75029  -0.73503
 Alpha  occ. eigenvalues --   -0.68176  -0.65121  -0.61114  -0.58500  -0.56040
 Alpha  occ. eigenvalues --   -0.49563  -0.48539  -0.47075  -0.42226  -0.29064
 Alpha virt. eigenvalues --    0.02041   0.03466   0.03670   0.05459   0.06391
 Alpha virt. eigenvalues --    0.07070   0.07539   0.08522   0.09899   0.10711
 Alpha virt. eigenvalues --    0.11093   0.11943   0.13871   0.13990   0.14121

 Mulliken charges:
               1
     1  N   -0.382845
     2  C    0.636956
     3  C    0.592836
     4  N   -0.427338
     5  C    0.750819
     6  N   -0.221887
     7  C   -0.458385
     8  H    0.030503
     9  H   -0.019430
    10  H   -0.339470
    11  H   -0.237236
    12  H    0.075477
 Sum of Mulliken charges =  -0.00000

 Dipole moment (field-independent basis, Debye):
    X=             -1.5288    Y=             -0.0796    Z=              0.0112  Tot=              1.5309

 Test job not archived.
 1\1\GINC-SE042\SP\RHF\Aug-CC-pVDZ\C4H5N3\OHZDE\09-Apr-2025\0\\#t hf au
 g-cc-pvdz iop(5/13=1,5/36=2,99/5=2) pseudo=read geom=check guess=(read
 ,tcheck) scf=(maxcycle=1)\\title\\0,1\N,0,-2.01495892,0.22418492,0.017
 11438\C,0,-0.74870596,0.19391245,0.05029144\C,0,0.27262096,1.24853713,
 0.41266829\N,0,1.57194433,1.15739675,0.43117732\C,0,2.19712123,0.04640
 991,0.10888587\N,0,1.37380644,-0.98667693,-0.24109761\C,0,0.18846214,-
 0.8124897,-0.22964484\H,0,-2.00112791,-2.00784481,-0.62715629\H,0,-2.4
 0242898,1.11987676,0.28471538\H,0,-0.18645034,2.19136928,0.6922584\H,0

 Normal termination of Gaussian 16 at Wed Apr  9 16:50:02 2025.
