 Gaussian 16, Revision C.01,

 ----------------------------------------------------------------------
 #t hf aug-cc-pvdz symm=none int=(grid=ultrafine) guess=(read,tcheck) s
 table=(opt,rrhf)
 ----------------------------------------------------------------------
 -----
 title
 -----
 Symbolic Z-matrix:
 Charge =  0 Multiplicity = 1

 SCF Done:  E(RHF) =  -270.029851618     A.U. after   13 cycles

 1\1\GINC-SE073\Stability\RHF\Aug-CC-pVDZ\C5H10O1\OHZDE\09-Apr-2025\0\\
 #t hf aug-cc-pvdz symm=none int=(grid=ultrafine) guess=(read,tcheck) s
 table=(opt,rrhf)\\title\\0,1\C,0,-2.28225478,-0.77014376,0.4001101\C,0
 ,-2.00496267,-0.28169615,-0.8161545\O,0,0.94596505,1.56309866,-1.22553
 564\C,0,1.18524219,0.7481946,-0.34565546\C,0,1.68431417,-0.65602093,-0
 .65469973\C,0,0.97398976,1.06246743,1.12865632\H,0,-2.42552942,-1.8382
 0545,0.57292461\H,0,-1.85443495,0.78370625,-0.99036118\H,0,-2.38941924
 ,-0.11787679,1.26858513\H,0,-1.90208113,-0.93343999,-1.68538018\H,0,1.

 Normal termination of Gaussian 16 at Wed Apr  9 03:16:06 2025.
 Gaussian 16:  ES64L-G16RevC.01  3-Jul-2019

 ----------------------------------------------------------------------
 #t hf aug-cc-pvdz iop(5/13=1,5/36=2,99/5=2) pseudo=read geom=check gue
 ss=(read,tcheck) scf=(maxcycle=1)
 ----------------------------------------------------------------------
 -----
 title
 -----
 Structure from the checkpoint file:  "Grambow2020_b97d3_007067_reverse_mol2.chk"
 Charge =  0 Multiplicity = 1

                         Standard orientation:
 ---------------------------------------------------------------------
 Center     Atomic      Atomic             Coordinates (Angstroms)
 Number     Number       Type             X           Y           Z
 ---------------------------------------------------------------------
      1          6           0       -2.601864    0.398115    0.317893
      2          6           0       -2.119635   -0.580946   -0.459066
      3          8           0        1.294858   -0.539806   -1.245441
      4          6           0        1.205160   -0.032195   -0.136479
      5          6           0        1.218608   -0.862475    1.139004
      6          6           0        1.041976    1.468848    0.056480
      7          1           0       -3.102930    0.188240    1.264484
      8          1           0       -1.612570   -0.373902   -1.401460
      9          1           0       -2.525122    1.448107    0.030122
     10          1           0       -2.200195   -1.631104   -0.173432
     11          1           0        1.403487   -1.916018    0.903898
     12          1           0        1.981684   -0.494658    1.841231
     13          1           0        0.243328   -0.766294    1.639630
     14          1           0        0.095610    1.668886    0.580812
     15          1           0        1.040337    1.977712   -0.913441
     16          1           0        1.852032    1.869396    0.684686
 ---------------------------------------------------------------------

 SCF Done:  E(RHF) =  -270.117529859     A.U. after    2 cycles

 The electronic state is 1-A.
 Alpha  occ. eigenvalues --  -20.55930 -11.34607 -11.24846 -11.24680 -11.24579
 Alpha  occ. eigenvalues --  -11.24528  -1.34199  -1.03169  -1.02707  -0.95770
 Alpha  occ. eigenvalues --   -0.79449  -0.74339  -0.64744  -0.64661  -0.64080
 Alpha  occ. eigenvalues --   -0.62229  -0.59311  -0.56340  -0.55646  -0.53683
 Alpha  occ. eigenvalues --   -0.51245  -0.49525  -0.42491  -0.38263
 Alpha virt. eigenvalues --    0.03140   0.04364   0.04511   0.05156   0.06125
 Alpha virt. eigenvalues --    0.06818   0.07044   0.07088   0.08156   0.09453
 Alpha virt. eigenvalues --    0.10247   0.11748   0.13057   0.13845   0.14445

 Mulliken charges:
               1
     1  C    0.509932
     2  C    0.619233
     3  O   -0.566990
     4  C   -0.149519
     5  C    0.367524
     6  C    0.427442
     7  H   -0.257091
     8  H   -0.282711
     9  H   -0.304532
    10  H   -0.296067
    11  H   -0.083335
    12  H    0.025104
    13  H    0.033032
    14  H    0.031948
    15  H   -0.111165
    16  H    0.037195
 Sum of Mulliken charges =  -0.00000

 Dipole moment (field-independent basis, Debye):
    X=             -0.3911    Y=              1.3995    Z=              3.1986  Tot=              3.5132

 Test job not archived.
 1\1\GINC-SE073\SP\RHF\Aug-CC-pVDZ\C5H10O1\OHZDE\09-Apr-2025\0\\#t hf a
 ug-cc-pvdz iop(5/13=1,5/36=2,99/5=2) pseudo=read geom=check guess=(rea
 d,tcheck) scf=(maxcycle=1)\\title\\0,1\C,0,-2.28225478,-0.77014376,0.4
 001101\C,0,-2.00496267,-0.28169615,-0.8161545\O,0,0.94596505,1.5630986
 6,-1.22553564\C,0,1.18524219,0.7481946,-0.34565546\C,0,1.68431417,-0.6
 5602093,-0.65469973\C,0,0.97398976,1.06246743,1.12865632\H,0,-2.425529
 42,-1.83820545,0.57292461\H,0,-1.85443495,0.78370625,-0.99036118\H,0,-
 2.38941924,-0.11787679,1.26858513\H,0,-1.90208113,-0.93343999,-1.68538

 Normal termination of Gaussian 16 at Wed Apr  9 03:16:11 2025.
