 Gaussian 16, Revision C.01,

 ----------------------------------------------------------------------
 #t hf aug-cc-pvdz symm=none int=(grid=ultrafine) guess=(read,tcheck) s
 table=(opt,rrhf)
 ----------------------------------------------------------------------
 -----
 title
 -----
 Symbolic Z-matrix:
 Charge =  0 Multiplicity = 1

 SCF Done:  E(RHF) =  -245.684102642     A.U. after   15 cycles
 Normal termination of Gaussian 16 at Wed Apr  9 03:20:50 2025.
 Gaussian 16:  ES64L-G16RevC.01  3-Jul-2019

 ----------------------------------------------------------------------
 #t hf aug-cc-pvdz iop(5/13=1,5/36=2,99/5=2) pseudo=read geom=check gue
 ss=(read,tcheck) scf=(maxcycle=1)
 ----------------------------------------------------------------------
 -----
 title
 -----
 Structure from the checkpoint file:  "Grambow2020_wb97xd3_006119_reverse_mol1.chk"
 Charge =  0 Multiplicity = 1

                         Standard orientation:
 ---------------------------------------------------------------------
 Center     Atomic      Atomic             Coordinates (Angstroms)
 Number     Number       Type             X           Y           Z
 ---------------------------------------------------------------------
      1          6           0       -0.849133   -1.213197    0.071584
      2          6           0        1.305634   -0.531377   -0.096504
      3          7           0        0.901725    0.807267    0.110016
      4          6           0       -0.328420    1.051238    0.063124
      5          8           0       -1.233848    0.075894   -0.206664
      6          1           0        0.398735   -1.304707   -0.454850
      7          1           0       -0.586433   -1.234438    1.148547
      8          1           0        1.770632   -0.982896    0.776657
      9          1           0        1.961200   -0.619847   -0.966821
     10          1           0       -0.753906    2.043883    0.150442
 ---------------------------------------------------------------------

 SCF Done:  E(RHF) =  -245.760365114     A.U. after    2 cycles

 The electronic state is 1-A.
 Alpha  occ. eigenvalues --  -20.63390 -15.64552 -11.37228 -11.32115 -11.31755
 Alpha  occ. eigenvalues --   -1.42652  -1.22411  -1.02465  -0.90508  -0.81474
 Alpha  occ. eigenvalues --   -0.73870  -0.70815  -0.64576  -0.62481  -0.59003
 Alpha  occ. eigenvalues --   -0.54685  -0.46299  -0.42335  -0.36025
 Alpha virt. eigenvalues --    0.03396   0.03989   0.04498   0.05836   0.07840
 Alpha virt. eigenvalues --    0.09668   0.09946   0.10501   0.10564   0.12609
 Alpha virt. eigenvalues --    0.14191   0.15255   0.15699   0.15914   0.17253

 Mulliken charges:
               1
     1  C    0.012513
     2  C    0.596929
     3  N   -0.403283
     4  C    0.657535
     5  O   -0.508877
     6  H    0.144263
     7  H    0.016080
     8  H   -0.146055
     9  H   -0.149145
    10  H   -0.219960
 Sum of Mulliken charges =  -0.00000

 Dipole moment (field-independent basis, Debye):
    X=              1.4544    Y=              0.7306    Z=              0.8954  Tot=              1.8576

 Test job not archived.
 1\1\GINC-SE220\SP\RHF\Aug-CC-pVDZ\C3H5N1O1\OHZDE\09-Apr-2025\0\\#t hf
 aug-cc-pvdz iop(5/13=1,5/36=2,99/5=2) pseudo=read geom=check guess=(re
 ad,tcheck) scf=(maxcycle=1)\\title\\0,1\C,0,-0.5968899,-1.35761916,-0.
 18863138\C,0,-0.62840989,0.82042478,0.4368944\N,0,0.71461657,0.9630763
 6,0.02012948\C,0,1.34645499,-0.08567432,-0.25533109\O,0,0.77472271,-1.
 31075041,-0.12807782\H,0,-0.9966568,-0.35238973,0.63135727\H,0,-0.8812
 2554,-0.91173128,-1.16313109\H,0,-1.34485522,1.25957483,-0.25329181\H,
 0,-0.77692025,1.2168451,1.44478444\H,0,2.39396433,-0.10816117,-0.53142

 Normal termination of Gaussian 16 at Wed Apr  9 03:20:53 2025.
