 Gaussian 16, Revision C.01,

 ----------------------------------------------------------------------
 #t hf aug-cc-pvdz symm=none int=(grid=ultrafine) guess=(read,tcheck) s
 table=(opt,rrhf)
 ----------------------------------------------------------------------
 -----
 title
 -----
 Symbolic Z-matrix:
 Charge =  0 Multiplicity = 1

 SCF Done:  E(RHF) =  -284.730195572     A.U. after   15 cycles
 Normal termination of Gaussian 16 at Wed Apr  9 03:05:26 2025.
 Gaussian 16:  ES64L-G16RevC.01  3-Jul-2019

 ----------------------------------------------------------------------
 #t hf aug-cc-pvdz iop(5/13=1,5/36=2,99/5=2) pseudo=read geom=check gue
 ss=(read,tcheck) scf=(maxcycle=1)
 ----------------------------------------------------------------------
 -----
 title
 -----
 Structure from the checkpoint file:  "Grambow2020_b97d3_006541_forward_mol1.chk"
 Charge =  0 Multiplicity = 1

                         Standard orientation:
 ---------------------------------------------------------------------
 Center     Atomic      Atomic             Coordinates (Angstroms)
 Number     Number       Type             X           Y           Z
 ---------------------------------------------------------------------
      1          6           0        1.311795    0.204751    0.340455
      2          6           0        1.369703   -0.878178   -0.600384
      3          8           0       -0.811967   -1.175509    0.594348
      4          6           0       -1.410703   -0.302640   -0.152868
      5          7           0       -1.013554    0.928210   -0.405782
      6          6           0        0.269574    1.323643    0.119771
      7          1           0        0.790410   -0.407406    1.157533
      8          1           0        2.292550    0.532282    0.714591
      9          1           0        0.617210   -1.029995   -1.368406
     10          1           0        2.181806   -1.605012   -0.547757
     11          1           0       -2.362500   -0.592510   -0.634992
     12          1           0        0.120741    1.849653    1.081587
     13          1           0        0.708179    2.074140   -0.558706
 ---------------------------------------------------------------------

 SCF Done:  E(RHF) =  -284.815581215     A.U. after    2 cycles

 The electronic state is 1-A.
 Alpha  occ. eigenvalues --  -20.49491 -15.56031 -11.41812 -11.29880 -11.28409
 Alpha  occ. eigenvalues --  -11.26712  -1.27212  -1.14102  -1.09454  -0.94930
 Alpha  occ. eigenvalues --   -0.85188  -0.73989  -0.72808  -0.66046  -0.62607
 Alpha  occ. eigenvalues --   -0.60779  -0.57717  -0.55482  -0.52687  -0.48770
 Alpha  occ. eigenvalues --   -0.40240  -0.36709  -0.31942
 Alpha virt. eigenvalues --   -0.01815   0.01696   0.03472   0.04602   0.05534
 Alpha virt. eigenvalues --    0.06288   0.07066   0.07471   0.10887   0.11021
 Alpha virt. eigenvalues --    0.12621   0.12887   0.13298   0.14263   0.14608

 Mulliken charges:
               1
     1  C   -0.092187
     2  C    0.563531
     3  O   -0.706699
     4  C    0.527920
     5  N   -0.634973
     6  C    0.682959
     7  H    0.516237
     8  H   -0.123563
     9  H   -0.131235
    10  H   -0.157957
    11  H   -0.223117
    12  H   -0.092957
    13  H   -0.127959
 Sum of Mulliken charges =  -0.00000

 Dipole moment (field-independent basis, Debye):
    X=              6.9364    Y=             -1.1618    Z=             -1.6034  Tot=              7.2134

 Test job not archived.
 1\1\GINC-SE453\SP\RHF\Aug-CC-pVDZ\C4H7N1O1\OHZDE\09-Apr-2025\0\\#t hf
 aug-cc-pvdz iop(5/13=1,5/36=2,99/5=2) pseudo=read geom=check guess=(re
 ad,tcheck) scf=(maxcycle=1)\\title\\0,1\C,0,0.56120422,-0.8434812,0.33
 355538\C,0,-0.63279042,-1.3726527,-0.26278195\O,0,-1.36591585,0.717708
 15,0.90700208\C,0,-0.98047786,1.47423499,-0.07168235\N,0,0.20388897,1.
 47887181,-0.64955695\C,0,1.14570801,0.47454879,-0.22141958\H,0,0.03363
 381,-0.45722714,1.27518858\H,0,1.29685151,-1.60617691,0.62724522\H,0,-
 1.22978197,-0.81408889,-0.97745821\H,0,-0.98793365,-2.3664378,0.014405

 Normal termination of Gaussian 16 at Wed Apr  9 03:05:30 2025.
