 Gaussian 16, Revision C.01,

 ----------------------------------------------------------------------
 #t hf aug-cc-pvdz symm=none int=(grid=ultrafine) guess=(read,tcheck) s
 table=(opt,rrhf)
 ----------------------------------------------------------------------
 -----
 title
 -----
 Symbolic Z-matrix:
 Charge =  0 Multiplicity = 1

 SCF Done:  E(RHF) =  -358.342886517     A.U. after   18 cycles
 Normal termination of Gaussian 16 at Wed Apr  9 03:38:45 2025.
 Gaussian 16:  ES64L-G16RevC.01  3-Jul-2019

 ----------------------------------------------------------------------
 #t hf aug-cc-pvdz iop(5/13=1,5/36=2,99/5=2) pseudo=read geom=check gue
 ss=(read,tcheck) scf=(maxcycle=1)
 ----------------------------------------------------------------------
 -----
 title
 -----
 Structure from the checkpoint file:  "Grambow2020_wb97xd3_007447_forward_mol1.chk"
 Charge =  0 Multiplicity = 1

                         Standard orientation:
 ---------------------------------------------------------------------
 Center     Atomic      Atomic             Coordinates (Angstroms)
 Number     Number       Type             X           Y           Z
 ---------------------------------------------------------------------
      1          8           0        2.499089    0.152294   -0.646197
      2          6           0        1.768759   -0.021948    0.543156
      3          6           0        0.330497   -0.276754    0.318330
      4          7           0       -0.491065   -1.106496    0.071724
      5          8           0       -1.662283   -1.248349   -0.194204
      6          6           0       -2.097006    0.985925   -0.143397
      7          6           0       -1.001677    1.439993    0.139444
      8          1           0        2.080749    0.835973   -1.174356
      9          1           0        2.200190   -0.883478    1.054077
     10          1           0        1.865003    0.842417    1.209325
     11          1           0       -3.103953    0.742781   -0.387840
     12          1           0       -0.302424    2.212922    0.374739
 ---------------------------------------------------------------------

 SCF Done:  E(RHF) =  -358.456225248     A.U. after    2 cycles

 The electronic state is 1-A.
 Alpha  occ. eigenvalues --  -20.60847 -20.59990 -15.76995 -11.35274 -11.32694
 Alpha  occ. eigenvalues --  -11.27701 -11.25416  -1.44557  -1.36563  -1.17273
 Alpha  occ. eigenvalues --   -1.03790  -0.99987  -0.78864  -0.77923  -0.73291
 Alpha  occ. eigenvalues --   -0.70804  -0.68439  -0.68278  -0.65593  -0.64291
 Alpha  occ. eigenvalues --   -0.58232  -0.51476  -0.42459  -0.42093  -0.39639
 Alpha  occ. eigenvalues --   -0.37328
 Alpha virt. eigenvalues --    0.02652   0.04027   0.04323   0.04862   0.06295
 Alpha virt. eigenvalues --    0.08254   0.09050   0.10569   0.10813   0.12519
 Alpha virt. eigenvalues --    0.12591   0.13069   0.13293   0.14290   0.14569

 Mulliken charges:
               1
     1  O   -0.528408
     2  C    1.004922
     3  C   -0.195976
     4  N    0.200167
     5  O   -0.639278
     6  C    0.155298
     7  C    0.600664
     8  H    0.157328
     9  H   -0.052291
    10  H   -0.087161
    11  H   -0.262648
    12  H   -0.352617
 Sum of Mulliken charges =  -0.00000

 Dipole moment (field-independent basis, Debye):
    X=              1.7904    Y=              2.9539    Z=              1.1834  Tot=              3.6512

 Test job not archived.
 1\1\GINC-SE184\SP\RHF\Aug-CC-pVDZ\C4H5N1O2\OHZDE\09-Apr-2025\0\\#t hf
 aug-cc-pvdz iop(5/13=1,5/36=2,99/5=2) pseudo=read geom=check guess=(re
 ad,tcheck) scf=(maxcycle=1)\\title\\0,1\O,0,-2.2164296,-0.00356497,-1.
 03368593\C,0,-1.66679183,-0.06043751,0.25974555\C,0,-0.2881613,0.46636
 182,0.33676442\N,0,0.38119967,1.44851161,0.44441368\O,0,1.52544012,1.8
 3864668,0.41123094\C,0,2.37173921,-0.22448234,-0.04791882\C,0,1.359462
 97,-0.90334008,-0.06716566\H,0,-1.61999747,-0.43777671,-1.64777589\H,0
 ,-2.30816912,0.54503807,0.90118159\H,0,-1.66766035,-1.08139616,0.65700

 Normal termination of Gaussian 16 at Wed Apr  9 03:38:50 2025.
