 Gaussian 16, Revision C.01,

 ----------------------------------------------------------------------
 #t hf aug-cc-pvdz symm=none int=(grid=ultrafine) guess=(read,tcheck) s
 table=(opt,rrhf)
 ----------------------------------------------------------------------
 -----
 title
 -----
 Symbolic Z-matrix:
 Charge =  0 Multiplicity = 1

 SCF Done:  E(RHF) =  -302.790960973     A.U. after   15 cycles
 Normal termination of Gaussian 16 at Wed Apr  9 16:47:16 2025.
 Gaussian 16:  ES64L-G16RevC.01  3-Jul-2019

 ----------------------------------------------------------------------
 #t hf aug-cc-pvdz iop(5/13=1,5/36=2,99/5=2) pseudo=read geom=check gue
 ss=(read,tcheck) scf=(maxcycle=1)
 ----------------------------------------------------------------------
 -----
 title
 -----
 Structure from the checkpoint file:  "Grambow2020_wb97xd3_008882_reverse_mol1.chk"
 Charge =  0 Multiplicity = 1

                         Standard orientation:
 ---------------------------------------------------------------------
 Center     Atomic      Atomic             Coordinates (Angstroms)
 Number     Number       Type             X           Y           Z
 ---------------------------------------------------------------------
      1          6           0        2.423418   -0.559669    0.062912
      2          7           0        1.064991   -0.097908   -0.083291
      3          6           0        0.626942    1.220253   -0.014558
      4          6           0       -0.814237    1.301119   -0.082665
      5          6           0       -1.173462   -0.088819   -0.025366
      6          7           0       -2.502997   -0.536038   -0.041382
      7          6           0       -0.051867   -0.878097   -0.078277
      8          1           0        2.638896   -0.877908    1.086842
      9          1           0        2.614687   -1.392938   -0.613942
     10          1           0        3.101270    0.252196   -0.197550
     11          1           0        1.321811    2.017554   -0.248380
     12          1           0        0.107831    1.493685    1.034597
     13          1           0       -3.130662    0.233577    0.134758
     14          1           0       -2.693888   -1.300900    0.586165
     15          1           0        0.041333   -1.956368   -0.082047
 ---------------------------------------------------------------------

 SCF Done:  E(RHF) =  -302.881398052     A.U. after    2 cycles

 The electronic state is 1-A.
 Alpha  occ. eigenvalues --  -15.66721 -15.60505 -11.29201 -11.28720 -11.28228
 Alpha  occ. eigenvalues --  -11.25315 -11.21983  -1.28402  -1.15860  -1.06600
 Alpha  occ. eigenvalues --   -0.99351  -0.92074  -0.78103  -0.76892  -0.70424
 Alpha  occ. eigenvalues --   -0.66341  -0.64529  -0.61811  -0.58463  -0.57291
 Alpha  occ. eigenvalues --   -0.56167  -0.53561  -0.45241  -0.40580  -0.34096
 Alpha  occ. eigenvalues --   -0.28718
 Alpha virt. eigenvalues --    0.02615   0.03508   0.04169   0.04907   0.06091
 Alpha virt. eigenvalues --    0.06646   0.07710   0.08678   0.10118   0.10402
 Alpha virt. eigenvalues --    0.11381   0.12227   0.13611   0.14309   0.14661

 Mulliken charges:
               1
     1  C    0.804908
     2  N   -0.386832
     3  C    0.650461
     4  C   -0.932565
     5  C    0.432756
     6  N   -0.398729
     7  C    0.824406
     8  H   -0.070118
     9  H   -0.169638
    10  H   -0.226622
    11  H   -0.253031
    12  H    0.215784
    13  H    0.006457
    14  H   -0.046869
    15  H   -0.450367
 Sum of Mulliken charges =  -0.00000

 Dipole moment (field-independent basis, Debye):
    X=              3.7166    Y=             -2.6261    Z=              1.6993  Tot=              4.8577

 Test job not archived.
 1\1\GINC-SE087\SP\RHF\Aug-CC-pVDZ\C5H8N2\OHZDE\09-Apr-2025\0\\#t hf au
 g-cc-pvdz iop(5/13=1,5/36=2,99/5=2) pseudo=read geom=check guess=(read
 ,tcheck) scf=(maxcycle=1)\\title\\0,1\C,0,2.2317844,0.14399727,-0.0762
 9671\N,0,0.82510327,-0.04155018,0.18205309\C,0,0.19952726,-1.23016337,
 0.54262531\C,0,-1.23597165,-1.07429784,0.59939451\C,0,-1.39190433,0.25
 510199,0.07725073\N,0,-2.64198968,0.87008756,-0.08707522\C,0,-0.167029
 72,0.84621336,-0.10715348\H,0,2.46455567,0.07119425,-1.14243804\H,0,2.
 55883486,1.11710621,0.29132844\H,0,2.79166689,-0.62529167,0.45396176\H

 Normal termination of Gaussian 16 at Wed Apr  9 16:47:21 2025.
