 Gaussian 16, Revision C.01,

 ----------------------------------------------------------------------
 #t hf aug-cc-pvdz symm=none int=(grid=ultrafine) guess=(read,tcheck) s
 table=(opt,rrhf)
 ----------------------------------------------------------------------
 -----
 title
 -----
 Symbolic Z-matrix:
 Charge =  0 Multiplicity = 1

 SCF Done:  E(RHF) =  -308.977159360     A.U. after   15 cycles

 1\1\GINC-SE454\Stability\RHF\Aug-CC-pVDZ\C6H12O1\OHZDE\09-Apr-2025\0\\
 #t hf aug-cc-pvdz symm=none int=(grid=ultrafine) guess=(read,tcheck) s
 table=(opt,rrhf)\\title\\0,1\C,0,2.28391921,0.56115993,0.70614504\C,0,
 1.07619302,-0.29289056,0.34182867\C,0,1.27219074,-0.95392994,-1.047564
 1\C,0,-0.15508222,0.47766613,0.10383853\C,0,-1.38103915,-0.21018046,0.
 48994597\C,0,-2.63975009,0.3116896,-0.20596326\O,0,-2.63446575,1.71166
 575,-0.25790265\H,0,2.14368539,1.04624941,1.67334777\H,0,3.18849447,-0
 .04947378,0.76290068\H,0,2.43384743,1.34234553,-0.04100121\H,0,0.94941

 Normal termination of Gaussian 16 at Wed Apr  9 16:26:22 2025.
 Gaussian 16:  ES64L-G16RevC.01  3-Jul-2019

 ----------------------------------------------------------------------
 #t hf aug-cc-pvdz iop(5/13=1,5/36=2,99/5=2) pseudo=read geom=check gue
 ss=(read,tcheck) scf=(maxcycle=1)
 ----------------------------------------------------------------------
 -----
 title
 -----
 Structure from the checkpoint file:  "Grambow2020_wb97xd3_008300_reverse_mol2.chk"
 Charge =  0 Multiplicity = 1

                         Standard orientation:
 ---------------------------------------------------------------------
 Center     Atomic      Atomic             Coordinates (Angstroms)
 Number     Number       Type             X           Y           Z
 ---------------------------------------------------------------------
      1          6           0       -2.458955   -1.093298    0.034455
      2          6           0       -1.457299    0.016673    0.326654
      3          6           0       -1.734785    1.253717   -0.566948
      4          6           0       -0.076015   -0.300226   -0.070919
      5          6           0        0.947629    0.287204    0.784804
      6          6           0        2.320214    0.419514    0.121858
      7          8           0        2.629476   -0.731710   -0.614144
      8          1           0       -2.256538   -1.974753    0.644801
      9          1           0       -3.478501   -0.762318    0.247363
     10          1           0       -2.398111   -1.391274   -1.013622
     11          1           0       -1.547382    0.346777    1.373957
     12          1           0       -2.757896    1.583042   -0.380705
     13          1           0       -1.640453    1.000512   -1.623718
     14          1           0       -1.064334    2.085190   -0.345309
     15          1           0        2.315761    1.313870   -0.517474
     16          1           0        0.658630    1.170691    1.374048
     17          1           0        0.998553   -0.559810    1.504397
     18          1           0        3.100269    0.559990    0.873319
     19          1           0        1.789459   -1.019736   -1.003320
 ---------------------------------------------------------------------

 SCF Done:  E(RHF) =  -309.073631131     A.U. after    2 cycles

 The electronic state is 1-A.
 Alpha  occ. eigenvalues --  -20.55313 -11.28291 -11.27003 -11.25179 -11.24863
 Alpha  occ. eigenvalues --  -11.24803 -11.22983  -1.31395  -1.11213  -1.03333
 Alpha  occ. eigenvalues --   -0.94118  -0.90977  -0.82584  -0.72691  -0.68998
 Alpha  occ. eigenvalues --   -0.65171  -0.64772  -0.60892  -0.58492  -0.57938
 Alpha  occ. eigenvalues --   -0.55296  -0.54365  -0.51751  -0.50696  -0.49509
 Alpha  occ. eigenvalues --   -0.46236  -0.44408  -0.35232
 Alpha virt. eigenvalues --    0.03084   0.04061   0.04156   0.04673   0.06052
 Alpha virt. eigenvalues --    0.06065   0.06502   0.06865   0.07430   0.08559
 Alpha virt. eigenvalues --    0.08744   0.09103   0.09334   0.12565   0.13384

 Mulliken charges:
               1
     1  C    0.837856
     2  C   -0.907250
     3  C    0.703830
     4  C   -0.653850
     5  C   -0.045582
     6  C    1.025953
     7  O   -0.550233
     8  H   -0.058612
     9  H   -0.014307
    10  H    0.018156
    11  H   -0.185547
    12  H   -0.071873
    13  H    0.036072
    14  H   -0.122263
    15  H   -0.093215
    16  H   -0.170354
    17  H    0.176212
    18  H   -0.127488
    19  H    0.202495
 Sum of Mulliken charges =  -0.00000

 Dipole moment (field-independent basis, Debye):
    X=             -2.6988    Y=              2.0112    Z=              1.8002  Tot=              3.8169

 Test job not archived.
 1\1\GINC-SE454\SP\RHF\Aug-CC-pVDZ\C6H12O1\OHZDE\09-Apr-2025\0\\#t hf a
 ug-cc-pvdz iop(5/13=1,5/36=2,99/5=2) pseudo=read geom=check guess=(rea
 d,tcheck) scf=(maxcycle=1)\\title\\0,1\C,0,2.28391921,0.56115993,0.706
 14504\C,0,1.07619302,-0.29289056,0.34182867\C,0,1.27219074,-0.95392994
 ,-1.0475641\C,0,-0.15508222,0.47766613,0.10383853\C,0,-1.38103915,-0.2
 1018046,0.48994597\C,0,-2.63975009,0.3116896,-0.20596326\O,0,-2.634465
 75,1.71166575,-0.25790265\H,0,2.14368539,1.04624941,1.67334777\H,0,3.1
 8849447,-0.04947378,0.76290068\H,0,2.43384743,1.34234553,-0.04100121\H

 Normal termination of Gaussian 16 at Wed Apr  9 16:26:30 2025.
