 Gaussian 16, Revision C.01,

 ----------------------------------------------------------------------
 #t hf aug-cc-pvdz symm=none int=(grid=ultrafine) guess=(read,tcheck) s
 table=(opt,rrhf)
 ----------------------------------------------------------------------
 -----
 title
 -----
 Symbolic Z-matrix:
 Charge =  0 Multiplicity = 1

 SCF Done:  E(RHF) =  -322.519757068     A.U. after   17 cycles
 Normal termination of Gaussian 16 at Wed Apr  9 15:35:06 2025.
 Gaussian 16:  ES64L-G16RevC.01  3-Jul-2019

 ----------------------------------------------------------------------
 #t hf aug-cc-pvdz iop(5/13=1,5/36=2,99/5=2) pseudo=read geom=check gue
 ss=(read,tcheck) scf=(maxcycle=1)
 ----------------------------------------------------------------------
 -----
 title
 -----
 Structure from the checkpoint file:  "Grambow2020_wb97xd3_007008_forward_mol1.chk"
 Charge =  0 Multiplicity = 1

                         Standard orientation:
 ---------------------------------------------------------------------
 Center     Atomic      Atomic             Coordinates (Angstroms)
 Number     Number       Type             X           Y           Z
 ---------------------------------------------------------------------
      1          6           0        2.377702   -0.051310    0.266954
      2          6           0        1.089000   -0.763490    0.100460
      3          6           0       -0.798248    0.665608    0.870231
      4          6           0       -1.850487   -0.068691    0.568259
      5          7           0       -1.298426   -0.874558   -0.465178
      6          6           0       -0.003503   -0.111895   -0.441844
      7          8           0        0.012558    1.106086   -0.918271
      8          1           0        2.255816    0.880709    0.828759
      9          1           0        2.763288    0.255501   -0.712229
     10          1           0        3.121673   -0.667329    0.769234
     11          1           0        0.949088   -1.773449    0.461733
     12          1           0       -0.365704    1.441060    1.471267
     13          1           0       -2.854849   -0.110880    0.959988
     14          1           0       -1.767577   -0.773729   -1.360700
 ---------------------------------------------------------------------

 SCF Done:  E(RHF) =  -322.616666234     A.U. after    2 cycles

 The electronic state is 1-A.
 Alpha  occ. eigenvalues --  -20.51165 -15.64099 -11.33842 -11.33384 -11.29103
 Alpha  occ. eigenvalues --  -11.27907 -11.24358  -1.32314  -1.19809  -1.05789
 Alpha  occ. eigenvalues --   -0.99873  -0.92223  -0.79988  -0.75684  -0.70781
 Alpha  occ. eigenvalues --   -0.65412  -0.63165  -0.61414  -0.57904  -0.55032
 Alpha  occ. eigenvalues --   -0.54263  -0.52783  -0.49062  -0.42305  -0.39914
 Alpha  occ. eigenvalues --   -0.27593
 Alpha virt. eigenvalues --    0.02335   0.03186   0.03645   0.04789   0.05747
 Alpha virt. eigenvalues --    0.05907   0.06886   0.07585   0.10964   0.11329
 Alpha virt. eigenvalues --    0.11843   0.12358   0.12623   0.14123   0.14447

 Mulliken charges:
               1
     1  C    0.342131
     2  C    0.440907
     3  C    0.645414
     4  C    0.435097
     5  N   -0.606888
     6  C    0.323887
     7  O   -0.824230
     8  H   -0.020435
     9  H    0.098081
    10  H   -0.045803
    11  H   -0.371289
    12  H   -0.348726
    13  H   -0.118243
    14  H    0.050099
 Sum of Mulliken charges =   0.00000

 Dipole moment (field-independent basis, Debye):
    X=             -0.2139    Y=             -1.7166    Z=              2.6627  Tot=              3.1753

 Test job not archived.
 1\1\GINC-SE138\SP\RHF\Aug-CC-pVDZ\C5H7N1O1\OHZDE\09-Apr-2025\0\\#t hf
 aug-cc-pvdz iop(5/13=1,5/36=2,99/5=2) pseudo=read geom=check guess=(re
 ad,tcheck) scf=(maxcycle=1)\\title\\0,1\C,0,-2.11868237,-0.07221517,-0
 .16047808\C,0,-0.77166022,-0.17516682,-0.76925347\C,0,0.94360934,0.800
 00999,0.74845864\C,0,2.06673152,0.54338167,0.10789108\N,0,1.6515551,-0
 .56522693,-0.68001765\C,0,0.30474935,-0.60296544,-0.01389807\O,0,0.231
 39789,-1.02142079,1.22312794\H,0,-2.10727254,0.54036281,0.74713281\H,0
 ,-2.45552169,-1.06197467,0.16895248\H,0,-2.8482445,0.34346139,-0.85344

 Normal termination of Gaussian 16 at Wed Apr  9 15:35:12 2025.
