 Gaussian 16, Revision C.01,

 ----------------------------------------------------------------------
 #t hf aug-cc-pvdz symm=none int=(grid=ultrafine) guess=(read,tcheck) s
 table=(opt,rrhf)
 ----------------------------------------------------------------------
 -----
 title
 -----
 Symbolic Z-matrix:
 Charge =  0 Multiplicity = 1

 SCF Done:  E(RHF) =  -336.216045534     A.U. after   16 cycles
 Normal termination of Gaussian 16 at Wed Apr  9 03:45:29 2025.
 Gaussian 16:  ES64L-G16RevC.01  3-Jul-2019

 ----------------------------------------------------------------------
 #t hf aug-cc-pvdz iop(5/13=1,5/36=2,99/5=2) pseudo=read geom=check gue
 ss=(read,tcheck) scf=(maxcycle=1)
 ----------------------------------------------------------------------
 -----
 title
 -----
 Structure from the checkpoint file:  "Grambow2020_wb97xd3_007921_reverse_mol1.chk"
 Charge =  0 Multiplicity = 1

                         Standard orientation:
 ---------------------------------------------------------------------
 Center     Atomic      Atomic             Coordinates (Angstroms)
 Number     Number       Type             X           Y           Z
 ---------------------------------------------------------------------
      1          7           0       -0.569265    1.170632    0.001190
      2          6           0       -1.314418    0.083335    0.000245
      3          8           0       -2.481796   -0.216597   -0.001233
      4          6           0       -0.160271   -0.943414    0.001193
      5          6           0        1.003701   -1.384083    0.000133
      6          6           0        1.803677   -0.312174   -0.000282
      7          7           0        2.239433    0.786250   -0.000904
      8          1           0        1.324370    1.372426   -0.000032
      9          1           0       -1.157316    2.000193    0.000168
 ---------------------------------------------------------------------

 SCF Done:  E(RHF) =  -336.316722680     A.U. after    2 cycles

 The electronic state is 1-A.
 Alpha  occ. eigenvalues --  -20.54339 -15.72642 -15.61181 -11.45513 -11.40299
 Alpha  occ. eigenvalues --  -11.39838 -11.33548  -1.35968  -1.33169  -1.20332
 Alpha  occ. eigenvalues --   -1.15332  -0.92568  -0.84150  -0.76969  -0.67977
 Alpha  occ. eigenvalues --   -0.66699  -0.64196  -0.64068  -0.58961  -0.50028
 Alpha  occ. eigenvalues --   -0.48468  -0.46951  -0.45225  -0.38365
 Alpha virt. eigenvalues --    0.02227   0.02463   0.03601   0.04860   0.05401
 Alpha virt. eigenvalues --    0.06760   0.08267   0.09096   0.10810   0.11237
 Alpha virt. eigenvalues --    0.12288   0.12938   0.13002   0.14014   0.15698

 Mulliken charges:
               1
     1  N   -0.319964
     2  C    0.147233
     3  O   -0.440356
     4  C    0.223430
     5  C    0.109160
     6  C    0.141224
     7  N   -0.133731
     8  H    0.327609
     9  H   -0.054605
 Sum of Mulliken charges =  -0.00000

 Dipole moment (field-independent basis, Debye):
    X=              4.6939    Y=             -0.0793    Z=              0.0018  Tot=              4.6946

 Test job not archived.
 1\1\GINC-SE222\SP\RHF\Aug-CC-pVDZ\C4H2N2O1\OHZDE\09-Apr-2025\0\\#t hf
 aug-cc-pvdz iop(5/13=1,5/36=2,99/5=2) pseudo=read geom=check guess=(re
 ad,tcheck) scf=(maxcycle=1)\\title\\0,1\N,0,-0.92952936,0.45837599,0.6
 1794464\C,0,-1.04507834,-0.85455447,0.63609279\O,0,-1.91488106,-1.6886
 291,0.65837469\C,0,0.46428834,-1.18288462,0.6193507\C,0,1.69455345,-0.
 99578331,0.59784344\C,0,1.86539436,0.33061887,0.5773486\N,0,1.70592519
 ,1.50142925,0.56353328\H,0,0.62108771,1.56322071,0.57942926\H,0,-1.848
 95929,0.89263369,0.62459261\\Version=ES64L-G16RevC.01\State=1-A\HF=-33

 Normal termination of Gaussian 16 at Wed Apr  9 03:45:33 2025.
