 Gaussian 16, Revision C.01,

 ----------------------------------------------------------------------
 #t hf aug-cc-pvdz symm=none int=(grid=ultrafine) guess=(read,tcheck) s
 table=(opt,rrhf)
 ----------------------------------------------------------------------
 -----
 title
 -----
 Symbolic Z-matrix:
 Charge =  0 Multiplicity = 1

 SCF Done:  E(RHF) =  -343.713372071     A.U. after   14 cycles
 Normal termination of Gaussian 16 at Wed Apr  9 03:34:23 2025.
 Gaussian 16:  ES64L-G16RevC.01  3-Jul-2019

 ----------------------------------------------------------------------
 #t hf aug-cc-pvdz iop(5/13=1,5/36=2,99/5=2) pseudo=read geom=check gue
 ss=(read,tcheck) scf=(maxcycle=1)
 ----------------------------------------------------------------------
 -----
 title
 -----
 Structure from the checkpoint file:  "Grambow2020_wb97xd3_007150_reverse_mol2.chk"
 Charge =  0 Multiplicity = 1

                         Standard orientation:
 ---------------------------------------------------------------------
 Center     Atomic      Atomic             Coordinates (Angstroms)
 Number     Number       Type             X           Y           Z
 ---------------------------------------------------------------------
      1          8           0       -0.929540   -0.413514    1.333683
      2          6           0       -1.171898   -0.381692    0.012642
      3          6           0       -1.562388   -1.431750   -0.703362
      4          6           0       -0.964038    0.938497   -0.618850
      5          8           0       -0.623294    1.892111    0.037362
      6          6           0        2.360656   -0.914178    0.027906
      7          6           0        2.623498    0.369894   -0.149392
      8          1           0       -0.680662    0.488060    1.588856
      9          1           0       -1.727299   -1.315980   -1.765389
     10          1           0       -1.718597   -2.403467   -0.255243
     11          1           0       -1.136431    1.002866   -1.705580
     12          1           0        2.916958   -1.684290   -0.494515
     13          1           0        1.579909   -1.247126    0.702693
     14          1           0        2.069003    1.143147    0.370230
     15          1           0        3.404813    0.703393   -0.823079
 ---------------------------------------------------------------------

 SCF Done:  E(RHF) =  -343.825116016     A.U. after    2 cycles

 The electronic state is 1-A.
 Alpha  occ. eigenvalues --  -20.61220 -20.59770 -11.36652 -11.32731 -11.26066
 Alpha  occ. eigenvalues --  -11.23720 -11.23541  -1.40587  -1.36616  -1.07017
 Alpha  occ. eigenvalues --   -1.02803  -0.90196  -0.81113  -0.78832  -0.76576
 Alpha  occ. eigenvalues --   -0.69973  -0.64994  -0.64548  -0.62488  -0.60488
 Alpha  occ. eigenvalues --   -0.58947  -0.58492  -0.56177  -0.50190  -0.47153
 Alpha  occ. eigenvalues --   -0.38491  -0.37254
 Alpha virt. eigenvalues --    0.03226   0.04324   0.04683   0.05281   0.05722
 Alpha virt. eigenvalues --    0.06336   0.06601   0.07874   0.08175   0.10139
 Alpha virt. eigenvalues --    0.10856   0.12181   0.12563   0.14380   0.14436

 Mulliken charges:
               1
     1  O   -0.623869
     2  C    0.506839
     3  C    0.824979
     4  C    0.536259
     5  O   -0.495990
     6  C    0.584469
     7  C    0.573502
     8  H    0.176673
     9  H   -0.313747
    10  H   -0.358143
    11  H   -0.227924
    12  H   -0.288204
    13  H   -0.302728
    14  H   -0.309450
    15  H   -0.282665
 Sum of Mulliken charges =  -0.00000

 Dipole moment (field-independent basis, Debye):
    X=             -0.7702    Y=             -1.3878    Z=             -2.1319  Tot=              2.6579

 Test job not archived.
 1\1\GINC-SE454\SP\RHF\Aug-CC-pVDZ\C5H8O2\OHZDE\09-Apr-2025\0\\#t hf au
 g-cc-pvdz iop(5/13=1,5/36=2,99/5=2) pseudo=read geom=check guess=(read
 ,tcheck) scf=(maxcycle=1)\\title\\0,1\O,0,0.75056189,-1.19640821,-1.26
 157089\C,0,1.24117139,-0.8081078,-0.07269552\C,0,1.34894,-1.60121603,0
 .98896849\C,0,1.66280567,0.60741641,-0.01435867\O,0,1.57637884,1.31981
 612,-0.98447054\C,0,-2.16807888,0.20936288,0.2505322\C,0,-1.89865392,1
 .458461,-0.09082413\H,0,0.80694032,-0.42552263,-1.84675954\H,0,1.74942
 212,-1.20090546,1.90976538\H,0,1.04478785,-2.63860027,0.96120315\H,0,2

 Normal termination of Gaussian 16 at Wed Apr  9 03:34:28 2025.
