 Gaussian 16, Revision C.01,

 ----------------------------------------------------------------------
 #t hf aug-cc-pvdz symm=none int=(grid=ultrafine) guess=(read,tcheck) s
 table=(opt,rrhf)
 ----------------------------------------------------------------------
 -----
 title
 -----
 Symbolic Z-matrix:
 Charge =  0 Multiplicity = 1

 SCF Done:  E(RHF) =  -306.493300564     A.U. after   16 cycles
 Normal termination of Gaussian 16 at Wed Apr  9 16:52:21 2025.
 Gaussian 16:  ES64L-G16RevC.01  3-Jul-2019

 ----------------------------------------------------------------------
 #t hf aug-cc-pvdz iop(5/13=1,5/36=2,99/5=2) pseudo=read geom=check gue
 ss=(read,tcheck) scf=(maxcycle=1)
 ----------------------------------------------------------------------
 -----
 title
 -----
 Structure from the checkpoint file:  "Grambow2020_wb97xd3_009023_reverse_mol1.chk"
 Charge =  0 Multiplicity = 1

                         Standard orientation:
 ---------------------------------------------------------------------
 Center     Atomic      Atomic             Coordinates (Angstroms)
 Number     Number       Type             X           Y           Z
 ---------------------------------------------------------------------
      1          6           0       -1.877590    0.013170   -0.295945
      2          6           0       -0.460341   -1.006989    0.427300
      3          8           0        0.448302   -1.227348   -0.607335
      4          6           0        1.319928   -0.190287   -0.150897
      5          6           0        0.717589    1.141638   -0.640050
      6          6           0       -0.326594    0.964057    0.434685
      7          6           0        0.483990   -0.036094    1.141797
      8          1           0       -2.057519   -0.797418   -0.998262
      9          1           0       -2.634748   -0.018498    0.481986
     10          1           0       -2.002265    0.931007   -0.889656
     11          1           0        2.378697   -0.416782   -0.255993
     12          1           0        1.387866    1.961147   -0.373878
     13          1           0        0.411899    1.220357   -1.685769
     14          1           0       -0.944914    1.725894    0.886835
     15          1           0        0.732677   -0.099898    2.192085
 ---------------------------------------------------------------------

 SCF Done:  E(RHF) =  -306.584995067     A.U. after    2 cycles

 The electronic state is 1-A.
 Alpha  occ. eigenvalues --  -20.57992 -11.30930 -11.29768 -11.29506 -11.25626
 Alpha  occ. eigenvalues --  -11.25506 -11.24491  -1.38688  -1.14764  -0.99059
 Alpha  occ. eigenvalues --   -0.94579  -0.86979  -0.80515  -0.73341  -0.68911
 Alpha  occ. eigenvalues --   -0.66653  -0.64562  -0.59781  -0.56930  -0.55395
 Alpha  occ. eigenvalues --   -0.53944  -0.50500  -0.46793  -0.45732  -0.40082
 Alpha  occ. eigenvalues --   -0.30751
 Alpha virt. eigenvalues --    0.02861   0.03941   0.04232   0.04899   0.05975
 Alpha virt. eigenvalues --    0.06475   0.07058   0.07661   0.09555   0.11767
 Alpha virt. eigenvalues --    0.12257   0.12316   0.13123   0.13831   0.14407

 Mulliken charges:
               1
     1  C    0.567193
     2  C   -0.098390
     3  O   -0.778587
     4  C    0.876872
     5  C    0.394190
     6  C    0.268367
     7  C    0.360452
     8  H   -0.085900
     9  H   -0.106063
    10  H   -0.204753
    11  H   -0.268465
    12  H   -0.063858
    13  H   -0.184779
    14  H   -0.330980
    15  H   -0.345300
 Sum of Mulliken charges =  -0.00000

 Dipole moment (field-independent basis, Debye):
    X=              1.0202    Y=              3.6559    Z=              0.7105  Tot=              3.8615

 Test job not archived.
 1\1\GINC-SE131\SP\RHF\Aug-CC-pVDZ\C6H8O1\OHZDE\09-Apr-2025\0\\#t hf au
 g-cc-pvdz iop(5/13=1,5/36=2,99/5=2) pseudo=read geom=check guess=(read
 ,tcheck) scf=(maxcycle=1)\\title\\0,1\C,0,1.69150132,-0.25385983,-0.41
 15256\C,0,0.70232952,1.11340465,0.4396672\O,0,-0.1742638,1.63140133,-0
 .5131839\C,0,-1.27886054,0.88349692,0.00069149\C,0,-1.1404566,-0.54816
 634,-0.55364721\C,0,-0.01304193,-0.72810667,0.43299619\C,0,-0.43223623
 ,0.44069067,1.21756215\H,0,2.05186945,0.49219075,-1.11595498\H,0,2.479
 9085,-0.47694659,0.30129694\H,0,1.4912632,-1.14481271,-1.02517615\H,0,

 Normal termination of Gaussian 16 at Wed Apr  9 16:52:26 2025.
