 Gaussian 16, Revision C.01,

 ----------------------------------------------------------------------
 #t hf aug-cc-pvdz symm=none int=(grid=ultrafine) guess=(read,tcheck) s
 table=(opt,rrhf)
 ----------------------------------------------------------------------
 -----
 title
 -----
 Symbolic Z-matrix:
 Charge =  0 Multiplicity = 1

 SCF Done:  E(RHF) =  -333.673702509     A.U. after   15 cycles
 Normal termination of Gaussian 16 at Wed Apr  9 15:33:41 2025.
 Gaussian 16:  ES64L-G16RevC.01  3-Jul-2019

 ----------------------------------------------------------------------
 #t hf aug-cc-pvdz iop(5/13=1,5/36=2,99/5=2) pseudo=read geom=check gue
 ss=(read,tcheck) scf=(maxcycle=1)
 ----------------------------------------------------------------------
 -----
 title
 -----
 Structure from the checkpoint file:  "Grambow2020_wb97xd3_006986_reverse_mol2.chk"
 Charge =  0 Multiplicity = 1

                         Standard orientation:
 ---------------------------------------------------------------------
 Center     Atomic      Atomic             Coordinates (Angstroms)
 Number     Number       Type             X           Y           Z
 ---------------------------------------------------------------------
      1          7           0        2.230623    0.067850   -0.018460
      2          6           0        0.882048    0.018594   -0.001043
      3          6           0        0.197068    1.304087    0.005029
      4          7           0       -1.109724    1.079724    0.000814
      5          6           0       -1.710205   -0.156122   -0.004873
      6          7           0       -1.028863   -1.243636    0.000998
      7          7           0        0.316323   -1.170941    0.007316
      8          1           0        2.678967    0.961590    0.042855
      9          1           0        2.762076   -0.781000    0.034530
     10          1           0       -1.721166    1.885123    0.005722
     11          1           0       -2.791849   -0.196045   -0.012463
 ---------------------------------------------------------------------

 SCF Done:  E(RHF) =  -333.769942852     A.U. after    2 cycles

 The electronic state is 1-A.
 Alpha  occ. eigenvalues --  -15.72706 -15.67312 -15.65724 -15.64134 -11.33374
 Alpha  occ. eigenvalues --  -11.33236 -11.28218  -1.34697  -1.24671  -1.21009
 Alpha  occ. eigenvalues --   -1.07667  -0.94234  -0.89996  -0.78117  -0.76661
 Alpha  occ. eigenvalues --   -0.69664  -0.67198  -0.62758  -0.62543  -0.51955
 Alpha  occ. eigenvalues --   -0.49307  -0.46461  -0.44505  -0.35964  -0.32637
 Alpha virt. eigenvalues --    0.02361   0.03533   0.04992   0.06600   0.06640
 Alpha virt. eigenvalues --    0.08351   0.09954   0.11240   0.11551   0.12258
 Alpha virt. eigenvalues --    0.13134   0.13345   0.14342   0.15033   0.16382

 Mulliken charges:
               1
     1  N   -0.284507
     2  C    0.949074
     3  C   -0.049624
     4  N   -0.247923
     5  C    0.668432
     6  N   -0.160613
     7  N   -0.609003
     8  H    0.003869
     9  H   -0.039494
    10  H    0.018418
    11  H   -0.248629
 Sum of Mulliken charges =  -0.00000

 Dipole moment (field-independent basis, Debye):
    X=             -1.0231    Y=              2.4889    Z=              0.1432  Tot=              2.6948

 Test job not archived.
 1\1\GINC-SE114\SP\RHF\Aug-CC-pVDZ\C3H4N4\OHZDE\09-Apr-2025\0\\#t hf au
 g-cc-pvdz iop(5/13=1,5/36=2,99/5=2) pseudo=read geom=check guess=(read
 ,tcheck) scf=(maxcycle=1)\\title\\0,1\N,0,1.95730758,-0.41735549,-0.81
 565749\C,0,0.69717043,-0.23941411,-0.36646468\C,0,0.51167896,0.8295614
 3,0.60544615\N,0,-0.77414498,0.88394358,0.92444665\C,0,-1.75889228,0.0
 6704602,0.42357026\N,0,-1.50609651,-0.86146053,-0.42549851\N,0,-0.2371
 2408,-1.03667804,-0.84246101\H,0,2.69169649,0.1341381,-0.41556695\H,0,
 2.16209611,-1.17326878,-1.44211803\H,0,-1.05857934,1.58350967,1.596948

 Normal termination of Gaussian 16 at Wed Apr  9 15:33:45 2025.
