 Gaussian 16, Revision C.01,

 ----------------------------------------------------------------------
 #t hf aug-cc-pvdz symm=none int=(grid=ultrafine) guess=(read,tcheck) s
 table=(opt,rrhf)
 ----------------------------------------------------------------------
 -----
 title
 -----
 Symbolic Z-matrix:
 Charge =  0 Multiplicity = 1

 SCF Done:  E(RHF) =  -360.779194855     A.U. after   15 cycles
 Normal termination of Gaussian 16 at Wed Apr  9 03:28:27 2025.
 Gaussian 16:  ES64L-G16RevC.01  3-Jul-2019

 ----------------------------------------------------------------------
 #t hf aug-cc-pvdz iop(5/13=1,5/36=2,99/5=2) pseudo=read geom=check gue
 ss=(read,tcheck) scf=(maxcycle=1)
 ----------------------------------------------------------------------
 -----
 title
 -----
 Structure from the checkpoint file:  "Grambow2020_wb97xd3_006774_forward_mol1.chk"
 Charge =  0 Multiplicity = 1

                         Standard orientation:
 ---------------------------------------------------------------------
 Center     Atomic      Atomic             Coordinates (Angstroms)
 Number     Number       Type             X           Y           Z
 ---------------------------------------------------------------------
      1          6           0       -2.174499   -1.044597    0.265584
      2          7           0       -1.914879    0.340165    0.028725
      3          6           0       -1.288614    1.279826   -0.218730
      4          8           0        0.780223    1.284283   -0.451006
      5          6           0        1.340764    0.653115    0.645902
      6          6           0        1.890727   -0.710617    0.224044
      7          8           0        0.942689   -1.358591   -0.606746
      8          1           0       -1.249679   -1.604329    0.113473
      9          1           0       -2.533042   -1.156363    1.287349
     10          1           0       -2.951674   -1.374916   -0.421008
     11          1           0       -0.579377    2.119043   -0.338650
     12          1           0        2.152236    1.245500    1.096616
     13          1           0        0.594965    0.486207    1.452501
     14          1           0        2.832342   -0.575164   -0.323059
     15          1           0        2.080529   -1.354595    1.085819
     16          1           0        0.664283   -0.638442   -1.192899
 ---------------------------------------------------------------------

 SCF Done:  E(RHF) =  -360.895470476     A.U. after    2 cycles

 The electronic state is 1-A.
 Alpha  occ. eigenvalues --  -20.54227 -20.47111 -15.72627 -11.39050 -11.32721
 Alpha  occ. eigenvalues --  -11.25141 -11.24310  -1.30648  -1.29853  -1.20628
 Alpha  occ. eigenvalues --   -1.05595  -0.94235  -0.82548  -0.78036  -0.73750
 Alpha  occ. eigenvalues --   -0.68040  -0.67452  -0.66719  -0.62312  -0.58651
 Alpha  occ. eigenvalues --   -0.56480  -0.53405  -0.51730  -0.51021  -0.47886
 Alpha  occ. eigenvalues --   -0.43977  -0.37773  -0.35802
 Alpha virt. eigenvalues --    0.02496   0.03882   0.04327   0.05318   0.06775
 Alpha virt. eigenvalues --    0.06900   0.07359   0.07793   0.08872   0.10015
 Alpha virt. eigenvalues --    0.10631   0.11382   0.13144   0.13456   0.14676

 Mulliken charges:
               1
     1  C    0.944030
     2  N   -0.042421
     3  C   -0.055299
     4  O   -1.038905
     5  C    0.641051
     6  C    0.694238
     7  O   -0.633149
     8  H   -0.064247
     9  H   -0.080678
    10  H   -0.116353
    11  H    0.202340
    12  H   -0.164257
    13  H   -0.200493
    14  H   -0.162373
    15  H   -0.158206
    16  H    0.234723
 Sum of Mulliken charges =  -0.00000

 Dipole moment (field-independent basis, Debye):
    X=             -5.2681    Y=             -0.3600    Z=              1.6808  Tot=              5.5414

 Test job not archived.
 1\1\GINC-SE339\SP\RHF\Aug-CC-pVDZ\C4H9N1O2\OHZDE\09-Apr-2025\0\\#t hf
 aug-cc-pvdz iop(5/13=1,5/36=2,99/5=2) pseudo=read geom=check guess=(re
 ad,tcheck) scf=(maxcycle=1)\\title\\0,1\C,0,1.8222101,-0.37007298,-1.6
 1252832\N,0,1.90048841,0.53964279,-0.51372886\C,0,1.57883498,1.0492235
 1,0.47281692\O,0,-0.20767951,0.65882479,1.46781024\C,0,-1.24346462,0.7
 6330815,0.55565871\C,0,-1.79725345,-0.62969983,0.250643\O,0,-0.7181402
 1,-1.52768013,0.05569911\H,0,0.95233012,-1.01433983,-1.47125677\H,0,1.
 73288755,0.20802895,-2.53060657\H,0,2.74117438,-0.95210656,-1.64802858

 Normal termination of Gaussian 16 at Wed Apr  9 03:28:32 2025.
