 Gaussian 16, Revision C.01,

 ----------------------------------------------------------------------
 #t hf aug-cc-pvdz symm=none int=(grid=ultrafine) guess=(read,tcheck) s
 table=(opt,rrhf)
 ----------------------------------------------------------------------
 -----
 title
 -----
 Symbolic Z-matrix:
 Charge =  0 Multiplicity = 1

 SCF Done:  E(RHF) =  -321.391360381     A.U. after   15 cycles
 Normal termination of Gaussian 16 at Wed Apr  9 16:24:47 2025.
 Gaussian 16:  ES64L-G16RevC.01  3-Jul-2019

 ----------------------------------------------------------------------
 #t hf aug-cc-pvdz iop(5/13=1,5/36=2,99/5=2) pseudo=read geom=check gue
 ss=(read,tcheck) scf=(maxcycle=1)
 ----------------------------------------------------------------------
 -----
 title
 -----
 Structure from the checkpoint file:  "Grambow2020_wb97xd3_008191_reverse_mol2.chk"
 Charge =  0 Multiplicity = 1

                         Standard orientation:
 ---------------------------------------------------------------------
 Center     Atomic      Atomic             Coordinates (Angstroms)
 Number     Number       Type             X           Y           Z
 ---------------------------------------------------------------------
      1          8           0        2.522584    0.157205   -0.059407
      2          6           0        1.395618   -0.644929   -0.283886
      3          6           0        0.224428   -0.222883    0.590584
      4          6           0       -0.501530    1.021918    0.195555
      5          6           0       -1.386728    1.799163   -0.255021
      6          6           0       -1.128308   -0.411531    0.117004
      7          7           0       -2.056866   -1.172357   -0.158786
      8          1           0        2.343702    1.042369   -0.386215
      9          1           0        1.082981   -0.634890   -1.333832
     10          1           0        1.675966   -1.665360   -0.020172
     11          1           0        0.382276   -0.327663    1.661442
     12          1           0       -2.888414   -0.716020   -0.519880
 ---------------------------------------------------------------------

 SCF Done:  E(RHF) =  -321.486189353     A.U. after    2 cycles

 The electronic state is 1-A.
 Alpha  occ. eigenvalues --  -20.60075 -15.66485 -11.38574 -11.32856 -11.32627
 Alpha  occ. eigenvalues --  -11.29710 -11.26667  -1.35900  -1.26158  -1.16693
 Alpha  occ. eigenvalues --   -1.02378  -0.94029  -0.79403  -0.75808  -0.74786
 Alpha  occ. eigenvalues --   -0.67208  -0.64975  -0.59630  -0.58219  -0.55088
 Alpha  occ. eigenvalues --   -0.51954  -0.48382  -0.45684  -0.40586  -0.40523
 Alpha virt. eigenvalues --    0.03052   0.04053   0.04402   0.04795   0.06710
 Alpha virt. eigenvalues --    0.07651   0.08856   0.09129   0.10091   0.10740
 Alpha virt. eigenvalues --    0.11082   0.12196   0.14112   0.14359   0.14627

 Mulliken charges:
               1
     1  O   -0.538474
     2  C    0.914131
     3  C    0.273895
     4  C    0.002472
     5  C   -0.305313
     6  C   -0.066090
     7  N   -0.284096
     8  H    0.171860
     9  H   -0.107807
    10  H   -0.078980
    11  H   -0.079762
    12  H    0.098162
 Sum of Mulliken charges =  -0.00000

 Dipole moment (field-independent basis, Debye):
    X=              0.7299    Y=             -1.1655    Z=              0.1112  Tot=              1.3797

 Test job not archived.
 1\1\GINC-SE087\SP\RHF\Aug-CC-pVDZ\C5H5N1O1\OHZDE\09-Apr-2025\0\\#t hf
 aug-cc-pvdz iop(5/13=1,5/36=2,99/5=2) pseudo=read geom=check guess=(re
 ad,tcheck) scf=(maxcycle=1)\\title\\0,1\O,0,-2.27246448,-0.59322501,-0
 .49306497\C,0,-1.10134358,-0.81978562,0.2424677\C,0,0.1361092,-0.37814
 008,-0.52445281\C,0,0.39344613,1.09144894,-0.60617943\C,0,0.89460373,2
 .2315312,-0.40678666\C,0,1.29598457,0.09463607,0.19730417\N,0,2.258519
 43,-0.14492145,0.9275602\H,0,-2.41516899,0.35370751,-0.56566895\H,0,-1
 .1201651,-0.31719406,1.21574828\H,0,-1.03839187,-1.8949999,0.41384865\

 Normal termination of Gaussian 16 at Wed Apr  9 16:24:51 2025.
