 Gaussian 16, Revision C.01,

 ----------------------------------------------------------------------
 #t hf aug-cc-pvdz symm=none int=(grid=ultrafine) guess=(read,tcheck) s
 table=(opt,rrhf)
 ----------------------------------------------------------------------
 -----
 title
 -----
 Symbolic Z-matrix:
 Charge =  0 Multiplicity = 1

 SCF Done:  E(RHF) =  -353.610459531     A.U. after   14 cycles
 Normal termination of Gaussian 16 at Wed Apr  9 14:26:14 2025.
 Gaussian 16:  ES64L-G16RevC.01  3-Jul-2019

 ----------------------------------------------------------------------
 #t hf aug-cc-pvdz iop(5/13=1,5/36=2,99/5=2) pseudo=read geom=check gue
 ss=(read,tcheck) scf=(maxcycle=1)
 ----------------------------------------------------------------------
 -----
 title
 -----
 Structure from the checkpoint file:  "Grambow2020_wb97xd3_006534_reverse_mol2.chk"
 Charge =  0 Multiplicity = 1

                         Standard orientation:
 ---------------------------------------------------------------------
 Center     Atomic      Atomic             Coordinates (Angstroms)
 Number     Number       Type             X           Y           Z
 ---------------------------------------------------------------------
      1          8           0        2.272751   -0.528405   -0.001465
      2          6           0        1.147940   -0.138392    0.000144
      3          7           0        0.000109   -0.927420    0.002218
      4          7           0       -2.362098   -0.379384   -0.001489
      5          6           0       -1.125833   -0.131047    0.000685
      6          6           0       -0.536997    1.240697    0.000533
      7          7           0        0.731999    1.245282    0.000168
      8          1           0        0.031681   -1.930622    0.000431
      9          1           0       -2.567235   -1.375973   -0.002013
     10          1           0       -1.147176    2.136943   -0.001150
 ---------------------------------------------------------------------

 SCF Done:  E(RHF) =  -353.714577257     A.U. after    2 cycles

 The electronic state is 1-A.
 Alpha  occ. eigenvalues --  -20.58130 -15.69687 -15.67584 -15.65293 -11.42245
 Alpha  occ. eigenvalues --  -11.37678 -11.34597  -1.41196  -1.32841  -1.22631
 Alpha  occ. eigenvalues --   -1.17703  -0.95257  -0.87515  -0.83005  -0.75876
 Alpha  occ. eigenvalues --   -0.70535  -0.66966  -0.66690  -0.64303  -0.54828
 Alpha  occ. eigenvalues --   -0.51771  -0.50151  -0.47749  -0.44333  -0.41505
 Alpha virt. eigenvalues --    0.02256   0.03524   0.03585   0.05162   0.07383
 Alpha virt. eigenvalues --    0.09474   0.10237   0.10698   0.12208   0.12716
 Alpha virt. eigenvalues --    0.13408   0.13444   0.14207   0.15324   0.17402

 Mulliken charges:
               1
     1  O   -0.381112
     2  C    0.698456
     3  N   -0.392704
     4  N   -0.379273
     5  C    0.741252
     6  C    0.485569
     7  N   -0.514353
     8  H   -0.091745
     9  H   -0.005489
    10  H   -0.160601
 Sum of Mulliken charges =   0.00000

 Dipole moment (field-independent basis, Debye):
    X=             -3.4390    Y=             -1.7623    Z=              0.0021  Tot=              3.8642

 Test job not archived.
 1\1\GINC-SE163\SP\RHF\Aug-CC-pVDZ\C3H3N3O1\OHZDE\09-Apr-2025\0\\#t hf
 aug-cc-pvdz iop(5/13=1,5/36=2,99/5=2) pseudo=read geom=check guess=(re
 ad,tcheck) scf=(maxcycle=1)\\title\\0,1\O,0,2.48425252,-0.5559992,0.80
 959979\C,0,1.35884783,-0.50085866,0.42523374\N,0,0.60517243,0.65566513
 ,0.23946412\N,0,-1.67047534,1.02224039,-0.51381741\C,0,-0.65734459,0.3
 3438495,-0.21307205\C,0,-0.59187927,-1.15512366,-0.2871562\N,0,0.53045
 37,-1.62932728,0.06762934\H,0,0.96606566,1.57371227,0.42482576\H,0,-1.
 52102765,2.0218926,-0.39706531\H,0,-1.43082429,-1.75998055,-0.61257478

 Normal termination of Gaussian 16 at Wed Apr  9 14:26:17 2025.
