 Gaussian 16, Revision C.01,

 ----------------------------------------------------------------------
 #t hf aug-cc-pvdz symm=none int=(grid=ultrafine) guess=(read,tcheck) s
 table=(opt,rrhf)
 ----------------------------------------------------------------------
 -----
 title
 -----
 Symbolic Z-matrix:
 Charge =  0 Multiplicity = 1

 SCF Done:  E(RHF) =  -344.759681557     A.U. after   14 cycles

 1\1\GINC-SE131\Stability\RHF\Aug-CC-pVDZ\C5H10O2\OHZDE\09-Apr-2025\0\\
 #t hf aug-cc-pvdz symm=none int=(grid=ultrafine) guess=(read,tcheck) s
 table=(opt,rrhf)\\title\\0,1\C,0,1.77174773,-0.09398324,-1.03273584\C,
 0,0.91082989,0.20225292,0.17777798\O,0,0.24366702,1.44643652,0.0262667
 4\C,0,-1.15180156,1.29916354,0.25457397\C,0,-1.4661105,-0.14090004,-0.
 10275865\C,0,-0.19902781,-0.85818189,0.32064393\O,0,0.02737958,-2.1307
 0049,0.07026271\H,0,2.5149421,0.69447988,-1.15058402\H,0,1.16603386,-0
 .13474608,-1.93915596\H,0,2.27354421,-1.05320335,-0.90904018\H,0,1.529

 Normal termination of Gaussian 16 at Wed Apr  9 15:48:10 2025.
 Gaussian 16:  ES64L-G16RevC.01  3-Jul-2019

 ----------------------------------------------------------------------
 #t hf aug-cc-pvdz iop(5/13=1,5/36=2,99/5=2) pseudo=read geom=check gue
 ss=(read,tcheck) scf=(maxcycle=1)
 ----------------------------------------------------------------------
 -----
 title
 -----
 Structure from the checkpoint file:  "Grambow2020_wb97xd3_007408_forward_mol1.chk"
 Charge =  0 Multiplicity = 1

                         Standard orientation:
 ---------------------------------------------------------------------
 Center     Atomic      Atomic             Coordinates (Angstroms)
 Number     Number       Type             X           Y           Z
 ---------------------------------------------------------------------
      1          6           0        1.364838    1.429173   -0.419234
      2          6           0        0.369024    0.726423    0.480086
      3          8           0       -0.952922    1.164344    0.203071
      4          6           0       -1.812909    0.054787   -0.021545
      5          6           0       -0.913651   -1.049519   -0.543181
      6          6           0        0.377410   -0.791182    0.208940
      7          8           0        1.495995   -1.441681   -0.033699
      8          1           0        1.306071    2.504892   -0.254081
      9          1           0        1.147561    1.229496   -1.469505
     10          1           0        2.374475    1.081193   -0.203025
     11          1           0        0.609809    0.922812    1.530022
     12          1           0       -2.582185    0.364469   -0.728172
     13          1           0       -2.305174   -0.243940    0.913585
     14          1           0       -1.287051   -2.063133   -0.418050
     15          1           0       -0.663777   -0.897681   -1.597792
     16          1           0       -0.035137   -1.265778    1.512209
     17          1           0        0.782557   -1.631730    1.129429
 ---------------------------------------------------------------------

 SCF Done:  E(RHF) =  -344.867253397     A.U. after    2 cycles

 The electronic state is 1-A.
 Alpha  occ. eigenvalues --  -20.58211 -20.52498 -11.37903 -11.30574 -11.30292
 Alpha  occ. eigenvalues --  -11.25662 -11.22852  -1.36325  -1.31944  -1.06175
 Alpha  occ. eigenvalues --   -1.04436  -0.92306  -0.84908  -0.79327  -0.75122
 Alpha  occ. eigenvalues --   -0.68439  -0.66928  -0.64290  -0.60557  -0.58259
 Alpha  occ. eigenvalues --   -0.56745  -0.54779  -0.53699  -0.52926  -0.51218
 Alpha  occ. eigenvalues --   -0.44686  -0.41185  -0.41023
 Alpha virt. eigenvalues --    0.02958   0.03891   0.04436   0.04935   0.06096
 Alpha virt. eigenvalues --    0.06398   0.06752   0.07079   0.08693   0.09539
 Alpha virt. eigenvalues --    0.11093   0.12230   0.12993   0.13490   0.14021

 Mulliken charges:
               1
     1  C    0.451829
     2  C    0.302735
     3  O   -0.723856
     4  C    1.050312
     5  C    0.151762
     6  C    0.009670
     7  O   -0.911166
     8  H   -0.000393
     9  H   -0.023142
    10  H    0.039692
    11  H   -0.204913
    12  H   -0.187453
    13  H   -0.210735
    14  H   -0.008854
    15  H   -0.007781
    16  H    0.193540
    17  H    0.078753
 Sum of Mulliken charges =  -0.00000

 Dipole moment (field-independent basis, Debye):
    X=             -2.6393    Y=             -0.1163    Z=              1.0623  Tot=              2.8475

 Test job not archived.
 1\1\GINC-SE131\SP\RHF\Aug-CC-pVDZ\C5H10O2\OHZDE\09-Apr-2025\0\\#t hf a
 ug-cc-pvdz iop(5/13=1,5/36=2,99/5=2) pseudo=read geom=check guess=(rea
 d,tcheck) scf=(maxcycle=1)\\title\\0,1\C,0,1.77174773,-0.09398324,-1.0
 3273584\C,0,0.91082989,0.20225292,0.17777798\O,0,0.24366702,1.44643652
 ,0.02626674\C,0,-1.15180156,1.29916354,0.25457397\C,0,-1.4661105,-0.14
 090004,-0.10275865\C,0,-0.19902781,-0.85818189,0.32064393\O,0,0.027379
 58,-2.13070049,0.07026271\H,0,2.5149421,0.69447988,-1.15058402\H,0,1.1
 6603386,-0.13474608,-1.93915596\H,0,2.27354421,-1.05320335,-0.90904018

 Normal termination of Gaussian 16 at Wed Apr  9 15:48:17 2025.
