 Gaussian 16, Revision C.01,

 ----------------------------------------------------------------------
 #t hf aug-cc-pvdz symm=none int=(grid=ultrafine) guess=(read,tcheck) s
 table=(opt,rrhf)
 ----------------------------------------------------------------------
 -----
 title
 -----
 Symbolic Z-matrix:
 Charge =  0 Multiplicity = 1

 SCF Done:  E(RHF) =  -265.059524795     A.U. after   14 cycles
 Normal termination of Gaussian 16 at Wed Apr  9 14:21:20 2025.
 Gaussian 16:  ES64L-G16RevC.01  3-Jul-2019

 ----------------------------------------------------------------------
 #t hf aug-cc-pvdz iop(5/13=1,5/36=2,99/5=2) pseudo=read geom=check gue
 ss=(read,tcheck) scf=(maxcycle=1)
 ----------------------------------------------------------------------
 -----
 title
 -----
 Structure from the checkpoint file:  "Grambow2020_wb97xd3_006059_forward_mol2.chk"
 Charge =  0 Multiplicity = 1

                         Standard orientation:
 ---------------------------------------------------------------------
 Center     Atomic      Atomic             Coordinates (Angstroms)
 Number     Number       Type             X           Y           Z
 ---------------------------------------------------------------------
      1          6           0       -0.820132    1.260037   -0.664426
      2          6           0       -0.298541    0.000006    0.026214
      3          6           0       -0.820241   -1.259534   -0.665102
      4          7           0       -0.755048   -0.000518    1.409983
      5          6           0        1.187977   -0.000044   -0.052491
      6          7           0        2.335760    0.000002   -0.079710
      7          1           0       -0.445621    2.157683   -0.169465
      8          1           0       -1.909134    1.261736   -0.614290
      9          1           0       -0.505832    1.290727   -1.707788
     10          1           0       -1.909331   -1.260052   -0.616105
     11          1           0       -0.447372   -2.157168   -0.169023
     12          1           0       -0.505228   -1.291776   -1.708201
     13          1           0       -0.417653   -0.816780    1.903847
     14          1           0       -0.419192    0.816452    1.903943
 ---------------------------------------------------------------------

 SCF Done:  E(RHF) =  -265.140355538     A.U. after    2 cycles

 The electronic state is 1-A.
 Alpha  occ. eigenvalues --  -15.63551 -15.63396 -11.32969 -11.27884 -11.25095
 Alpha  occ. eigenvalues --  -11.25088  -1.21834  -1.17741  -1.04422  -0.96341
 Alpha  occ. eigenvalues --   -0.86022  -0.72137  -0.68913  -0.64246  -0.58431
 Alpha  occ. eigenvalues --   -0.57147  -0.56064  -0.54371  -0.53938  -0.52273
 Alpha  occ. eigenvalues --   -0.47175  -0.45701  -0.42081
 Alpha virt. eigenvalues --    0.03078   0.04064   0.04075   0.05422   0.06782
 Alpha virt. eigenvalues --    0.06970   0.07358   0.09337   0.09521   0.11327
 Alpha virt. eigenvalues --    0.12146   0.13472   0.15049   0.15056   0.15196

 Mulliken charges:
               1
     1  C    1.015575
     2  C   -1.423337
     3  C    1.016193
     4  N   -0.200976
     5  C   -0.256459
     6  N   -0.178836
     7  H   -0.049374
     8  H    0.047681
     9  H    0.012194
    10  H    0.047920
    11  H   -0.049284
    12  H    0.011159
    13  H    0.003520
    14  H    0.004025
 Sum of Mulliken charges =  -0.00000

 Dipole moment (field-independent basis, Debye):
    X=             -3.0268    Y=              0.0014    Z=              0.1750  Tot=              3.0319

 Test job not archived.
 1\1\GINC-SE174\SP\RHF\Aug-CC-pVDZ\C4H8N2\OHZDE\09-Apr-2025\0\\#t hf au
 g-cc-pvdz iop(5/13=1,5/36=2,99/5=2) pseudo=read geom=check guess=(read
 ,tcheck) scf=(maxcycle=1)\\title\\0,1\C,0,-0.79425689,1.04535249,-0.60
 618309\C,0,-0.07194849,-0.10962609,0.08736869\C,0,1.44437871,0.0677669
 1,0.01112937\N,0,-0.43291853,-1.35567588,-0.57616422\C,0,-0.4736658,-0
 .12448352,1.52066245\N,0,-0.79588146,-0.16678025,2.62181376\H,0,-1.876
 50405,0.91667715,-0.5496366\H,0,-0.4987593,1.06380072,-1.65536489\H,0,
 -0.54035129,1.99839186,-0.14187754\H,0,1.74227754,0.08640723,-1.037406

 Normal termination of Gaussian 16 at Wed Apr  9 14:21:24 2025.
