 Gaussian 16, Revision C.01,

 ----------------------------------------------------------------------
 #t hf aug-cc-pvdz symm=none int=(grid=ultrafine) guess=(read,tcheck) s
 table=(opt,rrhf)
 ----------------------------------------------------------------------
 -----
 title
 -----
 Symbolic Z-matrix:
 Charge =  0 Multiplicity = 1

 SCF Done:  E(RHF) =  -310.039844572     A.U. after   16 cycles

 1\1\GINC-SE113\Stability\RHF\Aug-CC-pVDZ\C6H14O1\OHZDE\09-Apr-2025\0\\
 #t hf aug-cc-pvdz symm=none int=(grid=ultrafine) guess=(read,tcheck) s
 table=(opt,rrhf)\\title\\0,1\C,0,1.87677278,-1.77777488,0.41274197\O,0
 ,1.56816838,-0.23126106,-1.15162626\C,0,0.8184406,0.79129988,-0.842007
 2\C,0,-0.58089234,0.41726332,0.00585096\C,0,-1.13412075,1.77473029,0.4
 2287056\C,0,-1.50088311,-0.31926017,-0.95834171\C,0,-0.18573236,-0.411
 78774,1.13108058\H,0,1.64967847,-2.37023284,1.30114804\H,0,2.80881373,
 -1.23728548,0.4801149\H,0,1.764207,-2.33069324,-0.50680557\H,0,0.34069

 Normal termination of Gaussian 16 at Wed Apr  9 16:36:48 2025.
 Gaussian 16:  ES64L-G16RevC.01  3-Jul-2019

 ----------------------------------------------------------------------
 #t hf aug-cc-pvdz iop(5/13=1,5/36=2,99/5=2) pseudo=read geom=check gue
 ss=(read,tcheck) scf=(maxcycle=1)
 ----------------------------------------------------------------------
 -----
 title
 -----
 Structure from the checkpoint file:  "Grambow2020_wb97xd3_008660_forward_mol1.chk"
 Charge =  0 Multiplicity = 1

                         Standard orientation:
 ---------------------------------------------------------------------
 Center     Atomic      Atomic             Coordinates (Angstroms)
 Number     Number       Type             X           Y           Z
 ---------------------------------------------------------------------
      1          6           0       -2.486508   -0.590410   -0.062020
      2          8           0       -1.266365    1.259261    0.093410
      3          6           0       -0.047489    1.212445   -0.371065
      4          6           0        0.807419   -0.180058    0.012297
      5          6           0        2.078897   -0.074161   -0.821258
      6          6           0        1.082656   -0.134248    1.509182
      7          6           0       -0.030096   -1.307160   -0.358953
      8          1           0       -2.686601   -1.661242   -0.133625
      9          1           0       -2.882432   -0.020340   -0.888841
     10          1           0       -2.730777   -0.176237    0.903770
     11          1           0        0.629464    1.941740    0.110025
     12          1           0        0.044241    1.304994   -1.474042
     13          1           0        1.867591   -0.154530   -1.889151
     14          1           0        2.790996   -0.858885   -0.556222
     15          1           0        2.559058    0.892925   -0.644571
     16          1           0        0.147852   -0.032302    2.064046
     17          1           0        1.711185    0.722959    1.759736
     18          1           0        1.592841   -1.039124    1.849377
     19          1           0       -1.189901   -0.796085   -0.240952
     20          1           0       -0.147621   -2.129109    0.342687
     21          1           0       -0.004248   -1.627298   -1.398610
 ---------------------------------------------------------------------

 SCF Done:  E(RHF) =  -310.138397839     A.U. after    2 cycles

 The electronic state is 1-A.
 Alpha  occ. eigenvalues --  -20.46493 -11.31548 -11.29305 -11.25428 -11.24137
 Alpha  occ. eigenvalues --  -11.22938 -11.21900  -1.22880  -1.09908  -0.99262
 Alpha  occ. eigenvalues --   -0.93464  -0.93172  -0.83755  -0.74275  -0.65117
 Alpha  occ. eigenvalues --   -0.63365  -0.62420  -0.61695  -0.60730  -0.58476
 Alpha  occ. eigenvalues --   -0.56235  -0.53134  -0.52882  -0.52240  -0.50259
 Alpha  occ. eigenvalues --   -0.47777  -0.44072  -0.35504  -0.32376
 Alpha virt. eigenvalues --    0.01778   0.02522   0.04404   0.04489   0.05519
 Alpha virt. eigenvalues --    0.06170   0.06385   0.06506   0.06925   0.07365
 Alpha virt. eigenvalues --    0.08984   0.09134   0.09272   0.09702   0.10739

 Mulliken charges:
               1
     1  C    0.456772
     2  O   -0.769015
     3  C    1.192006
     4  C   -2.875665
     5  C    1.037694
     6  C    1.024745
     7  C    0.947381
     8  H   -0.015354
     9  H    0.181734
    10  H    0.156767
    11  H   -0.105003
    12  H   -0.099191
    13  H   -0.121822
    14  H   -0.031020
    15  H    0.021895
    16  H    0.079966
    17  H   -0.061260
    18  H   -0.069327
    19  H   -1.227186
    20  H    0.071585
    21  H    0.204298
 Sum of Mulliken charges =  -0.00000

 Dipole moment (field-independent basis, Debye):
    X=              0.3316    Y=             -4.7337    Z=             -0.8312  Tot=              4.8175

 Test job not archived.
 1\1\GINC-SE113\SP\RHF\Aug-CC-pVDZ\C6H14O1\OHZDE\09-Apr-2025\0\\#t hf a
 ug-cc-pvdz iop(5/13=1,5/36=2,99/5=2) pseudo=read geom=check guess=(rea
 d,tcheck) scf=(maxcycle=1)\\title\\0,1\C,0,1.87677278,-1.77777488,0.41
 274197\O,0,1.56816838,-0.23126106,-1.15162626\C,0,0.8184406,0.79129988
 ,-0.8420072\C,0,-0.58089234,0.41726332,0.00585096\C,0,-1.13412075,1.77
 473029,0.42287056\C,0,-1.50088311,-0.31926017,-0.95834171\C,0,-0.18573
 236,-0.41178774,1.13108058\H,0,1.64967847,-2.37023284,1.30114804\H,0,2
 .80881373,-1.23728548,0.4801149\H,0,1.764207,-2.33069324,-0.50680557\H

 Normal termination of Gaussian 16 at Wed Apr  9 16:36:57 2025.
