 Gaussian 16, Revision C.01,

 ----------------------------------------------------------------------
 #t hf aug-cc-pvdz symm=none int=(grid=ultrafine) guess=(read,tcheck) s
 table=(opt,rrhf)
 ----------------------------------------------------------------------
 -----
 title
 -----
 Symbolic Z-matrix:
 Charge =  0 Multiplicity = 1

 SCF Done:  E(RHF) =  -353.455409893     A.U. after   17 cycles
 Normal termination of Gaussian 16 at Wed Apr  9 16:05:42 2025.
 Gaussian 16:  ES64L-G16RevC.01  3-Jul-2019

 ----------------------------------------------------------------------
 #t hf aug-cc-pvdz iop(5/13=1,5/36=2,99/5=2) pseudo=read geom=check gue
 ss=(read,tcheck) scf=(maxcycle=1)
 ----------------------------------------------------------------------
 -----
 title
 -----
 Structure from the checkpoint file:  "Grambow2020_wb97xd3_007764_reverse_mol1.chk"
 Charge =  0 Multiplicity = 1

                         Standard orientation:
 ---------------------------------------------------------------------
 Center     Atomic      Atomic             Coordinates (Angstroms)
 Number     Number       Type             X           Y           Z
 ---------------------------------------------------------------------
      1          8           0       -2.637658    0.187492   -0.168391
      2          6           0       -1.772860   -0.603753    0.093394
      3          7           0       -0.398015   -0.344993    0.074190
      4          6           0        0.022465    0.869143    0.078190
      5          7           0        1.364983    1.163029    0.017485
      6          6           0        1.924437    0.001232   -0.046196
      7          7           0        1.838040   -1.216781   -0.061097
      8          1           0       -1.991655   -1.647205    0.364502
      9          1           0       -0.640291    1.728308    0.144798
     10          1           0        3.053906   -0.389553   -0.128543
 ---------------------------------------------------------------------

 SCF Done:  E(RHF) =  -353.558813753     A.U. after    2 cycles

 The electronic state is 1-A.
 Alpha  occ. eigenvalues --  -20.56687 -15.77743 -15.65806 -15.63493 -11.41359
 Alpha  occ. eigenvalues --  -11.37150 -11.36870  -1.37422  -1.34749  -1.25261
 Alpha  occ. eigenvalues --   -1.16944  -0.92934  -0.83193  -0.77641  -0.71073
 Alpha  occ. eigenvalues --   -0.67546  -0.66092  -0.64475  -0.63151  -0.57723
 Alpha  occ. eigenvalues --   -0.51045  -0.49268  -0.47148  -0.43959  -0.39246
 Alpha virt. eigenvalues --    0.01918   0.04258   0.04540   0.04716   0.06396
 Alpha virt. eigenvalues --    0.06768   0.09333   0.10251   0.10805   0.11429
 Alpha virt. eigenvalues --    0.13263   0.13924   0.14999   0.15594   0.16729

 Mulliken charges:
               1
     1  O   -0.428611
     2  C    0.684064
     3  N   -0.414617
     4  C    0.675203
     5  N   -0.395395
     6  C    0.140751
     7  N   -0.049827
     8  H   -0.179071
     9  H   -0.207600
    10  H    0.175102
 Sum of Mulliken charges =  -0.00000

 Dipole moment (field-independent basis, Debye):
    X=              3.9310    Y=             -1.2268    Z=              0.5481  Tot=              4.1543

 Test job not archived.
 1\1\GINC-SE454\SP\RHF\Aug-CC-pVDZ\C3H3N3O1\OHZDE\09-Apr-2025\0\\#t hf
 aug-cc-pvdz iop(5/13=1,5/36=2,99/5=2) pseudo=read geom=check guess=(re
 ad,tcheck) scf=(maxcycle=1)\\title\\0,1\O,0,2.64097614,0.80138487,0.18
 466704\C,0,1.95296576,-0.18240604,0.22036535\N,0,0.55896589,-0.2070893
 1,0.10340066\C,0,-0.05917685,0.8137511,-0.37276118\N,0,-1.43150479,0.8
 4256198,-0.46384361\C,0,-1.78901332,-0.29905132,0.02166856\N,0,-1.4988
 8013,-1.38429312,0.50053774\H,0,2.37127345,-1.18848691,0.3719618\H,0,0
 .45131695,1.69917577,-0.74325557\H,0,-2.83825711,-0.84344702,0.2163901

 Normal termination of Gaussian 16 at Wed Apr  9 16:05:46 2025.
