 Gaussian 16, Revision C.01,

 ----------------------------------------------------------------------
 #t hf aug-cc-pvdz symm=none int=(grid=ultrafine) guess=(read,tcheck) s
 table=(opt,rrhf)
 ----------------------------------------------------------------------
 -----
 title
 -----
 Symbolic Z-matrix:
 Charge =  0 Multiplicity = 1

 SCF Done:  E(RHF) =  -338.741808119     A.U. after   14 cycles
 Normal termination of Gaussian 16 at Wed Apr  9 16:26:56 2025.
 Gaussian 16:  ES64L-G16RevC.01  3-Jul-2019

 ----------------------------------------------------------------------
 #t hf aug-cc-pvdz iop(5/13=1,5/36=2,99/5=2) pseudo=read geom=check gue
 ss=(read,tcheck) scf=(maxcycle=1)
 ----------------------------------------------------------------------
 -----
 title
 -----
 Structure from the checkpoint file:  "Grambow2020_wb97xd3_008314_reverse_mol2.chk"
 Charge =  0 Multiplicity = 1

                         Standard orientation:
 ---------------------------------------------------------------------
 Center     Atomic      Atomic             Coordinates (Angstroms)
 Number     Number       Type             X           Y           Z
 ---------------------------------------------------------------------
      1          6           0       -2.465364   -0.329115   -0.001463
      2          8           0       -1.449450    0.669819    0.000811
      3          6           0       -0.205515    0.215298    0.001777
      4          6           0        0.946696    1.139071   -0.000181
      5          7           0        2.030079    0.475442   -0.001127
      6          6           0        1.617813   -0.919727   -0.000490
      7          7           0        0.174669   -1.000573    0.001766
      8          1           0       -2.372704   -0.961594   -0.885324
      9          1           0       -3.410579    0.207138   -0.009958
     10          1           0       -2.384427   -0.952794    0.889755
     11          1           0        0.899916    2.221981   -0.000115
     12          1           0        2.032412   -1.414916   -0.883202
     13          1           0        2.035968   -1.415614    0.880032
 ---------------------------------------------------------------------

 SCF Done:  E(RHF) =  -338.844823917     A.U. after    2 cycles

 The electronic state is 1-A.
 Alpha  occ. eigenvalues --  -20.62478 -15.64663 -15.62001 -11.35551 -11.30136
 Alpha  occ. eigenvalues --  -11.29940 -11.29607  -1.41163  -1.29091  -1.14069
 Alpha  occ. eigenvalues --   -1.01177  -0.94807  -0.81880  -0.78368  -0.73397
 Alpha  occ. eigenvalues --   -0.69376  -0.65802  -0.63825  -0.62674  -0.57005
 Alpha  occ. eigenvalues --   -0.53675  -0.53163  -0.46554  -0.44128  -0.43342
 Alpha  occ. eigenvalues --   -0.39515
 Alpha virt. eigenvalues --    0.03325   0.04201   0.04515   0.04768   0.06301
 Alpha virt. eigenvalues --    0.07338   0.08882   0.09171   0.10505   0.12256
 Alpha virt. eigenvalues --    0.12966   0.13266   0.14982   0.15108   0.15754

 Mulliken charges:
               1
     1  C    0.737248
     2  O   -0.578604
     3  C    0.212686
     4  C    0.661666
     5  N   -0.581032
     6  C    0.993031
     7  N   -0.483395
     8  H   -0.055484
     9  H   -0.254253
    10  H   -0.056927
    11  H   -0.234602
    12  H   -0.179724
    13  H   -0.180610
 Sum of Mulliken charges =  -0.00000

 Dipole moment (field-independent basis, Debye):
    X=             -1.6673    Y=             -0.0627    Z=             -0.0039  Tot=              1.6685

 Test job not archived.
 1\1\GINC-SE226\SP\RHF\Aug-CC-pVDZ\C4H6N2O1\OHZDE\09-Apr-2025\0\\#t hf
 aug-cc-pvdz iop(5/13=1,5/36=2,99/5=2) pseudo=read geom=check guess=(re
 ad,tcheck) scf=(maxcycle=1)\\title\\0,1\C,0,2.21390554,0.37987075,-0.4
 3237137\O,0,1.32366542,-0.69863218,-0.15986817\C,0,0.05147594,-0.36177
 761,-0.01145936\C,0,-0.98154325,-1.37885606,0.27027492\N,0,-2.11882498
 ,-0.82112248,0.3684918\C,0,-1.86462916,0.59472512,0.15119269\N,0,-0.45
 413792,0.8052482,-0.08417933\H,0,1.92454247,0.88621078,-1.354171\H,0,3
 .20014481,-0.06566398,-0.53188221\H,0,2.1974882,1.09994368,0.38678742\

 Normal termination of Gaussian 16 at Wed Apr  9 16:27:00 2025.
