 Gaussian 16, Revision C.01,

 ----------------------------------------------------------------------
 #t hf aug-cc-pvdz symm=none int=(grid=ultrafine) guess=(read,tcheck) s
 table=(opt,rrhf)
 ----------------------------------------------------------------------
 -----
 title
 -----
 Symbolic Z-matrix:
 Charge =  0 Multiplicity = 1

 SCF Done:  E(RHF) =  -343.633077712     A.U. after   14 cycles
 Normal termination of Gaussian 16 at Wed Apr  9 16:22:05 2025.
 Gaussian 16:  ES64L-G16RevC.01  3-Jul-2019

 ----------------------------------------------------------------------
 #t hf aug-cc-pvdz iop(5/13=1,5/36=2,99/5=2) pseudo=read geom=check gue
 ss=(read,tcheck) scf=(maxcycle=1)
 ----------------------------------------------------------------------
 -----
 title
 -----
 Structure from the checkpoint file:  "Grambow2020_wb97xd3_008141_reverse_mol2.chk"
 Charge =  0 Multiplicity = 1

                         Standard orientation:
 ---------------------------------------------------------------------
 Center     Atomic      Atomic             Coordinates (Angstroms)
 Number     Number       Type             X           Y           Z
 ---------------------------------------------------------------------
      1          6           0       -0.955974   -1.218441    0.141599
      2          8           0        0.191779   -1.161088   -0.689164
      3          6           0        0.960540   -0.001602   -0.487497
      4          6           0        1.663047    0.000077    0.864075
      5          6           0       -1.623007    0.003315    0.564849
      6          6           0       -0.950380    1.221976    0.141949
      7          8           0        0.192030    1.156314   -0.695912
      8          1           0       -0.754099   -1.772100    1.076063
      9          1           0       -1.703626   -1.834465   -0.372650
     10          1           0        1.700616   -0.003032   -1.287856
     11          1           0        2.276088    0.897002    0.954580
     12          1           0        2.306499   -0.876704    0.938459
     13          1           0        0.965886   -0.021002    1.704062
     14          1           0       -1.692849    1.851710   -0.362070
     15          1           0       -0.734348    1.764837    1.080165
 ---------------------------------------------------------------------

 SCF Done:  E(RHF) =  -343.739934677     A.U. after    2 cycles

 The electronic state is 1-A.
 Alpha  occ. eigenvalues --  -20.58173 -20.58163 -11.35046 -11.30383 -11.30375
 Alpha  occ. eigenvalues --  -11.27898 -11.23900  -1.39413  -1.31537  -1.08210
 Alpha  occ. eigenvalues --   -1.00407  -0.95127  -0.87617  -0.74179  -0.71759
 Alpha  occ. eigenvalues --   -0.70973  -0.64105  -0.63740  -0.62270  -0.58537
 Alpha  occ. eigenvalues --   -0.57049  -0.56698  -0.53489  -0.50053  -0.45336
 Alpha  occ. eigenvalues --   -0.45002  -0.37498
 Alpha virt. eigenvalues --    0.03382   0.04550   0.04580   0.04916   0.06205
 Alpha virt. eigenvalues --    0.06446   0.06966   0.07462   0.07848   0.09364
 Alpha virt. eigenvalues --    0.11998   0.12201   0.13708   0.13823   0.14878

 Mulliken charges:
               1
     1  C    0.875809
     2  O   -0.704845
     3  C    0.909053
     4  C    0.429422
     5  C   -0.929007
     6  C    0.871204
     7  O   -0.704470
     8  H    0.028267
     9  H   -0.111636
    10  H   -0.319736
    11  H   -0.009920
    12  H   -0.013874
    13  H   -0.238807
    14  H   -0.114844
    15  H    0.033383
 Sum of Mulliken charges =  -0.00000

 Dipole moment (field-independent basis, Debye):
    X=              0.9303    Y=              0.0087    Z=              1.1640  Tot=              1.4901

 Test job not archived.
 1\1\GINC-SE232\SP\RHF\Aug-CC-pVDZ\C5H8O2\OHZDE\09-Apr-2025\0\\#t hf au
 g-cc-pvdz iop(5/13=1,5/36=2,99/5=2) pseudo=read geom=check guess=(read
 ,tcheck) scf=(maxcycle=1)\\title\\0,1\C,0,-1.2403329,0.8422243,0.61235
 929\O,0,-0.83758875,0.99019676,-0.73919293\C,0,0.28871077,0.21534266,-
 1.06648844\C,0,-0.02027501,-1.27607977,-1.08772062\C,0,-0.25977814,0.5
 5359476,1.64771789\C,0,1.08924686,0.34632298,1.14415557\O,0,1.3760532,
 0.52776539,-0.23288653\H,0,-2.01170938,0.05915138,0.72321645\H,0,-1.75
 786516,1.76418074,0.9040403\H,0,0.58624801,0.54458662,-2.06215868\H,0,

 Normal termination of Gaussian 16 at Wed Apr  9 16:22:10 2025.
