 Gaussian 16, Revision C.01,

 ----------------------------------------------------------------------
 #t hf aug-cc-pvdz symm=none int=(grid=ultrafine) guess=(read,tcheck) s
 table=(opt,rrhf)
 ----------------------------------------------------------------------
 -----
 title
 -----
 Symbolic Z-matrix:
 Charge =  0 Multiplicity = 1

 SCF Done:  E(RHF) =  -284.716669196     A.U. after   15 cycles
 Normal termination of Gaussian 16 at Wed Apr  9 03:05:26 2025.
 Gaussian 16:  ES64L-G16RevC.01  3-Jul-2019

 ----------------------------------------------------------------------
 #t hf aug-cc-pvdz iop(5/13=1,5/36=2,99/5=2) pseudo=read geom=check gue
 ss=(read,tcheck) scf=(maxcycle=1)
 ----------------------------------------------------------------------
 -----
 title
 -----
 Structure from the checkpoint file:  "Grambow2020_b97d3_006537_forward_mol1.chk"
 Charge =  0 Multiplicity = 1

                         Standard orientation:
 ---------------------------------------------------------------------
 Center     Atomic      Atomic             Coordinates (Angstroms)
 Number     Number       Type             X           Y           Z
 ---------------------------------------------------------------------
      1          6           0       -0.712825    1.172919   -0.185246
      2          6           0       -1.330158   -0.148362    0.336732
      3          8           0       -0.557510   -1.233909   -0.228616
      4          6           0        0.785749   -0.806575   -0.236938
      5          7           0        1.306106    0.021378    0.757852
      6          6           0        0.799002    0.906837   -0.175966
      7          1           0       -1.073617    1.456764   -1.184986
      8          1           0       -0.929943    1.991966    0.514952
      9          1           0       -1.263863   -0.180347    1.430321
     10          1           0       -2.366772   -0.299529    0.019715
     11          1           0        1.442289   -1.574171   -0.666804
     12          1           0        0.802600   -0.063021   -1.334951
     13          1           0        1.456037    1.641048   -0.685774
 ---------------------------------------------------------------------

 SCF Done:  E(RHF) =  -284.799530480     A.U. after    2 cycles

 The electronic state is 1-A.
 Alpha  occ. eigenvalues --  -20.59546 -15.56212 -11.37976 -11.35988 -11.30316
 Alpha  occ. eigenvalues --  -11.26509  -1.37485  -1.22415  -1.04976  -0.92024
 Alpha  occ. eigenvalues --   -0.85299  -0.79117  -0.72698  -0.69769  -0.63556
 Alpha  occ. eigenvalues --   -0.60469  -0.57243  -0.56707  -0.53071  -0.50033
 Alpha  occ. eigenvalues --   -0.48775  -0.40512  -0.32306
 Alpha virt. eigenvalues --    0.02895   0.03917   0.04224   0.05031   0.06305
 Alpha virt. eigenvalues --    0.07119   0.07588   0.10105   0.10866   0.12096
 Alpha virt. eigenvalues --    0.12754   0.14003   0.14060   0.14390   0.15379

 Mulliken charges:
               1
     1  C    0.024201
     2  C    0.896771
     3  O   -0.698313
     4  C    0.759825
     5  N   -0.848036
     6  C    0.191852
     7  H   -0.099748
     8  H   -0.000320
     9  H   -0.071261
    10  H   -0.190571
    11  H   -0.182468
    12  H    0.356397
    13  H   -0.138328
 Sum of Mulliken charges =   0.00000

 Dipole moment (field-independent basis, Debye):
    X=             -1.6336    Y=              2.2528    Z=             -2.5831  Tot=              3.7969

 Test job not archived.
 1\1\GINC-SE284\SP\RHF\Aug-CC-pVDZ\C4H7N1O1\OHZDE\09-Apr-2025\0\\#t hf
 aug-cc-pvdz iop(5/13=1,5/36=2,99/5=2) pseudo=read geom=check guess=(re
 ad,tcheck) scf=(maxcycle=1)\\title\\0,1\C,0,0.6143489,-0.87654647,0.30
 564916\C,0,-0.90912342,-0.98698748,0.04839917\O,0,-1.4727901,0.3314044
 ,0.24623872\C,0,-0.53455252,1.24874763,-0.26875457\N,0,0.26183269,0.95
 187069,-1.37488262\C,0,0.99745884,0.47969109,-0.30291702\H,0,0.8814683
 3,-0.93866468,1.37101637\H,0,1.14628795,-1.66924347,-0.23926339\H,0,-1
 .08694342,-1.31197628,-0.9831614\H,0,-1.42082503,-1.65752367,0.7458683

 Normal termination of Gaussian 16 at Wed Apr  9 03:05:30 2025.
