 Gaussian 16, Revision C.01,

 ----------------------------------------------------------------------
 #t hf aug-cc-pvdz symm=none int=(grid=ultrafine) guess=(read,tcheck) s
 table=(opt,rrhf)
 ----------------------------------------------------------------------
 -----
 title
 -----
 Symbolic Z-matrix:
 Charge =  0 Multiplicity = 1

 SCF Done:  E(RHF) =  -373.374162070     A.U. after   15 cycles
 Normal termination of Gaussian 16 at Wed Apr  9 03:26:34 2025.
 Gaussian 16:  ES64L-G16RevC.01  3-Jul-2019

 ----------------------------------------------------------------------
 #t hf aug-cc-pvdz iop(5/13=1,5/36=2,99/5=2) pseudo=read geom=check gue
 ss=(read,tcheck) scf=(maxcycle=1)
 ----------------------------------------------------------------------
 -----
 title
 -----
 Structure from the checkpoint file:  "Grambow2020_wb97xd3_006699_forward_mol2.chk"
 Charge =  0 Multiplicity = 1

                         Standard orientation:
 ---------------------------------------------------------------------
 Center     Atomic      Atomic             Coordinates (Angstroms)
 Number     Number       Type             X           Y           Z
 ---------------------------------------------------------------------
      1          8           0       -2.473506   -0.397368   -0.002447
      2          6           0       -1.664985    0.482614    0.001563
      3          6           0       -0.194789    0.244189    0.000904
      4          7           0        0.719070    1.158625   -0.000533
      5          6           0        1.857603    0.403238   -0.001192
      6          7           0        1.652111   -0.878286    0.000161
      7          8           0        0.284486   -0.991669    0.001497
      8          1           0       -1.927451    1.554334    0.005919
      9          1           0        2.854369    0.815344   -0.003377
 ---------------------------------------------------------------------

 SCF Done:  E(RHF) =  -373.486165977     A.U. after    2 cycles

 The electronic state is 1-A.
 Alpha  occ. eigenvalues --  -20.70667 -20.62381 -15.72629 -15.67903 -11.39666
 Alpha  occ. eigenvalues --  -11.39309 -11.34774  -1.52552  -1.41289  -1.26285
 Alpha  occ. eigenvalues --   -1.17682  -0.96676  -0.90085  -0.84423  -0.76856
 Alpha  occ. eigenvalues --   -0.73109  -0.71780  -0.67047  -0.63756  -0.59282
 Alpha  occ. eigenvalues --   -0.55287  -0.50421  -0.50007  -0.49258  -0.42931
 Alpha virt. eigenvalues --    0.02591   0.03122   0.03684   0.07359   0.07774
 Alpha virt. eigenvalues --    0.08920   0.09910   0.11258   0.13023   0.13517
 Alpha virt. eigenvalues --    0.13643   0.14072   0.15717   0.17394   0.17567

 Mulliken charges:
               1
     1  O   -0.433179
     2  C    0.961287
     3  C    0.030481
     4  N   -0.440791
     5  C    0.835101
     6  N   -0.120322
     7  O   -0.586413
     8  H   -0.095570
     9  H   -0.150593
 Sum of Mulliken charges =  -0.00000

 Dipole moment (field-independent basis, Debye):
    X=              1.5241    Y=              3.0953    Z=              0.0075  Tot=              3.4502

 Test job not archived.
 1\1\GINC-SE109\SP\RHF\Aug-CC-pVDZ\C3H2N2O2\OHZDE\09-Apr-2025\0\\#t hf
 aug-cc-pvdz iop(5/13=1,5/36=2,99/5=2) pseudo=read geom=check guess=(re
 ad,tcheck) scf=(maxcycle=1)\\title\\0,1\O,0,-2.57432177,-0.72405703,-0
 .17326724\C,0,-1.79217504,0.17127177,-0.05193227\C,0,-0.31681647,-0.02
 933788,-0.01455984\N,0,0.56976892,0.90341893,0.10899703\C,0,1.7286994,
 0.18016969,0.08335636\N,0,1.5602048,-1.10022257,-0.04601661\O,0,0.1973
 7652,-1.24718566,-0.11203024\H,0,-2.08528819,1.23071356,0.04376611\H,0
 ,2.71255184,0.61522918,0.1616867\\Version=ES64L-G16RevC.01\State=1-A\H

 Normal termination of Gaussian 16 at Wed Apr  9 03:26:41 2025.
