 Gaussian 16, Revision C.01,

 ----------------------------------------------------------------------
 #t hf aug-cc-pvdz symm=none int=(grid=ultrafine) guess=(read,tcheck) s
 table=(opt,rrhf)
 ----------------------------------------------------------------------
 -----
 title
 -----
 Symbolic Z-matrix:
 Charge =  0 Multiplicity = 1

 SCF Done:  E(RHF) =  -289.080959869     A.U. after   15 cycles

 1\1\GINC-SE232\Stability\RHF\Aug-CC-pVDZ\C6H13N1\OHZDE\09-Apr-2025\0\\
 #t hf aug-cc-pvdz symm=none int=(grid=ultrafine) guess=(read,tcheck) s
 table=(opt,rrhf)\\title\\0,1\C,0,-1.16274138,1.91731022,0.65719273\C,0
 ,-0.53345175,0.59310243,0.99970668\N,0,-0.86184576,-0.55845417,-0.4210
 3799\C,0,-0.9411213,-2.01588366,-0.24845583\C,0,0.42354661,0.06254433,
 -0.02446236\C,0,1.5160758,-0.84501985,0.51682005\C,0,0.96913613,0.9681
 4733,-1.11601803\H,0,-2.01992874,2.12594589,1.29694882\H,0,-0.40079522
 ,2.6766458,0.86890441\H,0,-1.45915358,2.04094364,-0.38801932\H,0,-1.45

 Normal termination of Gaussian 16 at Wed Apr  9 17:02:58 2025.
 Gaussian 16:  ES64L-G16RevC.01  3-Jul-2019

 ----------------------------------------------------------------------
 #t hf aug-cc-pvdz iop(5/13=1,5/36=2,99/5=2) pseudo=read geom=check gue
 ss=(read,tcheck) scf=(maxcycle=1)
 ----------------------------------------------------------------------
 -----
 title
 -----
 Structure from the checkpoint file:  "Grambow2020_wb97xd3_009127_reverse_mol1.chk"
 Charge =  0 Multiplicity = 1

                         Standard orientation:
 ---------------------------------------------------------------------
 Center     Atomic      Atomic             Coordinates (Angstroms)
 Number     Number       Type             X           Y           Z
 ---------------------------------------------------------------------
      1          6           0        2.128113   -0.833393   -0.236543
      2          6           0        0.764243   -0.542638   -0.804141
      3          7           0       -0.465871   -0.770876    0.569601
      4          6           0       -1.863445   -1.149502    0.317413
      5          6           0       -0.023153    0.494247   -0.061754
      6          6           0       -1.032294    1.264475   -0.897614
      7          6           0        0.657509    1.412489    0.939649
      8          1           0        2.541804   -1.752694   -0.650465
      9          1           0        2.771661   -0.007077   -0.560614
     10          1           0        2.184098   -0.876563    0.854610
     11          1           0        0.002479   -1.497452   -0.239738
     12          1           0       -2.513137   -0.404169    0.776894
     13          1           0       -2.119182   -1.232821   -0.742455
     14          1           0       -2.044205   -2.109262    0.801665
     15          1           0       -0.516596    2.094681   -1.383573
     16          1           0       -1.465598    0.647204   -1.681793
     17          1           0       -1.830921    1.689586   -0.283510
     18          1           0        1.255993    0.859229    1.659434
     19          1           0       -0.090873    1.980710    1.496295
     20          1           0        1.299737    2.130694    0.423985
 ---------------------------------------------------------------------

 SCF Done:  E(RHF) =  -289.168305997     A.U. after    2 cycles

 The electronic state is 1-A.
 Alpha  occ. eigenvalues --  -15.66027 -11.27648 -11.26789 -11.25294 -11.22422
 Alpha  occ. eigenvalues --  -11.22383 -11.22370  -1.23480  -1.04502  -0.99935
 Alpha  occ. eigenvalues --   -0.93428  -0.92298  -0.79089  -0.74493  -0.64124
 Alpha  occ. eigenvalues --   -0.63191  -0.61290  -0.60671  -0.56556  -0.56020
 Alpha  occ. eigenvalues --   -0.54464  -0.53449  -0.53288  -0.51339  -0.48478
 Alpha  occ. eigenvalues --   -0.45204  -0.39873  -0.32397
 Alpha virt. eigenvalues --    0.03385   0.04080   0.04188   0.04594   0.06466
 Alpha virt. eigenvalues --    0.06556   0.06989   0.07212   0.07753   0.08595
 Alpha virt. eigenvalues --    0.09326   0.09610   0.09903   0.11383   0.12900

 Mulliken charges:
               1
     1  C    0.577229
     2  C   -0.874255
     3  N   -0.885568
     4  C    0.738539
     5  C   -1.323131
     6  C    0.885297
     7  C    0.871421
     8  H   -0.153274
     9  H    0.022554
    10  H   -0.002608
    11  H    0.586082
    12  H   -0.150305
    13  H    0.002881
    14  H   -0.298498
    15  H   -0.033548
    16  H   -0.040057
    17  H    0.039956
    18  H   -0.048132
    19  H    0.009576
    20  H    0.075841
 Sum of Mulliken charges =  -0.00000

 Dipole moment (field-independent basis, Debye):
    X=             -0.8506    Y=              0.5741    Z=              0.8173  Tot=              1.3119

 Test job not archived.
 1\1\GINC-SE232\SP\RHF\Aug-CC-pVDZ\C6H13N1\OHZDE\09-Apr-2025\0\\#t hf a
 ug-cc-pvdz iop(5/13=1,5/36=2,99/5=2) pseudo=read geom=check guess=(rea
 d,tcheck) scf=(maxcycle=1)\\title\\0,1\C,0,-1.16274138,1.91731022,0.65
 719273\C,0,-0.53345175,0.59310243,0.99970668\N,0,-0.86184576,-0.558454
 17,-0.42103799\C,0,-0.9411213,-2.01588366,-0.24845583\C,0,0.42354661,0
 .06254433,-0.02446236\C,0,1.5160758,-0.84501985,0.51682005\C,0,0.96913
 613,0.96814733,-1.11601803\H,0,-2.01992874,2.12594589,1.29694882\H,0,-
 0.40079522,2.6766458,0.86890441\H,0,-1.45915358,2.04094364,-0.38801932

 Normal termination of Gaussian 16 at Wed Apr  9 17:03:06 2025.
