 Gaussian 16, Revision C.01,

 ----------------------------------------------------------------------
 #t hf aug-cc-pvdz symm=none int=(grid=ultrafine) guess=(read,tcheck) s
 table=(opt,rrhf)
 ----------------------------------------------------------------------
 -----
 title
 -----
 Symbolic Z-matrix:
 Charge =  0 Multiplicity = 1

 SCF Done:  E(RHF) =  -344.760531602     A.U. after   17 cycles

 1\1\GINC-SE082\Stability\RHF\Aug-CC-pVDZ\C5H10O2\OHZDE\09-Apr-2025\0\\
 #t hf aug-cc-pvdz symm=none int=(grid=ultrafine) guess=(read,tcheck) s
 table=(opt,rrhf)\\title\\0,1\C,0,-2.3758281,-0.55001382,-0.10714622\C,
 0,-0.97700656,-0.06082303,-0.511568\O,0,-1.12238623,1.15171832,-1.1792
 2316\C,0,-0.1755885,0.02951959,0.73145665\C,0,2.28104609,-0.56113193,0
 .52772935\C,0,2.32124677,0.76916663,0.19813715\O,0,1.31449359,1.439000
 22,-0.1736373\H,0,-2.34349788,-1.54466736,0.33767764\H,0,-2.83925524,0
 .14777604,0.59150587\H,0,-2.98745443,-0.58612515,-1.00821345\H,0,-0.53

 Normal termination of Gaussian 16 at Wed Apr  9 03:33:39 2025.
 Gaussian 16:  ES64L-G16RevC.01  3-Jul-2019

 ----------------------------------------------------------------------
 #t hf aug-cc-pvdz iop(5/13=1,5/36=2,99/5=2) pseudo=read geom=check gue
 ss=(read,tcheck) scf=(maxcycle=1)
 ----------------------------------------------------------------------
 -----
 title
 -----
 Structure from the checkpoint file:  "Grambow2020_wb97xd3_007098_forward_mol1.chk"
 Charge =  0 Multiplicity = 1

                         Standard orientation:
 ---------------------------------------------------------------------
 Center     Atomic      Atomic             Coordinates (Angstroms)
 Number     Number       Type             X           Y           Z
 ---------------------------------------------------------------------
      1          6           0       -2.543266   -0.686239    0.063246
      2          6           0       -1.187828   -0.072304   -0.318117
      3          8           0       -1.308489    1.312490   -0.247824
      4          6           0       -0.181855   -0.636210    0.612244
      5          6           0        2.123087   -1.063278   -0.352268
      6          6           0        2.254700    0.248601    0.024022
      7          8           0        1.280430    1.023770    0.248422
      8          1           0       -2.546877   -1.768908   -0.063495
      9          1           0       -2.800550   -0.438167    1.093806
     10          1           0       -3.299261   -0.251910   -0.590317
     11          1           0       -0.946509   -0.402214   -1.339898
     12          1           0       -0.403580    1.657510   -0.214508
     13          1           0       -0.030253   -0.155513    1.567881
     14          1           0       -0.069685   -1.710186    0.598973
     15          1           0        1.303762   -1.307425   -1.017747
     16          1           0        2.970117   -1.737918   -0.356404
     17          1           0        3.258278    0.681242    0.142166
 ---------------------------------------------------------------------

 SCF Done:  E(RHF) =  -344.870234102     A.U. after    2 cycles

 The electronic state is 1-A.
 Alpha  occ. eigenvalues --  -20.57115 -20.52530 -11.37892 -11.32962 -11.30383
 Alpha  occ. eigenvalues --  -11.26206 -11.19510  -1.34387  -1.30039  -1.08685
 Alpha  occ. eigenvalues --   -0.97823  -0.96538  -0.84202  -0.76420  -0.73364
 Alpha  occ. eigenvalues --   -0.70817  -0.65856  -0.65090  -0.60128  -0.58983
 Alpha  occ. eigenvalues --   -0.57480  -0.56160  -0.54781  -0.53207  -0.51486
 Alpha  occ. eigenvalues --   -0.47432  -0.41495  -0.30078
 Alpha virt. eigenvalues --    0.01481   0.03948   0.04237   0.04466   0.04740
 Alpha virt. eigenvalues --    0.06105   0.06276   0.07061   0.07656   0.08536
 Alpha virt. eigenvalues --    0.09403   0.10967   0.12690   0.13070   0.14049

 Mulliken charges:
               1
     1  C    0.474278
     2  C    0.123139
     3  O   -0.533398
     4  C    0.684865
     5  C    0.434080
     6  C    0.521273
     7  O   -0.667444
     8  H   -0.024425
     9  H    0.008301
    10  H   -0.010420
    11  H   -0.129917
    12  H    0.207190
    13  H   -0.066657
    14  H   -0.117975
    15  H   -0.299716
    16  H   -0.340573
    17  H   -0.262601
 Sum of Mulliken charges =  -0.00000

 Dipole moment (field-independent basis, Debye):
    X=             -2.0164    Y=             -3.7180    Z=              0.6916  Tot=              4.2858

 Test job not archived.
 1\1\GINC-SE082\SP\RHF\Aug-CC-pVDZ\C5H10O2\OHZDE\09-Apr-2025\0\\#t hf a
 ug-cc-pvdz iop(5/13=1,5/36=2,99/5=2) pseudo=read geom=check guess=(rea
 d,tcheck) scf=(maxcycle=1)\\title\\0,1\C,0,-2.3758281,-0.55001382,-0.1
 0714622\C,0,-0.97700656,-0.06082303,-0.511568\O,0,-1.12238623,1.151718
 32,-1.17922316\C,0,-0.1755885,0.02951959,0.73145665\C,0,2.28104609,-0.
 56113193,0.52772935\C,0,2.32124677,0.76916663,0.19813715\O,0,1.3144935
 9,1.43900022,-0.1736373\H,0,-2.34349788,-1.54466736,0.33767764\H,0,-2.
 83925524,0.14777604,0.59150587\H,0,-2.98745443,-0.58612515,-1.00821345

 Normal termination of Gaussian 16 at Wed Apr  9 03:33:45 2025.
