 Gaussian 16, Revision C.01,

 ----------------------------------------------------------------------
 #t hf aug-cc-pvdz symm=none int=(grid=ultrafine) guess=(read,tcheck) s
 table=(opt,rrhf)
 ----------------------------------------------------------------------
 -----
 title
 -----
 Symbolic Z-matrix:
 Charge =  0 Multiplicity = 1

 SCF Done:  E(RHF) =  -322.638962566     A.U. after   15 cycles
 Normal termination of Gaussian 16 at Wed Apr  9 16:02:59 2025.
 Gaussian 16:  ES64L-G16RevC.01  3-Jul-2019

 ----------------------------------------------------------------------
 #t hf aug-cc-pvdz iop(5/13=1,5/36=2,99/5=2) pseudo=read geom=check gue
 ss=(read,tcheck) scf=(maxcycle=1)
 ----------------------------------------------------------------------
 -----
 title
 -----
 Structure from the checkpoint file:  "Grambow2020_wb97xd3_007715_reverse_mol2.chk"
 Charge =  0 Multiplicity = 1

                         Standard orientation:
 ---------------------------------------------------------------------
 Center     Atomic      Atomic             Coordinates (Angstroms)
 Number     Number       Type             X           Y           Z
 ---------------------------------------------------------------------
      1          6           0        2.549699   -0.317880   -0.151731
      2          7           0        1.232679   -0.796181    0.222119
      3          6           0        0.256148   -0.047546    0.202204
      4          8           0        0.159564    1.338220   -0.186407
      5          6           0       -1.167723    1.383530   -0.057690
      6          6           0       -2.101041   -1.043278   -0.321564
      7          6           0       -1.232117   -0.064273    0.443732
      8          1           0        3.216680   -0.445616    0.701312
      9          1           0        2.928388   -0.944248   -0.959546
     10          1           0        2.563656    0.727785   -0.466922
     11          1           0       -3.153188   -0.800187   -0.170818
     12          1           0       -1.892431   -1.003622   -1.391441
     13          1           0       -1.927473   -2.062728    0.022457
     14          1           0       -1.470705   -0.067195    1.511680
 ---------------------------------------------------------------------

 SCF Done:  E(RHF) =  -322.737893225     A.U. after    2 cycles

 The electronic state is 1-A.
 Alpha  occ. eigenvalues --  -20.65321 -15.64081 -11.36596 -11.32683 -11.27398
 Alpha  occ. eigenvalues --  -11.27135 -11.25273  -1.44821  -1.22500  -1.07944
 Alpha  occ. eigenvalues --   -0.97079  -0.92749  -0.85050  -0.74469  -0.69007
 Alpha  occ. eigenvalues --   -0.67195  -0.66276  -0.60814  -0.59625  -0.58702
 Alpha  occ. eigenvalues --   -0.54483  -0.54106  -0.51661  -0.43458  -0.43099
 Alpha  occ. eigenvalues --   -0.38216
 Alpha virt. eigenvalues --    0.03322   0.03848   0.04201   0.05542   0.06309
 Alpha virt. eigenvalues --    0.06612   0.07203   0.08475   0.09898   0.10974
 Alpha virt. eigenvalues --    0.11499   0.13031   0.13381   0.13694   0.14728

 Mulliken charges:
               1
     1  C    0.751423
     2  N   -0.537311
     3  C    0.462357
     4  O   -0.615063
     5  C    0.170588
     6  C    0.620971
     7  C   -0.456851
     8  H   -0.130879
     9  H   -0.133676
    10  H   -0.117324
    11  H   -0.032455
    12  H   -0.015216
    13  H    0.035343
    14  H   -0.001906
 Sum of Mulliken charges =  -0.00000

 Dipole moment (field-independent basis, Debye):
    X=              0.3321    Y=             -1.9501    Z=              0.4847  Tot=              2.0367

 Test job not archived.
 1\1\GINC-SE087\SP\RHF\Aug-CC-pVDZ\C5H7N1O1\OHZDE\09-Apr-2025\0\\#t hf
 aug-cc-pvdz iop(5/13=1,5/36=2,99/5=2) pseudo=read geom=check guess=(re
 ad,tcheck) scf=(maxcycle=1)\\title\\0,1\C,0,2.40002591,0.1600465,0.887
 70001\N,0,1.02586396,0.58662016,0.70661361\C,0,0.3313143,0.1234699,-0.
 19757546\O,0,0.64614641,-0.87833482,-1.1864951\C,0,-0.59037498,-0.9140
 1596,-1.68654913\C,0,-2.24670509,-0.093925,0.16118746\C,0,-1.07005378,
 0.20049122,-0.74874045\H,0,3.04655395,1.0324788,0.78908191\H,0,2.51350
 713,-0.21782463,1.90388974\H,0,2.71855811,-0.60682352,0.17819094\H,0,-

 Normal termination of Gaussian 16 at Wed Apr  9 16:03:04 2025.
