 Gaussian 16, Revision C.01,

 ----------------------------------------------------------------------
 #t hf aug-cc-pvdz symm=none int=(grid=ultrafine) guess=(read,tcheck) s
 table=(opt,rrhf)
 ----------------------------------------------------------------------
 -----
 title
 -----
 Symbolic Z-matrix:
 Charge =  0 Multiplicity = 1

 SCF Done:  E(RHF) =  -323.923050784     A.U. after   14 cycles
 Normal termination of Gaussian 16 at Wed Apr  9 16:48:44 2025.
 Gaussian 16:  ES64L-G16RevC.01  3-Jul-2019

 ----------------------------------------------------------------------
 #t hf aug-cc-pvdz iop(5/13=1,5/36=2,99/5=2) pseudo=read geom=check gue
 ss=(read,tcheck) scf=(maxcycle=1)
 ----------------------------------------------------------------------
 -----
 title
 -----
 Structure from the checkpoint file:  "Grambow2020_wb97xd3_008932_forward_mol2.chk"
 Charge =  0 Multiplicity = 1

                         Standard orientation:
 ---------------------------------------------------------------------
 Center     Atomic      Atomic             Coordinates (Angstroms)
 Number     Number       Type             X           Y           Z
 ---------------------------------------------------------------------
      1          6           0        2.285919   -0.175547    0.491408
      2          6           0        1.113152   -0.232155   -0.465212
      3          6           0        0.053202   -1.343415   -0.252067
      4          7           0       -0.919424   -0.287293   -0.011204
      5          6           0       -2.318338   -0.315905    0.299342
      6          6           0       -0.039924    0.740914   -0.169848
      7          8           0       -0.166862    1.933531   -0.086096
      8          1           0        1.948442   -0.260469    1.526934
      9          1           0        2.810871    0.774835    0.388244
     10          1           0        2.996314   -0.981159    0.296648
     11          1           0        1.442372   -0.156061   -1.502968
     12          1           0       -0.168480   -1.963247   -1.125020
     13          1           0        0.233632   -1.984141    0.616521
     14          1           0       -2.653426    0.712764    0.428622
     15          1           0       -2.895233   -0.775665   -0.507743
     16          1           0       -2.507692   -0.867413    1.224221
 ---------------------------------------------------------------------

 SCF Done:  E(RHF) =  -324.024766926     A.U. after    2 cycles

 The electronic state is 1-A.
 Alpha  occ. eigenvalues --  -20.53384 -15.64750 -11.35231 -11.28450 -11.27587
 Alpha  occ. eigenvalues --  -11.25714 -11.23860  -1.34880  -1.25066  -1.06924
 Alpha  occ. eigenvalues --   -0.97847  -0.90714  -0.85103  -0.71701  -0.68893
 Alpha  occ. eigenvalues --   -0.67130  -0.66889  -0.60404  -0.59334  -0.57132
 Alpha  occ. eigenvalues --   -0.55776  -0.54462  -0.52691  -0.50893  -0.48613
 Alpha  occ. eigenvalues --   -0.41721  -0.37686
 Alpha virt. eigenvalues --    0.02933   0.03811   0.04062   0.04916   0.06294
 Alpha virt. eigenvalues --    0.06699   0.07108   0.07664   0.08087   0.10852
 Alpha virt. eigenvalues --    0.11726   0.12408   0.12719   0.13951   0.14738

 Mulliken charges:
               1
     1  C    0.644759
     2  C   -0.715314
     3  C    1.026317
     4  N   -0.423254
     5  C    0.762334
     6  C    0.275821
     7  O   -0.465138
     8  H   -0.027937
     9  H    0.006522
    10  H   -0.030298
    11  H   -0.106827
    12  H   -0.216307
    13  H   -0.246434
    14  H   -0.230898
    15  H   -0.124960
    16  H   -0.128388
 Sum of Mulliken charges =  -0.00000

 Dipole moment (field-independent basis, Debye):
    X=             -0.0684    Y=             -4.4411    Z=             -0.0855  Tot=              4.4425

 Test job not archived.
 1\1\GINC-SE041\SP\RHF\Aug-CC-pVDZ\C5H9N1O1\OHZDE\09-Apr-2025\0\\#t hf
 aug-cc-pvdz iop(5/13=1,5/36=2,99/5=2) pseudo=read geom=check guess=(re
 ad,tcheck) scf=(maxcycle=1)\\title\\0,1\C,0,2.21616157,-0.35951397,0.2
 0350986\C,0,1.03906567,0.49925781,-0.20960928\C,0,-0.08117944,-0.15961
 334,-1.05504561\N,0,-0.9919483,0.11276179,0.04755235\C,0,-2.38926639,-
 0.14739204,0.23204975\C,0,-0.05637557,0.69004337,0.85213212\O,0,-0.115
 6041,1.14491553,1.96345857\H,0,1.87769033,-1.31816739,0.603306\H,0,2.7
 9353676,0.14146541,0.98139083\H,0,2.87938682,-0.55669359,-0.64079808\H

 Normal termination of Gaussian 16 at Wed Apr  9 16:48:59 2025.
