 Gaussian 16, Revision C.01,

 ----------------------------------------------------------------------
 #t hf aug-cc-pvdz symm=none int=(grid=ultrafine) guess=(read,tcheck) s
 table=(opt,rrhf)
 ----------------------------------------------------------------------
 -----
 title
 -----
 Symbolic Z-matrix:
 Charge =  0 Multiplicity = 1

 SCF Done:  E(RHF) =  -343.586830495     A.U. after   16 cycles
 Normal termination of Gaussian 16 at Wed Apr  9 03:27:28 2025.
 Gaussian 16:  ES64L-G16RevC.01  3-Jul-2019

 ----------------------------------------------------------------------
 #t hf aug-cc-pvdz iop(5/13=1,5/36=2,99/5=2) pseudo=read geom=check gue
 ss=(read,tcheck) scf=(maxcycle=1)
 ----------------------------------------------------------------------
 -----
 title
 -----
 Structure from the checkpoint file:  "Grambow2020_wb97xd3_006719_reverse_mol2.chk"
 Charge =  0 Multiplicity = 1

                         Standard orientation:
 ---------------------------------------------------------------------
 Center     Atomic      Atomic             Coordinates (Angstroms)
 Number     Number       Type             X           Y           Z
 ---------------------------------------------------------------------
      1          8           0        2.700288    0.339756    0.002263
      2          6           0        1.393825    0.192385    0.411373
      3          6           0       -1.475681    1.538668    0.071406
      4          8           0        0.664920   -0.406524   -0.660369
      5          6           0       -0.612319   -0.793753   -0.467879
      6          6           0       -1.347409   -0.875073    0.765046
      7          6           0       -1.878315    0.236326   -0.205327
      8          1           0        3.084265   -0.528115   -0.142760
      9          1           0        1.304474   -0.456984    1.293396
     10          1           0        0.977884    1.179169    0.618078
     11          1           0       -2.152412    2.237221   -0.448938
     12          1           0       -0.916811   -1.451298   -1.272538
     13          1           0       -0.924280   -0.472486    1.672899
     14          1           0       -2.032201   -1.702724    0.894319
     15          1           0       -2.743185   -0.061958   -0.797320
 ---------------------------------------------------------------------

 SCF Done:  E(RHF) =  -343.695297588     A.U. after    2 cycles

 The electronic state is 1-A.
 Alpha  occ. eigenvalues --  -20.59991 -20.58604 -11.34806 -11.34474 -11.27062
 Alpha  occ. eigenvalues --  -11.24832 -11.24048  -1.39807  -1.33080  -1.14467
 Alpha  occ. eigenvalues --   -0.96433  -0.93847  -0.82831  -0.76985  -0.74125
 Alpha  occ. eigenvalues --   -0.71985  -0.68303  -0.65624  -0.61932  -0.58238
 Alpha  occ. eigenvalues --   -0.56842  -0.55030  -0.51810  -0.49007  -0.46456
 Alpha  occ. eigenvalues --   -0.39148  -0.33916
 Alpha virt. eigenvalues --    0.02819   0.03984   0.04170   0.04851   0.06188
 Alpha virt. eigenvalues --    0.06727   0.06940   0.07705   0.08617   0.11104
 Alpha virt. eigenvalues --    0.11957   0.12535   0.13488   0.13521   0.14443

 Mulliken charges:
               1
     1  O   -0.478633
     2  C    1.094203
     3  C   -0.198978
     4  O   -0.667648
     5  C    0.840816
     6  C    0.870368
     7  C    0.317512
     8  H    0.143449
     9  H   -0.172992
    10  H   -0.178012
    11  H   -0.189779
    12  H   -0.462281
    13  H   -0.303145
    14  H   -0.232499
    15  H   -0.382381
 Sum of Mulliken charges =  -0.00000

 Dipole moment (field-independent basis, Debye):
    X=             -1.6584    Y=             -3.7443    Z=              0.6079  Tot=              4.1400

 Test job not archived.
 1\1\GINC-SE339\SP\RHF\Aug-CC-pVDZ\C5H8O2\OHZDE\09-Apr-2025\0\\#t hf au
 g-cc-pvdz iop(5/13=1,5/36=2,99/5=2) pseudo=read geom=check guess=(read
 ,tcheck) scf=(maxcycle=1)\\title\\0,1\O,0,2.36771951,1.57398853,0.9380
 455\C,0,1.42576817,0.91254245,0.18230074\C,0,0.16946523,-1.98858548,-0
 .22670061\O,0,0.26318217,0.73327437,0.99154948\C,0,-0.86486551,0.23798
 596,0.4433375\C,0,-1.16407475,0.01851852,-0.94568382\C,0,-1.0383031,-1
 .30723121,-0.11787975\H,0,2.04068426,2.45111866,1.15102765\H,0,1.13731
 43,1.48006007,-0.71343766\H,0,1.82203023,-0.06515078,-0.09440831\H,0,0

 Normal termination of Gaussian 16 at Wed Apr  9 03:27:33 2025.
