 Gaussian 16, Revision C.01,

 ----------------------------------------------------------------------
 #t hf aug-cc-pvdz symm=none int=(grid=ultrafine) guess=(read,tcheck) s
 table=(opt,rrhf)
 ----------------------------------------------------------------------
 -----
 title
 -----
 Symbolic Z-matrix:
 Charge =  0 Multiplicity = 1

 SCF Done:  E(RHF) =  -271.025708016     A.U. after   15 cycles

 1\1\GINC-SE099\Stability\RHF\Aug-CC-pVDZ\C5H12O1\OHZDE\09-Apr-2025\0\\
 #t hf aug-cc-pvdz symm=none int=(grid=ultrafine) guess=(read,tcheck) s
 table=(opt,rrhf)\\title\\0,1\C,0,-2.65785503,0.01242192,0.26793176\C,0
 ,-1.46982425,-0.20646575,-0.67358977\C,0,-0.119579,0.1986442,0.1149595
 7\O,0,0.05124032,-0.575049,1.19145808\C,0,0.9033984,-0.01904967,-0.921
 32743\C,0,2.63368015,0.07204986,0.66258342\H,0,-3.58825374,-0.30831696
 ,-0.22405881\H,0,-2.50959927,-0.56604728,1.18613343\H,0,-2.75894129,1.
 07324034,0.53648353\H,0,-1.38954964,-1.26537193,-0.9507262\H,0,-1.5848

 Normal termination of Gaussian 16 at Wed Apr  9 14:11:27 2025.
 Gaussian 16:  ES64L-G16RevC.01  3-Jul-2019

 ----------------------------------------------------------------------
 #t hf aug-cc-pvdz iop(5/13=1,5/36=2,99/5=2) pseudo=read geom=check gue
 ss=(read,tcheck) scf=(maxcycle=1)
 ----------------------------------------------------------------------
 -----
 title
 -----
 Structure from the checkpoint file:  "Grambow2020_b97d3_006803_forward_mol1.chk"
 Charge =  0 Multiplicity = 1

                         Standard orientation:
 ---------------------------------------------------------------------
 Center     Atomic      Atomic             Coordinates (Angstroms)
 Number     Number       Type             X           Y           Z
 ---------------------------------------------------------------------
      1          6           0       -2.568854   -0.376358    0.176395
      2          6           0       -1.477110    0.633255   -0.190443
      3          6           0       -0.053320    0.028008    0.273865
      4          8           0        0.205247   -1.118233   -0.363241
      5          6           0        0.865300    1.116448   -0.099230
      6          6           0        2.736733   -0.279971    0.143057
      7          1           0       -3.545777   -0.015334   -0.178361
      8          1           0       -2.344530   -1.343458   -0.286311
      9          1           0       -2.628401   -0.515873    1.264818
     10          1           0       -1.439053    0.779610   -1.277487
     11          1           0       -1.667753    1.602189    0.290987
     12          1           0       -0.134309   -0.028972    1.387944
     13          1           0        1.678670   -0.741073   -0.224452
     14          1           0        1.058592    1.252339   -1.163984
     15          1           0        1.040028    1.986701    0.542377
     16          1           0        3.177853    0.670071   -0.180774
     17          1           0        2.790838   -0.360718    1.233703
     18          1           0        3.355374   -1.067899   -0.324403
 ---------------------------------------------------------------------

 SCF Done:  E(RHF) =  -271.111301875     A.U. after    2 cycles

 The electronic state is 1-A.
 Alpha  occ. eigenvalues --  -20.46216 -11.37492 -11.28972 -11.25318 -11.22203
 Alpha  occ. eigenvalues --  -11.22013  -1.23981  -1.04904  -1.00344  -0.93024
 Alpha  occ. eigenvalues --   -0.85055  -0.78702  -0.69709  -0.64964  -0.61717
 Alpha  occ. eigenvalues --   -0.57664  -0.56785  -0.55011  -0.53683  -0.53230
 Alpha  occ. eigenvalues --   -0.50427  -0.48817  -0.44651  -0.37714  -0.35849
 Alpha virt. eigenvalues --    0.01757   0.02737   0.04028   0.04335   0.05152
 Alpha virt. eigenvalues --    0.06257   0.06424   0.06508   0.07372   0.08697
 Alpha virt. eigenvalues --    0.09050   0.09200   0.11009   0.11253   0.13594

 Mulliken charges:
               1
     1  C    0.350588
     2  C    0.165468
     3  C    0.704008
     4  O   -1.031731
     5  C    0.460403
     6  C    0.370196
     7  H   -0.026293
     8  H    0.008816
     9  H   -0.062341
    10  H   -0.163974
    11  H   -0.139317
    12  H   -0.190904
    13  H    0.167832
    14  H   -0.135316
    15  H   -0.237580
    16  H   -0.090829
    17  H   -0.053052
    18  H   -0.095974
 Sum of Mulliken charges =   0.00000

 Dipole moment (field-independent basis, Debye):
    X=              0.8428    Y=              5.5167    Z=              0.7987  Tot=              5.6375

 Test job not archived.
 1\1\GINC-SE099\SP\RHF\Aug-CC-pVDZ\C5H12O1\OHZDE\09-Apr-2025\0\\#t hf a
 ug-cc-pvdz iop(5/13=1,5/36=2,99/5=2) pseudo=read geom=check guess=(rea
 d,tcheck) scf=(maxcycle=1)\\title\\0,1\C,0,-2.65785503,0.01242192,0.26
 793176\C,0,-1.46982425,-0.20646575,-0.67358977\C,0,-0.119579,0.1986442
 ,0.11495957\O,0,0.05124032,-0.575049,1.19145808\C,0,0.9033984,-0.01904
 967,-0.92132743\C,0,2.63368015,0.07204986,0.66258342\H,0,-3.58825374,-
 0.30831696,-0.22405881\H,0,-2.50959927,-0.56604728,1.18613343\H,0,-2.7
 5894129,1.07324034,0.53648353\H,0,-1.38954964,-1.26537193,-0.9507262\H

 Normal termination of Gaussian 16 at Wed Apr  9 14:11:33 2025.
