 Gaussian 16, Revision C.01,

 ----------------------------------------------------------------------
 #t hf aug-cc-pvdz symm=none int=(grid=ultrafine) guess=(read,tcheck) s
 table=(opt,rrhf)
 ----------------------------------------------------------------------
 -----
 title
 -----
 Symbolic Z-matrix:
 Charge =  0 Multiplicity = 1

 SCF Done:  E(RHF) =  -324.963878305     A.U. after   15 cycles
 Normal termination of Gaussian 16 at Wed Apr  9 03:51:58 2025.
 Gaussian 16:  ES64L-G16RevC.01  3-Jul-2019

 ----------------------------------------------------------------------
 #t hf aug-cc-pvdz iop(5/13=1,5/36=2,99/5=2) pseudo=read geom=check gue
 ss=(read,tcheck) scf=(maxcycle=1)
 ----------------------------------------------------------------------
 -----
 title
 -----
 Structure from the checkpoint file:  "Grambow2020_wb97xd3_008237_forward_mol1.chk"
 Charge =  0 Multiplicity = 1

                         Standard orientation:
 ---------------------------------------------------------------------
 Center     Atomic      Atomic             Coordinates (Angstroms)
 Number     Number       Type             X           Y           Z
 ---------------------------------------------------------------------
      1          6           0       -1.760306    1.322138   -0.191563
      2          6           0       -2.332544   -0.014609    0.187720
      3          6           0       -0.683211   -1.485798   -0.141337
      4          7           0        0.357177   -0.733239   -0.617698
      5          6           0        1.268636   -0.090773    0.213254
      6          8           0        1.147168   -0.072102    1.410673
      7          6           0        2.383400    0.617762   -0.519288
      8          1           0       -2.545588    2.081348   -0.238950
      9          1           0       -1.021109    1.655502    0.538998
     10          1           0       -1.280299    1.296032   -1.172224
     11          1           0       -2.799644   -0.009791    1.175629
     12          1           0       -3.024916   -0.435106   -0.536095
     13          1           0       -1.451497   -0.904927    0.628454
     14          1           0       -1.242782   -1.932865   -0.961314
     15          1           0        0.466406   -0.554882   -1.605615
     16          1           0        2.022484    1.581702   -0.885914
     17          1           0        2.744059    0.040957   -1.372295
     18          1           0        3.199449    0.799202    0.175115
 ---------------------------------------------------------------------

 SCF Done:  E(RHF) =  -325.067348527     A.U. after    2 cycles

 The electronic state is 1-A.
 Alpha  occ. eigenvalues --  -20.54490 -15.66366 -11.36725 -11.27321 -11.25477
 Alpha  occ. eigenvalues --  -11.25287 -11.23473  -1.36086  -1.21482  -1.03830
 Alpha  occ. eigenvalues --   -1.01350  -0.90935  -0.84273  -0.77742  -0.70342
 Alpha  occ. eigenvalues --   -0.66746  -0.63904  -0.62783  -0.60770  -0.59658
 Alpha  occ. eigenvalues --   -0.56716  -0.54728  -0.53438  -0.52745  -0.49793
 Alpha  occ. eigenvalues --   -0.44642  -0.44291  -0.29770
 Alpha virt. eigenvalues --    0.02572   0.03803   0.04087   0.05011   0.06047
 Alpha virt. eigenvalues --    0.06450   0.06606   0.07577   0.08110   0.08897
 Alpha virt. eigenvalues --    0.09893   0.11197   0.11859   0.12895   0.13632

 Mulliken charges:
               1
     1  C    0.447571
     2  C    0.084392
     3  C    0.159518
     4  N   -0.177576
     5  C    0.410880
     6  O   -0.518251
     7  C    0.347888
     8  H   -0.122594
     9  H   -0.071891
    10  H   -0.110055
    11  H   -0.181931
    12  H   -0.168641
    13  H    0.232710
    14  H   -0.235896
    15  H   -0.066443
    16  H    0.034828
    17  H   -0.033372
    18  H   -0.031137
 Sum of Mulliken charges =  -0.00000

 Dipole moment (field-independent basis, Debye):
    X=             -0.3856    Y=              1.5937    Z=             -4.7295  Tot=              5.0057

 Test job not archived.
 1\1\GINC-SE054\SP\RHF\Aug-CC-pVDZ\C5H11N1O1\OHZDE\09-Apr-2025\0\\#t hf
  aug-cc-pvdz iop(5/13=1,5/36=2,99/5=2) pseudo=read geom=check guess=(r
 ead,tcheck) scf=(maxcycle=1)\\title\\0,1\C,0,-1.57615183,0.15127347,-0
 .9138287\C,0,-1.91047602,0.91075124,0.33901834\C,0,-0.22885882,0.50173
 074,1.75246845\N,0,0.5992448,-0.34440343,1.06401177\C,0,1.59803229,0.1
 0576685,0.20740642\O,0,1.738705,1.27026418,-0.06291181\C,0,2.44715211,
 -0.99293536,-0.38688977\H,0,-2.42728496,0.14017832,-1.59994959\H,0,-0.
 73435523,0.60739627,-1.43784561\H,0,-1.32092486,-0.8895065,-0.70307062

 Normal termination of Gaussian 16 at Wed Apr  9 03:52:05 2025.
