 Gaussian 16, Revision C.01,

 ----------------------------------------------------------------------
 #t hf aug-cc-pvdz symm=none int=(grid=ultrafine) guess=(read,tcheck) s
 table=(opt,rrhf)
 ----------------------------------------------------------------------
 -----
 title
 -----
 Symbolic Z-matrix:
 Charge =  0 Multiplicity = 1

 SCF Done:  E(RHF) =  -305.423869364     A.U. after   14 cycles
 Normal termination of Gaussian 16 at Wed Apr  9 03:52:34 2025.
 Gaussian 16:  ES64L-G16RevC.01  3-Jul-2019

 ----------------------------------------------------------------------
 #t hf aug-cc-pvdz iop(5/13=1,5/36=2,99/5=2) pseudo=read geom=check gue
 ss=(read,tcheck) scf=(maxcycle=1)
 ----------------------------------------------------------------------
 -----
 title
 -----
 Structure from the checkpoint file:  "Grambow2020_wb97xd3_008341_reverse_mol2.chk"
 Charge =  0 Multiplicity = 1

                         Standard orientation:
 ---------------------------------------------------------------------
 Center     Atomic      Atomic             Coordinates (Angstroms)
 Number     Number       Type             X           Y           Z
 ---------------------------------------------------------------------
      1          8           0        2.111553   -0.041420   -0.582533
      2          6           0        1.106994   -0.004259    0.420875
      3          6           0        0.162571    1.247529    0.261206
      4          6           0       -1.151953    0.662211   -0.087857
      5          6           0       -2.227941   -0.044496   -0.312035
      6          6           0       -1.066632   -0.785701    0.023728
      7          6           0        0.159421   -1.196209    0.358907
      8          1           0        1.726833   -0.468761   -1.352346
      9          1           0        1.667552    0.064570    1.357492
     10          1           0        0.541115    1.939911   -0.491232
     11          1           0        0.061789    1.806048    1.194234
     12          1           0       -3.278610   -0.073877   -0.557183
     13          1           0        0.494138   -2.210972    0.520353
 ---------------------------------------------------------------------

 SCF Done:  E(RHF) =  -305.517122888     A.U. after    2 cycles

 The electronic state is 1-A.
 Alpha  occ. eigenvalues --  -20.56278 -11.31287 -11.29608 -11.29009 -11.27326
 Alpha  occ. eigenvalues --  -11.27043 -11.21478  -1.31963  -1.23396  -1.05357
 Alpha  occ. eigenvalues --   -0.97143  -0.85922  -0.77532  -0.71988  -0.68218
 Alpha  occ. eigenvalues --   -0.66602  -0.65150  -0.58560  -0.56898  -0.55636
 Alpha  occ. eigenvalues --   -0.51261  -0.50733  -0.44811  -0.39486  -0.30540
 Alpha virt. eigenvalues --    0.03073   0.04055   0.04725   0.04963   0.06573
 Alpha virt. eigenvalues --    0.07059   0.08389   0.09662   0.10159   0.12371
 Alpha virt. eigenvalues --    0.12816   0.13406   0.13807   0.14394   0.15406

 Mulliken charges:
               1
     1  O   -0.624530
     2  C    0.733586
     3  C   -0.020116
     4  C   -0.230368
     5  C    0.623130
     6  C   -0.945841
     7  C    1.161534
     8  H    0.179070
     9  H   -0.210014
    10  H    0.008817
    11  H    0.148444
    12  H   -0.435479
    13  H   -0.388233
 Sum of Mulliken charges =  -0.00000

 Dipole moment (field-independent basis, Debye):
    X=             -2.5606    Y=              1.2721    Z=             -0.2316  Tot=              2.8685

 Test job not archived.
 1\1\GINC-SE207\SP\RHF\Aug-CC-pVDZ\C6H6O1\OHZDE\09-Apr-2025\0\\#t hf au
 g-cc-pvdz iop(5/13=1,5/36=2,99/5=2) pseudo=read geom=check guess=(read
 ,tcheck) scf=(maxcycle=1)\\title\\0,1\O,0,0.37138984,-1.09735756,1.881
 11224\C,0,0.60408932,-0.85250676,0.50153077\C,0,-0.72952299,-0.9007234
 ,-0.33725297\C,0,-0.90733545,0.49195954,-0.80760551\C,0,-0.84608278,1.
 74401093,-1.17646368\C,0,0.2737138,1.26302477,-0.45157278\C,0,1.164845
 7,0.53831517,0.23015296\H,0,0.12664556,-0.25819542,2.2800455\H,0,1.270
 65633,-1.66367664,0.19509014\H,0,-1.56484835,-1.26486686,0.26148107\H,

 Normal termination of Gaussian 16 at Wed Apr  9 03:52:38 2025.
