 Gaussian 16, Revision C.01,

 ----------------------------------------------------------------------
 #t hf aug-cc-pvdz symm=none int=(grid=ultrafine) guess=(read,tcheck) s
 table=(opt,rrhf)
 ----------------------------------------------------------------------
 -----
 title
 -----
 Symbolic Z-matrix:
 Charge =  0 Multiplicity = 1

 SCF Done:  E(RHF) =  -273.004725664     A.U. after   15 cycles
 Normal termination of Gaussian 16 at Wed Apr  9 16:08:45 2025.
 Gaussian 16:  ES64L-G16RevC.01  3-Jul-2019

 ----------------------------------------------------------------------
 #t hf aug-cc-pvdz iop(5/13=1,5/36=2,99/5=2) pseudo=read geom=check gue
 ss=(read,tcheck) scf=(maxcycle=1)
 ----------------------------------------------------------------------
 -----
 title
 -----
 Structure from the checkpoint file:  "Grambow2020_wb97xd3_007780_reverse_mol1.chk"
 Charge =  0 Multiplicity = 1

                         Standard orientation:
 ---------------------------------------------------------------------
 Center     Atomic      Atomic             Coordinates (Angstroms)
 Number     Number       Type             X           Y           Z
 ---------------------------------------------------------------------
      1          6           0        1.383700    1.272735   -0.423478
      2          6           0        0.675062   -0.011784    0.011701
      3          6           0        0.699716   -0.119132    1.538471
      4          6           0        1.365845   -1.231636   -0.600141
      5          6           0       -0.778641    0.059061   -0.432742
      6          6           0       -1.950906    0.828193   -0.062933
      7          6           0       -2.005908   -0.647347    0.034935
      8          1           0        1.368346    1.384018   -1.512162
      9          1           0        0.902244    2.149586    0.012828
     10          1           0        2.429865    1.261492   -0.110927
     11          1           0        1.733697   -0.094710    1.887388
     12          1           0        0.162869    0.708808    2.002695
     13          1           0        0.254280   -1.053706    1.882333
     14          1           0        1.366037   -1.182462   -1.693973
     15          1           0        2.407570   -1.291557   -0.278293
     16          1           0        0.862714   -2.154295   -0.303582
     17          1           0       -0.610640   -0.270346   -1.768564
     18          1           0       -1.844851    1.500460    0.777976
     19          1           0       -0.917576    0.548933   -1.589881
     20          1           0       -2.621958   -1.215679   -0.664093
     21          1           0       -1.825804   -1.191079    0.963371
 ---------------------------------------------------------------------

 SCF Done:  E(RHF) =  -273.090972860     A.U. after    2 cycles

 The electronic state is 1-A.
 Alpha  occ. eigenvalues --  -11.30575 -11.26963 -11.23974 -11.23754 -11.23675
 Alpha  occ. eigenvalues --  -11.23454 -11.17395  -1.17216  -1.08805  -0.94881
 Alpha  occ. eigenvalues --   -0.94772  -0.88144  -0.79352  -0.76930  -0.67266
 Alpha  occ. eigenvalues --   -0.63949  -0.61696  -0.60503  -0.57428  -0.56484
 Alpha  occ. eigenvalues --   -0.54892  -0.53151  -0.51055  -0.49964  -0.48721
 Alpha  occ. eigenvalues --   -0.43183  -0.42197  -0.27044
 Alpha virt. eigenvalues --    0.02850   0.03900   0.04174   0.04769   0.05940
 Alpha virt. eigenvalues --    0.06232   0.06571   0.06865   0.07073   0.08630
 Alpha virt. eigenvalues --    0.09092   0.09169   0.09272   0.10120   0.12203

 Mulliken charges:
               1
     1  C    1.336518
     2  C   -3.952481
     3  C    1.346492
     4  C    1.140582
     5  C    0.077592
     6  C   -0.043890
     7  C    0.814308
     8  H   -0.023878
     9  H    0.049880
    10  H   -0.060674
    11  H   -0.029579
    12  H    0.005116
    13  H   -0.047693
    14  H   -0.062658
    15  H   -0.002639
    16  H    0.004049
    17  H    0.180021
    18  H   -0.321797
    19  H    0.033342
    20  H   -0.220846
    21  H   -0.221765
 Sum of Mulliken charges =  -0.00000

 Dipole moment (field-independent basis, Debye):
    X=              3.6393    Y=             -1.7199    Z=             -0.5435  Tot=              4.0618

 Test job not archived.
 1\1\GINC-SE009\SP\RHF\Aug-CC-pVDZ\C7H14\OHZDE\09-Apr-2025\0\\#t hf aug
 -cc-pvdz iop(5/13=1,5/36=2,99/5=2) pseudo=read geom=check guess=(read,
 tcheck) scf=(maxcycle=1)\\title\\0,1\C,0,-0.53923542,1.68847505,0.5245
 1169\C,0,-0.46247374,0.20381489,0.16198271\C,0,-1.1424089,-0.02999227,
 -1.18938039\C,0,-1.15053654,-0.64036738,1.23599147\C,0,1.00131935,-0.1
 9005628,0.02790495\C,0,2.08079787,0.08959893,-0.89894412\C,0,1.6760700
 8,-1.31665461,-0.67878303\H,0,-0.04662695,1.88840739,1.48118055\H,0,-0
 .0562954,2.30081838,-0.23892503\H,0,-1.57855808,2.00972356,0.61876372\

 Normal termination of Gaussian 16 at Wed Apr  9 16:08:54 2025.
