 Gaussian 16, Revision C.01,

 ----------------------------------------------------------------------
 #t hf aug-cc-pvdz symm=none int=(grid=ultrafine) guess=(read,tcheck) s
 table=(opt,rrhf)
 ----------------------------------------------------------------------
 -----
 title
 -----
 Symbolic Z-matrix:
 Charge =  0 Multiplicity = 1

 SCF Done:  E(RHF) =  -271.223199608     A.U. after   12 cycles

 1\1\GINC-SE099\Stability\RHF\Aug-CC-pVDZ\C5H12O1\OHZDE\09-Apr-2025\0\\
 #t hf aug-cc-pvdz symm=none int=(grid=ultrafine) guess=(read,tcheck) s
 table=(opt,rrhf)\\title\\0,1\C,0,-2.56701018,0.01235703,0.23115335\C,0
 ,-1.2764908,-0.18552234,-0.57159214\C,0,-0.00847621,0.16120108,0.22578
 738\O,0,0.07556851,-0.60832102,1.43748687\C,0,1.26657857,0.01618367,-0
 .62100767\C,0,2.54095951,0.41062675,0.13397422\H,0,-3.44866294,-0.2981
 0488,-0.34674333\H,0,-2.5333257,-0.57156824,1.15973423\H,0,-2.69690301
 ,1.06933898,0.50671761\H,0,-1.19902516,-1.23424641,-0.9102235\H,0,-1.3

 Normal termination of Gaussian 16 at Wed Apr  9 14:10:23 2025.
 Gaussian 16:  ES64L-G16RevC.01  3-Jul-2019

 ----------------------------------------------------------------------
 #t hf aug-cc-pvdz iop(5/13=1,5/36=2,99/5=2) pseudo=read geom=check gue
 ss=(read,tcheck) scf=(maxcycle=1)
 ----------------------------------------------------------------------
 -----
 title
 -----
 Structure from the checkpoint file:  "Grambow2020_b97d3_006797_forward_mol2.chk"
 Charge =  0 Multiplicity = 1

                         Standard orientation:
 ---------------------------------------------------------------------
 Center     Atomic      Atomic             Coordinates (Angstroms)
 Number     Number       Type             X           Y           Z
 ---------------------------------------------------------------------
      1          6           0        2.562206   -0.032719    0.257609
      2          6           0        1.276045   -0.695095   -0.248400
      3          6           0        0.000211    0.023114    0.220977
      4          8           0       -0.000666    1.404496   -0.178054
      5          6           0       -1.275487   -0.696967   -0.245858
      6          6           0       -2.562188   -0.032558    0.256728
      7          1           0        3.454256   -0.535122   -0.141767
      8          1           0        2.591707    1.023036   -0.040512
      9          1           0        2.614569   -0.070478    1.355722
     10          1           0        1.274102   -0.722238   -1.352824
     11          1           0        1.234768   -1.745157    0.082861
     12          1           0        0.001516    0.069555    1.321410
     13          1           0       -0.004293    1.405322   -1.154965
     14          1           0       -1.272766   -0.728673   -1.350147
     15          1           0       -1.233570   -1.745538    0.089850
     16          1           0       -3.453742   -0.541583   -0.135196
     17          1           0       -2.610946   -0.059783    1.355341
     18          1           0       -2.594989    1.020046   -0.051680
 ---------------------------------------------------------------------

 SCF Done:  E(RHF) =  -271.309244439     A.U. after    2 cycles

 The electronic state is 1-A.
 Alpha  occ. eigenvalues --  -20.56855 -11.28673 -11.23378 -11.23367 -11.22266
 Alpha  occ. eigenvalues --  -11.22256  -1.31344  -1.05689  -1.01148  -0.91252
 Alpha  occ. eigenvalues --   -0.82322  -0.80379  -0.65792  -0.65128  -0.63529
 Alpha  occ. eigenvalues --   -0.59737  -0.56470  -0.55008  -0.53965  -0.51655
 Alpha  occ. eigenvalues --   -0.49592  -0.48762  -0.48140  -0.46147  -0.43461
 Alpha virt. eigenvalues --    0.03426   0.04191   0.04418   0.04941   0.06106
 Alpha virt. eigenvalues --    0.06460   0.06800   0.06835   0.08857   0.08912
 Alpha virt. eigenvalues --    0.09581   0.09775   0.12082   0.14181   0.14249

 Mulliken charges:
               1
     1  C    0.445115
     2  C    0.261210
     3  C    0.105317
     4  O   -0.669207
     5  C    0.259898
     6  C    0.446201
     7  H   -0.039444
     8  H   -0.021593
     9  H   -0.053870
    10  H   -0.138257
    11  H   -0.110144
    12  H   -0.308844
    13  H    0.185764
    14  H   -0.137061
    15  H   -0.110777
    16  H   -0.038921
    17  H   -0.053490
    18  H   -0.021895
 Sum of Mulliken charges =  -0.00000

 Dipole moment (field-independent basis, Debye):
    X=             -0.0054    Y=             -1.5492    Z=             -0.9978  Tot=              1.8428

 Test job not archived.
 1\1\GINC-SE099\SP\RHF\Aug-CC-pVDZ\C5H12O1\OHZDE\09-Apr-2025\0\\#t hf a
 ug-cc-pvdz iop(5/13=1,5/36=2,99/5=2) pseudo=read geom=check guess=(rea
 d,tcheck) scf=(maxcycle=1)\\title\\0,1\C,0,-2.56701018,0.01235703,0.23
 115335\C,0,-1.2764908,-0.18552234,-0.57159214\C,0,-0.00847621,0.161201
 08,0.22578738\O,0,0.07556851,-0.60832102,1.43748687\C,0,1.26657857,0.0
 1618367,-0.62100767\C,0,2.54095951,0.41062675,0.13397422\H,0,-3.448662
 94,-0.29810488,-0.34674333\H,0,-2.5333257,-0.57156824,1.15973423\H,0,-
 2.69690301,1.06933898,0.50671761\H,0,-1.19902516,-1.23424641,-0.910223

 Normal termination of Gaussian 16 at Wed Apr  9 14:10:29 2025.
