 Gaussian 16, Revision C.01,

 ----------------------------------------------------------------------
 #t hf aug-cc-pvdz symm=none int=(grid=ultrafine) guess=(read,tcheck) s
 table=(opt,rrhf)
 ----------------------------------------------------------------------
 -----
 title
 -----
 Symbolic Z-matrix:
 Charge =  0 Multiplicity = 1

 SCF Done:  E(RHF) =  -302.853426964     A.U. after   15 cycles
 Normal termination of Gaussian 16 at Wed Apr  9 16:15:04 2025.
 Gaussian 16:  ES64L-G16RevC.01  3-Jul-2019

 ----------------------------------------------------------------------
 #t hf aug-cc-pvdz iop(5/13=1,5/36=2,99/5=2) pseudo=read geom=check gue
 ss=(read,tcheck) scf=(maxcycle=1)
 ----------------------------------------------------------------------
 -----
 title
 -----
 Structure from the checkpoint file:  "Grambow2020_wb97xd3_008032_reverse_mol2.chk"
 Charge =  0 Multiplicity = 1

                         Standard orientation:
 ---------------------------------------------------------------------
 Center     Atomic      Atomic             Coordinates (Angstroms)
 Number     Number       Type             X           Y           Z
 ---------------------------------------------------------------------
      1          6           0        1.679018   -1.494842   -0.040197
      2          6           0        0.625095   -0.427951   -0.340318
      3          6           0       -0.629025   -0.612193    0.524933
      4          7           0       -1.676873    0.354010    0.209930
      5          6           0       -2.811629    0.161656   -0.401509
      6          6           0        1.173568    0.917394   -0.136689
      7          7           0        1.584393    1.971280    0.055283
      8          1           0        1.988587   -1.452825    1.005071
      9          1           0        1.270367   -2.485866   -0.240912
     10          1           0        2.562383   -1.353859   -0.661611
     11          1           0        0.324735   -0.491616   -1.390330
     12          1           0       -0.360218   -0.529646    1.581652
     13          1           0       -1.038090   -1.607741    0.350897
     14          1           0       -1.464156    1.302574    0.498280
     15          1           0       -2.858424   -0.922439   -0.636855
 ---------------------------------------------------------------------

 SCF Done:  E(RHF) =  -302.944867283     A.U. after    2 cycles

 The electronic state is 1-A.
 Alpha  occ. eigenvalues --  -15.68791 -15.65064 -11.31425 -11.31373 -11.29698
 Alpha  occ. eigenvalues --  -11.27072 -11.26334  -1.25239  -1.21014  -1.11341
 Alpha  occ. eigenvalues --   -0.98000  -0.90376  -0.85323  -0.72976  -0.70667
 Alpha  occ. eigenvalues --   -0.64457  -0.61682  -0.59941  -0.57917  -0.57481
 Alpha  occ. eigenvalues --   -0.55992  -0.54479  -0.48631  -0.47296  -0.45555
 Alpha  occ. eigenvalues --   -0.35375
 Alpha virt. eigenvalues --    0.02278   0.03515   0.04132   0.04808   0.06268
 Alpha virt. eigenvalues --    0.06658   0.06954   0.08075   0.09815   0.10156
 Alpha virt. eigenvalues --    0.10486   0.12199   0.13210   0.13873   0.14153

 Mulliken charges:
               1
     1  C    0.656475
     2  C   -0.312984
     3  C    0.941467
     4  N   -0.174925
     5  C    0.011852
     6  C   -0.359166
     7  N   -0.175434
     8  H    0.001476
     9  H   -0.045302
    10  H   -0.060678
    11  H   -0.035265
    12  H   -0.093448
    13  H   -0.139867
    14  H    0.000962
    15  H   -0.215166
 Sum of Mulliken charges =  -0.00000

 Dipole moment (field-independent basis, Debye):
    X=              1.8979    Y=             -4.8090    Z=              0.7765  Tot=              5.2279

 Test job not archived.
 1\1\GINC-SE042\SP\RHF\Aug-CC-pVDZ\C5H8N2\OHZDE\09-Apr-2025\0\\#t hf au
 g-cc-pvdz iop(5/13=1,5/36=2,99/5=2) pseudo=read geom=check guess=(read
 ,tcheck) scf=(maxcycle=1)\\title\\0,1\C,0,1.70698036,-0.39168815,-0.87
 088698\C,0,0.4395548,-0.54648751,-0.02901264\C,0,-0.42235784,0.7228519
 7,-0.06514395\N,0,-1.60508412,0.62425994,0.78467926\C,0,-1.8524714,1.2
 2078093,1.91670936\C,0,-0.35131591,-1.69485752,-0.48509252\N,0,-0.9930
 4003,-2.56926159,-0.85914448\H,0,1.4590562,-0.18916531,-1.91381648\H,0
 ,2.30570809,0.43648284,-0.49000671\H,0,2.3100361,-1.29801231,-0.835318

 Normal termination of Gaussian 16 at Wed Apr  9 16:15:30 2025.
