 Gaussian 16, Revision C.01,

 ----------------------------------------------------------------------
 #t hf aug-cc-pvdz symm=none int=(grid=ultrafine) guess=(read,tcheck) s
 table=(opt,rrhf)
 ----------------------------------------------------------------------
 -----
 title
 -----
 Symbolic Z-matrix:
 Charge =  0 Multiplicity = 1

 SCF Done:  E(RHF) =  -373.222228711     A.U. after   17 cycles
 Normal termination of Gaussian 16 at Wed Apr  9 04:04:28 2025.
 Gaussian 16:  ES64L-G16RevC.01  3-Jul-2019

 ----------------------------------------------------------------------
 #t hf aug-cc-pvdz iop(5/13=1,5/36=2,99/5=2) pseudo=read geom=check gue
 ss=(read,tcheck) scf=(maxcycle=1)
 ----------------------------------------------------------------------
 -----
 title
 -----
 Structure from the checkpoint file:  "Grambow2020_wb97xd3_009221_forward_mol1.chk"
 Charge =  0 Multiplicity = 1

                         Standard orientation:
 ---------------------------------------------------------------------
 Center     Atomic      Atomic             Coordinates (Angstroms)
 Number     Number       Type             X           Y           Z
 ---------------------------------------------------------------------
      1          7           0       -1.439837   -0.775422   -0.285067
      2          6           0       -0.309035   -0.136567   -0.132762
      3          8           0        0.762907   -0.851645    0.174210
      4          6           0        1.999919   -0.195836    0.173788
      5          8           0        2.193907    0.869870   -0.281122
      6          6           0       -1.431826    1.239422    0.275067
      7          7           0       -2.314576    0.349557    0.050470
      8          1           0       -1.653022   -1.742096   -0.047818
      9          1           0        2.725059   -0.864764    0.648742
 ---------------------------------------------------------------------

 SCF Done:  E(RHF) =  -373.334932939     A.U. after    2 cycles

 The electronic state is 1-A.
 Alpha  occ. eigenvalues --  -20.70098 -20.63172 -15.72873 -15.67266 -11.45276
 Alpha  occ. eigenvalues --  -11.40899 -11.30670  -1.50388  -1.42117  -1.34850
 Alpha  occ. eigenvalues --   -1.11772  -0.99321  -0.86878  -0.80095  -0.78014
 Alpha  occ. eigenvalues --   -0.73171  -0.72857  -0.69092  -0.61240  -0.58957
 Alpha  occ. eigenvalues --   -0.56051  -0.53616  -0.48051  -0.40083  -0.37748
 Alpha virt. eigenvalues --    0.02082   0.03477   0.04788   0.06530   0.08422
 Alpha virt. eigenvalues --    0.08804   0.09094   0.10988   0.12136   0.13442
 Alpha virt. eigenvalues --    0.13616   0.14596   0.14641   0.15407   0.17584

 Mulliken charges:
               1
     1  N   -0.011054
     2  C    0.396219
     3  O   -0.538768
     4  C    0.755677
     5  O   -0.267836
     6  C    0.120364
     7  N   -0.275761
     8  H   -0.005132
     9  H   -0.173709
 Sum of Mulliken charges =  -0.00000

 Dipole moment (field-independent basis, Debye):
    X=              2.7107    Y=             -5.7604    Z=              0.7132  Tot=              6.4061

 Test job not archived.
 1\1\GINC-SE060\SP\RHF\Aug-CC-pVDZ\C3H2N2O2\OHZDE\09-Apr-2025\0\\#t hf
 aug-cc-pvdz iop(5/13=1,5/36=2,99/5=2) pseudo=read geom=check guess=(re
 ad,tcheck) scf=(maxcycle=1)\\title\\0,1\N,0,-1.58906568,-0.37142986,-0
 .02101186\C,0,-0.3884923,0.13693748,-0.12216375\O,0,0.63949554,-0.6912
 3214,-0.0125898\C,0,1.91406239,-0.17993198,-0.28523529\O,0,2.12555162,
 0.85126188,-0.8069782\C,0,-1.24832186,1.63622649,0.45503062\N,0,-2.249
 55411,0.84948172,0.44423971\H,0,-1.85292118,-1.30472733,0.28806716\H,0
 ,2.64394258,-0.92088126,0.05702741\\Version=ES64L-G16RevC.01\State=1-A

 Normal termination of Gaussian 16 at Wed Apr  9 04:04:31 2025.
