 Gaussian 16, Revision C.01,

 ----------------------------------------------------------------------
 #t hf aug-cc-pvdz symm=none int=(grid=ultrafine) guess=(read,tcheck) s
 table=(opt,rrhf)
 ----------------------------------------------------------------------
 -----
 title
 -----
 Symbolic Z-matrix:
 Charge =  0 Multiplicity = 1

 SCF Done:  E(RHF) =  -376.837976334     A.U. after   14 cycles
 Normal termination of Gaussian 16 at Wed Apr  9 03:58:46 2025.
 Gaussian 16:  ES64L-G16RevC.01  3-Jul-2019

 ----------------------------------------------------------------------
 #t hf aug-cc-pvdz iop(5/13=1,5/36=2,99/5=2) pseudo=read geom=check gue
 ss=(read,tcheck) scf=(maxcycle=1)
 ----------------------------------------------------------------------
 -----
 title
 -----
 Structure from the checkpoint file:  "Grambow2020_wb97xd3_008740_forward_mol1.chk"
 Charge =  0 Multiplicity = 1

                         Standard orientation:
 ---------------------------------------------------------------------
 Center     Atomic      Atomic             Coordinates (Angstroms)
 Number     Number       Type             X           Y           Z
 ---------------------------------------------------------------------
      1          7           0       -2.590349   -0.565254    0.032712
      2          6           0       -1.312765   -0.154879   -0.001272
      3          8           0       -0.422092   -1.086689   -0.058288
      4          7           0       -0.958354    1.103067    0.003834
      5          6           0        0.463683    1.455429   -0.086904
      6          6           0        2.506857    0.110114    0.151243
      7          8           0        2.361711   -1.080246   -0.084472
      8          1           0       -2.765851   -1.548479    0.123660
      9          1           0       -3.337166    0.080351    0.201943
     10          1           0       -1.701523    1.788588    0.026855
     11          1           0        0.685130    2.157141    0.720944
     12          1           0        0.626114    1.952710   -1.047315
     13          1           0        2.536274    0.495351    1.183139
     14          1           0        2.862416    0.816466   -0.615534
     15          1           0        0.471924   -0.635325   -0.085835
 ---------------------------------------------------------------------

 SCF Done:  E(RHF) =  -376.959630441     A.U. after    2 cycles

 The electronic state is 1-A.
 Alpha  occ. eigenvalues --  -20.63009 -20.51907 -15.69387 -15.67612 -11.44284
 Alpha  occ. eigenvalues --  -11.31735 -11.18838  -1.44476  -1.30790  -1.26429
 Alpha  occ. eigenvalues --   -1.20047  -0.92497  -0.86840  -0.82426  -0.79804
 Alpha  occ. eigenvalues --   -0.76291  -0.71813  -0.68226  -0.64735  -0.62675
 Alpha  occ. eigenvalues --   -0.60791  -0.57962  -0.55204  -0.51308  -0.50330
 Alpha  occ. eigenvalues --   -0.40771  -0.39559  -0.28803
 Alpha virt. eigenvalues --    0.01321   0.03229   0.04731   0.05524   0.06338
 Alpha virt. eigenvalues --    0.07313   0.08213   0.08761   0.10235   0.11705
 Alpha virt. eigenvalues --    0.13277   0.13801   0.14711   0.15310   0.15646

 Mulliken charges:
               1
     1  N   -0.121625
     2  C    1.057343
     3  O   -0.390909
     4  N   -0.246432
     5  C    0.251766
     6  C    0.718671
     7  O   -0.584199
     8  H    0.010116
     9  H   -0.041763
    10  H   -0.113544
    11  H   -0.322293
    12  H   -0.310395
    13  H   -0.129147
    14  H   -0.124276
    15  H    0.346689
 Sum of Mulliken charges =  -0.00000

 Dipole moment (field-independent basis, Debye):
    X=             -6.9611    Y=              2.4500    Z=              1.0551  Tot=              7.4547

 Test job not archived.
 1\1\GINC-SE059\SP\RHF\Aug-CC-pVDZ\C3H8N2O2\OHZDE\09-Apr-2025\0\\#t hf
 aug-cc-pvdz iop(5/13=1,5/36=2,99/5=2) pseudo=read geom=check guess=(re
 ad,tcheck) scf=(maxcycle=1)\\title\\0,1\N,0,2.29214577,1.32144256,-0.4
 4874052\C,0,1.1323263,0.70694424,-0.16768128\O,0,0.43698953,1.22397164
 ,0.78835797\N,0,0.69584689,-0.34161507,-0.81426459\C,0,-0.61035396,-0.
 91456368,-0.46763619\C,0,-2.1059839,-0.55147077,1.44871511\O,0,-1.9717
 0029,0.53092753,2.00004556\H,0,2.59329736,2.05848767,0.16107522\H,0,2.
 9501714,0.91832516,-1.08723811\H,0,1.27359491,-0.68842483,-1.56838624\

 Normal termination of Gaussian 16 at Wed Apr  9 03:58:51 2025.
