 Gaussian 16, Revision C.01,

 ----------------------------------------------------------------------
 #t hf aug-cc-pvdz symm=none int=(grid=ultrafine) guess=(read,tcheck) s
 table=(opt,rrhf)
 ----------------------------------------------------------------------
 -----
 title
 -----
 Symbolic Z-matrix:
 Charge =  0 Multiplicity = 1

 SCF Done:  E(RHF) =  -306.498506024     A.U. after   15 cycles
 Normal termination of Gaussian 16 at Wed Apr  9 15:47:02 2025.
 Gaussian 16:  ES64L-G16RevC.01  3-Jul-2019

 ----------------------------------------------------------------------
 #t hf aug-cc-pvdz iop(5/13=1,5/36=2,99/5=2) pseudo=read geom=check gue
 ss=(read,tcheck) scf=(maxcycle=1)
 ----------------------------------------------------------------------
 -----
 title
 -----
 Structure from the checkpoint file:  "Grambow2020_wb97xd3_007364_reverse_mol1.chk"
 Charge =  0 Multiplicity = 1

                         Standard orientation:
 ---------------------------------------------------------------------
 Center     Atomic      Atomic             Coordinates (Angstroms)
 Number     Number       Type             X           Y           Z
 ---------------------------------------------------------------------
      1          6           0        1.207987    1.739403   -0.272042
      2          6           0        1.928716   -1.799828    0.118982
      3          6           0        0.264742    0.853707   -0.011213
      4          6           0       -0.381786    0.305345    1.262633
      5          6           0       -1.039826   -0.753857    0.371588
      6          8           0       -1.835807   -0.058838   -0.565860
      7          6           0       -0.440224   -0.172030   -0.845331
      8          1           0        1.643010    2.349105    0.510676
      9          1           0        1.579826    1.878403   -1.280604
     10          1           0        1.735131   -2.247962   -0.877002
     11          1           0        2.672641   -1.011668   -0.111748
     12          1           0        0.354567   -0.102267    1.954520
     13          1           0       -1.084235    0.957008    1.781732
     14          1           0       -1.288365   -1.780729    0.598404
     15          1           0       -0.163771   -0.607618   -1.796803
 ---------------------------------------------------------------------

 SCF Done:  E(RHF) =  -306.592537379     A.U. after    2 cycles

 The electronic state is 1-A.
 Alpha  occ. eigenvalues --  -20.59304 -11.30535 -11.30417 -11.30234 -11.26339
 Alpha  occ. eigenvalues --  -11.24750 -11.23963  -1.40171  -1.10316  -0.98767
 Alpha  occ. eigenvalues --   -0.90561  -0.88906  -0.83870  -0.75013  -0.70137
 Alpha  occ. eigenvalues --   -0.65610  -0.62122  -0.59695  -0.57339  -0.56730
 Alpha  occ. eigenvalues --   -0.54175  -0.50163  -0.46047  -0.42900  -0.39784
 Alpha  occ. eigenvalues --   -0.36687
 Alpha virt. eigenvalues --    0.02543   0.03704   0.04215   0.04469   0.06012
 Alpha virt. eigenvalues --    0.06144   0.06603   0.07017   0.07771   0.10651
 Alpha virt. eigenvalues --    0.11310   0.12043   0.12780   0.13467   0.13667

 Mulliken charges:
               1
     1  C    1.238170
     2  C    0.118792
     3  C   -0.317323
     4  C    0.219082
     5  C    0.819624
     6  O   -0.796752
     7  C    0.285121
     8  H   -0.349557
     9  H   -0.351606
    10  H   -0.087729
    11  H   -0.034363
    12  H   -0.057050
    13  H   -0.017264
    14  H   -0.301583
    15  H   -0.367560
 Sum of Mulliken charges =   0.00000

 Dipole moment (field-independent basis, Debye):
    X=              2.4633    Y=             -0.4578    Z=             -0.4632  Tot=              2.5479

 Test job not archived.
 1\1\GINC-SE057\SP\RHF\Aug-CC-pVDZ\C6H8O1\OHZDE\09-Apr-2025\0\\#t hf au
 g-cc-pvdz iop(5/13=1,5/36=2,99/5=2) pseudo=read geom=check guess=(read
 ,tcheck) scf=(maxcycle=1)\\title\\0,1\C,0,-1.25127851,0.23859278,-1.53
 604419\C,0,-1.15722792,-0.41613153,2.03620958\C,0,-0.1167993,0.1137764
 5,-0.87303668\C,0,0.83015792,-1.04621707,-0.55828497\C,0,1.53423714,-0
 .09593404,0.41645768\O,0,2.00456608,0.99501952,-0.34777839\C,0,0.63512
 611,1.01775155,0.05556641\H,0,-1.66612998,-0.58369897,-2.10645056\H,0,
 -1.80549674,1.16997661,-1.52384064\H,0,-1.04369375,0.57954701,2.511621

 Normal termination of Gaussian 16 at Wed Apr  9 15:47:08 2025.
