 Gaussian 16, Revision C.01,

 ----------------------------------------------------------------------
 #t hf aug-cc-pvdz symm=none int=(grid=ultrafine) guess=(read,tcheck) s
 table=(opt,rrhf)
 ----------------------------------------------------------------------
 -----
 title
 -----
 Symbolic Z-matrix:
 Charge =  0 Multiplicity = 1

 SCF Done:  E(RHF) =  -308.924847688     A.U. after   15 cycles

 1\1\GINC-SE016\Stability\RHF\Aug-CC-pVDZ\C6H12O1\OHZDE\09-Apr-2025\0\\
 #t hf aug-cc-pvdz symm=none int=(grid=ultrafine) guess=(read,tcheck) s
 table=(opt,rrhf)\\title\\0,1\C,0,-0.71815517,-1.68586979,-0.66791207\C
 ,0,-0.73132333,-0.16902126,-0.5074154\C,0,-1.27942015,0.29872645,0.816
 79161\C,0,0.22837714,1.98104004,0.93270566\O,0,0.51464748,1.81325081,-
 0.36746234\C,0,0.69369857,0.45082846,-0.70446478\C,0,1.79486624,-0.229
 85937,0.08910801\H,0,-1.73459829,-2.08121465,-0.681575\H,0,-0.23359446
 ,-1.98311375,-1.60170334\H,0,-0.18703164,-2.16933926,0.15486811\H,0,-1

 Normal termination of Gaussian 16 at Wed Apr  9 03:28:17 2025.
 Gaussian 16:  ES64L-G16RevC.01  3-Jul-2019

 ----------------------------------------------------------------------
 #t hf aug-cc-pvdz iop(5/13=1,5/36=2,99/5=2) pseudo=read geom=check gue
 ss=(read,tcheck) scf=(maxcycle=1)
 ----------------------------------------------------------------------
 -----
 title
 -----
 Structure from the checkpoint file:  "Grambow2020_wb97xd3_006742_forward_mol1.chk"
 Charge =  0 Multiplicity = 1

                         Standard orientation:
 ---------------------------------------------------------------------
 Center     Atomic      Atomic             Coordinates (Angstroms)
 Number     Number       Type             X           Y           Z
 ---------------------------------------------------------------------
      1          6           0        2.206380   -0.013543   -0.077433
      2          6           0        0.796315   -0.466588   -0.442440
      3          6           0        0.227829   -1.502555    0.493678
      4          6           0       -1.839757   -0.593869    0.365436
      5          8           0       -1.459770    0.117947   -0.706697
      6          6           0       -0.202002    0.738089   -0.518899
      7          6           0       -0.159569    1.671744    0.677827
      8          1           0        2.914693   -0.836608   -0.179885
      9          1           0        2.544277    0.798234   -0.727019
     10          1           0        2.257234    0.339051    0.954989
     11          1           0        0.817589   -0.876553   -1.454530
     12          1           0        0.740745   -1.588570    1.452984
     13          1           0        0.042635   -2.481398    0.065813
     14          1           0       -0.893246   -0.925259    1.058599
     15          1           0       -2.444822   -1.438515    0.006652
     16          1           0       -0.021093    1.307132   -1.432596
     17          1           0       -0.169704    1.139692    1.628902
     18          1           0        0.740826    2.285794    0.637332
     19          1           0       -1.026148    2.333748    0.653319
 ---------------------------------------------------------------------

 SCF Done:  E(RHF) =  -309.022254248     A.U. after    2 cycles

 The electronic state is 1-A.
 Alpha  occ. eigenvalues --  -20.59383 -11.29711 -11.29210 -11.24776 -11.24481
 Alpha  occ. eigenvalues --  -11.23291 -11.22678  -1.37837  -1.08692  -1.00883
 Alpha  occ. eigenvalues --   -0.94530  -0.91686  -0.81345  -0.76672  -0.70428
 Alpha  occ. eigenvalues --   -0.65839  -0.64553  -0.61611  -0.58343  -0.56693
 Alpha  occ. eigenvalues --   -0.55052  -0.53977  -0.52640  -0.52038  -0.49425
 Alpha  occ. eigenvalues --   -0.47109  -0.44683  -0.29094
 Alpha virt. eigenvalues --    0.03269   0.04283   0.04450   0.04663   0.06215
 Alpha virt. eigenvalues --    0.06361   0.06504   0.06784   0.07459   0.09222
 Alpha virt. eigenvalues --    0.09369   0.09936   0.11337   0.12409   0.13111

 Mulliken charges:
               1
     1  C    0.655488
     2  C   -0.652784
     3  C    0.358461
     4  C    0.381352
     5  O   -0.608834
     6  C    0.202819
     7  C    0.662917
     8  H   -0.073059
     9  H   -0.044085
    10  H   -0.019204
    11  H   -0.113569
    12  H   -0.202263
    13  H   -0.157179
    14  H    0.322422
    15  H   -0.298365
    16  H   -0.281037
    17  H   -0.037863
    18  H   -0.035558
    19  H   -0.059658
 Sum of Mulliken charges =  -0.00000

 Dipole moment (field-independent basis, Debye):
    X=              2.1931    Y=             -0.2162    Z=             -0.0877  Tot=              2.2055

 Test job not archived.
 1\1\GINC-SE016\SP\RHF\Aug-CC-pVDZ\C6H12O1\OHZDE\09-Apr-2025\0\\#t hf a
 ug-cc-pvdz iop(5/13=1,5/36=2,99/5=2) pseudo=read geom=check guess=(rea
 d,tcheck) scf=(maxcycle=1)\\title\\0,1\C,0,-0.71815517,-1.68586979,-0.
 66791207\C,0,-0.73132333,-0.16902126,-0.5074154\C,0,-1.27942015,0.2987
 2645,0.81679161\C,0,0.22837714,1.98104004,0.93270566\O,0,0.51464748,1.
 81325081,-0.36746234\C,0,0.69369857,0.45082846,-0.70446478\C,0,1.79486
 624,-0.22985937,0.08910801\H,0,-1.73459829,-2.08121465,-0.681575\H,0,-
 0.23359446,-1.98311375,-1.60170334\H,0,-0.18703164,-2.16933926,0.15486

 Normal termination of Gaussian 16 at Wed Apr  9 03:28:25 2025.
