 Gaussian 16, Revision C.01,

 ----------------------------------------------------------------------
 #t hf aug-cc-pvdz symm=none int=(grid=ultrafine) guess=(read,tcheck) s
 table=(opt,rrhf)
 ----------------------------------------------------------------------
 -----
 title
 -----
 Symbolic Z-matrix:
 Charge =  0 Multiplicity = 1

 SCF Done:  E(RHF) =  -283.482288820     A.U. after   15 cycles
 Normal termination of Gaussian 16 at Wed Apr  9 03:09:45 2025.
 Gaussian 16:  ES64L-G16RevC.01  3-Jul-2019

 ----------------------------------------------------------------------
 #t hf aug-cc-pvdz iop(5/13=1,5/36=2,99/5=2) pseudo=read geom=check gue
 ss=(read,tcheck) scf=(maxcycle=1)
 ----------------------------------------------------------------------
 -----
 title
 -----
 Structure from the checkpoint file:  "Grambow2020_b97d3_006733_forward_mol1.chk"
 Charge =  0 Multiplicity = 1

                         Standard orientation:
 ---------------------------------------------------------------------
 Center     Atomic      Atomic             Coordinates (Angstroms)
 Number     Number       Type             X           Y           Z
 ---------------------------------------------------------------------
      1          6           0       -0.731286    1.127502    0.281510
      2          6           0        0.615923    0.799895   -0.373318
      3          8           0        1.741154   -0.037509   -0.035638
      4          6           0        0.592701   -0.697791    0.346186
      5          7           0       -0.661468   -1.231735   -0.226873
      6          6           0       -1.457222   -0.218086   -0.096874
      7          1           0       -0.714176    1.252327    1.375742
      8          1           0       -1.206139    2.017549   -0.161519
      9          1           0        0.478899    0.728080   -1.457433
     10          1           0        0.556754   -0.820913    1.435364
     11          1           0       -2.534999   -0.323946   -0.263963
 ---------------------------------------------------------------------

 SCF Done:  E(RHF) =  -283.564568565     A.U. after    2 cycles

 The electronic state is 1-A.
 Alpha  occ. eigenvalues --  -20.64828 -15.66098 -11.35181 -11.32117 -11.29588
 Alpha  occ. eigenvalues --  -11.29174  -1.41405  -1.23299  -1.02469  -0.91423
 Alpha  occ. eigenvalues --   -0.85552  -0.76338  -0.69860  -0.66692  -0.65648
 Alpha  occ. eigenvalues --   -0.65494  -0.57756  -0.56024  -0.49261  -0.44829
 Alpha  occ. eigenvalues --   -0.43712  -0.31175
 Alpha virt. eigenvalues --    0.02878   0.04034   0.04594   0.05403   0.06950
 Alpha virt. eigenvalues --    0.08582   0.09386   0.09898   0.10670   0.12375
 Alpha virt. eigenvalues --    0.13266   0.13923   0.14430   0.14960   0.15993

 Mulliken charges:
               1
     1  C    0.240400
     2  C    0.400228
     3  O   -0.610444
     4  C    0.712810
     5  N   -0.566629
     6  C    0.465019
     7  H   -0.036385
     8  H   -0.084389
     9  H   -0.148984
    10  H   -0.185102
    11  H   -0.186524
 Sum of Mulliken charges =  -0.00000

 Dipole moment (field-independent basis, Debye):
    X=             -2.7841    Y=              1.6492    Z=              1.0428  Tot=              3.3998

 Test job not archived.
 1\1\GINC-SE060\SP\RHF\Aug-CC-pVDZ\C4H5N1O1\OHZDE\09-Apr-2025\0\\#t hf
 aug-cc-pvdz iop(5/13=1,5/36=2,99/5=2) pseudo=read geom=check guess=(re
 ad,tcheck) scf=(maxcycle=1)\\title\\0,1\C,0,-0.94990268,0.34710554,-0.
 05119669\C,0,-0.03867733,-0.24032123,-1.13549175\O,0,1.30536927,0.0168
 5918,-1.59245481\C,0,1.29127949,0.15429287,-0.22073332\N,0,0.99429887,
 -0.62293277,1.00162292\C,0,-0.26166523,-0.35935828,1.17681049\H,0,-0.9
 0661246,1.44104243,0.06982006\H,0,-2.00350728,0.05479812,-0.1869152\H,
 0,-0.18909684,-1.32408596,-1.1809316\H,0,1.51272607,1.18817303,0.07049

 Normal termination of Gaussian 16 at Wed Apr  9 03:09:49 2025.
