 Gaussian 16, Revision C.01,

 ----------------------------------------------------------------------
 #t hf aug-cc-pvdz symm=none int=(grid=ultrafine) guess=(read,tcheck) s
 table=(opt,rrhf)
 ----------------------------------------------------------------------
 -----
 title
 -----
 Symbolic Z-matrix:
 Charge =  0 Multiplicity = 1

 SCF Done:  E(RHF) =  -322.505609262     A.U. after   16 cycles
 Normal termination of Gaussian 16 at Wed Apr  9 15:47:02 2025.
 Gaussian 16:  ES64L-G16RevC.01  3-Jul-2019

 ----------------------------------------------------------------------
 #t hf aug-cc-pvdz iop(5/13=1,5/36=2,99/5=2) pseudo=read geom=check gue
 ss=(read,tcheck) scf=(maxcycle=1)
 ----------------------------------------------------------------------
 -----
 title
 -----
 Structure from the checkpoint file:  "Grambow2020_wb97xd3_007374_reverse_mol1.chk"
 Charge =  0 Multiplicity = 1

                         Standard orientation:
 ---------------------------------------------------------------------
 Center     Atomic      Atomic             Coordinates (Angstroms)
 Number     Number       Type             X           Y           Z
 ---------------------------------------------------------------------
      1          6           0       -1.612480   -0.092094    0.617361
      2          6           0       -0.974365    0.711211   -0.437265
      3          6           0        0.278573    1.330248   -0.229069
      4          8           0        1.418070    0.659563    0.061643
      5          6           0        1.404476   -0.684302    0.128908
      6          7           0        0.421410   -1.440183   -0.074373
      7          6           0       -0.868808   -0.956084   -0.280835
      8          1           0       -0.711751    0.851233    1.713286
      9          1           0       -2.690965   -0.202288    0.507295
     10          1           0       -1.599275    1.208648   -1.170224
     11          1           0       -0.166280    1.502656    1.602016
     12          1           0        0.520748    2.248814   -0.751926
     13          1           0        2.398531   -1.071940    0.314858
     14          1           0       -1.409818   -1.586222   -0.982438
 ---------------------------------------------------------------------

 SCF Done:  E(RHF) =  -322.606523459     A.U. after    2 cycles

 The electronic state is 1-A.
 Alpha  occ. eigenvalues --  -20.66556 -15.64238 -11.37312 -11.36865 -11.32104
 Alpha  occ. eigenvalues --  -11.27074 -11.22671  -1.45473  -1.23721  -1.14282
 Alpha  occ. eigenvalues --   -0.99978  -0.94475  -0.82892  -0.77879  -0.71410
 Alpha  occ. eigenvalues --   -0.70860  -0.68048  -0.66287  -0.62573  -0.58273
 Alpha  occ. eigenvalues --   -0.55113  -0.51019  -0.47611  -0.41806  -0.37607
 Alpha  occ. eigenvalues --   -0.29802
 Alpha virt. eigenvalues --    0.02957   0.03715   0.04340   0.05533   0.05934
 Alpha virt. eigenvalues --    0.06018   0.07743   0.08804   0.09532   0.10231
 Alpha virt. eigenvalues --    0.11729   0.12365   0.12975   0.13648   0.14198

 Mulliken charges:
               1
     1  C    0.149306
     2  C    0.199319
     3  C    0.499652
     4  O   -0.436841
     5  C    0.591149
     6  N   -0.415957
     7  C    0.751021
     8  H    0.291546
     9  H   -0.261578
    10  H   -0.356166
    11  H    0.003205
    12  H   -0.307710
    13  H   -0.346388
    14  H   -0.360557
 Sum of Mulliken charges =  -0.00000

 Dipole moment (field-independent basis, Debye):
    X=              0.4085    Y=              0.8080    Z=             -2.6640  Tot=              2.8137

 Test job not archived.
 1\1\GINC-SE226\SP\RHF\Aug-CC-pVDZ\C5H7N1O1\OHZDE\09-Apr-2025\0\\#t hf
 aug-cc-pvdz iop(5/13=1,5/36=2,99/5=2) pseudo=read geom=check guess=(re
 ad,tcheck) scf=(maxcycle=1)\\title\\0,1\C,0,-1.43721962,-0.34660958,0.
 20641899\C,0,-0.60567121,0.4884758,-0.67442491\C,0,0.51625066,1.187569
 74,-0.17546184\O,0,1.58538614,0.59293137,0.40431318\C,0,1.6361605,-0.7
 4857067,0.49638498\N,0,0.78207172,-1.56698375,0.0723208\C,0,-0.4425500
 7,-1.16757872,-0.45910839\H,0,-0.89658695,0.65975582,1.47021233\H,0,-2
 .44555092,-0.52610798,-0.16564988\H,0,-1.05674323,0.93999461,-1.550696

 Normal termination of Gaussian 16 at Wed Apr  9 15:47:08 2025.
