 Gaussian 16, Revision C.01,

 ----------------------------------------------------------------------
 #t hf aug-cc-pvdz symm=none int=(grid=ultrafine) guess=(read,tcheck) s
 table=(opt,rrhf)
 ----------------------------------------------------------------------
 -----
 title
 -----
 Symbolic Z-matrix:
 Charge =  0 Multiplicity = 1

 SCF Done:  E(RHF) =  -168.783951477     A.U. after   14 cycles
 Normal termination of Gaussian 16 at Wed Apr  9 14:17:56 2025.
 Gaussian 16:  ES64L-G16RevC.01  3-Jul-2019

 ----------------------------------------------------------------------
 #t hf aug-cc-pvdz iop(5/13=1,5/36=2,99/5=2) pseudo=read geom=check gue
 ss=(read,tcheck) scf=(maxcycle=1)
 ----------------------------------------------------------------------
 -----
 title
 -----
 Structure from the checkpoint file:  "Grambow2020_b97d3_007119_reverse_mol2.chk"
 Charge =  0 Multiplicity = 1

                         Standard orientation:
 ---------------------------------------------------------------------
 Center     Atomic      Atomic             Coordinates (Angstroms)
 Number     Number       Type             X           Y           Z
 ---------------------------------------------------------------------
      1          7           0       -1.165386    0.111428   -0.121685
      2          6           0        1.156652    0.410014    0.038565
      3          8           0        0.214745   -0.474446   -0.027491
      4          1           0       -1.598036   -0.292894    0.721195
      5          1           0       -0.966179    1.102409    0.101142
      6          1           0        2.064041   -0.254023    0.017992
 ---------------------------------------------------------------------

 SCF Done:  E(RHF) =  -168.835618567     A.U. after    2 cycles

 The electronic state is 1-A.
 Alpha  occ. eigenvalues --  -20.68043 -15.70737 -11.31938  -1.43052  -1.12286
 Alpha  occ. eigenvalues --   -0.85692  -0.72910  -0.66259  -0.61825  -0.60526
 Alpha  occ. eigenvalues --   -0.46446  -0.37997
 Alpha virt. eigenvalues --    0.03524   0.04809   0.05627   0.06984   0.10601
 Alpha virt. eigenvalues --    0.12811   0.14624   0.16920   0.17707   0.18535
 Alpha virt. eigenvalues --    0.20129   0.23204   0.23417   0.25389   0.26166

 Mulliken charges:
               1
     1  N    0.075238
     2  C    0.143570
     3  O   -0.413267
     4  H    0.145958
     5  H    0.141092
     6  H   -0.092591
 Sum of Mulliken charges =  -0.00000

 Dipole moment (field-independent basis, Debye):
    X=             -0.7240    Y=             -0.2185    Z=              1.4872  Tot=              1.6684

 Test job not archived.
 1\1\GINC-SE225\SP\RHF\Aug-CC-pVDZ\C1H3N1O1\OHZDE\09-Apr-2025\0\\#t hf
 aug-cc-pvdz iop(5/13=1,5/36=2,99/5=2) pseudo=read geom=check guess=(re
 ad,tcheck) scf=(maxcycle=1)\\title\\0,1\N,0,0.9593258,0.57597072,-0.15
 615346\C,0,-0.87792956,-0.88372719,-0.13452703\O,0,-0.52606258,0.35874
 423,-0.21374777\H,0,1.02774403,1.1805873,0.67503065\H,0,1.27680288,-0.
 36328074,0.14115704\H,0,-1.98936658,-0.79231631,-0.27969843\\Version=E
 S64L-G16RevC.01\State=1-A\HF=-168.8356186\RMSD=2.443e-03\Dipole=0.1347
 012,0.2457413,0.5935925\Quadrupole=2.0324761,-2.2489257,0.2164496,0.44

 Normal termination of Gaussian 16 at Wed Apr  9 14:17:58 2025.
