 Gaussian 16, Revision C.01,

 ----------------------------------------------------------------------
 #t hf aug-cc-pvdz symm=none int=(grid=ultrafine) guess=(read,tcheck) s
 table=(opt,rrhf)
 ----------------------------------------------------------------------
 -----
 title
 -----
 Symbolic Z-matrix:
 Charge =  0 Multiplicity = 1

 SCF Done:  E(RHF) =  -306.874662180     A.U. after   13 cycles

 1\1\GINC-SE074\Stability\RHF\Aug-CC-pVDZ\C4H10O2\OHZDE\09-Apr-2025\0\\
 #t hf aug-cc-pvdz symm=none int=(grid=ultrafine) guess=(read,tcheck) s
 table=(opt,rrhf)\\title\\0,1\C,0,2.52194801,-0.56323113,-0.61763649\O,
 0,1.38656947,-0.45995853,0.22502963\C,0,0.25036613,-0.00614696,-0.4651
 9493\C,0,-0.97331478,-0.07777781,0.45021304\C,0,-2.20227091,0.61524713
 ,-0.12014649\O,0,-1.1548403,-1.17907441,1.175428\H,0,2.3472899,-1.2677
 3998,-1.45150259\H,0,2.81009924,0.41590516,-1.04375414\H,0,3.34275006,
 -0.94025151,0.00348414\H,0,0.00259361,-0.67118635,-1.32022717\H,0,0.38

 Normal termination of Gaussian 16 at Wed Apr  9 03:05:57 2025.
 Gaussian 16:  ES64L-G16RevC.01  3-Jul-2019

 ----------------------------------------------------------------------
 #t hf aug-cc-pvdz iop(5/13=1,5/36=2,99/5=2) pseudo=read geom=check gue
 ss=(read,tcheck) scf=(maxcycle=1)
 ----------------------------------------------------------------------
 -----
 title
 -----
 Structure from the checkpoint file:  "Grambow2020_b97d3_006570_forward_mol1.chk"
 Charge =  0 Multiplicity = 1

                         Standard orientation:
 ---------------------------------------------------------------------
 Center     Atomic      Atomic             Coordinates (Angstroms)
 Number     Number       Type             X           Y           Z
 ---------------------------------------------------------------------
      1          6           0       -2.640930   -0.168795   -0.087080
      2          8           0       -1.358093    0.333379    0.247565
      3          6           0       -0.328416   -0.549588   -0.117739
      4          6           0        1.029464    0.116788    0.111616
      5          6           0        2.207060   -0.837707   -0.023043
      6          8           0        1.191871    1.373768   -0.295037
      7          1           0       -2.737723   -0.346522   -1.173917
      8          1           0       -2.864861   -1.114177    0.441526
      9          1           0       -3.367510    0.593608    0.217018
     10          1           0       -0.352869   -0.773324   -1.205899
     11          1           0       -0.392344   -1.508845    0.430673
     12          1           0        0.932940    0.226522    1.624359
     13          1           0        3.124737   -0.344737    0.312591
     14          1           0        2.313331   -1.042017   -1.100197
     15          1           0        2.060432   -1.784297    0.512205
     16          1           0        1.010576    1.072422    1.018888
 ---------------------------------------------------------------------

 SCF Done:  E(RHF) =  -306.973323829     A.U. after    2 cycles

 The electronic state is 1-A.
 Alpha  occ. eigenvalues --  -20.58564 -20.52196 -11.37885 -11.31043 -11.29499
 Alpha  occ. eigenvalues --  -11.25420  -1.35380  -1.30766  -1.04416  -0.97671
 Alpha  occ. eigenvalues --   -0.89568  -0.80460  -0.71695  -0.68464  -0.67137
 Alpha  occ. eigenvalues --   -0.65338  -0.60026  -0.59417  -0.56528  -0.55204
 Alpha  occ. eigenvalues --   -0.54084  -0.51031  -0.45306  -0.42275  -0.39583
 Alpha virt. eigenvalues --    0.03026   0.04054   0.04294   0.05027   0.06207
 Alpha virt. eigenvalues --    0.06555   0.06803   0.08103   0.08964   0.09435
 Alpha virt. eigenvalues --    0.11183   0.12091   0.13482   0.14883   0.15275

 Mulliken charges:
               1
     1  C    0.661180
     2  O   -0.630543
     3  C    0.944933
     4  C   -0.552495
     5  C    0.559818
     6  O   -0.898830
     7  H   -0.043347
     8  H   -0.048853
     9  H   -0.241274
    10  H   -0.015916
    11  H   -0.133193
    12  H    0.265904
    13  H   -0.026327
    14  H    0.073358
    15  H    0.008462
    16  H    0.077122
 Sum of Mulliken charges =   0.00000

 Dipole moment (field-independent basis, Debye):
    X=             -0.8948    Y=             -4.4476    Z=              0.8055  Tot=              4.6077

 Test job not archived.
 1\1\GINC-SE074\SP\RHF\Aug-CC-pVDZ\C4H10O2\OHZDE\09-Apr-2025\0\\#t hf a
 ug-cc-pvdz iop(5/13=1,5/36=2,99/5=2) pseudo=read geom=check guess=(rea
 d,tcheck) scf=(maxcycle=1)\\title\\0,1\C,0,2.52194801,-0.56323113,-0.6
 1763649\O,0,1.38656947,-0.45995853,0.22502963\C,0,0.25036613,-0.006146
 96,-0.46519493\C,0,-0.97331478,-0.07777781,0.45021304\C,0,-2.20227091,
 0.61524713,-0.12014649\O,0,-1.1548403,-1.17907441,1.175428\H,0,2.34728
 99,-1.26773998,-1.45150259\H,0,2.81009924,0.41590516,-1.04375414\H,0,3
 .34275006,-0.94025151,0.00348414\H,0,0.00259361,-0.67118635,-1.3202271

 Normal termination of Gaussian 16 at Wed Apr  9 03:06:02 2025.
