 Gaussian 16, Revision C.01,

 ----------------------------------------------------------------------
 #t hf aug-cc-pvdz symm=none int=(grid=ultrafine) guess=(read,tcheck) s
 table=(opt,rrhf)
 ----------------------------------------------------------------------
 -----
 title
 -----
 Symbolic Z-matrix:
 Charge =  0 Multiplicity = 1

 SCF Done:  E(RHF) =  -302.840786251     A.U. after   14 cycles
 Normal termination of Gaussian 16 at Wed Apr  9 03:34:28 2025.
 Gaussian 16:  ES64L-G16RevC.01  3-Jul-2019

 ----------------------------------------------------------------------
 #t hf aug-cc-pvdz iop(5/13=1,5/36=2,99/5=2) pseudo=read geom=check gue
 ss=(read,tcheck) scf=(maxcycle=1)
 ----------------------------------------------------------------------
 -----
 title
 -----
 Structure from the checkpoint file:  "Grambow2020_wb97xd3_007172_reverse_mol2.chk"
 Charge =  0 Multiplicity = 1

                         Standard orientation:
 ---------------------------------------------------------------------
 Center     Atomic      Atomic             Coordinates (Angstroms)
 Number     Number       Type             X           Y           Z
 ---------------------------------------------------------------------
      1          6           0       -2.520725   -0.397372    0.128208
      2          6           0       -1.087019   -0.053314    0.414298
      3          6           0       -0.025143   -0.601097   -0.466794
      4          7           0       -0.453542    0.848250   -0.530039
      5          6           0        0.851446    1.241126    0.092752
      6          6           0        1.315073   -0.201286    0.049376
      7          7           0        2.442957   -0.724780    0.220591
      8          1           0       -2.680431   -0.509841   -0.944513
      9          1           0       -3.179674    0.394870    0.486930
     10          1           0       -2.800387   -1.328119    0.625006
     11          1           0       -0.841956    0.083233    1.465837
     12          1           0        2.426427   -1.716769   -0.010990
     13          1           0       -0.235704   -1.314012   -1.255523
     14          1           0        1.428414    1.878086   -0.576715
     15          1           0        0.755618    1.719925    1.069074
 ---------------------------------------------------------------------

 SCF Done:  E(RHF) =  -302.928328834     A.U. after    2 cycles

 The electronic state is 1-A.
 Alpha  occ. eigenvalues --  -15.64223 -15.61602 -11.30619 -11.29025 -11.28349
 Alpha  occ. eigenvalues --  -11.27629 -11.24117  -1.30134  -1.17753  -1.03395
 Alpha  occ. eigenvalues --   -0.94419  -0.90017  -0.81117  -0.74210  -0.71055
 Alpha  occ. eigenvalues --   -0.64977  -0.62489  -0.59498  -0.56643  -0.55519
 Alpha  occ. eigenvalues --   -0.53972  -0.48611  -0.45286  -0.44756  -0.41149
 Alpha  occ. eigenvalues --   -0.37377
 Alpha virt. eigenvalues --    0.03101   0.03675   0.04418   0.04563   0.06284
 Alpha virt. eigenvalues --    0.06687   0.07340   0.07940   0.10363   0.11556
 Alpha virt. eigenvalues --    0.12005   0.12750   0.13653   0.13922   0.14195

 Mulliken charges:
               1
     1  C    0.406350
     2  C    0.327770
     3  C    0.896440
     4  N   -0.949729
     5  C    0.678206
     6  C   -0.034545
     7  N   -0.376545
     8  H   -0.030462
     9  H    0.054471
    10  H    0.081980
    11  H   -0.436443
    12  H   -0.000241
    13  H   -0.410764
    14  H   -0.127195
    15  H   -0.079292
 Sum of Mulliken charges =   0.00000

 Dipole moment (field-independent basis, Debye):
    X=             -2.0591    Y=             -1.1537    Z=              0.4439  Tot=              2.4017

 Test job not archived.
 1\1\GINC-SE074\SP\RHF\Aug-CC-pVDZ\C5H8N2\OHZDE\09-Apr-2025\0\\#t hf au
 g-cc-pvdz iop(5/13=1,5/36=2,99/5=2) pseudo=read geom=check guess=(read
 ,tcheck) scf=(maxcycle=1)\\title\\0,1\C,0,-1.91517373,-1.1217093,0.328
 98719\C,0,-0.488444,-0.71964187,0.08707855\C,0,-0.1930929,0.67618043,-
 0.32330815\N,0,0.09228543,0.17183119,1.07394765\C,0,1.55885942,0.21766
 076,0.77017715\C,0,1.26651298,0.82675933,-0.58662646\N,0,2.0093234,1.3
 7496088,-1.43703161\H,0,-2.48627924,-0.28345834,0.72906239\H,0,-1.9618
 0951,-1.93808823,1.0514085\H,0,-2.38398204,-1.45619266,-0.5981856\H,0,

 Normal termination of Gaussian 16 at Wed Apr  9 03:34:33 2025.
