 Gaussian 16, Revision C.01,

 ----------------------------------------------------------------------
 #t hf aug-cc-pvdz symm=none int=(grid=ultrafine) guess=(read,tcheck) s
 table=(opt,rrhf)
 ----------------------------------------------------------------------
 -----
 title
 -----
 Symbolic Z-matrix:
 Charge =  0 Multiplicity = 1

 SCF Done:  E(RHF) =  -323.918023554     A.U. after   14 cycles
 Normal termination of Gaussian 16 at Wed Apr  9 15:58:11 2025.
 Gaussian 16:  ES64L-G16RevC.01  3-Jul-2019

 ----------------------------------------------------------------------
 #t hf aug-cc-pvdz iop(5/13=1,5/36=2,99/5=2) pseudo=read geom=check gue
 ss=(read,tcheck) scf=(maxcycle=1)
 ----------------------------------------------------------------------
 -----
 title
 -----
 Structure from the checkpoint file:  "Grambow2020_wb97xd3_007613_reverse_mol2.chk"
 Charge =  0 Multiplicity = 1

                         Standard orientation:
 ---------------------------------------------------------------------
 Center     Atomic      Atomic             Coordinates (Angstroms)
 Number     Number       Type             X           Y           Z
 ---------------------------------------------------------------------
      1          6           0       -0.530104    1.428403    0.844967
      2          6           0       -0.369403    0.723872   -0.495568
      3          7           0        1.033440    0.431121   -0.793811
      4          6           0       -1.215017   -0.514944   -0.666675
      5          6           0       -2.158860   -0.938079    0.155601
      6          6           0        1.813292   -0.403102   -0.068408
      7          8           0        1.466621   -1.016017    0.913154
      8          1           0       -0.249729    0.766239    1.663225
      9          1           0        0.107555    2.312459    0.878858
     10          1           0       -1.562525    1.750898    0.985831
     11          1           0       -0.675684    1.420273   -1.283848
     12          1           0        1.460799    0.889002   -1.578115
     13          1           0       -1.006625   -1.075381   -1.574708
     14          1           0       -2.728122   -1.832381   -0.064204
     15          1           0       -2.391379   -0.427701    1.082371
     16          1           0        2.839217   -0.470019   -0.477455
 ---------------------------------------------------------------------

 SCF Done:  E(RHF) =  -324.020881932     A.U. after    2 cycles

 The electronic state is 1-A.
 Alpha  occ. eigenvalues --  -20.53793 -15.65476 -11.36110 -11.29267 -11.24243
 Alpha  occ. eigenvalues --  -11.23084 -11.22601  -1.35031  -1.21150  -1.06964
 Alpha  occ. eigenvalues --   -0.98844  -0.89695  -0.81173  -0.75430  -0.73884
 Alpha  occ. eigenvalues --   -0.66750  -0.63046  -0.62421  -0.62070  -0.56953
 Alpha  occ. eigenvalues --   -0.55114  -0.53499  -0.51279  -0.49172  -0.44474
 Alpha  occ. eigenvalues --   -0.40254  -0.36738
 Alpha virt. eigenvalues --    0.02530   0.03998   0.04255   0.04665   0.06092
 Alpha virt. eigenvalues --    0.06458   0.06952   0.08115   0.09462   0.11030
 Alpha virt. eigenvalues --    0.11898   0.12393   0.13249   0.13724   0.13999

 Mulliken charges:
               1
     1  C    0.509355
     2  C    0.320914
     3  N   -0.312146
     4  C    0.577368
     5  C    0.390744
     6  C    0.609623
     7  O   -0.463537
     8  H    0.061631
     9  H   -0.119687
    10  H   -0.033313
    11  H   -0.092440
    12  H   -0.087604
    13  H   -0.473374
    14  H   -0.299490
    15  H   -0.366187
    16  H   -0.221857
 Sum of Mulliken charges =  -0.00000

 Dipole moment (field-independent basis, Debye):
    X=              0.0967    Y=              2.6631    Z=             -3.2386  Tot=              4.1940

 Test job not archived.
 1\1\GINC-SE141\SP\RHF\Aug-CC-pVDZ\C5H9N1O1\OHZDE\09-Apr-2025\0\\#t hf
 aug-cc-pvdz iop(5/13=1,5/36=2,99/5=2) pseudo=read geom=check guess=(re
 ad,tcheck) scf=(maxcycle=1)\\title\\0,1\C,0,-0.96562779,-1.0241763,0.6
 453216\C,0,-0.66216774,0.14170749,-0.28626367\N,0,-0.29195447,1.349453
 64,0.4532715\C,0,0.35717121,-0.15287754,-1.36012241\C,0,0.87558456,-1.
 33464553,-1.64418846\C,0,0.80768773,1.46382122,1.23302365\O,0,1.627912
 35,0.59807642,1.42544755\H,0,-0.0660194,-1.33885317,1.17286336\H,0,-1.
 7140984,-0.72704724,1.38072621\H,0,-1.36232316,-1.86996434,0.08228264\

 Normal termination of Gaussian 16 at Wed Apr  9 15:58:17 2025.
