 Gaussian 16, Revision C.01,

 ----------------------------------------------------------------------
 #t hf aug-cc-pvdz symm=none int=(grid=ultrafine) guess=(read,tcheck) s
 table=(opt,rrhf)
 ----------------------------------------------------------------------
 -----
 title
 -----
 Symbolic Z-matrix:
 Charge =  0 Multiplicity = 1

 SCF Done:  E(RHF) =  -355.965266562     A.U. after   13 cycles
 Normal termination of Gaussian 16 at Wed Apr  9 16:51:10 2025.
 Gaussian 16:  ES64L-G16RevC.01  3-Jul-2019

 ----------------------------------------------------------------------
 #t hf aug-cc-pvdz iop(5/13=1,5/36=2,99/5=2) pseudo=read geom=check gue
 ss=(read,tcheck) scf=(maxcycle=1)
 ----------------------------------------------------------------------
 -----
 title
 -----
 Structure from the checkpoint file:  "Grambow2020_wb97xd3_008992_forward_mol2.chk"
 Charge =  0 Multiplicity = 1

                         Standard orientation:
 ---------------------------------------------------------------------
 Center     Atomic      Atomic             Coordinates (Angstroms)
 Number     Number       Type             X           Y           Z
 ---------------------------------------------------------------------
      1          6           0       -2.854148   -0.170399    0.036886
      2          7           0       -1.502335   -0.675547   -0.053083
      3          6           0       -0.440899    0.177081   -0.020314
      4          8           0       -0.547966    1.384666   -0.021329
      5          7           0        0.793155   -0.461083   -0.007008
      6          6           0        1.986796    0.225273    0.027395
      7          7           0        3.082454   -0.405793    0.001953
      8          1           0       -2.911311    0.772257   -0.502745
      9          1           0       -3.163877    0.007317    1.070475
     10          1           0       -3.536681   -0.883955   -0.423380
     11          1           0       -1.347476   -1.648714    0.137888
     12          1           0        0.865897   -1.462875   -0.079655
     13          1           0        1.850046    1.305252    0.075827
     14          1           0        3.863720    0.238628    0.035387
 ---------------------------------------------------------------------

 SCF Done:  E(RHF) =  -356.077038902     A.U. after    2 cycles

 The electronic state is 1-A.
 Alpha  occ. eigenvalues --  -20.54084 -15.66961 -15.66085 -15.60702 -11.40718
 Alpha  occ. eigenvalues --  -11.33470 -11.27895  -1.37887  -1.25324  -1.21443
 Alpha  occ. eigenvalues --   -1.13979  -0.96580  -0.85233  -0.81816  -0.78407
 Alpha  occ. eigenvalues --   -0.68115  -0.66769  -0.65455  -0.62947  -0.61314
 Alpha  occ. eigenvalues --   -0.58973  -0.56058  -0.51189  -0.48102  -0.42759
 Alpha  occ. eigenvalues --   -0.41567  -0.37590
 Alpha virt. eigenvalues --    0.02441   0.04014   0.04068   0.05066   0.06412
 Alpha virt. eigenvalues --    0.07039   0.08709   0.09750   0.10840   0.13156
 Alpha virt. eigenvalues --    0.13556   0.13836   0.14320   0.14695   0.15156

 Mulliken charges:
               1
     1  C    0.799433
     2  N   -0.305905
     3  C    0.569262
     4  O   -0.463635
     5  N   -0.413787
     6  C    1.072400
     7  N   -0.412643
     8  H   -0.113850
     9  H   -0.072689
    10  H   -0.186549
    11  H   -0.114935
    12  H   -0.096415
    13  H   -0.304223
    14  H    0.043536
 Sum of Mulliken charges =   0.00000

 Dipole moment (field-independent basis, Debye):
    X=             -1.9893    Y=             -2.4294    Z=              0.3468  Tot=              3.1590

 Test job not archived.
 1\1\GINC-SE226\SP\RHF\Aug-CC-pVDZ\C3H7N3O1\OHZDE\09-Apr-2025\0\\#t hf
 aug-cc-pvdz iop(5/13=1,5/36=2,99/5=2) pseudo=read geom=check guess=(re
 ad,tcheck) scf=(maxcycle=1)\\title\\0,1\C,0,2.56940005,0.16209949,0.00
 440577\N,0,1.19234761,0.25319483,0.43579255\C,0,0.17593799,-0.0023504,
 -0.43386483\O,0,0.33955229,-0.21241161,-1.61658567\N,0,-1.08398347,0.0
 191141,0.15133393\C,0,-2.23997032,-0.21665724,-0.55940675\N,0,-3.36378
 601,-0.14939518,0.01667694\H,0,2.63963885,0.52520336,-1.01847859\H,0,2
 .94637191,-0.86408233,0.03020906\H,0,3.18980986,0.78728846,0.64556761\

 Normal termination of Gaussian 16 at Wed Apr  9 16:51:14 2025.
