 Gaussian 16, Revision C.01,

 ----------------------------------------------------------------------
 #t hf aug-cc-pvdz symm=none int=(grid=ultrafine) guess=(read,tcheck) s
 table=(opt,rrhf)
 ----------------------------------------------------------------------
 -----
 title
 -----
 Symbolic Z-matrix:
 Charge =  0 Multiplicity = 1

 SCF Done:  E(RHF) =  -306.508057576     A.U. after   15 cycles
 Normal termination of Gaussian 16 at Wed Apr  9 15:47:04 2025.
 Gaussian 16:  ES64L-G16RevC.01  3-Jul-2019

 ----------------------------------------------------------------------
 #t hf aug-cc-pvdz iop(5/13=1,5/36=2,99/5=2) pseudo=read geom=check gue
 ss=(read,tcheck) scf=(maxcycle=1)
 ----------------------------------------------------------------------
 -----
 title
 -----
 Structure from the checkpoint file:  "Grambow2020_wb97xd3_007365_forward_mol1.chk"
 Charge =  0 Multiplicity = 1

                         Standard orientation:
 ---------------------------------------------------------------------
 Center     Atomic      Atomic             Coordinates (Angstroms)
 Number     Number       Type             X           Y           Z
 ---------------------------------------------------------------------
      1          6           0        1.907075   -0.539460   -0.551953
      2          6           0        1.866512    0.459078    0.575237
      3          6           0        0.613793    0.048016   -0.103326
      4          6           0       -1.017191    1.389871   -0.532093
      5          6           0       -1.620657    0.285249    0.284717
      6          8           0       -1.565569   -0.975220   -0.378338
      7          6           0       -0.541886   -0.646893    0.549328
      8          1           0        2.321056   -0.215042   -1.497358
      9          1           0        2.072889   -1.584679   -0.320623
     10          1           0        2.021089    0.104401    1.587166
     11          1           0        2.255907    1.450317    0.382072
     12          1           0       -0.645137    2.148821    0.175661
     13          1           0        0.134135    0.774139   -0.951995
     14          1           0       -2.473218    0.469795    0.929257
     15          1           0       -0.408049   -1.321155    1.391067
 ---------------------------------------------------------------------

 SCF Done:  E(RHF) =  -306.600567650     A.U. after    2 cycles

 The electronic state is 1-A.
 Alpha  occ. eigenvalues --  -20.58428 -11.30772 -11.30332 -11.28917 -11.26841
 Alpha  occ. eigenvalues --  -11.26282 -11.25925  -1.39267  -1.17137  -1.02581
 Alpha  occ. eigenvalues --   -0.91591  -0.85457  -0.84547  -0.74686  -0.72138
 Alpha  occ. eigenvalues --   -0.69737  -0.64083  -0.60251  -0.57663  -0.55475
 Alpha  occ. eigenvalues --   -0.54270  -0.50830  -0.46624  -0.45411  -0.42685
 Alpha  occ. eigenvalues --   -0.33108
 Alpha virt. eigenvalues --    0.02980   0.03863   0.04257   0.04875   0.05943
 Alpha virt. eigenvalues --    0.06345   0.07095   0.08076   0.09013   0.11109
 Alpha virt. eigenvalues --    0.11807   0.12276   0.13105   0.13442   0.13880

 Mulliken charges:
               1
     1  C    0.640111
     2  C    0.700308
     3  C   -0.385600
     4  C   -0.270916
     5  C    0.580651
     6  O   -0.764926
     7  C    0.657585
     8  H   -0.262829
     9  H   -0.280046
    10  H   -0.277843
    11  H   -0.263719
    12  H    0.150524
    13  H    0.265745
    14  H   -0.213904
    15  H   -0.275140
 Sum of Mulliken charges =  -0.00000

 Dipole moment (field-independent basis, Debye):
    X=              2.6550    Y=              0.4345    Z=              3.2208  Tot=              4.1967

 Test job not archived.
 1\1\GINC-SE097\SP\RHF\Aug-CC-pVDZ\C6H8O1\OHZDE\09-Apr-2025\0\\#t hf au
 g-cc-pvdz iop(5/13=1,5/36=2,99/5=2) pseudo=read geom=check guess=(read
 ,tcheck) scf=(maxcycle=1)\\title\\0,1\C,0,-1.580466,0.3788611,-0.87707
 768\C,0,-1.55678632,-0.13353375,0.53931636\C,0,-0.29420672,0.00383985,
 -0.22602484\C,0,1.3414476,-1.39443242,-0.10773198\C,0,1.93430575,-0.06
 384902,0.25227871\O,0,1.88977162,0.86308717,-0.82950949\C,0,0.85275433
 ,0.8954651,0.13994239\H,0,-1.98131861,-0.27308134,-1.6417377\H,0,-1.74
 857623,1.43499858,-1.04971526\H,0,-1.7253489,0.56858269,1.34697325\H,0

 Normal termination of Gaussian 16 at Wed Apr  9 15:47:09 2025.
