 Gaussian 16, Revision C.01,

 ----------------------------------------------------------------------
 #t hf aug-cc-pvdz symm=none int=(grid=ultrafine) guess=(read,tcheck) s
 table=(opt,rrhf)
 ----------------------------------------------------------------------
 -----
 title
 -----
 Symbolic Z-matrix:
 Charge =  0 Multiplicity = 1

 SCF Done:  E(RHF) =  -338.609813829     A.U. after   16 cycles
 Normal termination of Gaussian 16 at Wed Apr  9 15:19:53 2025.
 Gaussian 16:  ES64L-G16RevC.01  3-Jul-2019

 ----------------------------------------------------------------------
 #t hf aug-cc-pvdz iop(5/13=1,5/36=2,99/5=2) pseudo=read geom=check gue
 ss=(read,tcheck) scf=(maxcycle=1)
 ----------------------------------------------------------------------
 -----
 title
 -----
 Structure from the checkpoint file:  "Grambow2020_wb97xd3_006848_reverse_mol1.chk"
 Charge =  0 Multiplicity = 1

                         Standard orientation:
 ---------------------------------------------------------------------
 Center     Atomic      Atomic             Coordinates (Angstroms)
 Number     Number       Type             X           Y           Z
 ---------------------------------------------------------------------
      1          7           0       -2.496752   -0.414562   -0.058123
      2          6           0       -1.109880   -0.126078    0.118133
      3          6           0       -0.613545    1.205575    0.032359
      4          7           0        0.714189    1.090592   -0.035282
      5          6           0        1.091418   -0.227429   -0.017138
      6          8           0        2.427270   -0.456084   -0.057474
      7          6           0        0.034782   -1.108180   -0.005072
      8          1           0       -2.730025   -0.344343   -1.039736
      9          1           0       -2.661723   -1.378382    0.203934
     10          1           0       -1.120253    2.157365    0.035414
     11          1           0        1.362254    1.863502   -0.001174
     12          1           0        2.530221   -1.411876   -0.034919
     13          1           0       -0.737347   -0.433135    1.180414
 ---------------------------------------------------------------------

 SCF Done:  E(RHF) =  -338.710420295     A.U. after    2 cycles

 The electronic state is 1-A.
 Alpha  occ. eigenvalues --  -20.59954 -15.72355 -15.61965 -11.31879 -11.30946
 Alpha  occ. eigenvalues --  -11.28805 -11.20061  -1.37802  -1.29652  -1.17233
 Alpha  occ. eigenvalues --   -1.03771  -0.98209  -0.81678  -0.80834  -0.76230
 Alpha  occ. eigenvalues --   -0.69572  -0.65581  -0.64421  -0.64025  -0.59625
 Alpha  occ. eigenvalues --   -0.56281  -0.55491  -0.48764  -0.38639  -0.33716
 Alpha  occ. eigenvalues --   -0.28811
 Alpha virt. eigenvalues --    0.02406   0.03919   0.04376   0.05113   0.06144
 Alpha virt. eigenvalues --    0.07393   0.08668   0.10235   0.11601   0.12299
 Alpha virt. eigenvalues --    0.13081   0.13567   0.13947   0.15384   0.16119

 Mulliken charges:
               1
     1  N   -0.454235
     2  C    0.492412
     3  C    0.674696
     4  N   -0.441547
     5  C    0.849897
     6  O   -0.543196
     7  C   -0.808826
     8  H    0.004601
     9  H    0.066525
    10  H   -0.260259
    11  H   -0.073459
    12  H    0.146705
    13  H    0.346685
 Sum of Mulliken charges =  -0.00000

 Dipole moment (field-independent basis, Debye):
    X=              0.0185    Y=              3.4718    Z=             -0.2799  Tot=              3.4831

 Test job not archived.
 1\1\GINC-SE226\SP\RHF\Aug-CC-pVDZ\C4H6N2O1\OHZDE\09-Apr-2025\0\\#t hf
 aug-cc-pvdz iop(5/13=1,5/36=2,99/5=2) pseudo=read geom=check guess=(re
 ad,tcheck) scf=(maxcycle=1)\\title\\0,1\N,0,-2.2053216,0.62134029,-0.1
 6171778\C,0,-0.82308163,0.2654657,-0.18338874\C,0,-0.40323964,-1.05523
 16,-0.50972699\N,0,0.88579618,-1.11678396,-0.17021018\C,0,1.30609825,0
 .07230768,0.36757862\O,0,2.61277032,0.1251088,0.72567362\C,0,0.3068230
 7,1.00907914,0.49507428\H,0,-2.63698409,0.23264872,0.66623068\H,0,-2.2
 7823427,1.62719073,-0.07347751\H,0,-0.93262749,-1.88271809,-0.95434059

 Normal termination of Gaussian 16 at Wed Apr  9 15:19:57 2025.
