 Gaussian 16, Revision C.01,

 ----------------------------------------------------------------------
 #t hf aug-cc-pvdz symm=none int=(grid=ultrafine) guess=(read,tcheck) s
 table=(opt,rrhf)
 ----------------------------------------------------------------------
 -----
 title
 -----
 Symbolic Z-matrix:
 Charge =  0 Multiplicity = 1

 SCF Done:  E(RHF) =  -302.920491221     A.U. after   14 cycles
 Normal termination of Gaussian 16 at Wed Apr  9 15:39:01 2025.
 Gaussian 16:  ES64L-G16RevC.01  3-Jul-2019

 ----------------------------------------------------------------------
 #t hf aug-cc-pvdz iop(5/13=1,5/36=2,99/5=2) pseudo=read geom=check gue
 ss=(read,tcheck) scf=(maxcycle=1)
 ----------------------------------------------------------------------
 -----
 title
 -----
 Structure from the checkpoint file:  "Grambow2020_wb97xd3_007238_reverse_mol2.chk"
 Charge =  0 Multiplicity = 1

                         Standard orientation:
 ---------------------------------------------------------------------
 Center     Atomic      Atomic             Coordinates (Angstroms)
 Number     Number       Type             X           Y           Z
 ---------------------------------------------------------------------
      1          6           0       -0.065636    1.975214   -0.355115
      2          7           0       -1.597104    0.123820    0.251541
      3          6           0       -1.384250   -1.070709   -0.133121
      4          7           0       -0.034854   -1.484211   -0.269487
      5          6           0        0.641945   -0.446512    0.061420
      6          6           0        2.126747   -0.385919    0.062684
      7          6           0       -0.271648    0.690115    0.438453
      8          1           0        0.925107    2.392502   -0.166411
      9          1           0       -0.167248    1.787000   -1.425135
     10          1           0       -0.812617    2.712810   -0.065076
     11          1           0       -2.178456   -1.772858   -0.359218
     12          1           0        2.545365   -1.354403   -0.201599
     13          1           0        2.474180    0.362526   -0.654296
     14          1           0        2.499925   -0.085269    1.044260
     15          1           0       -0.145502    0.907293    1.507182
 ---------------------------------------------------------------------

 SCF Done:  E(RHF) =  -303.009681289     A.U. after    2 cycles

 The electronic state is 1-A.
 Alpha  occ. eigenvalues --  -15.62624 -15.61472 -11.30833 -11.30733 -11.27923
 Alpha  occ. eigenvalues --  -11.25377 -11.24382  -1.29547  -1.13514  -1.05652
 Alpha  occ. eigenvalues --   -0.98602  -0.89935  -0.79173  -0.74568  -0.68952
 Alpha  occ. eigenvalues --   -0.64368  -0.60007  -0.58496  -0.56706  -0.56067
 Alpha  occ. eigenvalues --   -0.55743  -0.52213  -0.47407  -0.43923  -0.41923
 Alpha  occ. eigenvalues --   -0.37776
 Alpha virt. eigenvalues --    0.02885   0.04145   0.04281   0.04421   0.06408
 Alpha virt. eigenvalues --    0.07077   0.07210   0.08113   0.09625   0.10350
 Alpha virt. eigenvalues --    0.11032   0.12309   0.13317   0.14030   0.14802

 Mulliken charges:
               1
     1  C    0.642492
     2  N   -0.536463
     3  C    0.720822
     4  N   -0.625989
     5  C   -0.486540
     6  C    0.637085
     7  C   -0.031281
     8  H   -0.017628
     9  H    0.015955
    10  H   -0.015428
    11  H   -0.251816
    12  H   -0.107824
    13  H    0.049014
    14  H    0.064996
    15  H   -0.057394
 Sum of Mulliken charges =   0.00000

 Dipole moment (field-independent basis, Debye):
    X=              2.3669    Y=              1.3357    Z=              0.3188  Tot=              2.7364

 Test job not archived.
 1\1\GINC-SE057\SP\RHF\Aug-CC-pVDZ\C5H8N2\OHZDE\09-Apr-2025\0\\#t hf au
 g-cc-pvdz iop(5/13=1,5/36=2,99/5=2) pseudo=read geom=check guess=(read
 ,tcheck) scf=(maxcycle=1)\\title\\0,1\C,0,-1.39415018,0.15259212,-1.08
 458044\N,0,-1.27844643,0.28104886,1.38750261\C,0,-0.46056154,-0.430494
 46,2.05454175\N,0,0.78686855,-0.73293073,1.45213104\C,0,0.72749465,-0.
 15375835,0.30958528\C,0,1.8134427,-0.1973606,-0.70388743\C,0,-0.586267
 01,0.56342952,0.14106528\H,0,-0.86262153,0.40898583,-2.00275837\H,0,-1
 .5824026,-0.92221794,-1.07859893\H,0,-2.353617,0.66793141,-1.08491812\

 Normal termination of Gaussian 16 at Wed Apr  9 15:39:06 2025.
