 Gaussian 16, Revision C.01,

 ----------------------------------------------------------------------
 #t hf aug-cc-pvdz symm=none int=(grid=ultrafine) guess=(read,tcheck) s
 table=(opt,rrhf)
 ----------------------------------------------------------------------
 -----
 title
 -----
 Symbolic Z-matrix:
 Charge =  0 Multiplicity = 1

 SCF Done:  E(RHF) =  -344.821697507     A.U. after   15 cycles

 1\1\GINC-SE173\Stability\RHF\Aug-CC-pVDZ\C5H10O2\OHZDE\09-Apr-2025\0\\
 #t hf aug-cc-pvdz symm=none int=(grid=ultrafine) guess=(read,tcheck) s
 table=(opt,rrhf)\\title\\0,1\C,0,-1.20237165,-1.11248792,0.49193891\C,
 0,-0.59241931,-0.11943097,-0.47353327\C,0,0.90141033,-0.28100672,-0.71
 379407\C,0,1.79626137,-0.11021079,0.51022716\O,0,1.92663615,1.22710366
 ,0.93110082\C,0,-1.72761614,2.02858921,-0.35291241\O,0,-0.82079723,1.2
 2460889,0.07838453\H,0,-1.0214022,-2.13081136,0.1445144\H,0,-0.7750193
 4,-1.00779592,1.48944135\H,0,-2.27996957,-0.96078435,0.56509323\H,0,1.

 Normal termination of Gaussian 16 at Wed Apr  9 15:55:12 2025.
 Gaussian 16:  ES64L-G16RevC.01  3-Jul-2019

 ----------------------------------------------------------------------
 #t hf aug-cc-pvdz iop(5/13=1,5/36=2,99/5=2) pseudo=read geom=check gue
 ss=(read,tcheck) scf=(maxcycle=1)
 ----------------------------------------------------------------------
 -----
 title
 -----
 Structure from the checkpoint file:  "Grambow2020_wb97xd3_007600_reverse_mol2.chk"
 Charge =  0 Multiplicity = 1

                         Standard orientation:
 ---------------------------------------------------------------------
 Center     Atomic      Atomic             Coordinates (Angstroms)
 Number     Number       Type             X           Y           Z
 ---------------------------------------------------------------------
      1          6           0       -1.015722    1.545114   -0.689269
      2          6           0       -0.716746    0.533484    0.395884
      3          6           0        0.703873    0.565712    0.940091
      4          6           0        1.811201    0.272662   -0.067928
      5          8           0        1.895929   -1.084378   -0.433724
      6          6           0       -2.004493   -1.504511    0.071083
      7          8           0       -0.954966   -0.801839   -0.172777
      8          1           0       -0.812913    2.553726   -0.325942
      9          1           0       -0.403954    1.368247   -1.574176
     10          1           0       -2.064558    1.490256   -0.983403
     11          1           0        0.786642   -0.148401    1.763517
     12          1           0        0.862253    1.562787    1.362509
     13          1           0        2.771613    0.520234    0.387396
     14          1           0        1.705980    0.915519   -0.952433
     15          1           0        1.029119   -1.379120   -0.726273
     16          1           0       -1.432148    0.636241    1.218418
     17          1           0       -2.638421   -0.904516    0.783234
 ---------------------------------------------------------------------

 SCF Done:  E(RHF) =  -344.930748313     A.U. after    2 cycles

 The electronic state is 1-A.
 Alpha  occ. eigenvalues --  -20.64876 -20.56342 -11.32648 -11.31274 -11.29195
 Alpha  occ. eigenvalues --  -11.25278 -11.25263  -1.42008  -1.32056  -1.10088
 Alpha  occ. eigenvalues --   -0.99743  -0.92356  -0.86900  -0.82005  -0.70570
 Alpha  occ. eigenvalues --   -0.69653  -0.66425  -0.64960  -0.62768  -0.60319
 Alpha  occ. eigenvalues --   -0.59068  -0.57110  -0.55146  -0.53086  -0.51187
 Alpha  occ. eigenvalues --   -0.48254  -0.45244  -0.36159
 Alpha virt. eigenvalues --    0.02723   0.03973   0.04098   0.05070   0.05904
 Alpha virt. eigenvalues --    0.06254   0.06908   0.07386   0.07781   0.09072
 Alpha virt. eigenvalues --    0.09622   0.12525   0.12978   0.13324   0.13900

 Mulliken charges:
               1
     1  C    0.483597
     2  C    0.198369
     3  C    0.067501
     4  C    0.910822
     5  O   -0.553202
     6  C    0.088082
     7  O   -0.509428
     8  H   -0.012595
     9  H   -0.055342
    10  H   -0.104734
    11  H   -0.052850
    12  H   -0.021272
    13  H   -0.145943
    14  H   -0.167868
    15  H    0.196509
    16  H   -0.151091
    17  H   -0.170554
 Sum of Mulliken charges =  -0.00000

 Dipole moment (field-independent basis, Debye):
    X=             -0.9660    Y=              4.7328    Z=              1.5125  Tot=              5.0616

 Test job not archived.
 1\1\GINC-SE173\SP\RHF\Aug-CC-pVDZ\C5H10O2\OHZDE\09-Apr-2025\0\\#t hf a
 ug-cc-pvdz iop(5/13=1,5/36=2,99/5=2) pseudo=read geom=check guess=(rea
 d,tcheck) scf=(maxcycle=1)\\title\\0,1\C,0,-1.20237165,-1.11248792,0.4
 9193891\C,0,-0.59241931,-0.11943097,-0.47353327\C,0,0.90141033,-0.2810
 0672,-0.71379407\C,0,1.79626137,-0.11021079,0.51022716\O,0,1.92663615,
 1.22710366,0.93110082\C,0,-1.72761614,2.02858921,-0.35291241\O,0,-0.82
 079723,1.22460889,0.07838453\H,0,-1.0214022,-2.13081136,0.1445144\H,0,
 -0.77501934,-1.00779592,1.48944135\H,0,-2.27996957,-0.96078435,0.56509

 Normal termination of Gaussian 16 at Wed Apr  9 15:55:18 2025.
