 Gaussian 16, Revision C.01,

 ----------------------------------------------------------------------
 #t hf aug-cc-pvdz symm=none int=(grid=ultrafine) guess=(read,tcheck) s
 table=(opt,rrhf)
 ----------------------------------------------------------------------
 -----
 title
 -----
 Symbolic Z-matrix:
 Charge =  0 Multiplicity = 1

 SCF Done:  E(RHF) =  -302.140671052     A.U. after   18 cycles
 Normal termination of Gaussian 16 at Wed Apr  9 03:09:09 2025.
 Gaussian 16:  ES64L-G16RevC.01  3-Jul-2019

 ----------------------------------------------------------------------
 #t hf aug-cc-pvdz iop(5/13=1,5/36=2,99/5=2) pseudo=read geom=check gue
 ss=(read,tcheck) scf=(maxcycle=1)
 ----------------------------------------------------------------------
 -----
 title
 -----
 Structure from the checkpoint file:  "Grambow2020_b97d3_006715_forward_mol1.chk"
 Charge =  0 Multiplicity = 1

                         Standard orientation:
 ---------------------------------------------------------------------
 Center     Atomic      Atomic             Coordinates (Angstroms)
 Number     Number       Type             X           Y           Z
 ---------------------------------------------------------------------
      1          8           0        2.968764   -0.191317   -0.355569
      2          6           0        1.901292    0.030168    0.391542
      3          6           0        0.571845    0.116508    0.023134
      4          6           0       -0.663918    0.269156    0.035737
      5          6           0       -2.085404    0.382845   -0.086576
      6          8           0       -2.841394   -0.581412    0.013792
      7          1           0        3.084524   -0.027815    0.835274
      8          1           0       -2.446377    1.417586   -0.284083
 ---------------------------------------------------------------------

 SCF Done:  E(RHF) =  -302.233632565     A.U. after    2 cycles

 The electronic state is 1-A.
 Alpha  occ. eigenvalues --  -20.64461 -20.60932 -11.40281 -11.38492 -11.32542
 Alpha  occ. eigenvalues --  -11.31909  -1.40497  -1.38053  -1.10684  -0.98380
 Alpha  occ. eigenvalues --   -0.89124  -0.78072  -0.75101  -0.69066  -0.67400
 Alpha  occ. eigenvalues --   -0.60240  -0.58806  -0.49688  -0.47617  -0.45833
 Alpha  occ. eigenvalues --   -0.37860
 Alpha virt. eigenvalues --    0.01417   0.01810   0.03333   0.04346   0.07808
 Alpha virt. eigenvalues --    0.08302   0.08862   0.10503   0.10565   0.11901
 Alpha virt. eigenvalues --    0.13545   0.14530   0.16035   0.16060   0.17267

 Mulliken charges:
               1
     1  O   -0.575771
     2  C   -0.270108
     3  C    0.769575
     4  C   -0.320657
     5  C    0.581138
     6  O   -0.478890
     7  H    0.316520
     8  H   -0.021807
 Sum of Mulliken charges =  -0.00000

 Dipole moment (field-independent basis, Debye):
    X=              0.8301    Y=              2.7046    Z=              0.7434  Tot=              2.9251

 Test job not archived.
 1\1\GINC-SE109\SP\RHF\Aug-CC-pVDZ\C4H2O2\OHZDE\09-Apr-2025\0\\#t hf au
 g-cc-pvdz iop(5/13=1,5/36=2,99/5=2) pseudo=read geom=check guess=(read
 ,tcheck) scf=(maxcycle=1)\\title\\0,1\O,0,-2.92026905,-0.12338114,0.37
 517953\C,0,-1.79788904,-0.50821844,-0.20696194\C,0,-0.50913266,-0.0413
 9382,-0.0286654\C,0,0.71803205,0.14577944,-0.1266723\C,0,2.11934203,0.
 43656844,-0.11000687\O,0,2.90862737,-0.13364987,0.64050378\H,0,-2.9352
 342,-1.00695108,-0.44781419\H,0,2.4316185,1.22525548,-0.83143363\\Vers
 ion=ES64L-G16RevC.01\State=1-A\HF=-302.2336326\RMSD=9.544e-03\Dipole=-

 Normal termination of Gaussian 16 at Wed Apr  9 03:09:12 2025.
