 Gaussian 16, Revision C.01,

 ----------------------------------------------------------------------
 #t hf aug-cc-pvdz symm=none int=(grid=ultrafine) guess=(read,tcheck) s
 table=(opt,rrhf)
 ----------------------------------------------------------------------
 -----
 title
 -----
 Symbolic Z-matrix:
 Charge =  0 Multiplicity = 1

 SCF Done:  E(RHF) =  -375.602617443     A.U. after   14 cycles
 Normal termination of Gaussian 16 at Wed Apr  9 16:10:58 2025.
 Gaussian 16:  ES64L-G16RevC.01  3-Jul-2019

 ----------------------------------------------------------------------
 #t hf aug-cc-pvdz iop(5/13=1,5/36=2,99/5=2) pseudo=read geom=check gue
 ss=(read,tcheck) scf=(maxcycle=1)
 ----------------------------------------------------------------------
 -----
 title
 -----
 Structure from the checkpoint file:  "Grambow2020_wb97xd3_007906_reverse_mol2.chk"
 Charge =  0 Multiplicity = 1

                         Standard orientation:
 ---------------------------------------------------------------------
 Center     Atomic      Atomic             Coordinates (Angstroms)
 Number     Number       Type             X           Y           Z
 ---------------------------------------------------------------------
      1          6           0       -2.224089   -0.350052    0.364641
      2          8           0       -1.371591    0.518082   -0.372043
      3          6           0       -0.061221    0.262880   -0.220305
      4          7           0        0.494901   -1.031429   -0.634214
      5          7           0        0.889386    1.327548   -0.247000
      6          6           0        1.004513    0.337228    0.796668
      7          8           0        1.584396   -0.865236    0.318731
      8          1           0       -3.242721   -0.052231    0.126958
      9          1           0       -2.049475   -0.233932    1.438185
     10          1           0       -2.064603   -1.391569    0.080876
     11          1           0        0.905210   -0.992454   -1.567170
     12          1           0        1.605039    1.275981   -0.965611
     13          1           0        1.138881    0.598271    1.835732
 ---------------------------------------------------------------------

 SCF Done:  E(RHF) =  -375.718180678     A.U. after    2 cycles

 The electronic state is 1-A.
 Alpha  occ. eigenvalues --  -20.61972 -20.60519 -15.69397 -15.64305 -11.37427
 Alpha  occ. eigenvalues --  -11.34014 -11.29564  -1.44232  -1.37695  -1.23047
 Alpha  occ. eigenvalues --   -1.08837  -0.96519  -0.90675  -0.79691  -0.75005
 Alpha  occ. eigenvalues --   -0.74977  -0.69347  -0.65891  -0.64978  -0.59739
 Alpha  occ. eigenvalues --   -0.56919  -0.53680  -0.53365  -0.49108  -0.46266
 Alpha  occ. eigenvalues --   -0.41699  -0.40808
 Alpha virt. eigenvalues --    0.03543   0.03669   0.04333   0.05632   0.06996
 Alpha virt. eigenvalues --    0.07120   0.08286   0.10692   0.12062   0.13596
 Alpha virt. eigenvalues --    0.13641   0.14938   0.15619   0.15985   0.16532

 Mulliken charges:
               1
     1  C    0.624464
     2  O   -0.635837
     3  C    0.716536
     4  N   -0.083424
     5  N   -0.565218
     6  C    1.101631
     7  O   -0.736597
     8  H   -0.217617
     9  H   -0.027917
    10  H   -0.007897
    11  H    0.084012
    12  H   -0.023018
    13  H   -0.229118
 Sum of Mulliken charges =  -0.00000

 Dipole moment (field-independent basis, Debye):
    X=             -0.4635    Y=             -0.2070    Z=             -0.1391  Tot=              0.5263

 Test job not archived.
 1\1\GINC-SE163\SP\RHF\Aug-CC-pVDZ\C3H6N2O2\OHZDE\09-Apr-2025\0\\#t hf
 aug-cc-pvdz iop(5/13=1,5/36=2,99/5=2) pseudo=read geom=check guess=(re
 ad,tcheck) scf=(maxcycle=1)\\title\\0,1\C,0,-1.74702917,-0.43339567,-0
 .63047921\O,0,-1.26646661,0.04277071,0.62069484\C,0,0.06897816,0.17654
 152,0.68327134\N,0,0.76363571,1.10859839,-0.21369585\N,0,0.76141732,-0
 .05919471,1.90917541\C,0,1.29701416,-0.64025086,0.70139199\O,0,1.98213
 309,0.32027312,-0.08512876\H,0,-2.83118949,-0.46371491,-0.5499875\H,0,
 -1.36591377,-1.43979293,-0.82640186\H,0,-1.45226711,0.23175234,-1.4437

 Normal termination of Gaussian 16 at Wed Apr  9 16:11:02 2025.
