 Gaussian 16, Revision C.01,

 ----------------------------------------------------------------------
 #t hf aug-cc-pvdz symm=none int=(grid=ultrafine) guess=(read,tcheck) s
 table=(opt,rrhf)
 ----------------------------------------------------------------------
 -----
 title
 -----
 Symbolic Z-matrix:
 Charge =  0 Multiplicity = 1

 SCF Done:  E(RHF) =  -338.558554200     A.U. after   18 cycles
 Normal termination of Gaussian 16 at Wed Apr  9 16:26:59 2025.
 Gaussian 16:  ES64L-G16RevC.01  3-Jul-2019

 ----------------------------------------------------------------------
 #t hf aug-cc-pvdz iop(5/13=1,5/36=2,99/5=2) pseudo=read geom=check gue
 ss=(read,tcheck) scf=(maxcycle=1)
 ----------------------------------------------------------------------
 -----
 title
 -----
 Structure from the checkpoint file:  "Grambow2020_wb97xd3_008308_reverse_mol2.chk"
 Charge =  0 Multiplicity = 1

                         Standard orientation:
 ---------------------------------------------------------------------
 Center     Atomic      Atomic             Coordinates (Angstroms)
 Number     Number       Type             X           Y           Z
 ---------------------------------------------------------------------
      1          6           0        2.416087    0.688400    0.015865
      2          8           0        1.590655   -0.494604    0.012419
      3          6           0        0.320693   -0.323971    0.017238
      4          6           0       -0.612884   -1.563661    0.022982
      5          7           0       -1.727658   -0.886351    0.061963
      6          6           0       -1.608873    0.575607   -0.182946
      7          7           0       -0.288387    0.837229   -0.038094
      8          1           0        2.196892    1.283556   -0.868439
      9          1           0        3.438308    0.324406    0.008067
     10          1           0        2.209258    1.273723    0.909457
     11          1           0       -3.629100    3.559199    0.310981
     12          1           0       -2.634965   -1.324025    0.017620
     13          1           0       -3.283457    2.925581    0.117048
 ---------------------------------------------------------------------

 SCF Done:  E(RHF) =  -338.663970517     A.U. after    2 cycles

 The electronic state is 1-A.
 Alpha  occ. eigenvalues --  -20.67345 -15.69475 -15.62968 -11.40927 -11.32951
 Alpha  occ. eigenvalues --  -11.32727 -11.30769  -1.46511  -1.32145  -1.17829
 Alpha  occ. eigenvalues --   -1.03755  -0.93584  -0.86156  -0.79835  -0.73017
 Alpha  occ. eigenvalues --   -0.71977  -0.70311  -0.60702  -0.59044  -0.57904
 Alpha  occ. eigenvalues --   -0.56704  -0.53865  -0.49518  -0.43602  -0.40983
 Alpha  occ. eigenvalues --   -0.37271
 Alpha virt. eigenvalues --    0.00673   0.02968   0.04064   0.05173   0.05371
 Alpha virt. eigenvalues --    0.07132   0.07695   0.08893   0.09222   0.11520
 Alpha virt. eigenvalues --    0.12279   0.12746   0.13396   0.14683   0.14806

 Mulliken charges:
               1
     1  C    0.734953
     2  O   -0.471432
     3  C    0.423490
     4  C   -0.033322
     5  N   -0.233498
     6  C    0.367942
     7  N   -0.451041
     8  H   -0.026284
     9  H   -0.232804
    10  H   -0.038727
    11  H   -0.030817
    12  H   -0.057461
    13  H    0.049000
 Sum of Mulliken charges =  -0.00000

 Dipole moment (field-independent basis, Debye):
    X=              2.2083    Y=             -0.1134    Z=              0.4159  Tot=              2.2500

 Test job not archived.
 1\1\GINC-SE129\SP\RHF\Aug-CC-pVDZ\C4H6N2O1\OHZDE\09-Apr-2025\0\\#t hf
 aug-cc-pvdz iop(5/13=1,5/36=2,99/5=2) pseudo=read geom=check guess=(re
 ad,tcheck) scf=(maxcycle=1)\\title\\0,1\C,0,2.46597916,0.56612278,-0.2
 5724703\O,0,1.79860498,-0.22208238,0.74982522\C,0,0.53190657,-0.374899
 88,0.63124154\C,0,-0.23616196,-1.20647733,1.69283517\N,0,-1.41659249,-
 1.03325786,1.16409374\C,0,-1.43737248,-0.4403892,-0.1995368\N,0,-0.195
 95551,0.07428118,-0.36418776\H,0,2.31610047,0.1069345,-1.23240407\H,0,
 3.51331481,0.56617568,0.02661094\H,0,2.05525666,1.57368092,-0.26195146

 Normal termination of Gaussian 16 at Wed Apr  9 16:27:03 2025.
