 Gaussian 16, Revision C.01,

 ----------------------------------------------------------------------
 #t hf aug-cc-pvdz symm=none int=(grid=ultrafine) guess=(read,tcheck) s
 table=(opt,rrhf)
 ----------------------------------------------------------------------
 -----
 title
 -----
 Symbolic Z-matrix:
 Charge =  0 Multiplicity = 1

 SCF Done:  E(RHF) =  -231.674584445     A.U. after   16 cycles
 Normal termination of Gaussian 16 at Wed Apr  9 14:21:20 2025.
 Gaussian 16:  ES64L-G16RevC.01  3-Jul-2019

 ----------------------------------------------------------------------
 #t hf aug-cc-pvdz iop(5/13=1,5/36=2,99/5=2) pseudo=read geom=check gue
 ss=(read,tcheck) scf=(maxcycle=1)
 ----------------------------------------------------------------------
 -----
 title
 -----
 Structure from the checkpoint file:  "Grambow2020_wb97xd3_006055_reverse_mol1.chk"
 Charge =  0 Multiplicity = 1

                         Standard orientation:
 ---------------------------------------------------------------------
 Center     Atomic      Atomic             Coordinates (Angstroms)
 Number     Number       Type             X           Y           Z
 ---------------------------------------------------------------------
      1          6           0       -1.276390   -0.514946    0.722982
      2          6           0       -0.537504   -0.712367   -0.573369
      3          6           0       -1.041255    0.647476   -0.186975
      4          6           0        0.222078    1.488996   -0.113663
      5          6           0        1.692664   -0.304422    0.492000
      6          6           0        0.937295   -0.472018   -0.603666
      7          1           0       -0.757315   -0.569405    1.671942
      8          1           0       -2.273182   -0.938687    0.740596
      9          1           0       -0.983592   -1.300353   -1.363676
     10          1           0       -1.867523    1.104924   -0.720436
     11          1           0        0.478101    1.713971    0.937426
     12          1           0        2.715099    0.039001    0.404671
     13          1           0        1.325190   -0.513636    1.487344
     14          1           0        1.381902   -0.332131   -1.581722
 ---------------------------------------------------------------------

 SCF Done:  E(RHF) =  -231.743279431     A.U. after    2 cycles

 The electronic state is 1-A.
 Alpha  occ. eigenvalues --  -11.27378 -11.25735 -11.25683 -11.25320 -11.24668
 Alpha  occ. eigenvalues --  -11.24271  -1.17966  -1.04323  -0.90645  -0.87586
 Alpha  occ. eigenvalues --   -0.76931  -0.73921  -0.69176  -0.64307  -0.61906
 Alpha  occ. eigenvalues --   -0.55760  -0.54650  -0.49974  -0.46526  -0.45359
 Alpha  occ. eigenvalues --   -0.35862  -0.32359
 Alpha virt. eigenvalues --    0.03370   0.04230   0.04407   0.05001   0.06264
 Alpha virt. eigenvalues --    0.06289   0.06743   0.08880   0.09747   0.10226
 Alpha virt. eigenvalues --    0.11307   0.11776   0.14264   0.14404   0.14612

 Mulliken charges:
               1
     1  C    0.855875
     2  C    0.301153
     3  C    0.502968
     4  C   -0.208177
     5  C    0.803200
     6  C    0.310739
     7  H   -0.365198
     8  H   -0.347159
     9  H   -0.391103
    10  H   -0.350620
    11  H   -0.066154
    12  H   -0.347706
    13  H   -0.336229
    14  H   -0.361589
 Sum of Mulliken charges =  -0.00000

 Dipole moment (field-independent basis, Debye):
    X=             -0.4799    Y=             -1.8987    Z=              0.8565  Tot=              2.1375

 Test job not archived.
 1\1\GINC-SE162\SP\RHF\Aug-CC-pVDZ\C6H8\OHZDE\09-Apr-2025\0\\#t hf aug-
 cc-pvdz iop(5/13=1,5/36=2,99/5=2) pseudo=read geom=check guess=(read,t
 check) scf=(maxcycle=1)\\title\\0,1\C,0,1.21971822,-0.66040853,-0.5841
 2028\C,0,0.87533942,0.1873596,0.61093021\C,0,0.71010912,0.73145187,-0.
 77791842\C,0,-0.77456554,1.0440368,-0.86494633\C,0,-1.48574506,-0.6468
 1477,0.67811651\C,0,-0.53861201,0.2067111,1.09475365\H,0,0.60077598,-1
 .50410825,-0.86342686\H,0,2.280796,-0.8255493,-0.72660829\H,0,1.657402
 66,0.51724373,1.28090039\H,0,1.36619709,1.51111718,-1.14970874\H,0,-1.

 Normal termination of Gaussian 16 at Wed Apr  9 14:21:24 2025.
