 Gaussian 16, Revision C.01,

 ----------------------------------------------------------------------
 #t hf aug-cc-pvdz symm=none int=(grid=ultrafine) guess=(read,tcheck) s
 table=(opt,rrhf)
 ----------------------------------------------------------------------
 -----
 title
 -----
 Symbolic Z-matrix:
 Charge =  0 Multiplicity = 1

 SCF Done:  E(RHF) =  -305.502547006     A.U. after   14 cycles
 Normal termination of Gaussian 16 at Wed Apr  9 03:52:36 2025.
 Gaussian 16:  ES64L-G16RevC.01  3-Jul-2019

 ----------------------------------------------------------------------
 #t hf aug-cc-pvdz iop(5/13=1,5/36=2,99/5=2) pseudo=read geom=check gue
 ss=(read,tcheck) scf=(maxcycle=1)
 ----------------------------------------------------------------------
 -----
 title
 -----
 Structure from the checkpoint file:  "Grambow2020_wb97xd3_008354_forward_mol2.chk"
 Charge =  0 Multiplicity = 1

                         Standard orientation:
 ---------------------------------------------------------------------
 Center     Atomic      Atomic             Coordinates (Angstroms)
 Number     Number       Type             X           Y           Z
 ---------------------------------------------------------------------
      1          6           0       -3.017734   -0.023885   -0.002479
      2          6           0       -1.820021   -0.078827   -0.000100
      3          6           0       -0.398284   -0.092651    0.001477
      4          6           0        0.410947   -1.144773    0.000067
      5          6           0        1.833565   -0.688156    0.002308
      6          8           0        1.769648    0.728351   -0.010708
      7          6           0        0.425220    1.169862    0.006259
      8          1           0       -4.081445    0.014240   -0.004602
      9          1           0        0.107103   -2.181991    0.001289
     10          1           0        2.376443   -1.030405    0.892609
     11          1           0        2.383974   -1.043276   -0.877831
     12          1           0        0.219623    1.791634   -0.872531
     13          1           0        0.234966    1.773577    0.901534
 ---------------------------------------------------------------------

 SCF Done:  E(RHF) =  -305.598891184     A.U. after    2 cycles

 The electronic state is 1-A.
 Alpha  occ. eigenvalues --  -20.57453 -11.29887 -11.29815 -11.27207 -11.25939
 Alpha  occ. eigenvalues --  -11.25854 -11.25004  -1.35234  -1.10630  -1.02906
 Alpha  occ. eigenvalues --   -0.99873  -0.85044  -0.82031  -0.74080  -0.70803
 Alpha  occ. eigenvalues --   -0.68806  -0.62059  -0.60007  -0.58301  -0.53725
 Alpha  occ. eigenvalues --   -0.52257  -0.48531  -0.43094  -0.40576  -0.34227
 Alpha virt. eigenvalues --    0.03317   0.03823   0.04882   0.05185   0.05781
 Alpha virt. eigenvalues --    0.06810   0.08907   0.09679   0.09761   0.11051
 Alpha virt. eigenvalues --    0.11441   0.12688   0.14084   0.14246   0.14389

 Mulliken charges:
               1
     1  C    0.567776
     2  C    0.357332
     3  C   -0.784119
     4  C   -0.305399
     5  C    0.934433
     6  O   -0.670762
     7  C    0.936982
     8  H   -0.513549
     9  H   -0.374017
    10  H   -0.054136
    11  H   -0.058900
    12  H   -0.020498
    13  H   -0.015142
 Sum of Mulliken charges =  -0.00000

 Dipole moment (field-independent basis, Debye):
    X=             -0.8777    Y=             -1.2426    Z=              0.0322  Tot=              1.5216

 Test job not archived.
 1\1\GINC-SE060\SP\RHF\Aug-CC-pVDZ\C6H6O1\OHZDE\09-Apr-2025\0\\#t hf au
 g-cc-pvdz iop(5/13=1,5/36=2,99/5=2) pseudo=read geom=check guess=(read
 ,tcheck) scf=(maxcycle=1)\\title\\0,1\C,0,2.95939057,-0.49442983,0.759
 91476\C,0,1.80195079,-0.26195111,0.55056744\C,0,0.42310567,-0.03521286
 ,0.28806633\C,0,-0.25584154,1.10014234,0.39677504\C,0,-1.68315396,0.87
 375495,0.01746716\O,0,-1.7611969,-0.49727727,-0.33598288\C,0,-0.504594
 99,-1.12845758,-0.17702251\H,0,3.98841408,-0.69061827,0.94849089\H,0,0
 .14344807,2.0531906,0.71365121\H,0,-2.37019852,1.08651916,0.84643442\H

 Normal termination of Gaussian 16 at Wed Apr  9 03:52:40 2025.
