 Gaussian 16, Revision C.01,

 ----------------------------------------------------------------------
 #t hf aug-cc-pvdz symm=none int=(grid=ultrafine) guess=(read,tcheck) s
 table=(opt,rrhf)
 ----------------------------------------------------------------------
 -----
 title
 -----
 Symbolic Z-matrix:
 Charge =  0 Multiplicity = 1

 SCF Done:  E(RHF) =  -359.553708221     A.U. after   17 cycles
 Normal termination of Gaussian 16 at Wed Apr  9 17:14:31 2025.
 Gaussian 16:  ES64L-G16RevC.01  3-Jul-2019

 ----------------------------------------------------------------------
 #t hf aug-cc-pvdz iop(5/13=1,5/36=2,99/5=2) pseudo=read geom=check gue
 ss=(read,tcheck) scf=(maxcycle=1)
 ----------------------------------------------------------------------
 -----
 title
 -----
 Structure from the checkpoint file:  "Grambow2020_wb97xd3_009413_forward_mol1.chk"
 Charge =  0 Multiplicity = 1

                         Standard orientation:
 ---------------------------------------------------------------------
 Center     Atomic      Atomic             Coordinates (Angstroms)
 Number     Number       Type             X           Y           Z
 ---------------------------------------------------------------------
      1          8           0       -2.223569    0.470678   -0.643856
      2          6           0       -1.107485    0.712601    0.175822
      3          6           0       -0.654541   -0.493841    0.976947
      4          8           0        0.056508   -1.391688    0.116643
      5          6           0        1.021692   -0.844593   -0.587393
      6          7           0        1.841033    0.125837   -0.194395
      7          6           0        1.579899    1.333395    0.072477
      8          1           0       -1.933828   -0.034679   -1.403384
      9          1           0       -1.414322    1.497455    0.877005
     10          1           0       -0.008354   -0.158545    1.795072
     11          1           0       -1.457753   -1.114363    1.390613
     12          1           0        1.403605   -1.515914   -1.351798
     13          1           0        2.295197    1.914673    0.650497
     14          1           0        0.527317    1.653221   -0.206648
 ---------------------------------------------------------------------

 SCF Done:  E(RHF) =  -359.666603675     A.U. after    2 cycles

 The electronic state is 1-A.
 Alpha  occ. eigenvalues --  -20.64804 -20.53469 -15.68615 -11.42510 -11.33907
 Alpha  occ. eigenvalues --  -11.28703 -11.21553  -1.43439  -1.28381  -1.26539
 Alpha  occ. eigenvalues --   -1.03760  -0.96368  -0.86080  -0.77157  -0.75498
 Alpha  occ. eigenvalues --   -0.72211  -0.70820  -0.67276  -0.61666  -0.60427
 Alpha  occ. eigenvalues --   -0.56742  -0.53474  -0.51227  -0.50299  -0.46363
 Alpha  occ. eigenvalues --   -0.43191  -0.24358
 Alpha virt. eigenvalues --    0.02867   0.03274   0.04095   0.04823   0.05326
 Alpha virt. eigenvalues --    0.06655   0.07290   0.07581   0.09310   0.09982
 Alpha virt. eigenvalues --    0.10363   0.12825   0.13628   0.14190   0.14640

 Mulliken charges:
               1
     1  O   -0.514550
     2  C    0.130450
     3  C    0.753580
     4  O   -0.457780
     5  C    0.760195
     6  N   -0.353421
     7  C    0.704790
     8  H    0.107638
     9  H   -0.330678
    10  H   -0.162163
    11  H   -0.268821
    12  H   -0.276419
    13  H   -0.222509
    14  H    0.129688
 Sum of Mulliken charges =  -0.00000

 Dipole moment (field-independent basis, Debye):
    X=              4.5559    Y=             -0.4002    Z=             -0.0655  Tot=              4.5739

 Test job not archived.
 1\1\GINC-SE114\SP\RHF\Aug-CC-pVDZ\C4H7N1O2\OHZDE\09-Apr-2025\0\\#t hf
 aug-cc-pvdz iop(5/13=1,5/36=2,99/5=2) pseudo=read geom=check guess=(re
 ad,tcheck) scf=(maxcycle=1)\\title\\0,1\O,0,-1.25792554,-0.25266962,1.
 9898339\C,0,-1.07383988,-0.02508195,0.61493093\C,0,-0.23329337,1.19752
 358,0.29684408\O,0,1.14769178,0.89313809,0.52503342\C,0,1.58266742,-0.
 20118417,-0.05790228\N,0,1.22452286,-0.66225372,-1.25232724\C,0,0.1043
 5885,-1.1052236,-1.63523355\H,0,-0.44479079,-0.610718,2.34596806\H,0,-
 2.07656177,0.12734742,0.19885925\H,0,-0.39316376,1.47992688,-0.7490999

 Normal termination of Gaussian 16 at Wed Apr  9 17:14:36 2025.
