 Gaussian 16, Revision C.01,

 ----------------------------------------------------------------------
 #t hf aug-cc-pvdz symm=none int=(grid=ultrafine) guess=(read,tcheck) s
 table=(opt,rrhf)
 ----------------------------------------------------------------------
 -----
 title
 -----
 Symbolic Z-matrix:
 Charge =  0 Multiplicity = 1

 SCF Done:  E(RHF) =  -269.565754332     A.U. after   14 cycles
 Normal termination of Gaussian 16 at Wed Apr  9 14:38:45 2025.
 Gaussian 16:  ES64L-G16RevC.01  3-Jul-2019

 ----------------------------------------------------------------------
 #t hf aug-cc-pvdz iop(5/13=1,5/36=2,99/5=2) pseudo=read geom=check gue
 ss=(read,tcheck) scf=(maxcycle=1)
 ----------------------------------------------------------------------
 -----
 title
 -----
 Structure from the checkpoint file:  "Grambow2020_wb97xd3_006586_reverse_mol2.chk"
 Charge =  0 Multiplicity = 1

                         Standard orientation:
 ---------------------------------------------------------------------
 Center     Atomic      Atomic             Coordinates (Angstroms)
 Number     Number       Type             X           Y           Z
 ---------------------------------------------------------------------
      1          6           0       -0.293425    1.637685    0.207041
      2          6           0       -0.466675    0.228088   -0.355283
      3          6           0        0.491957   -0.788994    0.300427
      4          6           0        1.892293   -0.459903    0.057103
      5          6           0        3.037055   -0.181491   -0.154405
      6          6           0       -2.946603   -0.812776    0.092754
      7          6           0       -1.838347   -0.281520   -0.154297
      8          1           0       -0.489580    1.649710    1.280556
      9          1           0        0.725510    1.984382    0.033689
     10          1           0       -0.980249    2.336302   -0.272210
     11          1           0       -0.256977    0.238645   -1.428481
     12          1           0        0.304794   -0.818436    1.377242
     13          1           0        0.285181   -1.789211   -0.086216
     14          1           0        4.057876    0.058383   -0.337748
     15          1           0       -2.904087    0.293688   -0.526865
 ---------------------------------------------------------------------

 SCF Done:  E(RHF) =  -269.648970338     A.U. after    2 cycles

 The electronic state is 1-A.
 Alpha  occ. eigenvalues --  -11.29799 -11.28657 -11.27923 -11.26016 -11.25950
 Alpha  occ. eigenvalues --  -11.25048 -11.24858  -1.14702  -1.08507  -1.03359
 Alpha  occ. eigenvalues --   -0.96736  -0.87788  -0.73878  -0.70703  -0.66275
 Alpha  occ. eigenvalues --   -0.64208  -0.60240  -0.56891  -0.55112  -0.53689
 Alpha  occ. eigenvalues --   -0.51914  -0.44095  -0.40996  -0.40652  -0.40525
 Alpha virt. eigenvalues --    0.02881   0.03717   0.04537   0.04638   0.05869
 Alpha virt. eigenvalues --    0.06606   0.07218   0.07849   0.09114   0.10358
 Alpha virt. eigenvalues --    0.10924   0.12018   0.12337   0.13053   0.13475

 Mulliken charges:
               1
     1  C    0.693288
     2  C   -0.490773
     3  C    0.212638
     4  C   -0.335524
     5  C    0.905282
     6  C   -0.647174
     7  C    0.487814
     8  H    0.007490
     9  H   -0.060272
    10  H   -0.051952
    11  H   -0.075872
    12  H    0.021278
    13  H   -0.015742
    14  H   -0.555520
    15  H   -0.094961
 Sum of Mulliken charges =  -0.00000

 Dipole moment (field-independent basis, Debye):
    X=              2.9081    Y=              2.1047    Z=             -0.8157  Tot=              3.6814

 Test job not archived.
 1\1\GINC-SE114\SP\RHF\Aug-CC-pVDZ\C7H8\OHZDE\09-Apr-2025\0\\#t hf aug-
 cc-pvdz iop(5/13=1,5/36=2,99/5=2) pseudo=read geom=check guess=(read,t
 check) scf=(maxcycle=1)\\title\\0,1\C,0,-0.18498415,-1.44933973,0.1624
 8993\C,0,-0.44920407,0.02437378,0.46505138\C,0,0.30815752,0.96712548,-
 0.49464092\C,0,1.75511467,0.81723117,-0.38376074\C,0,2.94048114,0.6880
 912,-0.27908856\C,0,-3.06488805,0.73316357,0.16506925\C,0,-1.88320348,
 0.36141269,0.35722167\H,0,-0.50029553,-1.69546393,-0.85292056\H,0,0.87
 944379,-1.66376013,0.25993228\H,0,-0.72988544,-2.09352728,0.85356189\H

 Normal termination of Gaussian 16 at Wed Apr  9 14:38:50 2025.
