 Gaussian 16, Revision C.01,

 ----------------------------------------------------------------------
 #t hf aug-cc-pvdz symm=none int=(grid=ultrafine) guess=(read,tcheck) s
 table=(opt,rrhf)
 ----------------------------------------------------------------------
 -----
 title
 -----
 Symbolic Z-matrix:
 Charge =  0 Multiplicity = 1

 SCF Done:  E(RHF) =  -322.466304488     A.U. after   16 cycles
 Normal termination of Gaussian 16 at Wed Apr  9 14:54:10 2025.
 Gaussian 16:  ES64L-G16RevC.01  3-Jul-2019

 ----------------------------------------------------------------------
 #t hf aug-cc-pvdz iop(5/13=1,5/36=2,99/5=2) pseudo=read geom=check gue
 ss=(read,tcheck) scf=(maxcycle=1)
 ----------------------------------------------------------------------
 -----
 title
 -----
 Structure from the checkpoint file:  "Grambow2020_wb97xd3_006642_reverse_mol1.chk"
 Charge =  0 Multiplicity = 1

                         Standard orientation:
 ---------------------------------------------------------------------
 Center     Atomic      Atomic             Coordinates (Angstroms)
 Number     Number       Type             X           Y           Z
 ---------------------------------------------------------------------
      1          6           0        1.679351    0.951875    0.100634
      2          7           0        1.957360   -0.491307   -0.042569
      3          6           0        0.777259   -0.100567   -0.368483
      4          6           0       -1.378805    0.705985    0.773117
      5          6           0       -1.613873    0.433405   -0.732957
      6          6           0       -0.572647   -0.643396   -0.582273
      7          8           0       -0.771862   -0.824586    0.809044
      8          1           0        1.432576    1.346195    1.079036
      9          1           0        2.209504    1.586681   -0.598521
     10          1           0        2.320938   -1.252634    0.509528
     11          1           0       -2.316033    0.610316    1.333924
     12          1           0       -1.385044    1.241318   -1.433609
     13          1           0       -2.569704   -0.027466   -1.013362
     14          1           0       -0.566571   -1.552393   -1.191594
 ---------------------------------------------------------------------

 SCF Done:  E(RHF) =  -322.561978772     A.U. after    2 cycles

 The electronic state is 1-A.
 Alpha  occ. eigenvalues --  -20.53559 -15.72851 -11.40402 -11.34524 -11.31247
 Alpha  occ. eigenvalues --  -11.21078 -11.18704  -1.37473  -1.29798  -1.00286
 Alpha  occ. eigenvalues --   -0.97617  -0.93619  -0.84541  -0.76478  -0.71418
 Alpha  occ. eigenvalues --   -0.68520  -0.66197  -0.60840  -0.57120  -0.54883
 Alpha  occ. eigenvalues --   -0.52278  -0.50796  -0.45535  -0.43858  -0.41448
 Alpha  occ. eigenvalues --   -0.25285
 Alpha virt. eigenvalues --    0.02130   0.03282   0.03592   0.05316   0.05938
 Alpha virt. eigenvalues --    0.06480   0.07511   0.07833   0.09773   0.10679
 Alpha virt. eigenvalues --    0.11477   0.12422   0.13089   0.13374   0.14408

 Mulliken charges:
               1
     1  C    0.971971
     2  N   -0.303718
     3  C   -0.269371
     4  C    0.161412
     5  C    0.589655
     6  C    0.846723
     7  O   -0.883173
     8  H   -0.110387
     9  H   -0.157646
    10  H   -0.016995
    11  H   -0.312437
    12  H   -0.163275
    13  H   -0.109381
    14  H   -0.243379
 Sum of Mulliken charges =   0.00000

 Dipole moment (field-independent basis, Debye):
    X=              5.8381    Y=             -1.1046    Z=             -3.2965  Tot=              6.7949

 Test job not archived.
 1\1\GINC-SE226\SP\RHF\Aug-CC-pVDZ\C5H7N1O1\OHZDE\09-Apr-2025\0\\#t hf
 aug-cc-pvdz iop(5/13=1,5/36=2,99/5=2) pseudo=read geom=check guess=(re
 ad,tcheck) scf=(maxcycle=1)\\title\\0,1\C,0,-1.70028302,-0.87056149,-0
 .204603\N,0,-1.93402661,0.512431,-0.66641096\C,0,-0.70734002,0.1481125
 8,-0.54788353\C,0,0.99694563,-0.33565059,1.31323664\C,0,1.68412393,-0.
 28948244,-0.07365596\C,0,0.63719978,0.73198512,-0.42990293\O,0,0.39415
 657,1.14155898,0.90481007\H,0,-1.7647926,-1.09028239,0.85427265\H,0,-1
 .9818705,-1.63860443,-0.91430531\H,0,-2.45789645,1.32746681,-0.3873130

 Normal termination of Gaussian 16 at Wed Apr  9 14:54:15 2025.
