 Gaussian 16, Revision C.01,

 ----------------------------------------------------------------------
 #t hf aug-cc-pvdz symm=none int=(grid=ultrafine) guess=(read,tcheck) s
 table=(opt,rrhf)
 ----------------------------------------------------------------------
 -----
 title
 -----
 Symbolic Z-matrix:
 Charge =  0 Multiplicity = 1

 SCF Done:  E(RHF) =  -299.662045766     A.U. after   14 cycles
 Normal termination of Gaussian 16 at Wed Apr  9 03:20:54 2025.
 Gaussian 16:  ES64L-G16RevC.01  3-Jul-2019

 ----------------------------------------------------------------------
 #t hf aug-cc-pvdz iop(5/13=1,5/36=2,99/5=2) pseudo=read geom=check gue
 ss=(read,tcheck) scf=(maxcycle=1)
 ----------------------------------------------------------------------
 -----
 title
 -----
 Structure from the checkpoint file:  "Grambow2020_wb97xd3_006144_reverse_mol2.chk"
 Charge =  0 Multiplicity = 1

                         Standard orientation:
 ---------------------------------------------------------------------
 Center     Atomic      Atomic             Coordinates (Angstroms)
 Number     Number       Type             X           Y           Z
 ---------------------------------------------------------------------
      1          7           0       -2.032759    0.144512   -0.000868
      2          6           0       -0.783061    0.068607    0.000270
      3          6           0        0.211359    1.195239    0.000708
      4          6           0        1.477387    0.413845   -0.001078
      5          7           0        1.305558   -0.842463   -0.000314
      6          8           0       -0.070801   -1.107700    0.000917
      7          1           0       -2.460553   -0.778204   -0.001061
      8          1           0        0.096191    1.830876   -0.878523
      9          1           0        0.099955    1.827250    0.883311
     10          1           0        2.487117    0.801194   -0.002185
 ---------------------------------------------------------------------

 SCF Done:  E(RHF) =  -299.751305446     A.U. after    2 cycles

 The electronic state is 1-A.
 Alpha  occ. eigenvalues --  -20.64892 -15.71839 -15.61556 -11.36760 -11.31577
 Alpha  occ. eigenvalues --  -11.28524  -1.44979  -1.21202  -1.16054  -1.03831
 Alpha  occ. eigenvalues --   -0.85327  -0.81260  -0.72729  -0.69547  -0.66643
 Alpha  occ. eigenvalues --   -0.60358  -0.60292  -0.56932  -0.51048  -0.47971
 Alpha  occ. eigenvalues --   -0.43538  -0.39510
 Alpha virt. eigenvalues --    0.02656   0.04407   0.04591   0.05363   0.08491
 Alpha virt. eigenvalues --    0.09703   0.10593   0.11696   0.11698   0.13112
 Alpha virt. eigenvalues --    0.14171   0.14527   0.15200   0.16200   0.16921

 Mulliken charges:
               1
     1  N   -0.420306
     2  C    0.679217
     3  C   -0.141023
     4  C    0.747451
     5  N   -0.143195
     6  O   -0.670975
     7  H    0.016656
     8  H    0.058317
     9  H    0.060218
    10  H   -0.186359
 Sum of Mulliken charges =  -0.00000

 Dipole moment (field-independent basis, Debye):
    X=              1.8800    Y=              2.5595    Z=              0.0009  Tot=              3.1757

 Test job not archived.
 1\1\GINC-SE341\SP\RHF\Aug-CC-pVDZ\C3H4N2O1\OHZDE\09-Apr-2025\0\\#t hf
 aug-cc-pvdz iop(5/13=1,5/36=2,99/5=2) pseudo=read geom=check guess=(re
 ad,tcheck) scf=(maxcycle=1)\\title\\0,1\N,0,2.00467483,-0.40440014,-0.
 33770046\C,0,0.79347283,-0.33264546,-0.02891472\C,0,-0.18768921,0.7496
 0368,-0.381374\C,0,-1.40362543,0.21545671,0.28914341\N,0,-1.21865057,-
 0.88861159,0.88467207\O,0,0.11984655,-1.27005695,0.71841409\H,0,2.4332
 1991,-1.24819821,0.03481344\H,0,0.12845501,1.71853594,0.00794342\H,0,-
 0.30358483,0.84854767,-1.46193745\H,0,-2.38836907,0.66183436,0.3140831

 Normal termination of Gaussian 16 at Wed Apr  9 03:20:58 2025.
