 Gaussian 16, Revision C.01,

 ----------------------------------------------------------------------
 #t hf aug-cc-pvdz symm=none int=(grid=ultrafine) guess=(read,tcheck) s
 table=(opt,rrhf)
 ----------------------------------------------------------------------
 -----
 title
 -----
 Symbolic Z-matrix:
 Charge =  0 Multiplicity = 1

 SCF Done:  E(RHF) =  -339.732003074     A.U. after   15 cycles
 Normal termination of Gaussian 16 at Wed Apr  9 15:35:02 2025.
 Gaussian 16:  ES64L-G16RevC.01  3-Jul-2019

 ----------------------------------------------------------------------
 #t hf aug-cc-pvdz iop(5/13=1,5/36=2,99/5=2) pseudo=read geom=check gue
 ss=(read,tcheck) scf=(maxcycle=1)
 ----------------------------------------------------------------------
 -----
 title
 -----
 Structure from the checkpoint file:  "Grambow2020_wb97xd3_007005_forward_mol1.chk"
 Charge =  0 Multiplicity = 1

                         Standard orientation:
 ---------------------------------------------------------------------
 Center     Atomic      Atomic             Coordinates (Angstroms)
 Number     Number       Type             X           Y           Z
 ---------------------------------------------------------------------
      1          6           0        0.027042    1.456248   -0.828073
      2          6           0        0.148267    0.245660    0.092479
      3          8           0       -0.132037    0.568693    1.425309
      4          6           0       -0.875951   -0.869462   -0.246809
      5          7           0       -2.178609   -0.442148   -0.070322
      6          6           0        1.510004   -0.316636    0.021268
      7          7           0        2.552269   -0.778734   -0.097858
      8          1           0        0.677152    2.246476   -0.456869
      9          1           0       -1.006847    1.801061   -0.814485
     10          1           0        0.320516    1.211767   -1.850823
     11          1           0       -1.104992    0.582628    1.464639
     12          1           0       -0.554375   -1.869961    0.056253
     13          1           0       -0.532747   -1.043436   -1.616286
     14          1           0       -2.770711   -1.238908    0.132923
     15          1           0       -1.443496   -0.787854   -1.373764
 ---------------------------------------------------------------------

 SCF Done:  E(RHF) =  -339.834309218     A.U. after    2 cycles

 The electronic state is 1-A.
 Alpha  occ. eigenvalues --  -20.60307 -15.65627 -15.59671 -11.38257 -11.37382
 Alpha  occ. eigenvalues --  -11.29730 -11.25949  -1.37662  -1.21434  -1.20201
 Alpha  occ. eigenvalues --   -1.06754  -0.95040  -0.87631  -0.76835  -0.74239
 Alpha  occ. eigenvalues --   -0.72601  -0.65470  -0.62504  -0.59377  -0.58529
 Alpha  occ. eigenvalues --   -0.56463  -0.54265  -0.51422  -0.48635  -0.47596
 Alpha  occ. eigenvalues --   -0.43186  -0.36152
 Alpha virt. eigenvalues --    0.02333   0.03749   0.04101   0.04919   0.06654
 Alpha virt. eigenvalues --    0.06871   0.07039   0.08384   0.09324   0.11576
 Alpha virt. eigenvalues --    0.12223   0.12810   0.13196   0.13679   0.14140

 Mulliken charges:
               1
     1  C    0.751436
     2  C    0.036687
     3  O   -0.619762
     4  C    0.738189
     5  N   -0.739657
     6  C   -0.525749
     7  N   -0.087155
     8  H    0.026521
     9  H    0.074111
    10  H    0.005104
    11  H    0.215819
    12  H   -0.188558
    13  H    0.134984
    14  H   -0.057690
    15  H    0.235720
 Sum of Mulliken charges =  -0.00000

 Dipole moment (field-independent basis, Debye):
    X=             -2.7134    Y=             -0.7606    Z=             -2.2933  Tot=              3.6332

 Test job not archived.
 1\1\GINC-SE100\SP\RHF\Aug-CC-pVDZ\C4H8N2O1\OHZDE\09-Apr-2025\0\\#t hf
 aug-cc-pvdz iop(5/13=1,5/36=2,99/5=2) pseudo=read geom=check guess=(re
 ad,tcheck) scf=(maxcycle=1)\\title\\0,1\C,0,0.54531891,1.45277599,-0.1
 2891251\C,0,0.59319078,-0.01644779,0.27940878\O,0,0.63149204,-0.174617
 07,1.66968623\C,0,-0.67476801,-0.79955956,-0.15262109\N,0,-1.81300681,
 -0.31604373,0.46486491\C,0,1.78113277,-0.67013911,-0.30115645\N,0,2.67
 227329,-1.1760106,-0.81497033\H,0,1.3949619,1.96866779,0.31477488\H,0,
 -0.38019026,1.88819717,0.24771654\H,0,0.59208866,1.56801314,-1.2135543

 Normal termination of Gaussian 16 at Wed Apr  9 15:35:07 2025.
