 Gaussian 16, Revision C.01,

 ----------------------------------------------------------------------
 #t hf aug-cc-pvdz symm=none int=(grid=ultrafine) guess=(read,tcheck) s
 table=(opt,rrhf)
 ----------------------------------------------------------------------
 -----
 title
 -----
 Symbolic Z-matrix:
 Charge =  0 Multiplicity = 1

 SCF Done:  E(RHF) =  -286.648355709     A.U. after   16 cycles
 Normal termination of Gaussian 16 at Wed Apr  9 03:40:39 2025.
 Gaussian 16:  ES64L-G16RevC.01  3-Jul-2019

 ----------------------------------------------------------------------
 #t hf aug-cc-pvdz iop(5/13=1,5/36=2,99/5=2) pseudo=read geom=check gue
 ss=(read,tcheck) scf=(maxcycle=1)
 ----------------------------------------------------------------------
 -----
 title
 -----
 Structure from the checkpoint file:  "Grambow2020_wb97xd3_007553_reverse_mol1.chk"
 Charge =  0 Multiplicity = 1

                         Standard orientation:
 ---------------------------------------------------------------------
 Center     Atomic      Atomic             Coordinates (Angstroms)
 Number     Number       Type             X           Y           Z
 ---------------------------------------------------------------------
      1          6           0        1.995411    0.812759   -0.395707
      2          6           0        0.872258   -0.108224   -0.100397
      3          6           0       -0.702605    1.435167    0.324391
      4          6           0       -1.749045    0.646629    0.065224
      5          6           0       -2.223514   -0.466740   -0.308172
      6          6           0        0.378228   -1.277557   -0.489351
      7          7           0        0.669614   -1.084898    0.974280
      8          1           0        1.889210    1.239787   -1.393144
      9          1           0        2.933533    0.249042   -0.364727
     10          1           0        2.067420    1.625457    0.327785
     11          1           0       -0.429829    2.214035   -0.380214
     12          1           0       -0.382164    1.571813    1.351783
     13          1           0       -3.200302   -0.903688   -0.415649
     14          1           0       -1.228807   -1.112600   -0.542137
     15          1           0        0.658742   -2.047119   -1.189223
     16          1           0        1.580503   -1.494645    1.209636
 ---------------------------------------------------------------------

 SCF Done:  E(RHF) =  -286.736852992     A.U. after    2 cycles

 The electronic state is 1-A.
 Alpha  occ. eigenvalues --  -15.62826 -11.30095 -11.25940 -11.25527 -11.25272
 Alpha  occ. eigenvalues --  -11.24953 -11.22991  -1.24041  -1.06940  -1.00731
 Alpha  occ. eigenvalues --   -0.94199  -0.87575  -0.74488  -0.71071  -0.67089
 Alpha  occ. eigenvalues --   -0.63394  -0.61683  -0.61242  -0.59414  -0.57847
 Alpha  occ. eigenvalues --   -0.51759  -0.46309  -0.44962  -0.37588  -0.36461
 Alpha  occ. eigenvalues --   -0.29034
 Alpha virt. eigenvalues --    0.02919   0.03844   0.04329   0.04749   0.06013
 Alpha virt. eigenvalues --    0.06693   0.07188   0.07416   0.09270   0.09513
 Alpha virt. eigenvalues --    0.09996   0.11908   0.12544   0.13556   0.13942

 Mulliken charges:
               1
     1  C    0.303813
     2  C   -0.031569
     3  C    0.630904
     4  C   -0.578925
     5  C    0.597268
     6  C    0.363992
     7  N   -0.668620
     8  H    0.040147
     9  H    0.049616
    10  H    0.050765
    11  H   -0.157863
    12  H   -0.090486
    13  H   -0.374437
    14  H    0.363069
    15  H   -0.444430
    16  H   -0.053244
 Sum of Mulliken charges =  -0.00000

 Dipole moment (field-independent basis, Debye):
    X=              2.5360    Y=              0.5199    Z=             -1.4578  Tot=              2.9710

 Test job not archived.
 1\1\GINC-SE459\SP\RHF\Aug-CC-pVDZ\C6H9N1\OHZDE\09-Apr-2025\0\\#t hf au
 g-cc-pvdz iop(5/13=1,5/36=2,99/5=2) pseudo=read geom=check guess=(read
 ,tcheck) scf=(maxcycle=1)\\title\\0,1\C,0,-1.12706675,1.62990317,0.121
 2198\C,0,-0.58695678,0.29680563,0.47902144\C,0,0.8520158,0.06657029,-1
 .22949972\C,0,1.65149839,-0.81626647,-0.62499538\C,0,1.96456373,-1.502
 56899,0.39240973\C,0,-0.26333811,-0.42353406,1.54629465\N,0,-1.2201165
 6,-1.02367566,0.55198877\H,0,-0.41517034,2.41413874,0.37946486\H,0,-2.
 04653954,1.80400006,0.68961245\H,0,-1.36722009,1.7097784,-0.93946414\H

 Normal termination of Gaussian 16 at Wed Apr  9 03:40:44 2025.
