 Gaussian 16, Revision C.01,

 ----------------------------------------------------------------------
 #t hf aug-cc-pvdz symm=none int=(grid=ultrafine) guess=(read,tcheck) s
 table=(opt,rrhf)
 ----------------------------------------------------------------------
 -----
 title
 -----
 Symbolic Z-matrix:
 Charge =  0 Multiplicity = 1

 SCF Done:  E(RHF) =  -323.780191519     A.U. after   15 cycles
 Normal termination of Gaussian 16 at Wed Apr  9 15:34:08 2025.
 Gaussian 16:  ES64L-G16RevC.01  3-Jul-2019

 ----------------------------------------------------------------------
 #t hf aug-cc-pvdz iop(5/13=1,5/36=2,99/5=2) pseudo=read geom=check gue
 ss=(read,tcheck) scf=(maxcycle=1)
 ----------------------------------------------------------------------
 -----
 title
 -----
 Structure from the checkpoint file:  "Grambow2020_wb97xd3_006978_reverse_mol1.chk"
 Charge =  0 Multiplicity = 1

                         Standard orientation:
 ---------------------------------------------------------------------
 Center     Atomic      Atomic             Coordinates (Angstroms)
 Number     Number       Type             X           Y           Z
 ---------------------------------------------------------------------
      1          6           0       -2.668008   -0.524497    0.085553
      2          6           0       -1.642066    0.558934   -0.209690
      3          6           0       -0.281232    0.199990    0.356588
      4          8           0        0.254072   -0.953405   -0.242965
      5          6           0        0.827985    1.230902    0.001319
      6          6           0        1.817315    0.154695   -0.114313
      7          7           0        2.691811   -0.626135    0.079129
      8          1           0       -2.811679   -0.647236    1.161877
      9          1           0       -3.635627   -0.284805   -0.357693
     10          1           0       -2.328446   -1.478241   -0.319484
     11          1           0       -1.964384    1.520659    0.204852
     12          1           0       -1.534143    0.686569   -1.291505
     13          1           0       -0.351959    0.101729    1.452362
     14          1           0        1.670018   -1.278737    0.061712
     15          1           0        1.118796    1.986077    0.732966
     16          1           0        0.638196    1.684034   -0.972015
 ---------------------------------------------------------------------

 SCF Done:  E(RHF) =  -323.877438904     A.U. after    2 cycles

 The electronic state is 1-A.
 Alpha  occ. eigenvalues --  -20.50793 -15.67530 -11.40126 -11.29953 -11.29601
 Alpha  occ. eigenvalues --  -11.23150 -11.21652  -1.31873  -1.23636  -1.06798
 Alpha  occ. eigenvalues --   -1.02915  -0.88713  -0.79006  -0.73159  -0.71004
 Alpha  occ. eigenvalues --   -0.67920  -0.62175  -0.59836  -0.59294  -0.56579
 Alpha  occ. eigenvalues --   -0.54276  -0.51956  -0.49632  -0.48842  -0.48007
 Alpha  occ. eigenvalues --   -0.40985  -0.40266
 Alpha virt. eigenvalues --    0.02855   0.04199   0.04292   0.05324   0.06245
 Alpha virt. eigenvalues --    0.06613   0.07217   0.07803   0.09177   0.09691
 Alpha virt. eigenvalues --    0.10962   0.11786   0.12820   0.13313   0.14151

 Mulliken charges:
               1
     1  C    0.438016
     2  C    0.059166
     3  C    0.486548
     4  O   -1.139344
     5  C    0.315191
     6  C    0.354631
     7  N   -0.455990
     8  H   -0.075699
     9  H   -0.062324
    10  H   -0.019551
    11  H   -0.080606
    12  H   -0.057042
    13  H   -0.299695
    14  H    0.472692
    15  H    0.041938
    16  H    0.022068
 Sum of Mulliken charges =  -0.00000

 Dipole moment (field-independent basis, Debye):
    X=             -0.2354    Y=              3.6846    Z=              0.6981  Tot=              3.7575

 Test job not archived.
 1\1\GINC-SE131\SP\RHF\Aug-CC-pVDZ\C5H9N1O1\OHZDE\09-Apr-2025\0\\#t hf
 aug-cc-pvdz iop(5/13=1,5/36=2,99/5=2) pseudo=read geom=check guess=(re
 ad,tcheck) scf=(maxcycle=1)\\title\\0,1\C,0,2.24185275,-0.17253408,0.2
 5565358\C,0,0.86602981,-0.26153865,0.89810094\C,0,-0.19673352,0.367200
 54,0.01685051\O,0,-0.34249241,-0.31377092,-1.20436414\C,0,-1.63743559,
 0.21945859,0.58422018\C,0,-2.1751711,0.06258335,-0.77099034\N,0,-2.678
 20213,0.23591998,-1.83342786\H,0,2.54347757,0.868304,0.11473576\H,0,2.
 99847825,-0.66155287,0.87094505\H,0,2.22711745,-0.65395823,-0.72260912

 Normal termination of Gaussian 16 at Wed Apr  9 15:34:13 2025.
