 Gaussian 16, Revision C.01,

 ----------------------------------------------------------------------
 #t hf aug-cc-pvdz symm=none int=(grid=ultrafine) guess=(read,tcheck) s
 table=(opt,rrhf)
 ----------------------------------------------------------------------
 -----
 title
 -----
 Symbolic Z-matrix:
 Charge =  0 Multiplicity = 1

 SCF Done:  E(RHF) =  -336.646959846     A.U. after   15 cycles
 Normal termination of Gaussian 16 at Wed Apr  9 14:18:02 2025.
 Gaussian 16:  ES64L-G16RevC.01  3-Jul-2019

 ----------------------------------------------------------------------
 #t hf aug-cc-pvdz iop(5/13=1,5/36=2,99/5=2) pseudo=read geom=check gue
 ss=(read,tcheck) scf=(maxcycle=1)
 ----------------------------------------------------------------------
 -----
 title
 -----
 Structure from the checkpoint file:  "Grambow2020_b97d3_007115_forward_mol1.chk"
 Charge =  0 Multiplicity = 1

                         Standard orientation:
 ---------------------------------------------------------------------
 Center     Atomic      Atomic             Coordinates (Angstroms)
 Number     Number       Type             X           Y           Z
 ---------------------------------------------------------------------
      1          7           0        2.225080   -0.018933   -0.344972
      2          6           0        0.895577   -0.063991   -0.218210
      3          8           0        0.396787   -0.102224    0.996817
      4          6           0       -0.848870    0.172316   -0.037766
      5          8           0       -1.311636    1.283614   -0.148260
      6          7           0       -1.542884   -1.031351   -0.135404
      7          1           0        2.651271    0.039291   -1.262055
      8          1           0        2.837025    0.033459    0.476657
      9          1           0       -2.271909   -0.972384   -0.843191
     10          1           0       -0.953206   -1.849453   -0.261376
 ---------------------------------------------------------------------

 SCF Done:  E(RHF) =  -336.752025277     A.U. after    2 cycles

 The electronic state is 1-A.
 Alpha  occ. eigenvalues --  -20.61388 -20.54876 -15.68927 -15.65765 -11.45557
 Alpha  occ. eigenvalues --  -11.36581  -1.41547  -1.34267  -1.21088  -1.18037
 Alpha  occ. eigenvalues --   -0.84758  -0.83291  -0.74969  -0.73475  -0.70163
 Alpha  occ. eigenvalues --   -0.67324  -0.62382  -0.58955  -0.58679  -0.47933
 Alpha  occ. eigenvalues --   -0.46577  -0.44478  -0.37951
 Alpha virt. eigenvalues --    0.02170   0.03575   0.04604   0.05780   0.10136
 Alpha virt. eigenvalues --    0.11059   0.11941   0.12578   0.12987   0.14211
 Alpha virt. eigenvalues --    0.14798   0.15075   0.17111   0.17401   0.18929

 Mulliken charges:
               1
     1  N   -0.109041
     2  C    0.481563
     3  O   -0.717076
     4  C    0.850118
     5  O   -0.438675
     6  N   -0.232265
     7  H    0.055551
     8  H    0.021427
     9  H    0.034550
    10  H    0.053850
 Sum of Mulliken charges =  -0.00000

 Dipole moment (field-independent basis, Debye):
    X=              3.9896    Y=             -3.4876    Z=             -2.6574  Tot=              5.9281

 Test job not archived.
 1\1\GINC-SE219\SP\RHF\Aug-CC-pVDZ\C2H4N2O2\OHZDE\09-Apr-2025\0\\#t hf
 aug-cc-pvdz iop(5/13=1,5/36=2,99/5=2) pseudo=read geom=check guess=(re
 ad,tcheck) scf=(maxcycle=1)\\title\\0,1\N,0,-2.013011,0.30826905,0.097
 95571\C,0,-0.70422759,0.03927618,0.11815082\O,0,0.04412334,0.70024465,
 0.97233759\C,0,0.95955821,-0.5152686,0.35435409\O,0,1.16590094,-1.5112
 7835,1.00760137\N,0,1.83306708,0.08094337,-0.55202182\H,0,-2.63106159,
 -0.19726511,-0.52535754\H,0,-2.43058725,0.97232075,0.7589857\H,0,2.366
 10249,-0.62334973,-1.05775066\H,0,1.39783439,0.75316279,-1.17778026\\V

 Normal termination of Gaussian 16 at Wed Apr  9 14:18:05 2025.
