 Gaussian 16, Revision C.01,

 ----------------------------------------------------------------------
 #t hf aug-cc-pvdz symm=none int=(grid=ultrafine) guess=(read,tcheck) s
 table=(opt,rrhf)
 ----------------------------------------------------------------------
 -----
 title
 -----
 Symbolic Z-matrix:
 Charge =  0 Multiplicity = 1

 SCF Done:  E(RHF) =  -343.608208462     A.U. after   15 cycles
 Normal termination of Gaussian 16 at Wed Apr  9 16:09:07 2025.
 Gaussian 16:  ES64L-G16RevC.01  3-Jul-2019

 ----------------------------------------------------------------------
 #t hf aug-cc-pvdz iop(5/13=1,5/36=2,99/5=2) pseudo=read geom=check gue
 ss=(read,tcheck) scf=(maxcycle=1)
 ----------------------------------------------------------------------
 -----
 title
 -----
 Structure from the checkpoint file:  "Grambow2020_wb97xd3_007810_forward_mol1.chk"
 Charge =  0 Multiplicity = 1

                         Standard orientation:
 ---------------------------------------------------------------------
 Center     Atomic      Atomic             Coordinates (Angstroms)
 Number     Number       Type             X           Y           Z
 ---------------------------------------------------------------------
      1          6           0       -1.944650   -0.875219   -0.383351
      2          6           0       -0.621950    0.126225   -0.087309
      3          6           0       -1.143085    1.498230    0.316289
      4          6           0       -0.327275   -0.777530    0.985635
      5          6           0        1.775352   -0.053093    0.298608
      6          8           0        2.842441   -0.034019   -0.084743
      7          8           0        0.244392    0.091453   -1.061260
      8          1           0       -1.613748   -1.779998   -0.883664
      9          1           0       -2.624159   -1.093350    0.439459
     10          1           0       -2.467363   -0.237554   -1.093535
     11          1           0       -0.309079    2.071394    0.726582
     12          1           0       -1.502857    2.016573   -0.572277
     13          1           0       -1.944432    1.457669    1.058157
     14          1           0       -0.749528   -0.661665    1.981170
     15          1           0        0.086142   -1.744215    0.732897
 ---------------------------------------------------------------------

 SCF Done:  E(RHF) =  -343.715728724     A.U. after    2 cycles

 The electronic state is 1-A.
 Alpha  occ. eigenvalues --  -20.62764 -20.48879 -11.35565 -11.34823 -11.31547
 Alpha  occ. eigenvalues --  -11.27220 -11.23452  -1.43936  -1.27835  -1.07885
 Alpha  occ. eigenvalues --   -0.96804  -0.94300  -0.77906  -0.76901  -0.69594
 Alpha  occ. eigenvalues --   -0.66479  -0.62732  -0.61645  -0.61010  -0.59784
 Alpha  occ. eigenvalues --   -0.58699  -0.54799  -0.54365  -0.53406  -0.44999
 Alpha  occ. eigenvalues --   -0.39877  -0.37327
 Alpha virt. eigenvalues --    0.02147   0.03555   0.03998   0.05015   0.06079
 Alpha virt. eigenvalues --    0.06540   0.06606   0.07091   0.07676   0.09697
 Alpha virt. eigenvalues --    0.10932   0.12625   0.13593   0.13724   0.14220

 Mulliken charges:
               1
     1  C    0.628357
     2  C   -0.759842
     3  C    0.661439
     4  C    0.872680
     5  C    0.194354
     6  O   -0.268149
     7  O   -0.848686
     8  H   -0.130962
     9  H   -0.033308
    10  H    0.048159
    11  H    0.016175
    12  H   -0.018092
    13  H    0.007488
    14  H   -0.286453
    15  H   -0.083158
 Sum of Mulliken charges =  -0.00000

 Dipole moment (field-independent basis, Debye):
    X=             -4.4374    Y=             -1.7640    Z=              4.4622  Tot=              6.5356

 Test job not archived.
 1\1\GINC-SE141\SP\RHF\Aug-CC-pVDZ\C5H8O2\OHZDE\09-Apr-2025\0\\#t hf au
 g-cc-pvdz iop(5/13=1,5/36=2,99/5=2) pseudo=read geom=check guess=(read
 ,tcheck) scf=(maxcycle=1)\\title\\0,1\C,0,-0.94788012,1.18797663,-0.58
 490873\C,0,0.03015025,0.10690949,0.26055951\C,0,-0.86723568,-0.9194626
 ,0.93741075\C,0,0.54223828,-0.25507046,-1.02845282\C,0,2.37026392,-0.5
 5453789,0.38097822\O,0,3.39738367,-0.47313063,0.85468574\O,0,0.8943026
 8,0.72126345,1.01960368\H,0,-0.36266067,2.05051378,-0.88819302\H,0,-1.
 55771733,0.8052325,-1.40218274\H,0,-1.61218939,1.467858,0.23030076\H,0

 Normal termination of Gaussian 16 at Wed Apr  9 16:09:14 2025.
