 Gaussian 16, Revision C.01,

 ----------------------------------------------------------------------
 #t hf aug-cc-pvdz symm=none int=(grid=ultrafine) guess=(read,tcheck) s
 table=(opt,rrhf)
 ----------------------------------------------------------------------
 -----
 title
 -----
 Symbolic Z-matrix:
 Charge =  0 Multiplicity = 1

 SCF Done:  E(RHF) =  -231.710692415     A.U. after   15 cycles
 Normal termination of Gaussian 16 at Wed Apr  9 14:21:19 2025.
 Gaussian 16:  ES64L-G16RevC.01  3-Jul-2019

 ----------------------------------------------------------------------
 #t hf aug-cc-pvdz iop(5/13=1,5/36=2,99/5=2) pseudo=read geom=check gue
 ss=(read,tcheck) scf=(maxcycle=1)
 ----------------------------------------------------------------------
 -----
 title
 -----
 Structure from the checkpoint file:  "Grambow2020_wb97xd3_006055_reverse_mol2.chk"
 Charge =  0 Multiplicity = 1

                         Standard orientation:
 ---------------------------------------------------------------------
 Center     Atomic      Atomic             Coordinates (Angstroms)
 Number     Number       Type             X           Y           Z
 ---------------------------------------------------------------------
      1          6           0       -0.784254   -0.670814    0.870346
      2          6           0       -0.021641   -0.785738   -0.376704
      3          6           0       -1.345762    0.008850   -0.428070
      4          6           0       -1.503000    1.362927   -0.065241
      5          6           0        2.073881    0.354318    0.369327
      6          6           0        1.281692   -0.112314   -0.583224
      7          1           0       -0.424436   -0.017105    1.653651
      8          1           0       -1.388758   -1.497006    1.217123
      9          1           0       -0.122074   -1.730499   -0.901922
     10          1           0       -2.179210   -0.530650   -0.865803
     11          1           0       -0.511586    1.738830    0.249641
     12          1           0        3.011174    0.840385    0.129766
     13          1           0        1.825028    0.263556    1.420815
     14          1           0        1.584363   -0.010891   -1.621872
 ---------------------------------------------------------------------

 SCF Done:  E(RHF) =  -231.780585557     A.U. after    2 cycles

 The electronic state is 1-A.
 Alpha  occ. eigenvalues --  -11.28142 -11.27297 -11.25859 -11.25631 -11.25193
 Alpha  occ. eigenvalues --  -11.24606  -1.17790  -1.04942  -0.93878  -0.87473
 Alpha  occ. eigenvalues --   -0.79573  -0.73897  -0.68135  -0.65401  -0.62071
 Alpha  occ. eigenvalues --   -0.56216  -0.54303  -0.51662  -0.48670  -0.44558
 Alpha  occ. eigenvalues --   -0.37885  -0.33809
 Alpha virt. eigenvalues --    0.03088   0.03870   0.03958   0.05443   0.06025
 Alpha virt. eigenvalues --    0.06260   0.06985   0.07599   0.09569   0.10600
 Alpha virt. eigenvalues --    0.11425   0.12218   0.13024   0.13753   0.14387

 Mulliken charges:
               1
     1  C    0.716141
     2  C    0.448920
     3  C    0.555551
     4  C   -0.361290
     5  C    0.527272
     6  C    0.477422
     7  H   -0.372903
     8  H   -0.290063
     9  H   -0.307655
    10  H   -0.376158
    11  H   -0.038174
    12  H   -0.311384
    13  H   -0.310919
    14  H   -0.356758
 Sum of Mulliken charges =  -0.00000

 Dipole moment (field-independent basis, Debye):
    X=              2.0731    Y=             -2.5913    Z=              0.2689  Tot=              3.3294

 Test job not archived.
 1\1\GINC-SE163\SP\RHF\Aug-CC-pVDZ\C6H8\OHZDE\09-Apr-2025\0\\#t hf aug-
 cc-pvdz iop(5/13=1,5/36=2,99/5=2) pseudo=read geom=check guess=(read,t
 check) scf=(maxcycle=1)\\title\\0,1\C,0,1.05639903,-0.56798976,-0.6235
 7827\C,0,0.64593932,0.25502056,0.51839197\C,0,0.84371668,0.97243137,-0
 .83568\C,0,-0.11214064,1.04691778,-1.87041734\C,0,-1.5318056,-0.867038
 4,1.01429078\C,0,-0.69525902,0.15142785,1.13910521\H,0,0.33783558,-1.2
 3345337,-1.08313893\H,0,2.08672896,-0.87685013,-0.72988347\H,0,1.43731
 504,0.52222865,1.21181683\H,0,1.77424583,1.52364845,-0.9227528\H,0,-1.

 Normal termination of Gaussian 16 at Wed Apr  9 14:21:24 2025.
