 Gaussian 16, Revision C.01,

 ----------------------------------------------------------------------
 #t hf aug-cc-pvdz symm=none int=(grid=ultrafine) guess=(read,tcheck) s
 table=(opt,rrhf)
 ----------------------------------------------------------------------
 -----
 title
 -----
 Symbolic Z-matrix:
 Charge =  0 Multiplicity = 1

 SCF Done:  E(RHF) =  -342.335189823     A.U. after   16 cycles
 Normal termination of Gaussian 16 at Wed Apr  9 03:58:40 2025.
 Gaussian 16:  ES64L-G16RevC.01  3-Jul-2019

 ----------------------------------------------------------------------
 #t hf aug-cc-pvdz iop(5/13=1,5/36=2,99/5=2) pseudo=read geom=check gue
 ss=(read,tcheck) scf=(maxcycle=1)
 ----------------------------------------------------------------------
 -----
 title
 -----
 Structure from the checkpoint file:  "Grambow2020_wb97xd3_008767_reverse_mol1.chk"
 Charge =  0 Multiplicity = 1

                         Standard orientation:
 ---------------------------------------------------------------------
 Center     Atomic      Atomic             Coordinates (Angstroms)
 Number     Number       Type             X           Y           Z
 ---------------------------------------------------------------------
      1          8           0       -1.389029    1.179069   -0.086634
      2          6           0       -1.424456   -0.072954    0.149069
      3          6           0       -0.288883   -0.870634    0.619239
      4          8           0       -0.298351   -1.041230   -0.813605
      5          6           0        1.378025   -0.101384   -0.629282
      6          6           0        1.124895    1.086549    0.009839
      7          6           0        1.052696   -0.207149    0.806857
      8          1           0       -2.387584   -0.574129    0.047527
      9          1           0       -0.488745   -1.771719    1.197167
     10          1           0        2.006041   -0.562713   -1.371711
     11          1           0        1.789906    1.930766    0.098194
     12          1           0       -0.234431    1.401322   -0.062005
     13          1           0        1.760191   -0.532809    1.558410
 ---------------------------------------------------------------------

 SCF Done:  E(RHF) =  -342.439391006     A.U. after    2 cycles

 The electronic state is 1-A.
 Alpha  occ. eigenvalues --  -20.56693 -20.56403 -11.37453 -11.34121 -11.30522
 Alpha  occ. eigenvalues --  -11.26661 -11.21951  -1.37774  -1.30321  -1.16744
 Alpha  occ. eigenvalues --   -0.96733  -0.87548  -0.82488  -0.78388  -0.73754
 Alpha  occ. eigenvalues --   -0.68894  -0.66665  -0.61525  -0.60251  -0.58734
 Alpha  occ. eigenvalues --   -0.54379  -0.49658  -0.47501  -0.44373  -0.41424
 Alpha  occ. eigenvalues --   -0.33885
 Alpha virt. eigenvalues --    0.02951   0.03911   0.04534   0.04747   0.06059
 Alpha virt. eigenvalues --    0.07282   0.08015   0.09373   0.10414   0.12322
 Alpha virt. eigenvalues --    0.13098   0.13287   0.14197   0.14366   0.14640

 Mulliken charges:
               1
     1  O   -0.676830
     2  C    0.565837
     3  C    0.922272
     4  O   -0.908489
     5  C    0.673256
     6  C    0.191176
     7  C    0.307283
     8  H   -0.219934
     9  H   -0.319294
    10  H   -0.325843
    11  H   -0.400273
    12  H    0.543746
    13  H   -0.352907
 Sum of Mulliken charges =  -0.00000

 Dipole moment (field-independent basis, Debye):
    X=              2.2392    Y=             -1.3066    Z=              1.9695  Tot=              3.2558

 Test job not archived.
 1\1\GINC-SE344\SP\RHF\Aug-CC-pVDZ\C5H6O2\OHZDE\09-Apr-2025\0\\#t hf au
 g-cc-pvdz iop(5/13=1,5/36=2,99/5=2) pseudo=read geom=check guess=(read
 ,tcheck) scf=(maxcycle=1)\\title\\0,1\O,0,0.86481936,1.7256705,0.49984
 918\C,0,1.48843523,0.72438657,0.01724382\C,0,0.85733341,-0.40545012,-0
 .66982135\O,0,1.01761362,-0.84059589,0.69663121\C,0,-0.91089261,-0.809
 12481,0.6106291\C,0,-1.29377629,0.45620832,0.24175599\C,0,-0.64519354,
 -0.44756671,-0.79585555\H,0,2.57748874,0.74025493,0.07027399\H,0,1.438
 7846,-0.95824428,-1.40618612\H,0,-1.20142422,-1.65709923,1.20641495\H,

 Normal termination of Gaussian 16 at Wed Apr  9 03:58:45 2025.
