 Gaussian 16, Revision C.01,

 ----------------------------------------------------------------------
 #t hf aug-cc-pvdz symm=none int=(grid=ultrafine) guess=(read,tcheck) s
 table=(opt,rrhf)
 ----------------------------------------------------------------------
 -----
 title
 -----
 Symbolic Z-matrix:
 Charge =  0 Multiplicity = 1

 SCF Done:  E(RHF) =  -322.581035046     A.U. after   16 cycles
 Normal termination of Gaussian 16 at Wed Apr  9 17:08:30 2025.
 Gaussian 16:  ES64L-G16RevC.01  3-Jul-2019

 ----------------------------------------------------------------------
 #t hf aug-cc-pvdz iop(5/13=1,5/36=2,99/5=2) pseudo=read geom=check gue
 ss=(read,tcheck) scf=(maxcycle=1)
 ----------------------------------------------------------------------
 -----
 title
 -----
 Structure from the checkpoint file:  "Grambow2020_wb97xd3_009162_reverse_mol1.chk"
 Charge =  0 Multiplicity = 1

                         Standard orientation:
 ---------------------------------------------------------------------
 Center     Atomic      Atomic             Coordinates (Angstroms)
 Number     Number       Type             X           Y           Z
 ---------------------------------------------------------------------
      1          6           0       -1.795444   -1.432505    0.314240
      2          7           0       -0.331671   -0.549890   -0.362147
      3          6           0        0.900612   -1.208395   -0.249749
      4          6           0        1.823366   -0.305723    0.132881
      5          6           0        1.178703    0.980842    0.252649
      6          6           0       -0.121294    0.788885   -0.068170
      7          8           0       -1.188272    1.598176   -0.147405
      8          1           0       -2.249054   -0.556633    0.790914
      9          1           0       -1.265472   -2.000276    1.085410
     10          1           0       -1.105062   -0.939479   -0.983289
     11          1           0        0.960845   -2.266670   -0.441047
     12          1           0        2.865749   -0.510687    0.319708
     13          1           0        1.638737    1.913636    0.538076
     14          1           0       -0.933525    2.485307    0.113392
 ---------------------------------------------------------------------

 SCF Done:  E(RHF) =  -322.680780958     A.U. after    2 cycles

 The electronic state is 1-A.
 Alpha  occ. eigenvalues --  -20.63281 -15.69002 -11.35613 -11.27465 -11.24842
 Alpha  occ. eigenvalues --  -11.24484 -11.23837  -1.40796  -1.27688  -1.07332
 Alpha  occ. eigenvalues --   -0.99138  -0.88923  -0.84064  -0.79160  -0.76992
 Alpha  occ. eigenvalues --   -0.68665  -0.65276  -0.63918  -0.62004  -0.58155
 Alpha  occ. eigenvalues --   -0.55149  -0.54860  -0.53030  -0.38987  -0.33976
 Alpha  occ. eigenvalues --   -0.31373
 Alpha virt. eigenvalues --    0.02635   0.03709   0.04548   0.05561   0.06091
 Alpha virt. eigenvalues --    0.06730   0.08605   0.09907   0.11639   0.11796
 Alpha virt. eigenvalues --    0.12569   0.12859   0.13457   0.14060   0.15040

 Mulliken charges:
               1
     1  C    0.195988
     2  N   -0.620800
     3  C    0.571387
     4  C    0.266703
     5  C    0.766322
     6  C    0.279386
     7  O   -0.505446
     8  H   -0.202007
     9  H   -0.176840
    10  H    0.348520
    11  H   -0.364066
    12  H   -0.327502
    13  H   -0.381032
    14  H    0.149386
 Sum of Mulliken charges =  -0.00000

 Dipole moment (field-independent basis, Debye):
    X=              2.2798    Y=              2.4182    Z=              0.6063  Tot=              3.3783

 Test job not archived.
 1\1\GINC-SE174\SP\RHF\Aug-CC-pVDZ\C5H7N1O1\OHZDE\09-Apr-2025\0\\#t hf
 aug-cc-pvdz iop(5/13=1,5/36=2,99/5=2) pseudo=read geom=check guess=(re
 ad,tcheck) scf=(maxcycle=1)\\title\\0,1\C,0,-2.0960157,0.17465533,0.72
 605009\N,0,-0.61224597,-0.11178503,-0.32061979\C,0,-0.0497332,-1.39457
 432,-0.26756566\C,0,1.28886203,-1.26181036,-0.21069066\C,0,1.60829796,
 0.14590843,-0.24905016\C,0,0.42910037,0.80393407,-0.32817343\O,0,0.091
 31219,2.10005916,-0.403207\H,0,-1.79529658,1.1649782,1.08515992\H,0,-1
 .85384219,-0.55506664,1.50502073\H,0,-1.58352807,0.04269925,-0.7310796

 Normal termination of Gaussian 16 at Wed Apr  9 17:08:36 2025.
