 Gaussian 16, Revision C.01,

 ----------------------------------------------------------------------
 #t hf aug-cc-pvdz symm=none int=(grid=ultrafine) guess=(read,tcheck) s
 table=(opt,rrhf)
 ----------------------------------------------------------------------
 -----
 title
 -----
 Symbolic Z-matrix:
 Charge =  0 Multiplicity = 1

 SCF Done:  E(RHF) =  -343.598019603     A.U. after   16 cycles
 Normal termination of Gaussian 16 at Wed Apr  9 15:25:02 2025.
 Gaussian 16:  ES64L-G16RevC.01  3-Jul-2019

 ----------------------------------------------------------------------
 #t hf aug-cc-pvdz iop(5/13=1,5/36=2,99/5=2) pseudo=read geom=check gue
 ss=(read,tcheck) scf=(maxcycle=1)
 ----------------------------------------------------------------------
 -----
 title
 -----
 Structure from the checkpoint file:  "Grambow2020_wb97xd3_006886_forward_mol1.chk"
 Charge =  0 Multiplicity = 1

                         Standard orientation:
 ---------------------------------------------------------------------
 Center     Atomic      Atomic             Coordinates (Angstroms)
 Number     Number       Type             X           Y           Z
 ---------------------------------------------------------------------
      1          6           0        0.196707    1.306195   -1.157110
      2          6           0        0.296894    0.620820    0.160309
      3          6           0        0.833404    1.078986    1.276366
      4          6           0        2.473818   -1.277336   -0.493955
      5          8           0       -0.159807   -0.712179    0.165663
      6          6           0       -1.479544   -0.935969    0.067068
      7          8           0       -2.330029   -0.102223    0.034735
      8          1           0       -0.847168    1.413423   -1.453750
      9          1           0        0.721643    0.719903   -1.913382
     10          1           0        0.650681    2.293706   -1.099178
     11          1           0        1.264695    2.069437    1.305437
     12          1           0        0.851567    0.477683    2.175453
     13          1           0        2.966880   -0.943608    0.440794
     14          1           0        2.035943   -2.252293   -0.203707
     15          1           0       -1.653235   -2.019208    0.029071
 ---------------------------------------------------------------------

 SCF Done:  E(RHF) =  -343.708946797     A.U. after    2 cycles

 The electronic state is 1-A.
 Alpha  occ. eigenvalues --  -20.64047 -20.58199 -11.41050 -11.32441 -11.29444
 Alpha  occ. eigenvalues --  -11.24229 -11.23856  -1.44610  -1.35517  -1.08439
 Alpha  occ. eigenvalues --   -0.96050  -0.90664  -0.88214  -0.76115  -0.74635
 Alpha  occ. eigenvalues --   -0.69250  -0.68956  -0.63413  -0.59850  -0.58166
 Alpha  occ. eigenvalues --   -0.56183  -0.55298  -0.54271  -0.50229  -0.49201
 Alpha  occ. eigenvalues --   -0.39021  -0.37891
 Alpha virt. eigenvalues --    0.02971   0.03889   0.04272   0.04685   0.06007
 Alpha virt. eigenvalues --    0.06855   0.07050   0.07483   0.07811   0.09971
 Alpha virt. eigenvalues --    0.11088   0.12112   0.12564   0.13822   0.14305

 Mulliken charges:
               1
     1  C    0.193405
     2  C    0.045458
     3  C    0.955089
     4  C    0.138243
     5  O   -0.523182
     6  C    0.680734
     7  O   -0.378318
     8  H    0.024336
     9  H    0.055464
    10  H   -0.109987
    11  H   -0.306727
    12  H   -0.414785
    13  H   -0.067460
    14  H   -0.067487
    15  H   -0.224783
 Sum of Mulliken charges =  -0.00000

 Dipole moment (field-independent basis, Debye):
    X=              1.6000    Y=             -1.2194    Z=              1.1387  Tot=              2.3116

 Test job not archived.
 1\1\GINC-SE226\SP\RHF\Aug-CC-pVDZ\C5H8O2\OHZDE\09-Apr-2025\0\\#t hf au
 g-cc-pvdz iop(5/13=1,5/36=2,99/5=2) pseudo=read geom=check guess=(read
 ,tcheck) scf=(maxcycle=1)\\title\\0,1\C,0,-0.2714567,1.51192331,-0.573
 16796\C,0,-0.18800832,0.02683106,-0.51925117\C,0,-1.01039686,-0.853780
 57,-1.05919857\C,0,-1.08019265,-0.36424046,2.27737621\O,0,0.85082033,-
 0.4745381,0.29004102\C,0,2.11544791,-0.34590629,-0.1408664\O,0,2.45459
 218,0.10590272,-1.18984303\H,0,0.6182688,1.9277668,-1.04711961\H,0,-0.
 35163782,1.90910735,0.44027125\H,0,-1.14887623,1.81572691,-1.14102909\

 Normal termination of Gaussian 16 at Wed Apr  9 15:25:07 2025.
