 Gaussian 16, Revision C.01,

 ----------------------------------------------------------------------
 #t hf aug-cc-pvdz symm=none int=(grid=ultrafine) guess=(read,tcheck) s
 table=(opt,rrhf)
 ----------------------------------------------------------------------
 -----
 title
 -----
 Symbolic Z-matrix:
 Charge =  0 Multiplicity = 1

 SCF Done:  E(RHF) =  -266.700610016     A.U. after   15 cycles
 Normal termination of Gaussian 16 at Wed Apr  9 03:02:35 2025.
 Gaussian 16:  ES64L-G16RevC.01  3-Jul-2019

 ----------------------------------------------------------------------
 #t hf aug-cc-pvdz iop(5/13=1,5/36=2,99/5=2) pseudo=read geom=check gue
 ss=(read,tcheck) scf=(maxcycle=1)
 ----------------------------------------------------------------------
 -----
 title
 -----
 Structure from the checkpoint file:  "Grambow2020_b97d3_006480_reverse_mol2.chk"
 Charge =  0 Multiplicity = 1

                         Standard orientation:
 ---------------------------------------------------------------------
 Center     Atomic      Atomic             Coordinates (Angstroms)
 Number     Number       Type             X           Y           Z
 ---------------------------------------------------------------------
      1          8           0       -1.594825   -0.638742    0.071553
      2          6           0       -1.013334    0.649030   -0.032853
      3          6           0        0.504487    0.652962    0.131204
      4          6           0        1.291847   -0.258282    1.015901
      5          8           0        1.056696   -0.354227   -0.831580
      6          1           0       -1.149518   -1.198795   -0.592493
      7          1           0       -1.272809    1.143101   -0.990212
      8          1           0       -1.441581    1.252291    0.779663
      9          1           0        0.915365    1.655240   -0.059826
     10          1           0        0.572992   -1.066965    1.278293
     11          1           0        1.982590   -0.103379   -1.020715
 ---------------------------------------------------------------------

 SCF Done:  E(RHF) =  -266.781245931     A.U. after    2 cycles

 The electronic state is 1-A.
 Alpha  occ. eigenvalues --  -20.63932 -20.58536 -11.32221 -11.30803 -11.27090
 Alpha  occ. eigenvalues --   -1.37692  -1.32916  -1.03225  -0.92093  -0.80074
 Alpha  occ. eigenvalues --   -0.75656  -0.69498  -0.65895  -0.62068  -0.59199
 Alpha  occ. eigenvalues --   -0.57133  -0.52515  -0.49880  -0.47036  -0.36416
 Alpha virt. eigenvalues --    0.02971   0.04121   0.04860   0.05280   0.06785
 Alpha virt. eigenvalues --    0.07503   0.09544   0.10651   0.11287   0.12829
 Alpha virt. eigenvalues --    0.14413   0.14952   0.15624   0.16799   0.17267

 Mulliken charges:
               1
     1  O   -0.573756
     2  C    0.792044
     3  C    0.584355
     4  C   -0.151285
     5  O   -0.692381
     6  H    0.182715
     7  H   -0.032592
     8  H   -0.063058
     9  H   -0.236686
    10  H   -0.033111
    11  H    0.223753
 Sum of Mulliken charges =  -0.00000

 Dipole moment (field-independent basis, Debye):
    X=              0.1482    Y=              2.0378    Z=             -1.9685  Tot=              2.8372

 Test job not archived.
 1\1\GINC-SE457\SP\RHF\Aug-CC-pVDZ\C3H6O2\OHZDE\09-Apr-2025\0\\#t hf au
 g-cc-pvdz iop(5/13=1,5/36=2,99/5=2) pseudo=read geom=check guess=(read
 ,tcheck) scf=(maxcycle=1)\\title\\0,1\O,0,-1.69300409,-0.40418655,-0.3
 9723169\C,0,-0.87229707,0.70637391,-0.08024077\C,0,0.54933739,0.324197
 96,0.32424479\C,0,0.94613281,-0.90913043,1.06885362\O,0,1.09518234,-0.
 55888623,-0.75674241\H,0,-1.22954773,-0.90030129,-1.09865478\H,0,-0.82
 536544,1.43634213,-0.91265514\H,0,-1.34285551,1.20848857,0.7764726\H,0
 ,1.17142559,1.22119996,0.45940505\H,0,0.04970103,-1.56583163,1.0001191

 Normal termination of Gaussian 16 at Wed Apr  9 03:02:38 2025.
