 Gaussian 16, Revision C.01,

 ----------------------------------------------------------------------
 #t hf aug-cc-pvdz symm=none int=(grid=ultrafine) guess=(read,tcheck) s
 table=(opt,rrhf)
 ----------------------------------------------------------------------
 -----
 title
 -----
 Symbolic Z-matrix:
 Charge =  0 Multiplicity = 1

 SCF Done:  E(RHF) =  -359.797773434     A.U. after   14 cycles
 Normal termination of Gaussian 16 at Wed Apr  9 04:04:43 2025.
 Gaussian 16:  ES64L-G16RevC.01  3-Jul-2019

 ----------------------------------------------------------------------
 #t hf aug-cc-pvdz iop(5/13=1,5/36=2,99/5=2) pseudo=read geom=check gue
 ss=(read,tcheck) scf=(maxcycle=1)
 ----------------------------------------------------------------------
 -----
 title
 -----
 Structure from the checkpoint file:  "Grambow2020_wb97xd3_009262_reverse_mol2.chk"
 Charge =  0 Multiplicity = 1

                         Standard orientation:
 ---------------------------------------------------------------------
 Center     Atomic      Atomic             Coordinates (Angstroms)
 Number     Number       Type             X           Y           Z
 ---------------------------------------------------------------------
      1          6           0        2.687053   -0.055291   -0.002476
      2          6           0        1.310216   -0.692358    0.003613
      3          6           0        0.191637    0.304180    0.001311
      4          8           0        0.338943    1.500264   -0.000112
      5          6           0       -1.238893   -0.288107   -0.000527
      6          8           0       -1.428058   -1.484676   -0.001819
      7          7           0       -2.191452    0.659185    0.000176
      8          1           0        2.826043    0.571075   -0.884190
      9          1           0        2.830808    0.578786    0.872915
     10          1           0        3.461139   -0.823059   -0.001348
     11          1           0        1.153659   -1.352372   -0.855329
     12          1           0        1.158364   -1.343620    0.870213
     13          1           0       -1.917979    1.626337    0.000612
     14          1           0       -3.159025    0.393313   -0.000191
 ---------------------------------------------------------------------

 SCF Done:  E(RHF) =  -359.911072539     A.U. after    2 cycles

 The electronic state is 1-A.
 Alpha  occ. eigenvalues --  -20.59599 -20.55903 -15.66128 -11.38124 -11.36451
 Alpha  occ. eigenvalues --  -11.25376 -11.23423  -1.39565  -1.36510  -1.19709
 Alpha  occ. eigenvalues --   -1.06241  -0.93985  -0.86038  -0.77291  -0.74642
 Alpha  occ. eigenvalues --   -0.70046  -0.66544  -0.65318  -0.63697  -0.60009
 Alpha  occ. eigenvalues --   -0.55226  -0.54555  -0.52944  -0.52092  -0.50311
 Alpha  occ. eigenvalues --   -0.43149  -0.42718
 Alpha virt. eigenvalues --    0.03211   0.03779   0.05202   0.05281   0.06207
 Alpha virt. eigenvalues --    0.06668   0.07317   0.08153   0.11107   0.11361
 Alpha virt. eigenvalues --    0.11932   0.13293   0.14401   0.14783   0.14804

 Mulliken charges:
               1
     1  C    0.524681
     2  C    0.057353
     3  C   -0.010324
     4  O   -0.533986
     5  C    0.614908
     6  O   -0.501425
     7  N   -0.126606
     8  H   -0.047215
     9  H   -0.046590
    10  H   -0.031102
    11  H    0.035855
    12  H    0.036303
    13  H    0.015994
    14  H    0.012155
 Sum of Mulliken charges =  -0.00000

 Dipole moment (field-independent basis, Debye):
    X=             -0.2456    Y=              1.0694    Z=              0.0080  Tot=              1.0973

 Test job not archived.
 1\1\GINC-SE082\SP\RHF\Aug-CC-pVDZ\C4H7N1O2\OHZDE\09-Apr-2025\0\\#t hf
 aug-cc-pvdz iop(5/13=1,5/36=2,99/5=2) pseudo=read geom=check guess=(re
 ad,tcheck) scf=(maxcycle=1)\\title\\0,1\C,0,-1.97783793,-1.07609614,0.
 4276339\C,0,-0.48315397,-0.98014048,0.18621148\C,0,-0.01725241,0.40884
 166,-0.12680378\O,0,-0.73535466,1.37441106,-0.19255191\C,0,1.50241827,
 0.57018357,-0.37538475\O,0,2.25702757,-0.37563078,-0.3156967\N,0,1.849
 95697,1.8378946,-0.6526135\H,0,-2.28164881,-0.44664588,1.26463021\H,0,
 -2.53938535,-0.74720667,-0.44730877\H,0,-2.26151226,-2.10481903,0.6510

 Normal termination of Gaussian 16 at Wed Apr  9 04:04:48 2025.
