 Gaussian 16, Revision C.01,

 ----------------------------------------------------------------------
 #t hf aug-cc-pvdz symm=none int=(grid=ultrafine) guess=(read,tcheck) s
 table=(opt,rrhf)
 ----------------------------------------------------------------------
 -----
 title
 -----
 Symbolic Z-matrix:
 Charge =  0 Multiplicity = 1

 SCF Done:  E(RHF) =  -271.029541041     A.U. after   16 cycles

 1\1\GINC-SE174\Stability\RHF\Aug-CC-pVDZ\C5H12O1\OHZDE\09-Apr-2025\0\\
 #t hf aug-cc-pvdz symm=none int=(grid=ultrafine) guess=(read,tcheck) s
 table=(opt,rrhf)\\title\\0,1\C,0,-1.31935172,1.03754496,-0.41821678\C,
 0,-0.31341684,-0.10413923,-0.22431934\C,0,-0.75162093,-1.34137675,-1.0
 2388571\C,0,0.04218707,-0.39132771,1.25232132\C,0,1.09019083,0.3009336
 5,-0.49020305\O,0,2.45017385,0.53244333,1.14637333\H,0,-1.40655343,1.3
 1162316,-1.48170807\H,0,-1.02314656,1.93481225,0.14365028\H,0,-2.31191
 228,0.72625266,-0.06283879\H,0,-0.83707253,-1.11643641,-2.09912678\H,0

 Normal termination of Gaussian 16 at Wed Apr  9 14:15:35 2025.
 Gaussian 16:  ES64L-G16RevC.01  3-Jul-2019

 ----------------------------------------------------------------------
 #t hf aug-cc-pvdz iop(5/13=1,5/36=2,99/5=2) pseudo=read geom=check gue
 ss=(read,tcheck) scf=(maxcycle=1)
 ----------------------------------------------------------------------
 -----
 title
 -----
 Structure from the checkpoint file:  "Grambow2020_b97d3_006879_forward_mol1.chk"
 Charge =  0 Multiplicity = 1

                         Standard orientation:
 ---------------------------------------------------------------------
 Center     Atomic      Atomic             Coordinates (Angstroms)
 Number     Number       Type             X           Y           Z
 ---------------------------------------------------------------------
      1          6           0       -1.323877    1.368109   -0.059364
      2          6           0       -0.623881    0.004649    0.003315
      3          6           0       -1.647215   -1.127950   -0.175832
      4          6           0        0.315539   -0.170025    1.218378
      5          6           0        0.536595   -0.100436   -0.917089
      6          8           0        2.522293   -0.086511   -0.118125
      7          1           0       -1.841611    1.503106   -1.022413
      8          1           0       -0.608673    2.193838    0.063823
      9          1           0       -2.070736    1.442689    0.743763
     10          1           0       -2.179780   -1.041223   -1.136507
     11          1           0       -1.166045   -2.115101   -0.138113
     12          1           0       -2.390143   -1.080816    0.634223
     13          1           0        1.685534   -0.174168    0.709497
     14          1           0        0.288139    0.700855    1.882120
     15          1           0        0.164054   -1.127766    1.725636
     16          1           0        0.793390   -1.077704   -1.318262
     17          1           0        0.851586    0.754769   -1.513341
     18          1           0        2.752978    0.867527   -0.101873
 ---------------------------------------------------------------------

 SCF Done:  E(RHF) =  -271.114099532     A.U. after    2 cycles

 The electronic state is 1-A.
 Alpha  occ. eigenvalues --  -20.51980 -11.36103 -11.26522 -11.24103 -11.24071
 Alpha  occ. eigenvalues --  -11.18967  -1.23220  -1.12133  -0.95571  -0.94199
 Alpha  occ. eigenvalues --   -0.88911  -0.75285  -0.67554  -0.64730  -0.62773
 Alpha  occ. eigenvalues --   -0.60444  -0.57964  -0.55899  -0.54328  -0.52666
 Alpha  occ. eigenvalues --   -0.51719  -0.48720  -0.47531  -0.43106  -0.30587
 Alpha virt. eigenvalues --    0.02644   0.04014   0.04272   0.04803   0.06313
 Alpha virt. eigenvalues --    0.06337   0.06534   0.06944   0.07578   0.08422
 Alpha virt. eigenvalues --    0.09158   0.09527   0.10729   0.12282   0.13804

 Mulliken charges:
               1
     1  C    0.708524
     2  C   -1.513166
     3  C    0.737104
     4  C    0.190256
     5  C    0.873046
     6  O   -0.705757
     7  H   -0.001780
     8  H   -0.049587
     9  H    0.002617
    10  H   -0.008876
    11  H   -0.077106
    12  H    0.019824
    13  H    0.517290
    14  H   -0.190228
    15  H   -0.184133
    16  H   -0.208424
    17  H   -0.260395
    18  H    0.150791
 Sum of Mulliken charges =  -0.00000

 Dipole moment (field-independent basis, Debye):
    X=             -3.0404    Y=              1.3395    Z=             -2.1495  Tot=              3.9571

 Test job not archived.
 1\1\GINC-SE174\SP\RHF\Aug-CC-pVDZ\C5H12O1\OHZDE\09-Apr-2025\0\\#t hf a
 ug-cc-pvdz iop(5/13=1,5/36=2,99/5=2) pseudo=read geom=check guess=(rea
 d,tcheck) scf=(maxcycle=1)\\title\\0,1\C,0,-1.31935172,1.03754496,-0.4
 1821678\C,0,-0.31341684,-0.10413923,-0.22431934\C,0,-0.75162093,-1.341
 37675,-1.02388571\C,0,0.04218707,-0.39132771,1.25232132\C,0,1.09019083
 ,0.30093365,-0.49020305\O,0,2.45017385,0.53244333,1.14637333\H,0,-1.40
 655343,1.31162316,-1.48170807\H,0,-1.02314656,1.93481225,0.14365028\H,
 0,-2.31191228,0.72625266,-0.06283879\H,0,-0.83707253,-1.11643641,-2.09

 Normal termination of Gaussian 16 at Wed Apr  9 14:15:41 2025.
