 Gaussian 16, Revision C.01,

 ----------------------------------------------------------------------
 #t hf aug-cc-pvdz symm=none int=(grid=ultrafine) guess=(read,tcheck) s
 table=(opt,rrhf)
 ----------------------------------------------------------------------
 -----
 title
 -----
 Symbolic Z-matrix:
 Charge =  0 Multiplicity = 1

 SCF Done:  E(RHF) =  -358.437673410     A.U. after   16 cycles
 Normal termination of Gaussian 16 at Wed Apr  9 03:28:03 2025.
 Gaussian 16:  ES64L-G16RevC.01  3-Jul-2019

 ----------------------------------------------------------------------
 #t hf aug-cc-pvdz iop(5/13=1,5/36=2,99/5=2) pseudo=read geom=check gue
 ss=(read,tcheck) scf=(maxcycle=1)
 ----------------------------------------------------------------------
 -----
 title
 -----
 Structure from the checkpoint file:  "Grambow2020_wb97xd3_006756_reverse_mol2.chk"
 Charge =  0 Multiplicity = 1

                         Standard orientation:
 ---------------------------------------------------------------------
 Center     Atomic      Atomic             Coordinates (Angstroms)
 Number     Number       Type             X           Y           Z
 ---------------------------------------------------------------------
      1          8           0        1.469499   -1.588756   -0.048402
      2          6           0        1.565239   -0.377129    0.033265
      3          6           0        0.481513    0.558734   -0.007087
      4          8           0        0.671519    1.912901    0.114653
      5          7           0       -0.769271    0.135912   -0.052374
      6          6           0       -2.040655    0.293660   -0.059661
      7          6           0       -1.564903   -1.091200    0.053081
      8          1           0        2.550908    0.116641    0.148498
      9          1           0        0.863328    2.297056   -0.744522
     10          1           0       -2.755663    1.074106    0.115278
     11          1           0       -1.506354   -1.595130    1.015387
     12          1           0       -1.542628   -1.741611   -0.815624
 ---------------------------------------------------------------------

 SCF Done:  E(RHF) =  -358.549319878     A.U. after    2 cycles

 The electronic state is 1-A.
 Alpha  occ. eigenvalues --  -20.60572 -20.53229 -15.75820 -11.32810 -11.32750
 Alpha  occ. eigenvalues --  -11.31250 -11.31159  -1.38557  -1.33985  -1.32162
 Alpha  occ. eigenvalues --   -1.07147  -0.91930  -0.87437  -0.79374  -0.75983
 Alpha  occ. eigenvalues --   -0.70069  -0.69378  -0.65077  -0.62414  -0.59171
 Alpha  occ. eigenvalues --   -0.55366  -0.54050  -0.51366  -0.49763  -0.42227
 Alpha  occ. eigenvalues --   -0.27865
 Alpha virt. eigenvalues --    0.02751   0.03609   0.04398   0.04677   0.06423
 Alpha virt. eigenvalues --    0.06707   0.09400   0.10967   0.11129   0.11353
 Alpha virt. eigenvalues --    0.12556   0.13455   0.14279   0.14577   0.16007

 Mulliken charges:
               1
     1  O   -0.546362
     2  C    0.561095
     3  C    0.348666
     4  O   -0.515505
     5  N   -0.011580
     6  C    0.017179
     7  C    0.862853
     8  H   -0.147859
     9  H    0.139833
    10  H   -0.286675
    11  H   -0.236212
    12  H   -0.185434
 Sum of Mulliken charges =  -0.00000

 Dipole moment (field-independent basis, Debye):
    X=             -3.1951    Y=              2.4979    Z=             -0.9502  Tot=              4.1655

 Test job not archived.
 1\1\GINC-SE419\SP\RHF\Aug-CC-pVDZ\C4H5N1O2\OHZDE\09-Apr-2025\0\\#t hf
 aug-cc-pvdz iop(5/13=1,5/36=2,99/5=2) pseudo=read geom=check guess=(re
 ad,tcheck) scf=(maxcycle=1)\\title\\0,1\O,0,1.592913,1.37714102,0.9806
 7299\C,0,1.71967293,0.22284872,0.61268333\C,0,0.68849351,-0.60391926,0
 .06036631\O,0,0.91855797,-1.89276901,-0.35270309\N,0,-0.5133772,-0.109
 47512,-0.1769546\C,0,-1.71779222,-0.16318069,-0.61037806\C,0,-1.242319
 25,1.16264575,-0.1944488\H,0,2.69376074,-0.30122231,0.68432671\H,0,0.8
 2598205,-2.49738316,0.38785089\H,0,-2.33177679,-0.81427643,-1.20201337

 Normal termination of Gaussian 16 at Wed Apr  9 03:28:07 2025.
