 Gaussian 16, Revision C.01,

 ----------------------------------------------------------------------
 #t hf aug-cc-pvdz symm=none int=(grid=ultrafine) guess=(read,tcheck) s
 table=(opt,rrhf)
 ----------------------------------------------------------------------
 -----
 title
 -----
 Symbolic Z-matrix:
 Charge =  0 Multiplicity = 1

 SCF Done:  E(RHF) =  -359.631839575     A.U. after   15 cycles
 Normal termination of Gaussian 16 at Wed Apr  9 15:40:00 2025.
 Gaussian 16:  ES64L-G16RevC.01  3-Jul-2019

 ----------------------------------------------------------------------
 #t hf aug-cc-pvdz iop(5/13=1,5/36=2,99/5=2) pseudo=read geom=check gue
 ss=(read,tcheck) scf=(maxcycle=1)
 ----------------------------------------------------------------------
 -----
 title
 -----
 Structure from the checkpoint file:  "Grambow2020_wb97xd3_007283_forward_mol1.chk"
 Charge =  0 Multiplicity = 1

                         Standard orientation:
 ---------------------------------------------------------------------
 Center     Atomic      Atomic             Coordinates (Angstroms)
 Number     Number       Type             X           Y           Z
 ---------------------------------------------------------------------
      1          8           0       -1.604624   -1.213186   -0.151870
      2          6           0       -0.454884   -0.660690    0.404986
      3          6           0        0.828868   -1.220850   -0.188189
      4          7           0        1.807281   -0.146870    0.034860
      5          6           0        1.011200    1.207447    0.001179
      6          6           0       -0.356133    0.843525    0.069990
      7          8           0       -1.369551    1.500444   -0.095653
      8          1           0       -2.199377   -0.460409   -0.293415
      9          1           0       -0.458225   -0.776922    1.499836
     10          1           0        1.167554   -2.155306    0.257006
     11          1           0        0.675196   -1.350927   -1.264835
     12          1           0        2.633332   -0.137797   -0.542701
     13          1           0        1.435778    1.997594   -0.596758
     14          1           0        1.713865    0.597200    0.949235
 ---------------------------------------------------------------------

 SCF Done:  E(RHF) =  -359.741221180     A.U. after    2 cycles

 The electronic state is 1-A.
 Alpha  occ. eigenvalues --  -20.57632 -20.53908 -15.70228 -11.33175 -11.30644
 Alpha  occ. eigenvalues --  -11.30165 -11.25812  -1.35693  -1.31667  -1.26127
 Alpha  occ. eigenvalues --   -1.02699  -0.99579  -0.84705  -0.78353  -0.76169
 Alpha  occ. eigenvalues --   -0.70036  -0.68343  -0.66734  -0.62247  -0.59951
 Alpha  occ. eigenvalues --   -0.59740  -0.55344  -0.53669  -0.49501  -0.47228
 Alpha  occ. eigenvalues --   -0.41491  -0.32843
 Alpha virt. eigenvalues --    0.02031   0.03509   0.04168   0.04948   0.06563
 Alpha virt. eigenvalues --    0.07142   0.07514   0.09761   0.10895   0.12304
 Alpha virt. eigenvalues --    0.13122   0.13271   0.14426   0.14914   0.15052

 Mulliken charges:
               1
     1  O   -0.589505
     2  C    0.254668
     3  C    0.828742
     4  N   -0.644831
     5  C    0.508519
     6  C    0.194582
     7  O   -0.601857
     8  H    0.188043
     9  H   -0.043014
    10  H   -0.104257
    11  H   -0.118191
    12  H   -0.028194
    13  H   -0.292733
    14  H    0.448028
 Sum of Mulliken charges =  -0.00000

 Dipole moment (field-independent basis, Debye):
    X=              5.6026    Y=             -2.1862    Z=             -0.1631  Tot=              6.0162

 Test job not archived.
 1\1\GINC-SE220\SP\RHF\Aug-CC-pVDZ\C4H7N1O2\OHZDE\09-Apr-2025\0\\#t hf
 aug-cc-pvdz iop(5/13=1,5/36=2,99/5=2) pseudo=read geom=check guess=(re
 ad,tcheck) scf=(maxcycle=1)\\title\\0,1\O,0,2.19248131,-0.00945308,0.1
 8640425\C,0,0.81772231,0.00645284,0.40326413\C,0,0.12154177,1.19529858
 ,-0.24143376\N,0,-1.25542566,0.72073844,-0.4394991\C,0,-1.17330773,-0.
 83262592,-0.66169818\C,0,0.14329452,-1.19841672,-0.28816488\O,0,0.7583
 5714,-2.24027719,-0.43723256\H,0,2.39986796,-0.93171251,-0.03008833\H,
 0,0.59315264,-0.03611425,1.48028498\H,0,0.13743728,2.1094262,0.3503710

 Normal termination of Gaussian 16 at Wed Apr  9 15:40:05 2025.
