 Gaussian 16, Revision C.01,

 ----------------------------------------------------------------------
 #t hf aug-cc-pvdz symm=none int=(grid=ultrafine) guess=(read,tcheck) s
 table=(opt,rrhf)
 ----------------------------------------------------------------------
 -----
 title
 -----
 Symbolic Z-matrix:
 Charge =  0 Multiplicity = 1

 SCF Done:  E(RHF) =  -269.640362033     A.U. after   15 cycles
 Normal termination of Gaussian 16 at Wed Apr  9 16:45:08 2025.
 Gaussian 16:  ES64L-G16RevC.01  3-Jul-2019

 ----------------------------------------------------------------------
 #t hf aug-cc-pvdz iop(5/13=1,5/36=2,99/5=2) pseudo=read geom=check gue
 ss=(read,tcheck) scf=(maxcycle=1)
 ----------------------------------------------------------------------
 -----
 title
 -----
 Structure from the checkpoint file:  "Grambow2020_wb97xd3_008707_reverse_mol2.chk"
 Charge =  0 Multiplicity = 1

                         Standard orientation:
 ---------------------------------------------------------------------
 Center     Atomic      Atomic             Coordinates (Angstroms)
 Number     Number       Type             X           Y           Z
 ---------------------------------------------------------------------
      1          6           0       -1.161782    1.811788   -0.159657
      2          6           0       -0.677155    0.399033    0.063842
      3          6           0        2.860570   -0.448402   -0.472412
      4          6           0        0.575783    0.114369    0.321620
      5          6           0        1.822505   -0.150328    0.571872
      6          6           0       -1.653060   -0.650444   -0.010809
      7          6           0       -2.503276   -1.492977   -0.083603
      8          1           0       -1.912729    2.075997    0.587515
      9          1           0       -1.627377    1.902922   -1.142768
     10          1           0       -0.334073    2.515933   -0.093114
     11          1           0        2.426563   -0.439556   -1.471286
     12          1           0        3.308826   -1.428909   -0.297777
     13          1           0        3.665071    0.289810   -0.436692
     14          1           0        2.139857   -0.163438    1.612421
     15          1           0       -3.247659   -2.250987   -0.143426
 ---------------------------------------------------------------------

 SCF Done:  E(RHF) =  -269.727377307     A.U. after    2 cycles

 The electronic state is 1-A.
 Alpha  occ. eigenvalues --  -11.27488 -11.26300 -11.25736 -11.24807 -11.24235
 Alpha  occ. eigenvalues --  -11.24072 -11.23564  -1.11472  -1.05286  -1.00099
 Alpha  occ. eigenvalues --   -0.94013  -0.88212  -0.76524  -0.69677  -0.66912
 Alpha  occ. eigenvalues --   -0.60226  -0.59276  -0.57652  -0.57336  -0.55007
 Alpha  occ. eigenvalues --   -0.53435  -0.44697  -0.39936  -0.37272  -0.33540
 Alpha virt. eigenvalues --    0.03324   0.03888   0.04464   0.04828   0.05824
 Alpha virt. eigenvalues --    0.06603   0.07217   0.07247   0.10343   0.10619
 Alpha virt. eigenvalues --    0.10894   0.11960   0.12330   0.12622   0.13418

 Mulliken charges:
               1
     1  C    0.190816
     2  C    0.094583
     3  C    0.285984
     4  C   -0.588656
     5  C    0.553180
     6  C   -0.732827
     7  C    0.985274
     8  H    0.113984
     9  H    0.121662
    10  H   -0.039445
    11  H   -0.147609
    12  H    0.023801
    13  H    0.023097
    14  H   -0.333245
    15  H   -0.550600
 Sum of Mulliken charges =  -0.00000

 Dipole moment (field-independent basis, Debye):
    X=              0.9894    Y=              0.4219    Z=             -0.0759  Tot=              1.0783

 Test job not archived.
 1\1\GINC-SE424\SP\RHF\Aug-CC-pVDZ\C7H8\OHZDE\09-Apr-2025\0\\#t hf aug-
 cc-pvdz iop(5/13=1,5/36=2,99/5=2) pseudo=read geom=check guess=(read,t
 check) scf=(maxcycle=1)\\title\\0,1\C,0,-0.6897752,-0.74824843,-1.9148
 3635\C,0,0.06743812,0.1173017,-0.93598969\C,0,-0.22852458,-0.4865678,2
 .6791118\C,0,0.36499474,-0.28136399,0.27638935\C,0,0.64783516,-0.69085
 326,1.47610796\C,0,0.46715594,1.42090465,-1.38344042\C,0,0.77915532,2.
 50078155,-1.80123139\H,0,-0.08309266,-0.93265324,-2.80361319\H,0,-1.60
 43396,-0.24696337,-2.23713617\H,0,-0.95031053,-1.70276141,-1.46054878\

 Normal termination of Gaussian 16 at Wed Apr  9 16:45:12 2025.
