 Gaussian 16, Revision C.01,

 ----------------------------------------------------------------------
 #t hf aug-cc-pvdz symm=none int=(grid=ultrafine) guess=(read,tcheck) s
 table=(opt,rrhf)
 ----------------------------------------------------------------------
 -----
 title
 -----
 Symbolic Z-matrix:
 Charge =  0 Multiplicity = 1

 SCF Done:  E(RHF) =  -359.655792528     A.U. after   16 cycles
 Normal termination of Gaussian 16 at Wed Apr  9 15:41:00 2025.
 Gaussian 16:  ES64L-G16RevC.01  3-Jul-2019

 ----------------------------------------------------------------------
 #t hf aug-cc-pvdz iop(5/13=1,5/36=2,99/5=2) pseudo=read geom=check gue
 ss=(read,tcheck) scf=(maxcycle=1)
 ----------------------------------------------------------------------
 -----
 title
 -----
 Structure from the checkpoint file:  "Grambow2020_wb97xd3_007288_forward_mol1.chk"
 Charge =  0 Multiplicity = 1

                         Standard orientation:
 ---------------------------------------------------------------------
 Center     Atomic      Atomic             Coordinates (Angstroms)
 Number     Number       Type             X           Y           Z
 ---------------------------------------------------------------------
      1          8           0       -1.231391    1.307712    0.469611
      2          6           0       -0.284259    0.888059   -0.408167
      3          6           0        1.203518    1.016167    0.014376
      4          7           0        1.739340   -0.339313   -0.176932
      5          6           0        0.712297   -1.270059    0.262301
      6          6           0       -0.507331   -0.551830   -0.159522
      7          8           0       -1.679513   -1.057110   -0.134305
      8          1           0       -2.235161   -0.225489   -0.123167
      9          1           0       -0.412026    1.192236   -1.466284
     10          1           0        1.758705    1.729214   -0.593675
     11          1           0        1.208486    1.347754    1.060213
     12          1           0        2.624242   -0.485231    0.284808
     13          1           0        0.643624   -1.428937    1.351957
     14          1           0        0.778632   -2.253196   -0.211703
 ---------------------------------------------------------------------

 SCF Done:  E(RHF) =  -359.764808428     A.U. after    2 cycles

 The electronic state is 1-A.
 Alpha  occ. eigenvalues --  -20.67595 -20.46748 -15.63824 -11.41394 -11.31282
 Alpha  occ. eigenvalues --  -11.28747 -11.26459  -1.46857  -1.25495  -1.20669
 Alpha  occ. eigenvalues --   -1.02803  -0.97852  -0.85057  -0.84858  -0.74829
 Alpha  occ. eigenvalues --   -0.73301  -0.68389  -0.64552  -0.63335  -0.61882
 Alpha  occ. eigenvalues --   -0.57206  -0.54402  -0.54103  -0.51607  -0.39606
 Alpha  occ. eigenvalues --   -0.37923  -0.37205
 Alpha virt. eigenvalues --    0.02655   0.03760   0.04093   0.04908   0.06277
 Alpha virt. eigenvalues --    0.06748   0.07079   0.07677   0.09916   0.11273
 Alpha virt. eigenvalues --    0.12703   0.13238   0.13549   0.14376   0.14727

 Mulliken charges:
               1
     1  O   -0.951880
     2  C    0.428107
     3  C    0.878348
     4  N   -0.635632
     5  C    0.730153
     6  C   -0.011805
     7  O   -0.515233
     8  H    0.255627
     9  H   -0.029331
    10  H   -0.163870
    11  H   -0.055874
    12  H   -0.022011
    13  H    0.124134
    14  H   -0.030734
 Sum of Mulliken charges =  -0.00000

 Dipole moment (field-independent basis, Debye):
    X=              3.0115    Y=             -3.7918    Z=             -0.9440  Tot=              4.9333

 Test job not archived.
 1\1\GINC-SE100\SP\RHF\Aug-CC-pVDZ\C4H7N1O2\OHZDE\09-Apr-2025\0\\#t hf
 aug-cc-pvdz iop(5/13=1,5/36=2,99/5=2) pseudo=read geom=check guess=(re
 ad,tcheck) scf=(maxcycle=1)\\title\\0,1\O,0,2.07018136,-0.11159659,-0.
 36688808\C,0,0.9704928,0.24226672,0.34664368\C,0,0.06042906,1.35919229
 ,-0.23015451\N,0,-1.27664924,0.74840942,-0.24414686\C,0,-1.10904321,-0
 .63606665,-0.65544491\C,0,0.18667256,-0.95529332,-0.02259797\O,0,0.683
 69487,-2.12980565,0.03610011\H,0,1.64964253,-1.91106914,0.17596399\H,0
 ,1.10450716,0.37959544,1.43826694\H,0,0.05528248,2.26140756,0.38007168

 Normal termination of Gaussian 16 at Wed Apr  9 15:41:05 2025.
