 Gaussian 16, Revision C.01,

 ----------------------------------------------------------------------
 #t hf aug-cc-pvdz symm=none int=(grid=ultrafine) guess=(read,tcheck) s
 table=(opt,rrhf)
 ----------------------------------------------------------------------
 -----
 title
 -----
 Symbolic Z-matrix:
 Charge =  0 Multiplicity = 1

 SCF Done:  E(RHF) =  -271.926409305     A.U. after   15 cycles
 Normal termination of Gaussian 16 at Wed Apr  9 15:53:26 2025.
 Gaussian 16:  ES64L-G16RevC.01  3-Jul-2019

 ----------------------------------------------------------------------
 #t hf aug-cc-pvdz iop(5/13=1,5/36=2,99/5=2) pseudo=read geom=check gue
 ss=(read,tcheck) scf=(maxcycle=1)
 ----------------------------------------------------------------------
 -----
 title
 -----
 Structure from the checkpoint file:  "Grambow2020_wb97xd3_007428_forward_mol1.chk"
 Charge =  0 Multiplicity = 1

                         Standard orientation:
 ---------------------------------------------------------------------
 Center     Atomic      Atomic             Coordinates (Angstroms)
 Number     Number       Type             X           Y           Z
 ---------------------------------------------------------------------
      1          6           0        2.656943    0.171148   -0.178630
      2          6           0        1.399106   -0.684371   -0.093985
      3          6           0        0.250337    0.041491    0.592425
      4          6           0       -0.410252    1.223709   -0.159379
      5          6           0       -1.803363    0.612316   -0.080966
      6          6           0       -1.671814   -0.808806   -0.573650
      7          6           0       -1.022930   -0.838023    0.779402
      8          1           0        3.464630   -0.357930   -0.687032
      9          1           0        3.012536    0.446833    0.816876
     10          1           0        2.469883    1.096641   -0.729518
     11          1           0        1.103427   -0.995369   -1.100259
     12          1           0        1.612357   -1.604533    0.459667
     13          1           0        0.602869    0.369886    1.573342
     14          1           0       -0.069194    1.384463   -1.185922
     15          1           0       -0.317100    2.164699    0.381396
     16          1           0       -2.744261    1.136634   -0.228443
     17          1           0       -2.602033   -1.363281   -0.652178
     18          1           0       -1.046760   -0.912289   -1.455606
     19          1           0       -1.874518    0.329460    1.096372
 ---------------------------------------------------------------------

 SCF Done:  E(RHF) =  -272.007122826     A.U. after    2 cycles

 The electronic state is 1-A.
 Alpha  occ. eigenvalues --  -11.27341 -11.25241 -11.24168 -11.23545 -11.23494
 Alpha  occ. eigenvalues --  -11.23059 -11.22509  -1.17832  -1.04577  -0.96408
 Alpha  occ. eigenvalues --   -0.91459  -0.82463  -0.81557  -0.72370  -0.66575
 Alpha  occ. eigenvalues --   -0.62305  -0.60492  -0.59613  -0.55739  -0.53030
 Alpha  occ. eigenvalues --   -0.51425  -0.51114  -0.49729  -0.47258  -0.45730
 Alpha  occ. eigenvalues --   -0.43610  -0.31939
 Alpha virt. eigenvalues --    0.03198   0.03957   0.04190   0.04853   0.05944
 Alpha virt. eigenvalues --    0.06245   0.06641   0.07066   0.07289   0.08673
 Alpha virt. eigenvalues --    0.09244   0.09769   0.11498   0.12624   0.13156

 Mulliken charges:
               1
     1  C    0.474467
     2  C    0.389156
     3  C   -0.293072
     4  C    0.697993
     5  C    0.005006
     6  C    1.000274
     7  C   -0.632223
     8  H   -0.067163
     9  H   -0.059352
    10  H   -0.098267
    11  H   -0.135768
    12  H   -0.100661
    13  H   -0.332856
    14  H   -0.276223
    15  H   -0.166465
    16  H   -0.273896
    17  H   -0.276348
    18  H   -0.254523
    19  H    0.399922
 Sum of Mulliken charges =  -0.00000

 Dipole moment (field-independent basis, Debye):
    X=              0.1900    Y=              1.8362    Z=             -1.7394  Tot=              2.5364

 Test job not archived.
 1\1\GINC-SE129\SP\RHF\Aug-CC-pVDZ\C7H12\OHZDE\09-Apr-2025\0\\#t hf aug
 -cc-pvdz iop(5/13=1,5/36=2,99/5=2) pseudo=read geom=check guess=(read,
 tcheck) scf=(maxcycle=1)\\title\\0,1\C,0,2.36691084,0.3953137,-0.70767
 35\C,0,1.11450771,-0.46691226,-0.80403064\C,0,0.27336765,-0.4098258,0.
 46361658\C,0,-0.46694625,0.91313861,0.78130354\C,0,-1.82914299,0.23601
 644,0.86275901\C,0,-1.96582072,-0.59522141,-0.39023408\C,0,-0.9670263,
 -1.35337839,0.434545\H,0,2.94940846,0.35546716,-1.62955342\H,0,3.01120
 012,0.06270561,0.10948277\H,0,2.11336892,1.44231402,-0.52189488\H,0,0.

 Normal termination of Gaussian 16 at Wed Apr  9 15:53:33 2025.
