 Gaussian 16, Revision C.01,

 ----------------------------------------------------------------------
 #t hf aug-cc-pvdz symm=none int=(grid=ultrafine) guess=(read,tcheck) s
 table=(opt,rrhf)
 ----------------------------------------------------------------------
 -----
 title
 -----
 Symbolic Z-matrix:
 Charge =  0 Multiplicity = 1

 SCF Done:  E(RHF) =  -358.367644881     A.U. after   16 cycles
 Normal termination of Gaussian 16 at Wed Apr  9 03:28:37 2025.
 Gaussian 16:  ES64L-G16RevC.01  3-Jul-2019

 ----------------------------------------------------------------------
 #t hf aug-cc-pvdz iop(5/13=1,5/36=2,99/5=2) pseudo=read geom=check gue
 ss=(read,tcheck) scf=(maxcycle=1)
 ----------------------------------------------------------------------
 -----
 title
 -----
 Structure from the checkpoint file:  "Grambow2020_wb97xd3_006792_reverse_mol1.chk"
 Charge =  0 Multiplicity = 1

                         Standard orientation:
 ---------------------------------------------------------------------
 Center     Atomic      Atomic             Coordinates (Angstroms)
 Number     Number       Type             X           Y           Z
 ---------------------------------------------------------------------
      1          8           0       -2.299385   -1.128292    0.097596
      2          6           0       -1.734649   -0.091246    0.215416
      3          6           0       -0.653592    0.625996   -0.299288
      4          6           0        0.401356    1.505966    0.235078
      5          7           0        0.666946    0.344477   -0.602618
      6          6           0        1.430929   -0.760880   -0.242096
      7          8           0        2.431448   -0.686953    0.410136
      8          1           0       -2.468251    0.981126    0.596072
      9          1           0       -2.214866    1.267478   -0.287997
     10          1           0        0.673312    1.412224    1.281841
     11          1           0        0.585536    2.468639   -0.224944
     12          1           0        1.034883   -1.697866   -0.663164
 ---------------------------------------------------------------------

 SCF Done:  E(RHF) =  -358.479664631     A.U. after    2 cycles

 The electronic state is 1-A.
 Alpha  occ. eigenvalues --  -20.58884 -20.58542 -15.69136 -11.40983 -11.39440
 Alpha  occ. eigenvalues --  -11.34391 -11.32834  -1.40044  -1.39476  -1.31702
 Alpha  occ. eigenvalues --   -1.05115  -0.99219  -0.85415  -0.78473  -0.74265
 Alpha  occ. eigenvalues --   -0.71016  -0.69984  -0.68516  -0.61595  -0.58581
 Alpha  occ. eigenvalues --   -0.56922  -0.55932  -0.49360  -0.47565  -0.46063
 Alpha  occ. eigenvalues --   -0.35906
 Alpha virt. eigenvalues --    0.02392   0.04100   0.04426   0.04754   0.06917
 Alpha virt. eigenvalues --    0.06992   0.08964   0.09220   0.09917   0.10099
 Alpha virt. eigenvalues --    0.12146   0.13191   0.13851   0.14143   0.14892

 Mulliken charges:
               1
     1  O   -0.395202
     2  C    0.047950
     3  C    0.020141
     4  C    0.872889
     5  N   -0.646843
     6  C    0.705880
     7  O   -0.430694
     8  H    0.102324
     9  H    0.329548
    10  H   -0.218424
    11  H   -0.218390
    12  H   -0.169180
 Sum of Mulliken charges =  -0.00000

 Dipole moment (field-independent basis, Debye):
    X=             -1.2982    Y=              3.5755    Z=             -0.2659  Tot=              3.8132

 Test job not archived.
 1\1\GINC-SE150\SP\RHF\Aug-CC-pVDZ\C4H5N1O2\OHZDE\09-Apr-2025\0\\#t hf
 aug-cc-pvdz iop(5/13=1,5/36=2,99/5=2) pseudo=read geom=check guess=(re
 ad,tcheck) scf=(maxcycle=1)\\title\\0,1\O,0,2.13978363,-1.47306844,-0.
 2471269\C,0,1.59669378,-0.4395802,-0.03445911\C,0,0.4379806,0.08504315
 ,0.54016604\C,0,-0.5148507,1.16752568,0.23495097\N,0,-0.91311482,-0.21
 006468,0.48982476\C,0,-1.59557608,-1.03683082,-0.39683413\O,0,-2.46881
 2,-0.65189371,-1.11877088\H,0,2.37755215,0.64847471,0.1641592\H,0,1.97
 320522,0.58163395,1.03583274\H,0,-0.60115219,1.50745607,-0.7924039\H,0

 Normal termination of Gaussian 16 at Wed Apr  9 03:28:41 2025.
