 Gaussian 16, Revision C.01,

 ----------------------------------------------------------------------
 #t hf aug-cc-pvdz symm=none int=(grid=ultrafine) guess=(read,tcheck) s
 table=(opt,rrhf)
 ----------------------------------------------------------------------
 -----
 title
 -----
 Symbolic Z-matrix:
 Charge =  0 Multiplicity = 1

 SCF Done:  E(RHF) =  -309.062982702     A.U. after   12 cycles

 1\1\GINC-SE173\Stability\RHF\Aug-CC-pVDZ\C6H12O1\OHZDE\09-Apr-2025\0\\
 #t hf aug-cc-pvdz symm=none int=(grid=ultrafine) guess=(read,tcheck) s
 table=(opt,rrhf)\\title\\0,1\C,0,2.42918864,0.12586881,-0.15763839\C,0
 ,1.05117607,-0.33610183,0.27108002\O,0,1.15946086,-0.76282209,1.622721
 71\C,0,0.02185978,0.75633784,0.12949064\C,0,-0.73126466,0.93345643,-1.
 15601263\C,0,-1.45602283,0.46755267,0.07211733\C,0,-2.02862089,-0.9261
 1572,0.15117183\H,0,2.42249227,0.42133266,-1.20798986\H,0,3.15701496,-
 0.67451324,-0.02097978\H,0,2.74307051,0.98061902,0.44482699\H,0,0.7601

 Normal termination of Gaussian 16 at Wed Apr  9 15:54:19 2025.
 Gaussian 16:  ES64L-G16RevC.01  3-Jul-2019

 ----------------------------------------------------------------------
 #t hf aug-cc-pvdz iop(5/13=1,5/36=2,99/5=2) pseudo=read geom=check gue
 ss=(read,tcheck) scf=(maxcycle=1)
 ----------------------------------------------------------------------
 -----
 title
 -----
 Structure from the checkpoint file:  "Grambow2020_wb97xd3_007568_forward_mol2.chk"
 Charge =  0 Multiplicity = 1

                         Standard orientation:
 ---------------------------------------------------------------------
 Center     Atomic      Atomic             Coordinates (Angstroms)
 Number     Number       Type             X           Y           Z
 ---------------------------------------------------------------------
      1          6           0        2.264369   -0.626508    0.315234
      2          6           0        0.987599    0.186149    0.240520
      3          8           0        1.324598    1.433053   -0.353123
      4          6           0       -0.082930   -0.519034   -0.552986
      5          6           0       -1.038050   -1.459442    0.121154
      6          6           0       -1.541584   -0.159871   -0.434015
      7          6           0       -2.052533    0.926324    0.480064
      8          1           0        2.079965   -1.581478    0.809813
      9          1           0        3.028043   -0.082587    0.871983
     10          1           0        2.645719   -0.820040   -0.689356
     11          1           0        0.624300    0.355197    1.264102
     12          1           0        0.510355    1.910919   -0.522697
     13          1           0        0.247504   -0.798953   -1.548740
     14          1           0       -0.970833   -1.538052    1.200860
     15          1           0       -1.299598   -2.383676   -0.376612
     16          1           0       -2.095422   -0.241349   -1.363187
     17          1           0       -1.472217    0.993299    1.401486
     18          1           0       -3.088859    0.730934    0.763152
     19          1           0       -2.026960    1.905656   -0.005652
 ---------------------------------------------------------------------

 SCF Done:  E(RHF) =  -309.161140569     A.U. after    2 cycles

 The electronic state is 1-A.
 Alpha  occ. eigenvalues --  -20.56344 -11.28651 -11.24331 -11.23549 -11.23430
 Alpha  occ. eigenvalues --  -11.23422 -11.21823  -1.31918  -1.14795  -1.01386
 Alpha  occ. eigenvalues --   -0.96508  -0.86436  -0.80474  -0.76595  -0.71347
 Alpha  occ. eigenvalues --   -0.66439  -0.64131  -0.59627  -0.57514  -0.55645
 Alpha  occ. eigenvalues --   -0.55263  -0.53428  -0.52984  -0.50719  -0.49486
 Alpha  occ. eigenvalues --   -0.44401  -0.41727  -0.40390
 Alpha virt. eigenvalues --    0.03353   0.04277   0.04300   0.04601   0.06163
 Alpha virt. eigenvalues --    0.06357   0.06500   0.06927   0.07492   0.08866
 Alpha virt. eigenvalues --    0.08986   0.09871   0.12703   0.13283   0.13969

 Mulliken charges:
               1
     1  C    0.570168
     2  C    0.313661
     3  O   -0.613398
     4  C    0.068104
     5  C    0.769700
     6  C    0.157046
     7  C    0.450295
     8  H    0.014239
     9  H   -0.014457
    10  H    0.023307
    11  H   -0.224750
    12  H    0.148746
    13  H   -0.466260
    14  H   -0.342671
    15  H   -0.320945
    16  H   -0.378708
    17  H   -0.105043
    18  H   -0.007082
    19  H   -0.041951
 Sum of Mulliken charges =   0.00000

 Dipole moment (field-independent basis, Debye):
    X=             -1.8691    Y=             -0.7870    Z=              0.3312  Tot=              2.0549

 Test job not archived.
 1\1\GINC-SE173\SP\RHF\Aug-CC-pVDZ\C6H12O1\OHZDE\09-Apr-2025\0\\#t hf a
 ug-cc-pvdz iop(5/13=1,5/36=2,99/5=2) pseudo=read geom=check guess=(rea
 d,tcheck) scf=(maxcycle=1)\\title\\0,1\C,0,2.42918864,0.12586881,-0.15
 763839\C,0,1.05117607,-0.33610183,0.27108002\O,0,1.15946086,-0.7628220
 9,1.62272171\C,0,0.02185978,0.75633784,0.12949064\C,0,-0.73126466,0.93
 345643,-1.15601263\C,0,-1.45602283,0.46755267,0.07211733\C,0,-2.028620
 89,-0.92611572,0.15117183\H,0,2.42249227,0.42133266,-1.20798986\H,0,3.
 15701496,-0.67451324,-0.02097978\H,0,2.74307051,0.98061902,0.44482699\

 Normal termination of Gaussian 16 at Wed Apr  9 15:54:26 2025.
