 Gaussian 16, Revision C.01,

 ----------------------------------------------------------------------
 #t hf aug-cc-pvdz symm=none int=(grid=ultrafine) guess=(read,tcheck) s
 table=(opt,rrhf)
 ----------------------------------------------------------------------
 -----
 title
 -----
 Symbolic Z-matrix:
 Charge =  0 Multiplicity = 1

 SCF Done:  E(RHF) =  -309.099587204     A.U. after   14 cycles

 1\1\GINC-SE037\Stability\RHF\Aug-CC-pVDZ\C6H12O1\OHZDE\09-Apr-2025\0\\
 #t hf aug-cc-pvdz symm=none int=(grid=ultrafine) guess=(read,tcheck) s
 table=(opt,rrhf)\\title\\0,1\C,0,3.62006391,0.14588108,-0.14890351\C,0
 ,-0.32337061,-0.9820066,0.21779559\O,0,0.534997,-1.8105455,0.35930229\
 C,0,-0.09955141,0.51533793,0.06151384\C,0,-1.48813659,1.13557534,0.206
 83993\C,0,-2.43736039,0.05222687,-0.32848432\C,0,-1.81966609,-1.255130
 46,0.16509353\H,0,3.54166106,0.94161961,0.5916526\H,0,3.45016274,0.560
 09293,-1.14248018\H,0,4.61821925,-0.28776512,-0.10653371\H,0,2.8770608

 Normal termination of Gaussian 16 at Wed Apr  9 16:36:30 2025.
 Gaussian 16:  ES64L-G16RevC.01  3-Jul-2019

 ----------------------------------------------------------------------
 #t hf aug-cc-pvdz iop(5/13=1,5/36=2,99/5=2) pseudo=read geom=check gue
 ss=(read,tcheck) scf=(maxcycle=1)
 ----------------------------------------------------------------------
 -----
 title
 -----
 Structure from the checkpoint file:  "Grambow2020_wb97xd3_008676_reverse_mol2.chk"
 Charge =  0 Multiplicity = 1

                         Standard orientation:
 ---------------------------------------------------------------------
 Center     Atomic      Atomic             Coordinates (Angstroms)
 Number     Number       Type             X           Y           Z
 ---------------------------------------------------------------------
      1          6           0        3.785035   -0.388803    0.132307
      2          6           0       -0.171834    0.731538   -0.080520
      3          8           0        0.677618    1.578702   -0.144091
      4          6           0        0.066928   -0.771642   -0.080824
      5          6           0       -1.317461   -1.387460   -0.276317
      6          6           0       -2.270853   -0.374204    0.376062
      7          6           0       -1.669899    0.982948    0.013651
      8          1           0        3.706244   -1.105135   -0.685270
      9          1           0        3.628921   -0.904397    1.079632
     10          1           0        4.778795    0.056790    0.125528
     11          1           0        3.033115    0.390185    0.010691
     12          1           0        0.813549   -1.045118   -0.825451
     13          1           0        0.482198   -1.027544    0.899824
     14          1           0       -1.541129   -1.469819   -1.343793
     15          1           0       -1.405973   -2.385985    0.151391
     16          1           0       -2.263269   -0.506599    1.461812
     17          1           0       -3.302095   -0.490477    0.042865
     18          1           0       -1.884517    1.794357    0.708244
     19          1           0       -1.998282    1.309859   -0.978902
 ---------------------------------------------------------------------

 SCF Done:  E(RHF) =  -309.199033402     A.U. after    2 cycles

 The electronic state is 1-A.
 Alpha  occ. eigenvalues --  -20.55870 -11.33785 -11.24563 -11.24509 -11.24430
 Alpha  occ. eigenvalues --  -11.24357 -11.20577  -1.35499  -1.12539  -0.98901
 Alpha  occ. eigenvalues --   -0.93795  -0.92768  -0.81255  -0.73898  -0.67788
 Alpha  occ. eigenvalues --   -0.67654  -0.60915  -0.59720  -0.57636  -0.56708
 Alpha  occ. eigenvalues --   -0.53700  -0.53619  -0.53312  -0.51042  -0.49677
 Alpha  occ. eigenvalues --   -0.48990  -0.48415  -0.40771
 Alpha virt. eigenvalues --    0.03037   0.04095   0.04260   0.04577   0.05707
 Alpha virt. eigenvalues --    0.06433   0.06715   0.07011   0.07249   0.08611
 Alpha virt. eigenvalues --    0.09312   0.09932   0.11810   0.11960   0.13953

 Mulliken charges:
               1
     1  C    0.831052
     2  C    0.116499
     3  O   -0.558095
     4  C    0.028386
     5  C    0.354040
     6  C    0.428293
     7  C    0.130530
     8  H   -0.160612
     9  H   -0.152805
    10  H   -0.171431
    11  H   -0.321199
    12  H   -0.111991
    13  H   -0.023578
    14  H   -0.119546
    15  H   -0.056085
    16  H   -0.143644
    17  H   -0.071482
    18  H   -0.036107
    19  H    0.037775
 Sum of Mulliken charges =  -0.00000

 Dipole moment (field-independent basis, Debye):
    X=             -2.8157    Y=             -2.5134    Z=              0.1820  Tot=              3.7787

 Test job not archived.
 1\1\GINC-SE037\SP\RHF\Aug-CC-pVDZ\C6H12O1\OHZDE\09-Apr-2025\0\\#t hf a
 ug-cc-pvdz iop(5/13=1,5/36=2,99/5=2) pseudo=read geom=check guess=(rea
 d,tcheck) scf=(maxcycle=1)\\title\\0,1\C,0,3.62006391,0.14588108,-0.14
 890351\C,0,-0.32337061,-0.9820066,0.21779559\O,0,0.534997,-1.8105455,0
 .35930229\C,0,-0.09955141,0.51533793,0.06151384\C,0,-1.48813659,1.1355
 7534,0.20683993\C,0,-2.43736039,0.05222687,-0.32848432\C,0,-1.81966609
 ,-1.25513046,0.16509353\H,0,3.54166106,0.94161961,0.5916526\H,0,3.4501
 6274,0.56009293,-1.14248018\H,0,4.61821925,-0.28776512,-0.10653371\H,0

 Normal termination of Gaussian 16 at Wed Apr  9 16:36:37 2025.
