 Gaussian 16, Revision C.01,

 ----------------------------------------------------------------------
 #t hf aug-cc-pvdz symm=none int=(grid=ultrafine) guess=(read,tcheck) s
 table=(opt,rrhf)
 ----------------------------------------------------------------------
 -----
 title
 -----
 Symbolic Z-matrix:
 Charge =  0 Multiplicity = 1

 SCF Done:  E(RHF) =  -339.845141757     A.U. after   15 cycles
 Normal termination of Gaussian 16 at Wed Apr  9 15:35:04 2025.
 Gaussian 16:  ES64L-G16RevC.01  3-Jul-2019

 ----------------------------------------------------------------------
 #t hf aug-cc-pvdz iop(5/13=1,5/36=2,99/5=2) pseudo=read geom=check gue
 ss=(read,tcheck) scf=(maxcycle=1)
 ----------------------------------------------------------------------
 -----
 title
 -----
 Structure from the checkpoint file:  "Grambow2020_wb97xd3_006999_reverse_mol2.chk"
 Charge =  0 Multiplicity = 1

                         Standard orientation:
 ---------------------------------------------------------------------
 Center     Atomic      Atomic             Coordinates (Angstroms)
 Number     Number       Type             X           Y           Z
 ---------------------------------------------------------------------
      1          6           0       -2.449253   -0.320243    1.010183
      2          6           0       -1.470719    0.068516   -0.050415
      3          8           0       -1.683353    1.266981   -0.720719
      4          6           0        2.744643    0.952886    0.153870
      5          7           0        2.877215   -0.268159    0.440316
      6          6           0       -0.466283   -0.691148   -0.421888
      7          7           0        0.383387   -1.461782   -0.841886
      8          1           0       -3.460594   -0.359984    0.597019
      9          1           0       -2.451080    0.402820    1.833356
     10          1           0       -2.203991   -1.297193    1.425910
     11          1           0       -1.730589    1.971578   -0.069803
     12          1           0        1.880705    1.265704   -0.433227
     13          1           0        3.447801    1.733140    0.457053
     14          1           0        3.716985   -0.442208    0.988311
     15          1           0        1.293045   -1.360181   -0.372377
 ---------------------------------------------------------------------

 SCF Done:  E(RHF) =  -339.951726836     A.U. after    2 cycles

 The electronic state is 1-A.
 Alpha  occ. eigenvalues --  -20.59135 -15.64594 -15.62596 -11.31231 -11.29714
 Alpha  occ. eigenvalues --  -11.29080 -11.24212  -1.34599  -1.20226  -1.18975
 Alpha  occ. eigenvalues --   -1.03334  -0.91760  -0.85457  -0.74935  -0.71483
 Alpha  occ. eigenvalues --   -0.69713  -0.66531  -0.62312  -0.61753  -0.56743
 Alpha  occ. eigenvalues --   -0.55317  -0.52332  -0.50823  -0.46925  -0.45097
 Alpha  occ. eigenvalues --   -0.44492  -0.31233
 Alpha virt. eigenvalues --    0.02511   0.03598   0.04223   0.05838   0.06042
 Alpha virt. eigenvalues --    0.06482   0.07458   0.08679   0.09057   0.10764
 Alpha virt. eigenvalues --    0.12207   0.12668   0.13367   0.13900   0.14899

 Mulliken charges:
               1
     1  C    0.246291
     2  C    0.772063
     3  O   -0.620249
     4  C    0.638079
     5  N   -0.227479
     6  C   -0.416840
     7  N   -0.163137
     8  H    0.008041
     9  H   -0.029135
    10  H   -0.102134
    11  H    0.144827
    12  H   -0.255860
    13  H   -0.183040
    14  H   -0.001569
    15  H    0.190143
 Sum of Mulliken charges =  -0.00000

 Dipole moment (field-independent basis, Debye):
    X=              2.0400    Y=              2.9229    Z=              3.5053  Tot=              4.9992

 Test job not archived.
 1\1\GINC-SE009\SP\RHF\Aug-CC-pVDZ\C4H8N2O1\OHZDE\09-Apr-2025\0\\#t hf
 aug-cc-pvdz iop(5/13=1,5/36=2,99/5=2) pseudo=read geom=check guess=(re
 ad,tcheck) scf=(maxcycle=1)\\title\\0,1\C,0,1.33360683,2.20981563,0.60
 731738\C,0,1.31911703,0.71621953,0.55741019\O,0,1.693697,0.02567403,1.
 70356749\C,0,-1.9076358,-2.07905087,-0.04892988\N,0,-1.95534797,-1.605
 1987,-1.21673366\C,0,1.03582957,0.03106346,-0.52623279\N,0,0.89528161,
 -0.58699989,-1.57048238\H,0,2.32684824,2.57035459,0.88763115\H,0,0.618
 05784,2.58963608,1.34499173\H,0,1.06957502,2.63354777,-0.36126485\H,0,

 Normal termination of Gaussian 16 at Wed Apr  9 15:35:11 2025.
