 Gaussian 16, Revision C.01,

 ----------------------------------------------------------------------
 #t hf aug-cc-pvdz symm=none int=(grid=ultrafine) guess=(read,tcheck) s
 table=(opt,rrhf)
 ----------------------------------------------------------------------
 -----
 title
 -----
 Symbolic Z-matrix:
 Charge =  0 Multiplicity = 1

 SCF Done:  E(RHF) =  -322.549947649     A.U. after   15 cycles
 Normal termination of Gaussian 16 at Wed Apr  9 16:06:05 2025.
 Gaussian 16:  ES64L-G16RevC.01  3-Jul-2019

 ----------------------------------------------------------------------
 #t hf aug-cc-pvdz iop(5/13=1,5/36=2,99/5=2) pseudo=read geom=check gue
 ss=(read,tcheck) scf=(maxcycle=1)
 ----------------------------------------------------------------------
 -----
 title
 -----
 Structure from the checkpoint file:  "Grambow2020_wb97xd3_007755_forward_mol1.chk"
 Charge =  0 Multiplicity = 1

                         Standard orientation:
 ---------------------------------------------------------------------
 Center     Atomic      Atomic             Coordinates (Angstroms)
 Number     Number       Type             X           Y           Z
 ---------------------------------------------------------------------
      1          6           0        1.786034   -0.186572   -0.469733
      2          6           0        0.873249    0.467407    0.378402
      3          6           0        0.167151   -0.363301    1.251242
      4          6           0       -0.865654   -0.501026    0.299717
      5          7           0       -0.688209   -1.523805   -0.505620
      6          8           0       -1.345451    0.707184   -0.166631
      7          6           0       -0.114743    1.472050   -0.192991
      8          1           0        2.178901    0.348635   -1.328988
      9          1           0        2.464137   -0.918573   -0.038660
     10          1           0        0.591558   -1.115513   -0.839538
     11          1           0        0.628065   -1.266970    1.626043
     12          1           0       -1.258436   -1.481136   -1.341702
     13          1           0        0.115510    1.742984   -1.223542
     14          1           0       -0.214879    2.368388    0.418951
 ---------------------------------------------------------------------

 SCF Done:  E(RHF) =  -322.647860250     A.U. after    2 cycles

 The electronic state is 1-A.
 Alpha  occ. eigenvalues --  -20.61042 -15.62893 -11.37203 -11.32043 -11.30007
 Alpha  occ. eigenvalues --  -11.24445 -11.24415  -1.40471  -1.19944  -1.12072
 Alpha  occ. eigenvalues --   -0.98331  -0.94087  -0.79053  -0.77070  -0.70848
 Alpha  occ. eigenvalues --   -0.69462  -0.65822  -0.62231  -0.59897  -0.57605
 Alpha  occ. eigenvalues --   -0.56501  -0.52596  -0.48628  -0.44388  -0.37537
 Alpha  occ. eigenvalues --   -0.33108
 Alpha virt. eigenvalues --    0.03248   0.04173   0.04552   0.05021   0.06402
 Alpha virt. eigenvalues --    0.06942   0.07239   0.08073   0.08460   0.10701
 Alpha virt. eigenvalues --    0.11848   0.12874   0.13042   0.14167   0.14391

 Mulliken charges:
               1
     1  C    0.543838
     2  C   -0.736852
     3  C    0.155044
     4  C    0.628201
     5  N   -0.532655
     6  O   -0.764387
     7  C    1.042666
     8  H   -0.307868
     9  H   -0.211496
    10  H    0.629735
    11  H   -0.193671
    12  H    0.018418
    13  H   -0.160647
    14  H   -0.110326
 Sum of Mulliken charges =   0.00000

 Dipole moment (field-independent basis, Debye):
    X=              1.3356    Y=              1.1639    Z=             -1.2139  Tot=              2.1476

 Test job not archived.
 1\1\GINC-SE114\SP\RHF\Aug-CC-pVDZ\C5H7N1O1\OHZDE\09-Apr-2025\0\\#t hf
 aug-cc-pvdz iop(5/13=1,5/36=2,99/5=2) pseudo=read geom=check guess=(re
 ad,tcheck) scf=(maxcycle=1)\\title\\0,1\C,0,-1.41857606,-0.51776548,-0
 .09613108\C,0,-0.54720426,0.52680268,-0.45638897\C,0,0.46586022,0.1783
 3114,-1.35236268\C,0,1.32651604,-0.12471894,-0.27603276\N,0,1.25117278
 ,-1.38035004,0.10323845\O,0,1.43450861,0.89957739,0.64408224\C,0,0.076
 51291,1.40500729,0.61676436\H,0,-2.06204466,-0.3885275,0.76894465\H,0,
 -1.83046612,-1.14595359,-0.8817512\H,0,-0.12534728,-1.32015311,0.23582

 Normal termination of Gaussian 16 at Wed Apr  9 16:06:11 2025.
