 Gaussian 16, Revision C.01,

 ----------------------------------------------------------------------
 #t hf aug-cc-pvdz symm=none int=(grid=ultrafine) guess=(read,tcheck) s
 table=(opt,rrhf)
 ----------------------------------------------------------------------
 -----
 title
 -----
 Symbolic Z-matrix:
 Charge =  0 Multiplicity = 1

 SCF Done:  E(RHF) =  -322.650225367     A.U. after   13 cycles
 Normal termination of Gaussian 16 at Wed Apr  9 15:45:58 2025.
 Gaussian 16:  ES64L-G16RevC.01  3-Jul-2019

 ----------------------------------------------------------------------
 #t hf aug-cc-pvdz iop(5/13=1,5/36=2,99/5=2) pseudo=read geom=check gue
 ss=(read,tcheck) scf=(maxcycle=1)
 ----------------------------------------------------------------------
 -----
 title
 -----
 Structure from the checkpoint file:  "Grambow2020_wb97xd3_007344_reverse_mol2.chk"
 Charge =  0 Multiplicity = 1

                         Standard orientation:
 ---------------------------------------------------------------------
 Center     Atomic      Atomic             Coordinates (Angstroms)
 Number     Number       Type             X           Y           Z
 ---------------------------------------------------------------------
      1          8           0        0.420478   -1.288146   -0.289022
      2          6           0       -0.556114   -0.351702   -0.370610
      3          6           0       -1.958180   -0.245752   -0.034256
      4          7           0       -0.958716    0.482458    0.792431
      5          6           0        1.543904   -0.569100    0.266388
      6          6           0        1.342961    0.934750   -0.049493
      7          6           0       -0.142184    1.029869   -0.329079
      8          1           0       -2.622066    0.319503   -0.688190
      9          1           0       -2.423826   -1.064069    0.503448
     10          1           0        2.448026   -0.990600   -0.169504
     11          1           0        1.548297   -0.733507    1.344631
     12          1           0        1.895404    1.236148   -0.941294
     13          1           0        1.666548    1.558679    0.783662
     14          1           0       -0.547512    1.813419   -0.965299
 ---------------------------------------------------------------------

 SCF Done:  E(RHF) =  -322.746680685     A.U. after    2 cycles

 The electronic state is 1-A.
 Alpha  occ. eigenvalues --  -20.59535 -15.62961 -11.33097 -11.29710 -11.28958
 Alpha  occ. eigenvalues --  -11.28130 -11.24898  -1.39373  -1.28214  -1.05936
 Alpha  occ. eigenvalues --   -0.94424  -0.88635  -0.80280  -0.78565  -0.70001
 Alpha  occ. eigenvalues --   -0.68084  -0.64240  -0.63653  -0.59295  -0.55894
 Alpha  occ. eigenvalues --   -0.53166  -0.50764  -0.49876  -0.45597  -0.39925
 Alpha  occ. eigenvalues --   -0.37620
 Alpha virt. eigenvalues --    0.03409   0.04075   0.04515   0.05169   0.06277
 Alpha virt. eigenvalues --    0.06829   0.07823   0.08634   0.10544   0.12144
 Alpha virt. eigenvalues --    0.12626   0.13464   0.13837   0.14400   0.14939

 Mulliken charges:
               1
     1  O   -0.727893
     2  C    0.289367
     3  C    1.076208
     4  N   -0.946386
     5  C    0.915527
     6  C    0.123901
     7  C    0.325436
     8  H   -0.227026
     9  H   -0.192057
    10  H   -0.203259
    11  H   -0.087819
    12  H   -0.027494
    13  H    0.024752
    14  H   -0.343258
 Sum of Mulliken charges =  -0.00000

 Dipole moment (field-independent basis, Debye):
    X=              0.6674    Y=              1.1355    Z=             -1.1128  Tot=              1.7243

 Test job not archived.
 1\1\GINC-SE226\SP\RHF\Aug-CC-pVDZ\C5H7N1O1\OHZDE\09-Apr-2025\0\\#t hf
 aug-cc-pvdz iop(5/13=1,5/36=2,99/5=2) pseudo=read geom=check guess=(re
 ad,tcheck) scf=(maxcycle=1)\\title\\0,1\O,0,0.51216569,0.79805995,1.13
 469138\C,0,0.92360277,0.14100246,0.02279592\C,0,1.94380176,-0.8219143,
 -0.32668052\N,0,0.52397246,-1.26142635,-0.26713971\C,0,-0.92449793,0.6
 4573711,1.11498265\C,0,-1.34961021,0.37982478,-0.35140484\C,0,-0.06773
 807,-0.10309822,-0.99674315\H,0,2.43818987,-0.74706699,-1.29511505\H,0
 ,2.54411422,-1.25016989,0.46818805\H,0,-1.35395704,1.55254658,1.537310

 Normal termination of Gaussian 16 at Wed Apr  9 15:46:03 2025.
