 Gaussian 16, Revision C.01,

 ----------------------------------------------------------------------
 #t hf aug-cc-pvdz symm=none int=(grid=ultrafine) guess=(read,tcheck) s
 table=(opt,rrhf)
 ----------------------------------------------------------------------
 -----
 title
 -----
 Symbolic Z-matrix:
 Charge =  0 Multiplicity = 1

 SCF Done:  E(RHF) =  -343.653149470     A.U. after   14 cycles
 Normal termination of Gaussian 16 at Wed Apr  9 15:38:04 2025.
 Gaussian 16:  ES64L-G16RevC.01  3-Jul-2019

 ----------------------------------------------------------------------
 #t hf aug-cc-pvdz iop(5/13=1,5/36=2,99/5=2) pseudo=read geom=check gue
 ss=(read,tcheck) scf=(maxcycle=1)
 ----------------------------------------------------------------------
 -----
 title
 -----
 Structure from the checkpoint file:  "Grambow2020_wb97xd3_007218_reverse_mol2.chk"
 Charge =  0 Multiplicity = 1

                         Standard orientation:
 ---------------------------------------------------------------------
 Center     Atomic      Atomic             Coordinates (Angstroms)
 Number     Number       Type             X           Y           Z
 ---------------------------------------------------------------------
      1          8           0        2.401602   -0.894429    0.090794
      2          6           0        2.589075    0.275511   -0.099390
      3          6           0       -0.761873   -0.917390   -0.484170
      4          6           0       -2.035770   -0.983315   -0.075424
      5          6           0       -2.185060    0.481699    0.295431
      6          6           0       -0.714912    0.538566   -0.189123
      7          8           0        0.089113    1.420657   -0.277379
      8          1           0        0.878555   -0.517649    2.278448
      9          1           0        2.753027    0.684187   -1.112002
     10          1           0        2.618850    1.006355    0.727296
     11          1           0       -0.043042   -1.629678   -0.862261
     12          1           0       -2.740149   -1.802652   -0.018131
     13          1           0        0.470613   -0.091204    2.735540
     14          1           0       -2.323098    0.700864    1.355953
     15          1           0       -2.889239    1.069523   -0.296110
 ---------------------------------------------------------------------

 SCF Done:  E(RHF) =  -343.765125570     A.U. after    2 cycles

 The electronic state is 1-A.
 Alpha  occ. eigenvalues --  -20.57304 -20.57062 -11.35474 -11.33992 -11.28813
 Alpha  occ. eigenvalues --  -11.26371 -11.25934  -1.36737  -1.35981  -1.17080
 Alpha  occ. eigenvalues --   -0.93199  -0.85287  -0.84410  -0.72683  -0.70286
 Alpha  occ. eigenvalues --   -0.68904  -0.65489  -0.64681  -0.63744  -0.58275
 Alpha  occ. eigenvalues --   -0.57385  -0.54523  -0.53187  -0.52990  -0.43842
 Alpha  occ. eigenvalues --   -0.42517  -0.39761
 Alpha virt. eigenvalues --    0.03162   0.04478   0.04674   0.05057   0.05956
 Alpha virt. eigenvalues --    0.06689   0.07907   0.08306   0.09160   0.10271
 Alpha virt. eigenvalues --    0.11024   0.11716   0.12183   0.13202   0.14063

 Mulliken charges:
               1
     1  O   -0.415596
     2  C    0.715205
     3  C    0.279783
     4  C    0.351280
     5  C    0.146215
     6  C    0.174035
     7  O   -0.460859
     8  H   -0.010073
     9  H   -0.147245
    10  H   -0.141963
    11  H   -0.271845
    12  H   -0.209008
    13  H    0.034330
    14  H   -0.028540
    15  H   -0.015718
 Sum of Mulliken charges =  -0.00000

 Dipole moment (field-independent basis, Debye):
    X=             -2.6130    Y=             -0.1349    Z=             -0.1931  Tot=              2.6236

 Test job not archived.
 1\1\GINC-SE026\SP\RHF\Aug-CC-pVDZ\C5H8O2\OHZDE\09-Apr-2025\0\\#t hf au
 g-cc-pvdz iop(5/13=1,5/36=2,99/5=2) pseudo=read geom=check guess=(read
 ,tcheck) scf=(maxcycle=1)\\title\\0,1\O,0,2.38720841,-0.67575294,0.889
 97821\C,0,2.33833126,-1.47107992,-0.00731837\C,0,-0.7377099,0.07826723
 ,0.96088342\C,0,-1.75693907,0.91219307,0.71599098\C,0,-1.9522036,0.539
 09202,-0.74303348\C,0,-0.77808863,-0.42393026,-0.43741304\O,0,-0.18334
 56,-1.23040747,-1.09178582\H,0,1.72390152,1.4303787,-0.65005391\H,0,2.
 0697055,-2.52851273,0.1628474\H,0,2.56937409,-1.19303465,-1.05026538\H

 Normal termination of Gaussian 16 at Wed Apr  9 15:38:09 2025.
