 Gaussian 16, Revision C.01,

 ----------------------------------------------------------------------
 #t hf aug-cc-pvdz symm=none int=(grid=ultrafine) guess=(read,tcheck) s
 table=(opt,rrhf)
 ----------------------------------------------------------------------
 -----
 title
 -----
 Symbolic Z-matrix:
 Charge =  0 Multiplicity = 1

 SCF Done:  E(RHF) =  -321.318616479     A.U. after   20 cycles
 Normal termination of Gaussian 16 at Wed Apr  9 03:39:17 2025.
 Gaussian 16:  ES64L-G16RevC.01  3-Jul-2019

 ----------------------------------------------------------------------
 #t hf aug-cc-pvdz iop(5/13=1,5/36=2,99/5=2) pseudo=read geom=check gue
 ss=(read,tcheck) scf=(maxcycle=1)
 ----------------------------------------------------------------------
 -----
 title
 -----
 Structure from the checkpoint file:  "Grambow2020_wb97xd3_007495_forward_mol1.chk"
 Charge =  0 Multiplicity = 1

                         Standard orientation:
 ---------------------------------------------------------------------
 Center     Atomic      Atomic             Coordinates (Angstroms)
 Number     Number       Type             X           Y           Z
 ---------------------------------------------------------------------
      1          8           0       -0.144843    2.004359   -0.167937
      2          6           0       -0.098719    0.868385    0.124101
      3          6           0       -1.226122   -0.229306    0.003327
      4          6           0       -2.401622   -0.567732    0.020174
      5          6           0        1.009721   -0.198146    0.459373
      6          6           0        0.230813   -1.301792   -0.222434
      7          7           0        2.252886   -0.357395   -0.060743
      8          1           0       -3.413542   -0.904009    0.042271
      9          1           0        0.979120   -0.328057    1.549200
     10          1           0        0.304241   -1.315399   -1.306613
     11          1           0        0.208513   -2.288895    0.230639
     12          1           0        2.225789   -0.125198   -1.054047
 ---------------------------------------------------------------------

 SCF Done:  E(RHF) =  -321.415173378     A.U. after    2 cycles

 The electronic state is 1-A.
 Alpha  occ. eigenvalues --  -20.61624 -15.60918 -11.39207 -11.32858 -11.30934
 Alpha  occ. eigenvalues --  -11.30621 -11.29666  -1.41779  -1.19496  -1.09217
 Alpha  occ. eigenvalues --   -0.99900  -0.90283  -0.81591  -0.76424  -0.72292
 Alpha  occ. eigenvalues --   -0.69745  -0.65089  -0.60771  -0.58614  -0.55639
 Alpha  occ. eigenvalues --   -0.52383  -0.48565  -0.44823  -0.39820  -0.29044
 Alpha virt. eigenvalues --   -0.00546   0.02237   0.03881   0.04149   0.05346
 Alpha virt. eigenvalues --    0.06118   0.07510   0.09187   0.09715   0.10241
 Alpha virt. eigenvalues --    0.10420   0.12068   0.13411   0.14013   0.14682

 Mulliken charges:
               1
     1  O   -0.364275
     2  C    0.073446
     3  C    0.002310
     4  C    0.619433
     5  C    0.525017
     6  C    0.483426
     7  N   -0.548316
     8  H   -0.434611
     9  H   -0.047554
    10  H   -0.103890
    11  H   -0.206625
    12  H    0.001640
 Sum of Mulliken charges =  -0.00000

 Dipole moment (field-independent basis, Debye):
    X=             -4.3401    Y=             -3.2865    Z=             -0.2584  Tot=              5.4502

 Test job not archived.
 1\1\GINC-SE071\SP\RHF\Aug-CC-pVDZ\C5H5N1O1\OHZDE\09-Apr-2025\0\\#t hf
 aug-cc-pvdz iop(5/13=1,5/36=2,99/5=2) pseudo=read geom=check guess=(re
 ad,tcheck) scf=(maxcycle=1)\\title\\0,1\O,0,0.74764752,1.10940111,2.01
 093934\C,0,0.4795414,0.75967675,0.92297606\C,0,1.18395293,-0.34002718,
 0.03697053\C,0,2.17785892,-0.95931654,-0.31693411\C,0,-0.73439257,0.89
 134669,-0.07078524\C,0,-0.51125118,-0.50326651,-0.61378924\N,0,-2.0684
 7028,0.89530732,0.1773293\H,0,3.02340175,-1.50998755,-0.66243544\H,0,-
 0.43235946,1.64167761,-0.8132927\H,0,-0.89004767,-1.30720512,0.0116833

 Normal termination of Gaussian 16 at Wed Apr  9 03:39:21 2025.
