 Gaussian 16, Revision C.01,

 ----------------------------------------------------------------------
 #t hf aug-cc-pvdz symm=none int=(grid=ultrafine) guess=(read,tcheck) s
 table=(opt,rrhf)
 ----------------------------------------------------------------------
 -----
 title
 -----
 Symbolic Z-matrix:
 Charge =  0 Multiplicity = 1

 SCF Done:  E(RHF) =  -344.925255585     A.U. after   12 cycles

 1\1\GINC-SE437\Stability\RHF\Aug-CC-pVDZ\C5H10O2\OHZDE\09-Apr-2025\0\\
 #t hf aug-cc-pvdz symm=none int=(grid=ultrafine) guess=(read,tcheck) s
 table=(opt,rrhf)\\title\\0,1\C,0,2.19112331,0.41978715,-0.63908662\C,0
 ,1.00786832,-0.38940222,-0.17016544\C,0,0.60704545,-0.17906428,1.29639
 96\O,0,-0.80902885,-0.1880435,1.28159648\C,0,-1.22469579,-0.413704,-0.
 05210856\C,0,-2.47575387,0.36018096,-0.35950044\O,0,-0.16303073,0.0100
 2816,-0.86137699\H,0,2.37836558,0.24807558,-1.69927938\H,0,3.08741877,
 0.13774576,-0.08309685\H,0,2.00375176,1.48378599,-0.48543111\H,0,1.182

 Normal termination of Gaussian 16 at Wed Apr  9 03:33:31 2025.
 Gaussian 16:  ES64L-G16RevC.01  3-Jul-2019

 ----------------------------------------------------------------------
 #t hf aug-cc-pvdz iop(5/13=1,5/36=2,99/5=2) pseudo=read geom=check gue
 ss=(read,tcheck) scf=(maxcycle=1)
 ----------------------------------------------------------------------
 -----
 title
 -----
 Structure from the checkpoint file:  "Grambow2020_wb97xd3_007101_forward_mol2.chk"
 Charge =  0 Multiplicity = 1

                         Standard orientation:
 ---------------------------------------------------------------------
 Center     Atomic      Atomic             Coordinates (Angstroms)
 Number     Number       Type             X           Y           Z
 ---------------------------------------------------------------------
      1          6           0        2.340343   -0.661679   -0.298518
      2          6           0        1.124772   -0.096725    0.392844
      3          6           0        0.656648    1.273711   -0.115565
      4          8           0       -0.757054    1.190232   -0.108899
      5          6           0       -1.111010   -0.088043    0.384253
      6          6           0       -2.334965   -0.609660   -0.314592
      7          8           0       -0.005798   -0.912804    0.139566
      8          1           0        2.576095   -1.653480    0.087880
      9          1           0        3.204799   -0.015568   -0.133367
     10          1           0        2.160518   -0.738835   -1.372073
     11          1           0        1.293699   -0.048984    1.478507
     12          1           0        0.998893    1.459760   -1.138325
     13          1           0        0.994485    2.092071    0.526303
     14          1           0       -1.273799   -0.012689    1.473718
     15          1           0       -2.139191   -0.684697   -1.384151
     16          1           0       -2.596746   -1.593041    0.076290
     17          1           0       -3.170660    0.070422   -0.150653
 ---------------------------------------------------------------------

 SCF Done:  E(RHF) =  -345.036422645     A.U. after    2 cycles

 The electronic state is 1-A.
 Alpha  occ. eigenvalues --  -20.57737 -20.57109 -11.33942 -11.29580 -11.28694
 Alpha  occ. eigenvalues --  -11.23328 -11.22385  -1.40280  -1.29443  -1.07177
 Alpha  occ. eigenvalues --   -0.98803  -0.92179  -0.83382  -0.82107  -0.72998
 Alpha  occ. eigenvalues --   -0.67812  -0.66572  -0.62579  -0.59411  -0.57832
 Alpha  occ. eigenvalues --   -0.55388  -0.54289  -0.53418  -0.52402  -0.52084
 Alpha  occ. eigenvalues --   -0.48162  -0.44965  -0.43178
 Alpha virt. eigenvalues --    0.03521   0.04531   0.04630   0.04880   0.06241
 Alpha virt. eigenvalues --    0.06434   0.06692   0.07016   0.07553   0.09303
 Alpha virt. eigenvalues --    0.11705   0.12368   0.13534   0.14233   0.14762

 Mulliken charges:
               1
     1  C    0.459735
     2  C   -0.199409
     3  C    0.877357
     4  O   -0.745916
     5  C    0.814081
     6  C    0.342011
     7  O   -0.755509
     8  H   -0.033889
     9  H    0.027945
    10  H    0.037771
    11  H   -0.202305
    12  H   -0.220210
    13  H   -0.140541
    14  H   -0.273603
    15  H    0.013275
    16  H    0.006821
    17  H   -0.007614
 Sum of Mulliken charges =  -0.00000

 Dipole moment (field-independent basis, Debye):
    X=              1.2914    Y=              0.1770    Z=              0.7649  Tot=              1.5113

 Test job not archived.
 1\1\GINC-SE437\SP\RHF\Aug-CC-pVDZ\C5H10O2\OHZDE\09-Apr-2025\0\\#t hf a
 ug-cc-pvdz iop(5/13=1,5/36=2,99/5=2) pseudo=read geom=check guess=(rea
 d,tcheck) scf=(maxcycle=1)\\title\\0,1\C,0,2.19112331,0.41978715,-0.63
 908662\C,0,1.00786832,-0.38940222,-0.17016544\C,0,0.60704545,-0.179064
 28,1.2963996\O,0,-0.80902885,-0.1880435,1.28159648\C,0,-1.22469579,-0.
 413704,-0.05210856\C,0,-2.47575387,0.36018096,-0.35950044\O,0,-0.16303
 073,0.01002816,-0.86137699\H,0,2.37836558,0.24807558,-1.69927938\H,0,3
 .08741877,0.13774576,-0.08309685\H,0,2.00375176,1.48378599,-0.48543111

 Normal termination of Gaussian 16 at Wed Apr  9 03:33:37 2025.
