 Gaussian 16, Revision C.01,

 ----------------------------------------------------------------------
 #t hf aug-cc-pvdz symm=none int=(grid=ultrafine) guess=(read,tcheck) s
 table=(opt,rrhf)
 ----------------------------------------------------------------------
 -----
 title
 -----
 Symbolic Z-matrix:
 Charge =  0 Multiplicity = 1

 SCF Done:  E(RHF) =  -322.599092472     A.U. after   15 cycles
 Normal termination of Gaussian 16 at Wed Apr  9 15:21:01 2025.
 Gaussian 16:  ES64L-G16RevC.01  3-Jul-2019

 ----------------------------------------------------------------------
 #t hf aug-cc-pvdz iop(5/13=1,5/36=2,99/5=2) pseudo=read geom=check gue
 ss=(read,tcheck) scf=(maxcycle=1)
 ----------------------------------------------------------------------
 -----
 title
 -----
 Structure from the checkpoint file:  "Grambow2020_wb97xd3_006855_reverse_mol1.chk"
 Charge =  0 Multiplicity = 1

                         Standard orientation:
 ---------------------------------------------------------------------
 Center     Atomic      Atomic             Coordinates (Angstroms)
 Number     Number       Type             X           Y           Z
 ---------------------------------------------------------------------
      1          6           0       -1.532878   -1.098533    0.612232
      2          6           0       -1.319405    0.215001   -0.650868
      3          6           0       -0.217146   -0.667552   -0.633321
      4          6           0        0.946095   -0.006460   -0.077776
      5          7           0        2.184867   -0.615560    0.155022
      6          6           0        0.489729    1.211856    0.261065
      7          8           0       -0.831797    1.356275   -0.019845
      8          1           0       -0.790109   -1.686632    1.159006
      9          1           0       -2.282395   -1.741253    0.168401
     10          1           0       -1.975106   -0.392275    1.305816
     11          1           0       -0.199093   -1.602339   -1.176772
     12          1           0        2.530844   -1.129517   -0.640894
     13          1           0        2.891814    0.024392    0.481760
     14          1           0        0.985989    2.060472    0.708289
 ---------------------------------------------------------------------

 SCF Done:  E(RHF) =  -322.698062813     A.U. after    2 cycles

 The electronic state is 1-A.
 Alpha  occ. eigenvalues --  -20.60424 -15.64241 -11.29763 -11.27982 -11.27904
 Alpha  occ. eigenvalues --  -11.27712 -11.26474  -1.39284  -1.19438  -1.08567
 Alpha  occ. eigenvalues --   -1.00650  -0.91429  -0.80897  -0.78396  -0.71682
 Alpha  occ. eigenvalues --   -0.67374  -0.64835  -0.62855  -0.59553  -0.58285
 Alpha  occ. eigenvalues --   -0.55984  -0.54214  -0.49464  -0.42671  -0.34601
 Alpha  occ. eigenvalues --   -0.32043
 Alpha virt. eigenvalues --    0.02656   0.03554   0.04337   0.05125   0.06508
 Alpha virt. eigenvalues --    0.06695   0.07917   0.09699   0.10251   0.10966
 Alpha virt. eigenvalues --    0.12925   0.13012   0.13612   0.14335   0.15201

 Mulliken charges:
               1
     1  C    0.386432
     2  C   -0.278896
     3  C    0.503914
     4  C    0.162072
     5  N   -0.400053
     6  C    0.996240
     7  O   -0.533767
     8  H   -0.056591
     9  H   -0.091997
    10  H   -0.060161
    11  H   -0.255671
    12  H   -0.015236
    13  H   -0.014914
    14  H   -0.341373
 Sum of Mulliken charges =  -0.00000

 Dipole moment (field-independent basis, Debye):
    X=              3.7003    Y=             -2.0115    Z=              0.9179  Tot=              4.3106

 Test job not archived.
 1\1\GINC-SE113\SP\RHF\Aug-CC-pVDZ\C5H7N1O1\OHZDE\09-Apr-2025\0\\#t hf
 aug-cc-pvdz iop(5/13=1,5/36=2,99/5=2) pseudo=read geom=check guess=(re
 ad,tcheck) scf=(maxcycle=1)\\title\\0,1\C,0,1.78367449,-0.35064231,-0.
 35560506\C,0,1.07826399,0.3261411,1.19704564\C,0,0.20626368,-0.6103354
 ,0.59971212\C,0,-0.95133355,0.06328199,0.04743385\N,0,-1.97339169,-0.5
 5688263,-0.68095165\C,0,-0.70699097,1.36398033,0.2837766\O,0,0.4832648
 3,1.55208183,0.91155555\H,0,1.29012529,-0.76646919,-1.23879565\H,0,2.5
 5958142,-1.0158806,0.00115316\H,0,2.18484445,0.62014423,-0.6240485\H,0

 Normal termination of Gaussian 16 at Wed Apr  9 15:21:05 2025.
