 Gaussian 16, Revision C.01,

 ----------------------------------------------------------------------
 #t hf aug-cc-pvdz symm=none int=(grid=ultrafine) guess=(read,tcheck) s
 table=(opt,rrhf)
 ----------------------------------------------------------------------
 -----
 title
 -----
 Symbolic Z-matrix:
 Charge =  0 Multiplicity = 1

 SCF Done:  E(RHF) =  -302.817037415     A.U. after   14 cycles
 Normal termination of Gaussian 16 at Wed Apr  9 16:47:11 2025.
 Gaussian 16:  ES64L-G16RevC.01  3-Jul-2019

 ----------------------------------------------------------------------
 #t hf aug-cc-pvdz iop(5/13=1,5/36=2,99/5=2) pseudo=read geom=check gue
 ss=(read,tcheck) scf=(maxcycle=1)
 ----------------------------------------------------------------------
 -----
 title
 -----
 Structure from the checkpoint file:  "Grambow2020_wb97xd3_008884_reverse_mol2.chk"
 Charge =  0 Multiplicity = 1

                         Standard orientation:
 ---------------------------------------------------------------------
 Center     Atomic      Atomic             Coordinates (Angstroms)
 Number     Number       Type             X           Y           Z
 ---------------------------------------------------------------------
      1          6           0        2.847877    0.503651   -0.220743
      2          7           0        1.488808    0.049769   -0.383228
      3          6           0        0.859167   -0.323936    0.640521
      4          6           0       -0.556058   -0.799941    0.601194
      5          6           0       -1.604921    0.002653   -0.086823
      6          7           0       -2.245045    1.191951    0.012736
      7          6           0       -1.251203   -1.068327   -0.709521
      8          1           0        3.204480    0.458058    0.818446
      9          1           0        3.508670   -0.100125   -0.846758
     10          1           0        2.928400    1.534080   -0.574541
     11          1           0        1.335902   -0.320314    1.634966
     12          1           0       -0.835919   -1.370080    1.491003
     13          1           0       -2.393147    1.551080    0.938625
     14          1           0       -2.993756    1.364186   -0.635280
     15          1           0       -1.230144   -1.693529   -1.580786
 ---------------------------------------------------------------------

 SCF Done:  E(RHF) =  -302.910634803     A.U. after    2 cycles

 The electronic state is 1-A.
 Alpha  occ. eigenvalues --  -15.64823 -15.60497 -11.29160 -11.27002 -11.25049
 Alpha  occ. eigenvalues --  -11.24670 -11.22657  -1.21516  -1.18598  -1.12032
 Alpha  occ. eigenvalues --   -0.95201  -0.85210  -0.76861  -0.73968  -0.69622
 Alpha  occ. eigenvalues --   -0.68015  -0.65524  -0.60266  -0.58082  -0.54759
 Alpha  occ. eigenvalues --   -0.49451  -0.47791  -0.46488  -0.38557  -0.36942
 Alpha  occ. eigenvalues --   -0.31807
 Alpha virt. eigenvalues --    0.02873   0.03921   0.04243   0.04580   0.06316
 Alpha virt. eigenvalues --    0.06773   0.07043   0.08295   0.10047   0.11968
 Alpha virt. eigenvalues --    0.12212   0.12515   0.13688   0.14026   0.14909

 Mulliken charges:
               1
     1  C    0.722046
     2  N   -0.599635
     3  C    0.402993
     4  C    0.431485
     5  C   -0.073069
     6  N   -0.211626
     7  C    0.718393
     8  H   -0.092804
     9  H   -0.151736
    10  H   -0.146536
    11  H   -0.438163
    12  H   -0.232824
    13  H   -0.003063
    14  H    0.011528
    15  H   -0.336989
 Sum of Mulliken charges =  -0.00000

 Dipole moment (field-independent basis, Debye):
    X=             -1.5605    Y=              0.9225    Z=              1.5527  Tot=              2.3869

 Test job not archived.
 1\1\GINC-SE105\SP\RHF\Aug-CC-pVDZ\C5H8N2\OHZDE\09-Apr-2025\0\\#t hf au
 g-cc-pvdz iop(5/13=1,5/36=2,99/5=2) pseudo=read geom=check guess=(read
 ,tcheck) scf=(maxcycle=1)\\title\\0,1\C,0,2.58886248,-0.16027792,0.741
 94169\N,0,1.33867159,0.22200627,0.13336953\C,0,0.58819225,-0.68714854,
 -0.30752031\C,0,-0.7357039,-0.4170665,-0.94418434\C,0,-1.73414053,0.45
 863353,-0.27045239\N,0,-2.51254704,0.49751048,0.8370991\C,0,-1.1590253
 7,0.98678572,-1.2952284\H,0,2.76345917,-1.2459445,0.74111185\H,0,3.412
 0035,0.32931248,0.21674761\H,0,2.61187095,0.1981099,1.77367328\H,0,0.8

 Normal termination of Gaussian 16 at Wed Apr  9 16:47:16 2025.
