 Gaussian 16, Revision C.01,

 ----------------------------------------------------------------------
 #t hf aug-cc-pvdz symm=none int=(grid=ultrafine) guess=(read,tcheck) s
 table=(opt,rrhf)
 ----------------------------------------------------------------------
 -----
 title
 -----
 Symbolic Z-matrix:
 Charge =  0 Multiplicity = 1

 SCF Done:  E(RHF) =  -266.662001327     A.U. after   17 cycles
 Normal termination of Gaussian 16 at Wed Apr  9 03:02:35 2025.
 Gaussian 16:  ES64L-G16RevC.01  3-Jul-2019

 ----------------------------------------------------------------------
 #t hf aug-cc-pvdz iop(5/13=1,5/36=2,99/5=2) pseudo=read geom=check gue
 ss=(read,tcheck) scf=(maxcycle=1)
 ----------------------------------------------------------------------
 -----
 title
 -----
 Structure from the checkpoint file:  "Grambow2020_b97d3_006478_forward_mol1.chk"
 Charge =  0 Multiplicity = 1

                         Standard orientation:
 ---------------------------------------------------------------------
 Center     Atomic      Atomic             Coordinates (Angstroms)
 Number     Number       Type             X           Y           Z
 ---------------------------------------------------------------------
      1          8           0        1.562042    0.878793    0.030711
      2          6           0        1.249663   -0.537442   -0.021146
      3          6           0       -0.162526   -0.836426    0.337154
      4          6           0       -1.706060    0.616260    0.179012
      5          8           0       -1.106329   -0.350040   -0.564445
      6          1           0        1.066546    1.295826   -0.699672
      7          1           0        1.467067   -0.937992   -1.028184
      8          1           0        1.928625   -1.009764    0.697618
      9          1           0       -0.517333   -0.946792    1.363283
     10          1           0       -1.083471    1.311129    0.734073
     11          1           0       -2.793606    0.603222    0.232630
 ---------------------------------------------------------------------

 SCF Done:  E(RHF) =  -266.745568851     A.U. after    2 cycles

 The electronic state is 1-A.
 Alpha  occ. eigenvalues --  -20.66283 -20.58054 -11.33256 -11.30669 -11.30224
 Alpha  occ. eigenvalues --   -1.41824  -1.31652  -1.00825  -0.91448  -0.83926
 Alpha  occ. eigenvalues --   -0.72779  -0.69953  -0.68559  -0.65943  -0.61377
 Alpha  occ. eigenvalues --   -0.57901  -0.54271  -0.51544  -0.46618  -0.27283
 Alpha virt. eigenvalues --    0.02247   0.03614   0.04615   0.05278   0.05969
 Alpha virt. eigenvalues --    0.07069   0.07651   0.10300   0.11704   0.12897
 Alpha virt. eigenvalues --    0.14132   0.15104   0.15657   0.16385   0.16715

 Mulliken charges:
               1
     1  O   -0.554826
     2  C    0.669417
     3  C    0.324877
     4  C    0.600497
     5  O   -0.562274
     6  H    0.152206
     7  H   -0.038100
     8  H   -0.128844
     9  H   -0.127747
    10  H   -0.097654
    11  H   -0.237552
 Sum of Mulliken charges =  -0.00000

 Dipole moment (field-independent basis, Debye):
    X=             -1.1642    Y=              0.1998    Z=              0.1035  Tot=              1.1858

 Test job not archived.
 1\1\GINC-SE435\SP\RHF\Aug-CC-pVDZ\C3H6O2\OHZDE\09-Apr-2025\0\\#t hf au
 g-cc-pvdz iop(5/13=1,5/36=2,99/5=2) pseudo=read geom=check guess=(read
 ,tcheck) scf=(maxcycle=1)\\title\\0,1\O,0,-1.75829581,-0.37522847,-0.0
 190984\C,0,-1.04620157,0.87844599,-0.18406203\C,0,0.39774383,0.7780931
 7,0.15798696\C,0,1.44569796,-1.07089154,0.12884059\O,0,1.1419357,-0.03
 381322,-0.69477309\H,0,-1.41941955,-0.97603336,-0.70981513\H,0,-1.1545
 8511,1.24343333,-1.22178457\H,0,-1.54451499,1.58476123,0.48936434\H,0,
 0.78730923,0.8611537,1.17403363\H,0,0.65691836,-1.50622214,0.73453594\

 Normal termination of Gaussian 16 at Wed Apr  9 03:02:38 2025.
