 Gaussian 16, Revision C.01,

 ----------------------------------------------------------------------
 #t hf aug-cc-pvdz symm=none int=(grid=ultrafine) guess=(read,tcheck) s
 table=(opt,rrhf)
 ----------------------------------------------------------------------
 -----
 title
 -----
 Symbolic Z-matrix:
 Charge =  0 Multiplicity = 1

 SCF Done:  E(RHF) =  -302.895774149     A.U. after   15 cycles
 Normal termination of Gaussian 16 at Wed Apr  9 03:59:50 2025.
 Gaussian 16:  ES64L-G16RevC.01  3-Jul-2019

 ----------------------------------------------------------------------
 #t hf aug-cc-pvdz iop(5/13=1,5/36=2,99/5=2) pseudo=read geom=check gue
 ss=(read,tcheck) scf=(maxcycle=1)
 ----------------------------------------------------------------------
 -----
 title
 -----
 Structure from the checkpoint file:  "Grambow2020_wb97xd3_008850_reverse_mol2.chk"
 Charge =  0 Multiplicity = 1

                         Standard orientation:
 ---------------------------------------------------------------------
 Center     Atomic      Atomic             Coordinates (Angstroms)
 Number     Number       Type             X           Y           Z
 ---------------------------------------------------------------------
      1          6           0       -1.633158   -0.811992   -0.974341
      2          6           0       -1.186583    0.130336    0.104100
      3          6           0       -1.644172    1.369099    0.218331
      4          6           0        1.834899    0.054237   -0.186379
      5          7           0        2.491807    0.840754   -0.714728
      6          6           0       -0.167242   -0.399162    1.080742
      7          7           0        1.090730   -0.839770    0.467746
      8          1           0       -2.020323   -1.741730   -0.546559
      9          1           0       -2.413808   -0.366552   -1.589260
     10          1           0       -0.802128   -1.077278   -1.633496
     11          1           0       -1.288782    2.034401    0.996631
     12          1           0       -2.386294    1.764754   -0.465058
     13          1           0       -0.563275   -1.268550    1.611139
     14          1           0        0.071079    0.358668    1.827381
     15          1           0        1.103300   -1.765713    0.073375
 ---------------------------------------------------------------------

 SCF Done:  E(RHF) =  -302.988836205     A.U. after    2 cycles

 The electronic state is 1-A.
 Alpha  occ. eigenvalues --  -15.68392 -15.62145 -11.31057 -11.30396 -11.26286
 Alpha  occ. eigenvalues --  -11.24782 -11.24320  -1.25954  -1.16621  -1.09512
 Alpha  occ. eigenvalues --   -0.96261  -0.94553  -0.79441  -0.75662  -0.67778
 Alpha  occ. eigenvalues --   -0.65733  -0.63762  -0.58859  -0.56407  -0.55414
 Alpha  occ. eigenvalues --   -0.54015  -0.53460  -0.50126  -0.45583  -0.38940
 Alpha  occ. eigenvalues --   -0.37668
 Alpha virt. eigenvalues --    0.02379   0.03801   0.04042   0.04949   0.05946
 Alpha virt. eigenvalues --    0.06302   0.07522   0.08852   0.09814   0.10315
 Alpha virt. eigenvalues --    0.11105   0.12329   0.13268   0.13929   0.14505

 Mulliken charges:
               1
     1  C    0.219040
     2  C   -0.452150
     3  C    1.183066
     4  C   -0.269364
     5  N   -0.146369
     6  C    0.775976
     7  N   -0.126093
     8  H    0.066451
     9  H   -0.148981
    10  H    0.038311
    11  H   -0.359044
    12  H   -0.400207
    13  H   -0.107516
    14  H   -0.304216
    15  H    0.031096
 Sum of Mulliken charges =  -0.00000

 Dipole moment (field-independent basis, Debye):
    X=             -3.6347    Y=             -3.0894    Z=              1.4021  Tot=              4.9720

 Test job not archived.
 1\1\GINC-SE074\SP\RHF\Aug-CC-pVDZ\C5H8N2\OHZDE\09-Apr-2025\0\\#t hf au
 g-cc-pvdz iop(5/13=1,5/36=2,99/5=2) pseudo=read geom=check guess=(read
 ,tcheck) scf=(maxcycle=1)\\title\\0,1\C,0,-1.18867367,0.9750968,-0.766
 75576\C,0,0.09678721,0.84555391,-0.0043547\C,0,1.17551759,1.56631672,-
 0.27603712\C,0,0.64653892,-2.135865,-0.17298119\N,0,1.38204387,-2.6567
 1069,-0.89203927\C,0,0.11690816,-0.1653912,1.11405464\N,0,-0.17376654,
 -1.54116621,0.69555001\H,0,-2.02314748,1.19346198,-0.09349842\H,0,-1.1
 2934495,1.77056745,-1.50814892\H,0,-1.42850247,0.04747773,-1.29351726\

 Normal termination of Gaussian 16 at Wed Apr  9 03:59:55 2025.
