 Gaussian 16, Revision C.01,

 ----------------------------------------------------------------------
 #t hf aug-cc-pvdz symm=none int=(grid=ultrafine) guess=(read,tcheck) s
 table=(opt,rrhf)
 ----------------------------------------------------------------------
 -----
 title
 -----
 Symbolic Z-matrix:
 Charge =  0 Multiplicity = 1

 SCF Done:  E(RHF) =  -271.147379343     A.U. after   12 cycles

 1\1\GINC-SE131\Stability\RHF\Aug-CC-pVDZ\C5H12O1\OHZDE\09-Apr-2025\0\\
 #t hf aug-cc-pvdz symm=none int=(grid=ultrafine) guess=(read,tcheck) s
 table=(opt,rrhf)\\title\\0,1\C,0,-2.75391994,0.03997039,0.02326874\C,0
 ,-1.2538457,-0.30515454,0.03825817\C,0,-0.45722059,0.68249881,0.860108
 26\O,0,0.36080219,0.39999416,1.71835704\C,0,2.22747295,-0.14952368,-1.
 24596958\C,0,2.4217563,1.1494725,-0.98223958\H,0,-3.29979359,-0.639726
 08,-0.64357028\H,0,-3.18842937,-0.04574548,1.02848513\H,0,-2.92018595,
 1.06709807,-0.33252216\H,0,-1.06884685,-1.31930444,0.41433008\H,0,-0.8

 Normal termination of Gaussian 16 at Wed Apr  9 14:10:19 2025.
 Gaussian 16:  ES64L-G16RevC.01  3-Jul-2019

 ----------------------------------------------------------------------
 #t hf aug-cc-pvdz iop(5/13=1,5/36=2,99/5=2) pseudo=read geom=check gue
 ss=(read,tcheck) scf=(maxcycle=1)
 ----------------------------------------------------------------------
 -----
 title
 -----
 Structure from the checkpoint file:  "Grambow2020_b97d3_006798_reverse_mol2.chk"
 Charge =  0 Multiplicity = 1

                         Standard orientation:
 ---------------------------------------------------------------------
 Center     Atomic      Atomic             Coordinates (Angstroms)
 Number     Number       Type             X           Y           Z
 ---------------------------------------------------------------------
      1          6           0       -2.691456   -0.874411    0.053109
      2          6           0       -1.298271   -0.349146    0.443864
      3          6           0       -0.658610    0.437850   -0.677288
      4          8           0       -0.142343    1.536982   -0.572703
      5          6           0        2.398141   -0.564634    0.732217
      6          6           0        2.648256   -0.540254   -0.583663
      7          1           0       -3.101598   -1.509718    0.848602
      8          1           0       -3.391914   -0.045615   -0.117372
      9          1           0       -2.644386   -1.474512   -0.867155
     10          1           0       -1.331641    0.272546    1.347490
     11          1           0       -0.627938   -1.202500    0.646523
     12          1           0       -0.686147   -0.086773   -1.666731
     13          1           0        0.160654    2.537936    1.785878
     14          1           0        1.837336    0.235101    1.217760
     15          1           0        2.749937   -1.377551    1.370022
     16          1           0        3.215562   -1.331739   -1.076744
     17          1           0        0.270842    2.749202    2.493817
     18          1           0        2.299683    0.281333   -1.209898
 ---------------------------------------------------------------------

 SCF Done:  E(RHF) =  -271.239539185     A.U. after    2 cycles

 The electronic state is 1-A.
 Alpha  occ. eigenvalues --  -20.57519 -11.35021 -11.25596 -11.25078 -11.24347
 Alpha  occ. eigenvalues --  -11.24181  -1.35329  -1.05866  -1.02358  -0.90175
 Alpha  occ. eigenvalues --   -0.79652  -0.78830  -0.67868  -0.64935  -0.64285
 Alpha  occ. eigenvalues --   -0.62006  -0.58899  -0.57712  -0.56481  -0.54710
 Alpha  occ. eigenvalues --   -0.52037  -0.50665  -0.50010  -0.43365  -0.37752
 Alpha virt. eigenvalues --    0.03112   0.04156   0.04324   0.05482   0.05919
 Alpha virt. eigenvalues --    0.06231   0.07086   0.07465   0.08114   0.09031
 Alpha virt. eigenvalues --    0.09163   0.09868   0.10782   0.12846   0.13111

 Mulliken charges:
               1
     1  C    0.387845
     2  C   -0.194762
     3  C    0.635173
     4  O   -0.458453
     5  C    0.576442
     6  C    0.545323
     7  H   -0.059605
     8  H   -0.036837
     9  H   -0.057293
    10  H   -0.088663
    11  H    0.040009
    12  H   -0.158724
    13  H    0.015260
    14  H   -0.333839
    15  H   -0.258710
    16  H   -0.280019
    17  H   -0.012808
    18  H   -0.260340
 Sum of Mulliken charges =   0.00000

 Dipole moment (field-independent basis, Debye):
    X=             -1.6761    Y=             -3.1577    Z=              0.0637  Tot=              3.5756

 Test job not archived.
 1\1\GINC-SE131\SP\RHF\Aug-CC-pVDZ\C5H12O1\OHZDE\09-Apr-2025\0\\#t hf a
 ug-cc-pvdz iop(5/13=1,5/36=2,99/5=2) pseudo=read geom=check guess=(rea
 d,tcheck) scf=(maxcycle=1)\\title\\0,1\C,0,-2.75391994,0.03997039,0.02
 326874\C,0,-1.2538457,-0.30515454,0.03825817\C,0,-0.45722059,0.6824988
 1,0.86010826\O,0,0.36080219,0.39999416,1.71835704\C,0,2.22747295,-0.14
 952368,-1.24596958\C,0,2.4217563,1.1494725,-0.98223958\H,0,-3.29979359
 ,-0.63972608,-0.64357028\H,0,-3.18842937,-0.04574548,1.02848513\H,0,-2
 .92018595,1.06709807,-0.33252216\H,0,-1.06884685,-1.31930444,0.4143300

 Normal termination of Gaussian 16 at Wed Apr  9 14:10:24 2025.
