 Gaussian 16, Revision C.01,

 ----------------------------------------------------------------------
 #t hf aug-cc-pvdz symm=none int=(grid=ultrafine) guess=(read,tcheck) s
 table=(opt,rrhf)
 ----------------------------------------------------------------------
 -----
 title
 -----
 Symbolic Z-matrix:
 Charge =  0 Multiplicity = 1

 SCF Done:  E(RHF) =  -359.485154673     A.U. after   20 cycles
 Normal termination of Gaussian 16 at Wed Apr  9 03:45:36 2025.
 Gaussian 16:  ES64L-G16RevC.01  3-Jul-2019

 ----------------------------------------------------------------------
 #t hf aug-cc-pvdz iop(5/13=1,5/36=2,99/5=2) pseudo=read geom=check gue
 ss=(read,tcheck) scf=(maxcycle=1)
 ----------------------------------------------------------------------
 -----
 title
 -----
 Structure from the checkpoint file:  "Grambow2020_wb97xd3_007890_forward_mol1.chk"
 Charge =  0 Multiplicity = 1

                         Standard orientation:
 ---------------------------------------------------------------------
 Center     Atomic      Atomic             Coordinates (Angstroms)
 Number     Number       Type             X           Y           Z
 ---------------------------------------------------------------------
      1          6           0       -1.808199   -0.889391    0.361126
      2          6           0       -0.680193   -0.433810   -0.529383
      3          7           0       -0.496710    0.865159   -0.851209
      4          8           0       -0.635096    1.567866    0.251073
      5          6           0        0.567936   -1.038037   -0.399870
      6          6           0        1.790064   -0.200936   -0.298456
      7          8           0        1.283297    0.121184    0.970184
      8          1           0       -2.688809   -0.267705    0.206454
      9          1           0       -2.058882   -1.919040    0.097417
     10          1           0       -1.546365   -0.866675    1.420815
     11          1           0        0.143289    0.998767    0.830423
     12          1           0        0.626629   -2.011762    0.072428
     13          1           0        2.722701   -0.762030   -0.242795
     14          1           0        1.875156    0.632976   -0.996836
 ---------------------------------------------------------------------

 SCF Done:  E(RHF) =  -359.592151974     A.U. after    2 cycles

 The electronic state is 1-A.
 Alpha  occ. eigenvalues --  -20.63099 -20.55312 -15.77376 -11.34562 -11.30926
 Alpha  occ. eigenvalues --  -11.29373 -11.25533  -1.44593  -1.29779  -1.15550
 Alpha  occ. eigenvalues --   -0.99591  -0.98379  -0.89292  -0.79750  -0.72188
 Alpha  occ. eigenvalues --   -0.70606  -0.67180  -0.65229  -0.60271  -0.59486
 Alpha  occ. eigenvalues --   -0.57056  -0.56588  -0.55759  -0.46966  -0.46339
 Alpha  occ. eigenvalues --   -0.44856  -0.34012
 Alpha virt. eigenvalues --    0.00034   0.03120   0.04052   0.05066   0.05671
 Alpha virt. eigenvalues --    0.06478   0.07070   0.08334   0.09273   0.09478
 Alpha virt. eigenvalues --    0.12239   0.13206   0.13596   0.14162   0.15093

 Mulliken charges:
               1
     1  C    0.426113
     2  C    0.105276
     3  N   -0.298360
     4  O   -0.628633
     5  C    0.439326
     6  C    0.954327
     7  O   -0.924483
     8  H   -0.043711
     9  H    0.048966
    10  H    0.037147
    11  H    0.596266
    12  H   -0.368541
    13  H   -0.200530
    14  H   -0.143161
 Sum of Mulliken charges =  -0.00000

 Dipole moment (field-independent basis, Debye):
    X=             -0.4050    Y=             -3.2879    Z=             -1.5444  Tot=              3.6551

 Test job not archived.
 1\1\GINC-SE252\SP\RHF\Aug-CC-pVDZ\C4H7N1O2\OHZDE\09-Apr-2025\0\\#t hf
 aug-cc-pvdz iop(5/13=1,5/36=2,99/5=2) pseudo=read geom=check guess=(re
 ad,tcheck) scf=(maxcycle=1)\\title\\0,1\C,0,-1.43706029,-1.08108344,-0
 .47428996\C,0,-0.58738481,0.15840862,-0.59540155\N,0,-0.83794306,1.275
 80121,0.12098661\O,0,-1.08224995,0.90456809,1.35810918\C,0,0.79174946,
 0.02040284,-0.7318955\C,0,1.70521196,0.82437607,0.1188889\O,0,1.242568
 31,-0.01231316,1.14647516\H,0,-2.47531605,-0.81263264,-0.284947\H,0,-1
 .38562957,-1.62581143,-1.41937686\H,0,-1.09890724,-1.75001786,0.319557

 Normal termination of Gaussian 16 at Wed Apr  9 03:45:41 2025.
