 Gaussian 16, Revision C.01,

 ----------------------------------------------------------------------
 #t hf aug-cc-pvdz symm=none int=(grid=ultrafine) guess=(read,tcheck) s
 table=(opt,rrhf)
 ----------------------------------------------------------------------
 -----
 title
 -----
 Symbolic Z-matrix:
 Charge =  0 Multiplicity = 1

 SCF Done:  E(RHF) =  -323.841667201     A.U. after   14 cycles
 Normal termination of Gaussian 16 at Wed Apr  9 15:22:01 2025.
 Gaussian 16:  ES64L-G16RevC.01  3-Jul-2019

 ----------------------------------------------------------------------
 #t hf aug-cc-pvdz iop(5/13=1,5/36=2,99/5=2) pseudo=read geom=check gue
 ss=(read,tcheck) scf=(maxcycle=1)
 ----------------------------------------------------------------------
 -----
 title
 -----
 Structure from the checkpoint file:  "Grambow2020_wb97xd3_006864_reverse_mol2.chk"
 Charge =  0 Multiplicity = 1

                         Standard orientation:
 ---------------------------------------------------------------------
 Center     Atomic      Atomic             Coordinates (Angstroms)
 Number     Number       Type             X           Y           Z
 ---------------------------------------------------------------------
      1          6           0       -2.423376   -0.949199   -0.716777
      2          7           0       -1.347076   -0.264797   -0.029665
      3          6           0       -1.734363    0.677802    0.999394
      4          6           0       -1.206529    1.151125   -0.300344
      5          6           0        2.600215   -0.159882    0.003263
      6          8           0        3.308157    0.448430   -0.682268
      7          6           0        1.788921   -0.838814    0.768275
      8          1           0       -2.707097   -1.836493   -0.148744
      9          1           0       -2.078065   -1.266378   -1.701931
     10          1           0       -3.316054   -0.319746   -0.847973
     11          1           0       -2.796708    0.809168    1.185012
     12          1           0       -1.105259    0.699363    1.881698
     13          1           0       -1.911174    1.602270   -0.993035
     14          1           0        2.180646   -1.325104    1.648292
     15          1           0       -0.190154    1.521419   -0.371286
     16          1           0        0.738929   -0.904557    0.490900
 ---------------------------------------------------------------------

 SCF Done:  E(RHF) =  -323.946434976     A.U. after    2 cycles

 The electronic state is 1-A.
 Alpha  occ. eigenvalues --  -20.63074 -15.63221 -11.38199 -11.27016 -11.26894
 Alpha  occ. eigenvalues --  -11.26447 -11.23033  -1.43041  -1.26019  -1.03545
 Alpha  occ. eigenvalues --   -0.99689  -0.85069  -0.81999  -0.75706  -0.69687
 Alpha  occ. eigenvalues --   -0.66754  -0.65655  -0.64925  -0.64698  -0.60211
 Alpha  occ. eigenvalues --   -0.56397  -0.55768  -0.53537  -0.47669  -0.46151
 Alpha  occ. eigenvalues --   -0.38075  -0.35722
 Alpha virt. eigenvalues --    0.03249   0.03873   0.04366   0.04514   0.06324
 Alpha virt. eigenvalues --    0.07220   0.07339   0.07742   0.09150   0.09675
 Alpha virt. eigenvalues --    0.11180   0.12290   0.12993   0.13598   0.14167

 Mulliken charges:
               1
     1  C    0.835016
     2  N   -0.524141
     3  C    0.796820
     4  C    0.853297
     5  C   -0.180651
     6  O   -0.263625
     7  C    0.994574
     8  H   -0.196285
     9  H   -0.198773
    10  H   -0.198980
    11  H   -0.320641
    12  H   -0.328646
    13  H   -0.324111
    14  H   -0.211991
    15  H   -0.334719
    16  H   -0.397142
 Sum of Mulliken charges =  -0.00000

 Dipole moment (field-independent basis, Debye):
    X=             -2.9971    Y=             -0.2933    Z=              0.9987  Tot=              3.1727

 Test job not archived.
 1\1\GINC-SE114\SP\RHF\Aug-CC-pVDZ\C5H9N1O1\OHZDE\09-Apr-2025\0\\#t hf
 aug-cc-pvdz iop(5/13=1,5/36=2,99/5=2) pseudo=read geom=check guess=(re
 ad,tcheck) scf=(maxcycle=1)\\title\\0,1\C,0,1.23353151,0.06120517,-1.8
 0739319\N,0,0.59107668,-0.00385478,-0.51048629\C,0,1.42886409,-0.38856
 107,0.60645532\C,0,0.42064024,-1.32452982,0.05927184\C,0,-2.95166932,0
 .62876182,1.11491965\O,0,-3.852793,-0.09597133,1.17750616\C,0,-1.92687
 74,1.4337905,1.03669413\H,0,1.6873329,1.04506403,-1.93598923\H,0,0.484
 29571,-0.07758777,-2.58826052\H,0,2.01508699,-0.70217651,-1.93669179\H

 Normal termination of Gaussian 16 at Wed Apr  9 15:22:06 2025.
