 Gaussian 16, Revision C.01,

 ----------------------------------------------------------------------
 #t hf aug-cc-pvdz symm=none int=(grid=ultrafine) guess=(read,tcheck) s
 table=(opt,rrhf)
 ----------------------------------------------------------------------
 -----
 title
 -----
 Symbolic Z-matrix:
 Charge =  0 Multiplicity = 1

 SCF Done:  E(RHF) =  -286.925391317     A.U. after   13 cycles
 Normal termination of Gaussian 16 at Wed Apr  9 15:36:02 2025.
 Gaussian 16:  ES64L-G16RevC.01  3-Jul-2019

 ----------------------------------------------------------------------
 #t hf aug-cc-pvdz iop(5/13=1,5/36=2,99/5=2) pseudo=read geom=check gue
 ss=(read,tcheck) scf=(maxcycle=1)
 ----------------------------------------------------------------------
 -----
 title
 -----
 Structure from the checkpoint file:  "Grambow2020_wb97xd3_007180_forward_mol2.chk"
 Charge =  0 Multiplicity = 1

                         Standard orientation:
 ---------------------------------------------------------------------
 Center     Atomic      Atomic             Coordinates (Angstroms)
 Number     Number       Type             X           Y           Z
 ---------------------------------------------------------------------
      1          6           0        2.493410   -0.617372    0.001110
      2          6           0        1.127778   -0.020570   -0.000166
      3          6           0        0.711515    1.282249    0.000538
      4          6           0       -0.712451    1.282186   -0.000684
      5          6           0       -1.128144   -0.020810   -0.002457
      6          6           0       -2.493026   -0.618019    0.002078
      7          7           0       -0.000073   -0.800384   -0.001931
      8          1           0        2.659003   -1.258672   -0.869113
      9          1           0        3.242250    0.172987   -0.024524
     10          1           0        2.675485   -1.218367    0.896514
     11          1           0        1.360445    2.144397    0.003364
     12          1           0       -1.359968    2.145262   -0.001142
     13          1           0       -2.672328   -1.213690    0.901433
     14          1           0       -3.241067    0.172862   -0.027784
     15          1           0       -2.658113   -1.263999   -0.864666
     16          1           0        0.000307   -1.804068   -0.003081
 ---------------------------------------------------------------------

 SCF Done:  E(RHF) =  -287.013660809     A.U. after    2 cycles

 The electronic state is 1-A.
 Alpha  occ. eigenvalues --  -15.65432 -11.25746 -11.25736 -11.23700 -11.23693
 Alpha  occ. eigenvalues --  -11.20520 -11.20430  -1.25780  -1.04067  -1.02386
 Alpha  occ. eigenvalues --   -0.97069  -0.87579  -0.77829  -0.75955  -0.66715
 Alpha  occ. eigenvalues --   -0.60679  -0.58994  -0.58403  -0.57355  -0.56254
 Alpha  occ. eigenvalues --   -0.53619  -0.51718  -0.51624  -0.50322  -0.34006
 Alpha  occ. eigenvalues --   -0.27928
 Alpha virt. eigenvalues --    0.03151   0.03611   0.04306   0.05057   0.06048
 Alpha virt. eigenvalues --    0.06071   0.07149   0.08436   0.08528   0.10172
 Alpha virt. eigenvalues --    0.12607   0.13523   0.13851   0.14216   0.14377

 Mulliken charges:
               1
     1  C    0.604418
     2  C   -0.228796
     3  C    0.358751
     4  C    0.361429
     5  C   -0.228796
     6  C    0.602716
     7  N   -0.545167
     8  H    0.029190
     9  H   -0.037729
    10  H    0.041517
    11  H   -0.419441
    12  H   -0.419296
    13  H    0.044618
    14  H   -0.036466
    15  H    0.027848
    16  H   -0.154796
 Sum of Mulliken charges =  -0.00000

 Dipole moment (field-independent basis, Debye):
    X=              0.0005    Y=             -2.0808    Z=              0.0039  Tot=              2.0808

 Test job not archived.
 1\1\GINC-SE232\SP\RHF\Aug-CC-pVDZ\C6H9N1\OHZDE\09-Apr-2025\0\\#t hf au
 g-cc-pvdz iop(5/13=1,5/36=2,99/5=2) pseudo=read geom=check guess=(read
 ,tcheck) scf=(maxcycle=1)\\title\\0,1\C,0,-2.51822335,-0.36646287,0.07
 164042\C,0,-1.11911758,0.14689199,0.06202259\C,0,-0.62262642,1.417524,
 0.16002178\C,0,0.79733415,1.33426504,0.09324075\C,0,1.13046569,0.01481
 61,-0.0434344\C,0,2.45393933,-0.65795031,-0.16746916\N,0,-0.04314929,-
 0.6941242,-0.06104807\H,0,-2.68675911,-1.07575418,0.88679409\H,0,-3.21
 444497,0.46035237,0.20482775\H,0,-2.77508708,-0.86922525,-0.86502702\H

 Normal termination of Gaussian 16 at Wed Apr  9 15:36:08 2025.
