 Gaussian 16, Revision C.01,

 ----------------------------------------------------------------------
 #t hf aug-cc-pvdz symm=none int=(grid=ultrafine) guess=(read,tcheck) s
 table=(opt,rrhf)
 ----------------------------------------------------------------------
 -----
 title
 -----
 Symbolic Z-matrix:
 Charge =  0 Multiplicity = 1

 SCF Done:  E(RHF) =  -317.612561095     A.U. after   15 cycles
 Normal termination of Gaussian 16 at Wed Apr  9 16:49:57 2025.
 Gaussian 16:  ES64L-G16RevC.01  3-Jul-2019

 ----------------------------------------------------------------------
 #t hf aug-cc-pvdz iop(5/13=1,5/36=2,99/5=2) pseudo=read geom=check gue
 ss=(read,tcheck) scf=(maxcycle=1)
 ----------------------------------------------------------------------
 -----
 title
 -----
 Structure from the checkpoint file:  "Grambow2020_wb97xd3_008972_reverse_mol2.chk"
 Charge =  0 Multiplicity = 1

                         Standard orientation:
 ---------------------------------------------------------------------
 Center     Atomic      Atomic             Coordinates (Angstroms)
 Number     Number       Type             X           Y           Z
 ---------------------------------------------------------------------
      1          7           0        1.686761   -0.145013   -0.628413
      2          6           0        0.414464   -0.046023    0.098289
      3          6           0        1.705495   -0.007390    0.889457
      4          7           0       -0.450882   -1.175499    0.075487
      5          6           0       -1.617980   -0.658698    0.027010
      6          7           0       -1.697711    0.758661   -0.048391
      7          6           0       -0.468827    1.119710   -0.093699
      8          1           0        1.879797   -1.073395   -0.978920
      9          1           0        1.898249    0.597460   -1.284310
     10          1           0        1.940419    1.049693    1.064874
     11          1           0       -2.529112   -1.243665    0.029984
     12          1           0       -0.155435    2.157271   -0.148748
 ---------------------------------------------------------------------

 SCF Done:  E(RHF) =  -317.701582922     A.U. after    2 cycles

 The electronic state is 1-A.
 Alpha  occ. eigenvalues --  -15.73739 -15.64844 -15.63293 -11.32956 -11.32579
 Alpha  occ. eigenvalues --  -11.32034 -11.24129  -1.33690  -1.27706  -1.14303
 Alpha  occ. eigenvalues --   -0.99790  -0.91087  -0.82989  -0.78864  -0.75249
 Alpha  occ. eigenvalues --   -0.70027  -0.65248  -0.59950  -0.58644  -0.54028
 Alpha  occ. eigenvalues --   -0.47332  -0.45536  -0.44112  -0.39643  -0.32711
 Alpha virt. eigenvalues --    0.01628   0.03429   0.04113   0.05030   0.06262
 Alpha virt. eigenvalues --    0.06941   0.09566   0.09941   0.10218   0.11345
 Alpha virt. eigenvalues --    0.12712   0.13313   0.14555   0.14608   0.15584

 Mulliken charges:
               1
     1  N   -0.325384
     2  C    0.853869
     3  C   -0.080665
     4  N   -0.642834
     5  C    0.678783
     6  N   -0.621724
     7  C    0.633514
     8  H    0.056041
     9  H    0.031159
    10  H   -0.173185
    11  H   -0.210135
    12  H   -0.199440
 Sum of Mulliken charges =  -0.00000

 Dipole moment (field-independent basis, Debye):
    X=              1.0565    Y=              2.0494    Z=             -4.1793  Tot=              4.7732

 Test job not archived.
 1\1\GINC-SE273\SP\RHF\Aug-CC-pVDZ\C4H5N3\OHZDE\09-Apr-2025\0\\#t hf au
 g-cc-pvdz iop(5/13=1,5/36=2,99/5=2) pseudo=read geom=check guess=(read
 ,tcheck) scf=(maxcycle=1)\\title\\0,1\N,0,-1.39653717,0.53208379,-0.49
 982029\C,0,-0.03241242,0.30742629,-0.00451472\C,0,-0.80825589,1.496244
 06,0.52367267\N,0,1.03801678,0.4275536,-0.93446593\C,0,1.85593476,-0.4
 8341578,-0.570192\N,0,1.46232088,-1.31313562,0.51497159\C,0,0.28578623
 ,-0.8898346,0.79630462\H,0,-1.42896661,0.87879081,-1.44890108\H,0,-2.0
 8099458,-0.18694858,-0.29806705\H,0,-1.25425199,1.1877291,1.47723975\H

 Normal termination of Gaussian 16 at Wed Apr  9 16:50:02 2025.
