 Gaussian 16, Revision C.01,

 ----------------------------------------------------------------------
 #t hf aug-cc-pvdz symm=none int=(grid=ultrafine) guess=(read,tcheck) s
 table=(opt,rrhf)
 ----------------------------------------------------------------------
 -----
 title
 -----
 Symbolic Z-matrix:
 Charge =  0 Multiplicity = 1

 SCF Done:  E(RHF) =  -307.021740006     A.U. after   13 cycles

 1\1\GINC-SE036\Stability\RHF\Aug-CC-pVDZ\C4H10O2\OHZDE\09-Apr-2025\0\\
 #t hf aug-cc-pvdz symm=none int=(grid=ultrafine) guess=(read,tcheck) s
 table=(opt,rrhf)\\title\\0,1\C,0,-1.74524409,-1.98888223,0.45734935\C,
 0,0.47615253,1.27621628,-0.4979706\C,0,0.98215341,0.26164384,-1.221697
 37\O,0,1.18104935,0.34834149,-2.57511873\C,0,0.2874864,1.18845181,0.98
 74078\O,0,1.07178245,2.15202756,1.70515373\H,0,-1.84764859,-2.88030154
 ,-0.17378142\H,0,-2.67832736,-1.82485305,1.00969236\H,0,-1.53056544,-1
 .11487416,-0.16883545\H,0,0.22258966,2.21441413,-0.99434917\H,0,1.2498

 Normal termination of Gaussian 16 at Wed Apr  9 14:18:20 2025.
 Gaussian 16:  ES64L-G16RevC.01  3-Jul-2019

 ----------------------------------------------------------------------
 #t hf aug-cc-pvdz iop(5/13=1,5/36=2,99/5=2) pseudo=read geom=check gue
 ss=(read,tcheck) scf=(maxcycle=1)
 ----------------------------------------------------------------------
 -----
 title
 -----
 Structure from the checkpoint file:  "Grambow2020_b97d3_007102_reverse_mol2.chk"
 Charge =  0 Multiplicity = 1

                         Standard orientation:
 ---------------------------------------------------------------------
 Center     Atomic      Atomic             Coordinates (Angstroms)
 Number     Number       Type             X           Y           Z
 ---------------------------------------------------------------------
      1          6           0       -3.071606   -0.998756    0.010757
      2          6           0        0.751415    0.297725    0.470919
      3          6           0        0.128426    1.239367   -0.260088
      4          8           0        0.165700    2.570352    0.065358
      5          6           0        0.733267   -1.154269    0.095378
      6          8           0        2.041907   -1.672788   -0.182750
      7          1           0       -3.927094   -0.350789   -0.216665
      8          1           0       -3.404276   -1.833539    0.639328
      9          1           0       -2.302576   -0.424003    0.540225
     10          1           0        1.322781    0.594223    1.352129
     11          1           0       -0.446477    0.969064   -1.151433
     12          1           0       -2.652714   -1.393481   -0.923291
     13          1           0       -0.364107    3.065790   -0.582840
     14          1           0        0.361736   -1.770326    0.926507
     15          1           0        0.043709   -1.309282   -0.756856
     16          1           0        2.459147   -1.032574   -0.789764
 ---------------------------------------------------------------------

 SCF Done:  E(RHF) =  -307.123257297     A.U. after    2 cycles

 The electronic state is 1-A.
 Alpha  occ. eigenvalues --  -20.61466 -20.57057 -11.31926 -11.29391 -11.23625
 Alpha  occ. eigenvalues --  -11.22546  -1.36801  -1.31247  -1.05122  -0.94062
 Alpha  occ. eigenvalues --   -0.91371  -0.79010  -0.75892  -0.68371  -0.65922
 Alpha  occ. eigenvalues --   -0.61499  -0.59526  -0.59114  -0.55039  -0.54918
 Alpha  occ. eigenvalues --   -0.54895  -0.53525  -0.51351  -0.46263  -0.35422
 Alpha virt. eigenvalues --    0.02567   0.04151   0.04679   0.04879   0.06184
 Alpha virt. eigenvalues --    0.06713   0.07319   0.07696   0.08069   0.09825
 Alpha virt. eigenvalues --    0.11232   0.12698   0.13584   0.14761   0.15436

 Mulliken charges:
               1
     1  C    0.609452
     2  C    0.095734
     3  C    0.952351
     4  O   -0.599214
     5  C    0.817988
     6  O   -0.607201
     7  H   -0.123563
     8  H   -0.114647
     9  H   -0.196832
    10  H   -0.336128
    11  H   -0.394326
    12  H   -0.152636
    13  H    0.198952
    14  H   -0.101937
    15  H   -0.225957
    16  H    0.177964
 Sum of Mulliken charges =   0.00000

 Dipole moment (field-independent basis, Debye):
    X=             -2.0280    Y=              1.8237    Z=             -2.0851  Tot=              3.4331

 Test job not archived.
 1\1\GINC-SE036\SP\RHF\Aug-CC-pVDZ\C4H10O2\OHZDE\09-Apr-2025\0\\#t hf a
 ug-cc-pvdz iop(5/13=1,5/36=2,99/5=2) pseudo=read geom=check guess=(rea
 d,tcheck) scf=(maxcycle=1)\\title\\0,1\C,0,-1.74524409,-1.98888223,0.4
 5734935\C,0,0.47615253,1.27621628,-0.4979706\C,0,0.98215341,0.26164384
 ,-1.22169737\O,0,1.18104935,0.34834149,-2.57511873\C,0,0.2874864,1.188
 45181,0.9874078\O,0,1.07178245,2.15202756,1.70515373\H,0,-1.84764859,-
 2.88030154,-0.17378142\H,0,-2.67832736,-1.82485305,1.00969236\H,0,-1.5
 3056544,-1.11487416,-0.16883545\H,0,0.22258966,2.21441413,-0.99434917\

 Normal termination of Gaussian 16 at Wed Apr  9 14:18:24 2025.
