 Gaussian 16, Revision C.01,

 ----------------------------------------------------------------------
 #t hf aug-cc-pvdz symm=none int=(grid=ultrafine) guess=(read,tcheck) s
 table=(opt,rrhf)
 ----------------------------------------------------------------------
 -----
 title
 -----
 Symbolic Z-matrix:
 Charge =  0 Multiplicity = 1

 SCF Done:  E(RHF) =  -286.770051202     A.U. after   14 cycles
 Normal termination of Gaussian 16 at Wed Apr  9 16:14:05 2025.
 Gaussian 16:  ES64L-G16RevC.01  3-Jul-2019

 ----------------------------------------------------------------------
 #t hf aug-cc-pvdz iop(5/13=1,5/36=2,99/5=2) pseudo=read geom=check gue
 ss=(read,tcheck) scf=(maxcycle=1)
 ----------------------------------------------------------------------
 -----
 title
 -----
 Structure from the checkpoint file:  "Grambow2020_wb97xd3_007998_reverse_mol2.chk"
 Charge =  0 Multiplicity = 1

                         Standard orientation:
 ---------------------------------------------------------------------
 Center     Atomic      Atomic             Coordinates (Angstroms)
 Number     Number       Type             X           Y           Z
 ---------------------------------------------------------------------
      1          6           0        2.895747   -1.240954    0.000786
      2          6           0        2.140900   -0.172504    0.003171
      3          6           0        1.412451    0.865282    0.004284
      4          6           0        0.641082    1.921678    0.003644
      5          6           0       -1.859715   -0.755165   -0.732405
      6          6           0       -1.912016   -0.748629    0.741843
      7          7           0       -2.352882    0.418992   -0.016699
      8          1           0        2.463437   -2.235200    0.007094
      9          1           0        3.977106   -1.163139   -0.007735
     10          1           0       -0.908412   -0.615113   -1.231811
     11          1           0        1.067472    2.918759   -0.003706
     12          1           0       -0.442136    1.818142    0.009237
     13          1           0       -2.573768   -1.372011   -1.266368
     14          1           0       -0.998274   -0.605554    1.306493
     15          1           0       -2.662967   -1.360982    1.228047
     16          1           0       -3.362984    0.463908   -0.052289
 ---------------------------------------------------------------------

 SCF Done:  E(RHF) =  -286.860715614     A.U. after    2 cycles

 The electronic state is 1-A.
 Alpha  occ. eigenvalues --  -15.62457 -11.26503 -11.26376 -11.26296 -11.26011
 Alpha  occ. eigenvalues --  -11.25707 -11.25301  -1.23795  -1.07980  -1.00574
 Alpha  occ. eigenvalues --   -0.88927  -0.88655  -0.83922  -0.70599  -0.68435
 Alpha  occ. eigenvalues --   -0.64849  -0.64392  -0.61974  -0.59820  -0.53015
 Alpha  occ. eigenvalues --   -0.48320  -0.48050  -0.47425  -0.39605  -0.36619
 Alpha  occ. eigenvalues --   -0.33215
 Alpha virt. eigenvalues --    0.03259   0.03992   0.04230   0.04707   0.05488
 Alpha virt. eigenvalues --    0.06297   0.06678   0.07706   0.08708   0.09258
 Alpha virt. eigenvalues --    0.10875   0.11665   0.12156   0.13752   0.13810

 Mulliken charges:
               1
     1  C    0.640397
     2  C   -0.395472
     3  C   -0.301465
     4  C    0.753729
     5  C    0.875474
     6  C    0.851013
     7  N   -0.467829
     8  H   -0.172251
     9  H   -0.165632
    10  H   -0.329276
    11  H   -0.164577
    12  H   -0.184610
    13  H   -0.279283
    14  H   -0.323778
    15  H   -0.278907
    16  H   -0.057532
 Sum of Mulliken charges =  -0.00000

 Dipole moment (field-independent basis, Debye):
    X=             -1.3515    Y=             -1.3021    Z=             -0.0282  Tot=              1.8769

 Test job not archived.
 1\1\GINC-SE174\SP\RHF\Aug-CC-pVDZ\C6H9N1\OHZDE\09-Apr-2025\0\\#t hf au
 g-cc-pvdz iop(5/13=1,5/36=2,99/5=2) pseudo=read geom=check guess=(read
 ,tcheck) scf=(maxcycle=1)\\title\\0,1\C,0,2.79177109,0.83969455,1.4603
 2201\C,0,2.15036307,-0.0373241,0.73174819\C,0,1.53169772,-0.89000307,0
 .02617685\C,0,0.87253771,-1.75761074,-0.69752719\C,0,-1.94881642,0.248
 46031,0.70848831\C,0,-1.67407622,1.01330322,-0.52265644\N,0,-2.1696635
 8,-0.3582645,-0.60193325\H,0,2.28796977,1.70913961,1.86739302\H,0,3.84
 723884,0.7223289,1.67867346\H,0,-1.12260017,-0.17213117,1.26926311\H,0

 Normal termination of Gaussian 16 at Wed Apr  9 16:14:10 2025.
