 Gaussian 16, Revision C.01,

 ----------------------------------------------------------------------
 #t hf aug-cc-pvdz symm=none int=(grid=ultrafine) guess=(read,tcheck) s
 table=(opt,rrhf)
 ----------------------------------------------------------------------
 -----
 title
 -----
 Symbolic Z-matrix:
 Charge =  0 Multiplicity = 1

 SCF Done:  E(RHF) =  -271.885475504     A.U. after   14 cycles
 Normal termination of Gaussian 16 at Wed Apr  9 15:53:25 2025.
 Gaussian 16:  ES64L-G16RevC.01  3-Jul-2019

 ----------------------------------------------------------------------
 #t hf aug-cc-pvdz iop(5/13=1,5/36=2,99/5=2) pseudo=read geom=check gue
 ss=(read,tcheck) scf=(maxcycle=1)
 ----------------------------------------------------------------------
 -----
 title
 -----
 Structure from the checkpoint file:  "Grambow2020_wb97xd3_007432_reverse_mol1.chk"
 Charge =  0 Multiplicity = 1

                         Standard orientation:
 ---------------------------------------------------------------------
 Center     Atomic      Atomic             Coordinates (Angstroms)
 Number     Number       Type             X           Y           Z
 ---------------------------------------------------------------------
      1          6           0       -2.678292    0.060834    0.154183
      2          6           0       -1.384079   -0.740648    0.090329
      3          6           0       -0.238047    0.029888   -0.551630
      4          6           0        0.196361    1.307171    0.173747
      5          6           0        2.045330    0.524498   -0.228576
      6          6           0        1.837399   -0.623460    0.708617
      7          6           0        1.116298   -0.626427   -0.599689
      8          1           0       -3.483548   -0.517864    0.608766
      9          1           0       -3.006529    0.359982   -0.844456
     10          1           0       -2.555336    0.971859    0.746239
     11          1           0       -1.086919   -1.050190    1.097390
     12          1           0       -1.542633   -1.662234   -0.478282
     13          1           0       -0.527935    0.304632   -1.570505
     14          1           0        0.079656    1.317614    1.255208
     15          1           0       -0.135071    2.245571   -0.269943
     16          1           0        1.490069    1.580633   -0.065151
     17          1           0        2.712788   -1.261510    0.763635
     18          1           0        1.302707   -0.540918    1.647562
     19          1           0        1.382937   -1.338702   -1.372349
 ---------------------------------------------------------------------

 SCF Done:  E(RHF) =  -271.967391315     A.U. after    2 cycles

 The electronic state is 1-A.
 Alpha  occ. eigenvalues --  -11.27979 -11.25082 -11.24610 -11.23605 -11.23336
 Alpha  occ. eigenvalues --  -11.23232 -11.23046  -1.17380  -1.05749  -0.98324
 Alpha  occ. eigenvalues --   -0.91321  -0.83472  -0.78427  -0.72824  -0.68329
 Alpha  occ. eigenvalues --   -0.64778  -0.60926  -0.60219  -0.56415  -0.54366
 Alpha  occ. eigenvalues --   -0.54206  -0.50135  -0.49282  -0.47022  -0.43756
 Alpha  occ. eigenvalues --   -0.40016  -0.30771
 Alpha virt. eigenvalues --    0.03202   0.04084   0.04185   0.04513   0.06075
 Alpha virt. eigenvalues --    0.06295   0.06471   0.06846   0.06935   0.08660
 Alpha virt. eigenvalues --    0.09370   0.09473   0.11048   0.12618   0.13358

 Mulliken charges:
               1
     1  C    0.550504
     2  C    0.256100
     3  C   -0.592580
     4  C    0.551911
     5  C   -0.399856
     6  C    1.043602
     7  C    0.801066
     8  H   -0.058431
     9  H   -0.070684
    10  H   -0.103366
    11  H   -0.064736
    12  H   -0.083507
    13  H   -0.199857
    14  H   -0.220818
    15  H   -0.300688
    16  H    0.086265
    17  H   -0.330903
    18  H   -0.444575
    19  H   -0.419448
 Sum of Mulliken charges =   0.00000

 Dipole moment (field-independent basis, Debye):
    X=             -2.6845    Y=             -0.1443    Z=              0.6934  Tot=              2.7763

 Test job not archived.
 1\1\GINC-SE229\SP\RHF\Aug-CC-pVDZ\C7H12\OHZDE\09-Apr-2025\0\\#t hf aug
 -cc-pvdz iop(5/13=1,5/36=2,99/5=2) pseudo=read geom=check guess=(read,
 tcheck) scf=(maxcycle=1)\\title\\0,1\C,0,2.33725611,0.44505539,-0.6005
 0643\C,0,1.11328315,-0.45917827,-0.67594944\C,0,0.17781119,-0.29489482
 ,0.51448275\C,0,-0.44415959,1.0941488,0.68781651\C,0,-2.11123535,-0.04
 600872,1.02549332\C,0,-2.15629796,-0.52037764,-0.39306846\C,0,-1.10924
 746,-1.0764222,0.51586474\H,0,2.99385343,0.29965628,-1.45940874\H,0,2.
 92060027,0.24459584,0.3017322\H,0,2.05347125,1.50083862,-0.58043568\H,

 Normal termination of Gaussian 16 at Wed Apr  9 15:53:32 2025.
