 Gaussian 16, Revision C.01,

 ----------------------------------------------------------------------
 #t hf aug-cc-pvdz symm=none int=(grid=ultrafine) guess=(read,tcheck) s
 table=(opt,rrhf)
 ----------------------------------------------------------------------
 -----
 title
 -----
 Symbolic Z-matrix:
 Charge =  0 Multiplicity = 1

 SCF Done:  E(RHF) =  -325.099778067     A.U. after   13 cycles
 Normal termination of Gaussian 16 at Wed Apr  9 03:51:51 2025.
 Gaussian 16:  ES64L-G16RevC.01  3-Jul-2019

 ----------------------------------------------------------------------
 #t hf aug-cc-pvdz iop(5/13=1,5/36=2,99/5=2) pseudo=read geom=check gue
 ss=(read,tcheck) scf=(maxcycle=1)
 ----------------------------------------------------------------------
 -----
 title
 -----
 Structure from the checkpoint file:  "Grambow2020_wb97xd3_008239_reverse_mol2.chk"
 Charge =  0 Multiplicity = 1

                         Standard orientation:
 ---------------------------------------------------------------------
 Center     Atomic      Atomic             Coordinates (Angstroms)
 Number     Number       Type             X           Y           Z
 ---------------------------------------------------------------------
      1          6           0       -1.002201    1.488882   -1.021526
      2          6           0       -0.030425    1.869113    0.086343
      3          6           0        0.155229    0.779497    1.135391
      4          7           0        0.731806   -0.430521    0.602463
      5          6           0        1.674853   -0.788266   -0.037135
      6          8           0        2.553519   -1.249118   -0.653660
      7          6           0       -2.710665   -1.780147    0.016416
      8          1           0       -1.100768    2.296747   -1.747702
      9          1           0       -0.668045    0.598042   -1.556101
     10          1           0       -1.994759    1.278645   -0.616520
     11          1           0        0.946317    2.122995   -0.336974
     12          1           0       -0.385982    2.764645    0.604403
     13          1           0        0.788291    1.140874    1.949601
     14          1           0       -0.809492    0.512096    1.571165
     15          1           0       -1.629094   -1.653217    0.045932
     16          1           0       -3.076870   -1.556877   -0.984792
     17          1           0       -3.178416   -1.104212    0.731711
     18          1           0       -2.962718   -2.807619    0.274380
 ---------------------------------------------------------------------

 SCF Done:  E(RHF) =  -325.208495916     A.U. after    2 cycles

 The electronic state is 1-A.
 Alpha  occ. eigenvalues --  -20.61344 -15.64759 -11.40743 -11.30236 -11.24939
 Alpha  occ. eigenvalues --  -11.23293 -11.21670  -1.41907  -1.24117  -1.07082
 Alpha  occ. eigenvalues --   -0.96476  -0.93869  -0.84575  -0.73944  -0.69958
 Alpha  occ. eigenvalues --   -0.67638  -0.65796  -0.62874  -0.61616  -0.57775
 Alpha  occ. eigenvalues --   -0.54815  -0.54707  -0.54561  -0.52226  -0.51754
 Alpha  occ. eigenvalues --   -0.49916  -0.43271  -0.41896
 Alpha virt. eigenvalues --    0.02890   0.03944   0.04140   0.04854   0.06163
 Alpha virt. eigenvalues --    0.06612   0.06844   0.07318   0.08007   0.09290
 Alpha virt. eigenvalues --    0.09676   0.11026   0.12106   0.13232   0.13555

 Mulliken charges:
               1
     1  C    0.404262
     2  C    0.082188
     3  C    0.779812
     4  N   -0.021775
     5  C   -0.262693
     6  O   -0.237379
     7  C    0.789153
     8  H   -0.092555
     9  H   -0.071643
    10  H   -0.078774
    11  H   -0.112249
    12  H   -0.063540
    13  H   -0.139362
    14  H   -0.191135
    15  H   -0.307944
    16  H   -0.133930
    17  H   -0.159452
    18  H   -0.182982
 Sum of Mulliken charges =  -0.00000

 Dipole moment (field-independent basis, Debye):
    X=             -1.9662    Y=              2.6144    Z=              1.3720  Tot=              3.5473

 Test job not archived.
 1\1\GINC-SE132\SP\RHF\Aug-CC-pVDZ\C5H11N1O1\OHZDE\09-Apr-2025\0\\#t hf
  aug-cc-pvdz iop(5/13=1,5/36=2,99/5=2) pseudo=read geom=check guess=(r
 ead,tcheck) scf=(maxcycle=1)\\title\\0,1\C,0,-1.30133924,-0.16606094,-
 0.91225977\C,0,-1.70105031,0.53458207,0.37833271\C,0,-0.59272039,0.566
 20739,1.42372074\N,0,0.5679422,1.31016946,0.99948224\C,0,0.85489905,2.
 38350839,0.56130001\O,0,1.2489443,3.39533538,0.13063135\C,0,2.08488269
 ,-1.85379356,-0.3058082\H,0,-2.12368371,-0.16186767,-1.62879624\H,0,-0
 .44611264,0.32245318,-1.38233087\H,0,-1.02561595,-1.20619263,-0.723833

 Normal termination of Gaussian 16 at Wed Apr  9 03:51:58 2025.
