 Gaussian 16, Revision C.01,

 ----------------------------------------------------------------------
 #t hf aug-cc-pvdz symm=none int=(grid=ultrafine) guess=(read,tcheck) s
 table=(opt,rrhf)
 ----------------------------------------------------------------------
 -----
 title
 -----
 Symbolic Z-matrix:
 Charge =  0 Multiplicity = 1

 SCF Done:  E(RHF) =  -268.777966074     A.U. after   14 cycles
 Normal termination of Gaussian 16 at Wed Apr  9 03:15:01 2025.
 Gaussian 16:  ES64L-G16RevC.01  3-Jul-2019

 ----------------------------------------------------------------------
 #t hf aug-cc-pvdz iop(5/13=1,5/36=2,99/5=2) pseudo=read geom=check gue
 ss=(read,tcheck) scf=(maxcycle=1)
 ----------------------------------------------------------------------
 -----
 title
 -----
 Structure from the checkpoint file:  "Grambow2020_b97d3_007032_reverse_mol2.chk"
 Charge =  0 Multiplicity = 1

                         Standard orientation:
 ---------------------------------------------------------------------
 Center     Atomic      Atomic             Coordinates (Angstroms)
 Number     Number       Type             X           Y           Z
 ---------------------------------------------------------------------
      1          6           0       -2.826658   -0.755585    0.009326
      2          6           0       -1.645269    0.108992    0.006871
      3          6           0       -0.672730    0.843589   -0.006438
      4          6           0        1.745348   -1.210854   -0.028990
      5          6           0        2.789902   -0.367280    0.037946
      6          8           0        0.354993    1.668277   -0.015744
      7          1           0       -3.474682   -0.559486   -0.859238
      8          1           0       -2.537905   -1.817640   -0.030654
      9          1           0       -3.433116   -0.614434    0.917571
     10          1           0        1.224597   -1.552438    0.865536
     11          1           0        1.362360   -1.575256   -0.982590
     12          1           0        3.182191   -0.017010    0.994582
     13          1           0        3.316547   -0.035229   -0.858606
     14          1           0        1.176506    1.112102   -0.032938
 ---------------------------------------------------------------------

 SCF Done:  E(RHF) =  -268.866849826     A.U. after    2 cycles

 The electronic state is 1-A.
 Alpha  occ. eigenvalues --  -20.62391 -11.29213 -11.26853 -11.26191 -11.25648
 Alpha  occ. eigenvalues --  -11.22887  -1.37829  -1.04658  -1.03374  -0.94055
 Alpha  occ. eigenvalues --   -0.81124  -0.79153  -0.66764  -0.66171  -0.62113
 Alpha  occ. eigenvalues --   -0.61480  -0.60902  -0.57859  -0.57533  -0.52592
 Alpha  occ. eigenvalues --   -0.40256  -0.36671  -0.35055
 Alpha virt. eigenvalues --    0.03301   0.04074   0.04752   0.05201   0.06159
 Alpha virt. eigenvalues --    0.06747   0.07166   0.07808   0.09293   0.11381
 Alpha virt. eigenvalues --    0.11848   0.12850   0.13975   0.14089   0.14964

 Mulliken charges:
               1
     1  C    0.153778
     2  C   -0.023975
     3  C   -0.056276
     4  C    0.561687
     5  C    0.491634
     6  O   -0.422449
     7  H    0.056633
     8  H    0.072320
     9  H    0.051931
    10  H   -0.273370
    11  H   -0.263090
    12  H   -0.267698
    13  H   -0.270289
    14  H    0.189165
 Sum of Mulliken charges =  -0.00000

 Dipole moment (field-independent basis, Debye):
    X=              0.9840    Y=             -2.1444    Z=             -0.0335  Tot=              2.3596

 Test job not archived.
 1\1\GINC-SE455\SP\RHF\Aug-CC-pVDZ\C5H8O1\OHZDE\09-Apr-2025\0\\#t hf au
 g-cc-pvdz iop(5/13=1,5/36=2,99/5=2) pseudo=read geom=check guess=(read
 ,tcheck) scf=(maxcycle=1)\\title\\0,1\C,0,2.83411622,0.26621073,-0.472
 42411\C,0,1.56020789,0.76135071,0.05214429\C,0,0.51026238,1.18385865,0
 .50463043\C,0,-1.53258158,-1.13817609,-0.20479641\C,0,-2.68349596,-0.6
 0094663,0.23562311\O,0,-0.60725494,1.67457279,1.00138561\H,0,3.5973951
 7,0.19309083,0.31805143\H,0,2.71703845,-0.7382914,-0.90854982\H,0,3.23
 23569,0.92234747,-1.26205277\H,0,-1.14415803,-0.92677099,-1.20102566\H

 Normal termination of Gaussian 16 at Wed Apr  9 03:15:04 2025.
