 Gaussian 16, Revision C.01,

 ----------------------------------------------------------------------
 #t hf aug-cc-pvdz symm=none int=(grid=ultrafine) guess=(read,tcheck) s
 table=(opt,rrhf)
 ----------------------------------------------------------------------
 -----
 title
 -----
 Symbolic Z-matrix:
 Charge =  0 Multiplicity = 1

 SCF Done:  E(RHF) =  -268.677642768     A.U. after   16 cycles
 Normal termination of Gaussian 16 at Wed Apr  9 03:15:01 2025.
 Gaussian 16:  ES64L-G16RevC.01  3-Jul-2019

 ----------------------------------------------------------------------
 #t hf aug-cc-pvdz iop(5/13=1,5/36=2,99/5=2) pseudo=read geom=check gue
 ss=(read,tcheck) scf=(maxcycle=1)
 ----------------------------------------------------------------------
 -----
 title
 -----
 Structure from the checkpoint file:  "Grambow2020_b97d3_007033_reverse_mol1.chk"
 Charge =  0 Multiplicity = 1

                         Standard orientation:
 ---------------------------------------------------------------------
 Center     Atomic      Atomic             Coordinates (Angstroms)
 Number     Number       Type             X           Y           Z
 ---------------------------------------------------------------------
      1          6           0       -2.698375    0.006671    0.163033
      2          6           0       -1.244218   -0.152332   -0.090716
      3          6           0       -0.134318    0.423565   -0.336665
      4          6           0        1.159467    1.119207   -0.096730
      5          6           0        1.837511   -0.178215    0.419573
      6          8           0        1.087646   -1.162353   -0.280832
      7          1           0       -2.980364   -0.521278    1.084561
      8          1           0       -2.989475    1.062534    0.258374
      9          1           0       -3.279007   -0.441341   -0.656390
     10          1           0        1.619995    1.454442   -1.036714
     11          1           0        1.062655    1.974382    0.592318
     12          1           0        2.901902   -0.200820    0.134058
     13          1           0        1.768806   -0.252462    1.523061
     14          1           0       -0.326082   -1.090005   -0.003588
 ---------------------------------------------------------------------

 SCF Done:  E(RHF) =  -268.759759151     A.U. after    2 cycles

 The electronic state is 1-A.
 Alpha  occ. eigenvalues --  -20.48506 -11.34357 -11.27674 -11.27648 -11.27194
 Alpha  occ. eigenvalues --  -11.26718  -1.24356  -1.09428  -1.02309  -0.96830
 Alpha  occ. eigenvalues --   -0.82891  -0.69472  -0.65725  -0.64286  -0.63408
 Alpha  occ. eigenvalues --   -0.59917  -0.58288  -0.54691  -0.53073  -0.47135
 Alpha  occ. eigenvalues --   -0.43180  -0.37593  -0.36197
 Alpha virt. eigenvalues --    0.02632   0.03841   0.04724   0.05045   0.06282
 Alpha virt. eigenvalues --    0.06467   0.06976   0.08135   0.10010   0.10866
 Alpha virt. eigenvalues --    0.11769   0.12131   0.12998   0.13635   0.14517

 Mulliken charges:
               1
     1  C    0.165933
     2  C   -0.682188
     3  C    0.284484
     4  C   -0.055487
     5  C    0.925341
     6  O   -0.971213
     7  H    0.101967
     8  H    0.015273
     9  H    0.111726
    10  H    0.022969
    11  H    0.047958
    12  H   -0.169513
    13  H   -0.181909
    14  H    0.384658
 Sum of Mulliken charges =  -0.00000

 Dipole moment (field-independent basis, Debye):
    X=             -2.6169    Y=              3.6382    Z=              1.3157  Tot=              4.6708

 Test job not archived.
 1\1\GINC-SE456\SP\RHF\Aug-CC-pVDZ\C5H8O1\OHZDE\09-Apr-2025\0\\#t hf au
 g-cc-pvdz iop(5/13=1,5/36=2,99/5=2) pseudo=read geom=check guess=(read
 ,tcheck) scf=(maxcycle=1)\\title\\0,1\C,0,2.51326198,0.37189849,-0.076
 66\C,0,1.03275278,0.48153387,-0.09438999\C,0,-0.06755631,0.00797326,-0
 .52923036\C,0,-1.28470152,-0.84506414,-0.60828654\C,0,-1.96096342,-0.1
 0558319,0.57723202\O,0,-1.35400866,1.17541861,0.46754454\H,0,2.8777916
 2,0.35474138,0.95981788\H,0,2.86805278,-0.53308523,-0.59027851\H,0,2.9
 6570553,1.24793101,-0.56365567\H,0,-1.83841922,-0.67588114,-1.54253129

 Normal termination of Gaussian 16 at Wed Apr  9 03:15:05 2025.
