 Gaussian 16, Revision C.01,

 ----------------------------------------------------------------------
 #t hf aug-cc-pvdz symm=none int=(grid=ultrafine) guess=(read,tcheck) s
 table=(opt,rrhf)
 ----------------------------------------------------------------------
 -----
 title
 -----
 Symbolic Z-matrix:
 Charge =  0 Multiplicity = 1

 SCF Done:  E(RHF) =  -302.765048325     A.U. after   17 cycles
 Normal termination of Gaussian 16 at Wed Apr  9 16:47:14 2025.
 Gaussian 16:  ES64L-G16RevC.01  3-Jul-2019

 ----------------------------------------------------------------------
 #t hf aug-cc-pvdz iop(5/13=1,5/36=2,99/5=2) pseudo=read geom=check gue
 ss=(read,tcheck) scf=(maxcycle=1)
 ----------------------------------------------------------------------
 -----
 title
 -----
 Structure from the checkpoint file:  "Grambow2020_wb97xd3_008884_reverse_mol1.chk"
 Charge =  0 Multiplicity = 1

                         Standard orientation:
 ---------------------------------------------------------------------
 Center     Atomic      Atomic             Coordinates (Angstroms)
 Number     Number       Type             X           Y           Z
 ---------------------------------------------------------------------
      1          6           0        2.986167    0.185864    0.154754
      2          7           0        1.578803    0.275843   -0.151806
      3          6           0        0.875476   -0.776455   -0.042476
      4          6           0       -0.558290   -0.858359   -0.181440
      5          6           0       -1.483224    0.142345    0.060271
      6          7           0       -2.815718   -0.121383    0.251551
      7          6           0       -1.020174    1.426600   -0.222238
      8          1           0        3.317426   -0.832731    0.397937
      9          1           0        3.565994    0.557073   -0.692794
     10          1           0        3.210544    0.835242    1.004353
     11          1           0        1.354752   -1.740681    0.182221
     12          1           0       -0.941051   -1.816613   -0.526436
     13          1           0       -3.123851   -1.069360    0.116030
     14          1           0       -3.451202    0.591781   -0.063901
     15          1           0       -0.073940    1.674100    0.271149
 ---------------------------------------------------------------------

 SCF Done:  E(RHF) =  -302.854867369     A.U. after    2 cycles

 The electronic state is 1-A.
 Alpha  occ. eigenvalues --  -15.64337 -15.61722 -11.31017 -11.29212 -11.26919
 Alpha  occ. eigenvalues --  -11.25580 -11.24887  -1.21735  -1.19681  -1.05312
 Alpha  occ. eigenvalues --   -0.96352  -0.90598  -0.80107  -0.74497  -0.69380
 Alpha  occ. eigenvalues --   -0.66148  -0.63848  -0.60719  -0.59535  -0.57215
 Alpha  occ. eigenvalues --   -0.53743  -0.50269  -0.43596  -0.40239  -0.36363
 Alpha  occ. eigenvalues --   -0.30564
 Alpha virt. eigenvalues --    0.02905   0.03393   0.03853   0.04975   0.05603
 Alpha virt. eigenvalues --    0.05963   0.06997   0.07718   0.09110   0.10711
 Alpha virt. eigenvalues --    0.11458   0.12036   0.13313   0.14301   0.14359

 Mulliken charges:
               1
     1  C    0.729279
     2  N   -0.514518
     3  C    0.220210
     4  C    0.719044
     5  C    0.423890
     6  N   -0.357951
     7  C    0.061048
     8  H   -0.109467
     9  H   -0.155723
    10  H   -0.137147
    11  H   -0.384871
    12  H   -0.483682
    13  H   -0.027699
    14  H    0.004007
    15  H    0.013577
 Sum of Mulliken charges =  -0.00000

 Dipole moment (field-independent basis, Debye):
    X=             -0.5591    Y=             -2.6731    Z=              0.9163  Tot=              2.8805

 Test job not archived.
 1\1\GINC-SE100\SP\RHF\Aug-CC-pVDZ\C5H8N2\OHZDE\09-Apr-2025\0\\#t hf au
 g-cc-pvdz iop(5/13=1,5/36=2,99/5=2) pseudo=read geom=check guess=(read
 ,tcheck) scf=(maxcycle=1)\\title\\0,1\C,0,2.77061946,-0.10997427,0.153
 62691\N,0,1.39402535,0.15112006,-0.19215928\C,0,0.54404016,-0.77283797
 ,0.00220518\C,0,-0.88513295,-0.6606153,-0.16081977\C,0,-1.65649007,0.4
 8186096,-0.03797548\N,0,-3.01476541,0.43310034,0.14747633\C,0,-1.00895
 544,1.65171701,-0.43253009\H,0,2.94792002,-1.13659977,0.50149178\H,0,3
 .4055194,0.08821381,-0.71237302\H,0,3.07993638,0.58104553,0.94145399\H

 Normal termination of Gaussian 16 at Wed Apr  9 16:47:19 2025.
