 Gaussian 16, Revision C.01,

 ----------------------------------------------------------------------
 #t hf aug-cc-pvdz symm=none int=(grid=ultrafine) guess=(read,tcheck) s
 table=(opt,rrhf)
 ----------------------------------------------------------------------
 -----
 title
 -----
 Symbolic Z-matrix:
 Charge =  0 Multiplicity = 1

 SCF Done:  E(RHF) =  -304.511323337     A.U. after   16 cycles
 Normal termination of Gaussian 16 at Wed Apr  9 03:14:51 2025.
 Gaussian 16:  ES64L-G16RevC.01  3-Jul-2019

 ----------------------------------------------------------------------
 #t hf aug-cc-pvdz iop(5/13=1,5/36=2,99/5=2) pseudo=read geom=check gue
 ss=(read,tcheck) scf=(maxcycle=1)
 ----------------------------------------------------------------------
 -----
 title
 -----
 Structure from the checkpoint file:  "Grambow2020_b97d3_006990_forward_mol1.chk"
 Charge =  0 Multiplicity = 1

                         Standard orientation:
 ---------------------------------------------------------------------
 Center     Atomic      Atomic             Coordinates (Angstroms)
 Number     Number       Type             X           Y           Z
 ---------------------------------------------------------------------
      1          6           0       -2.463034   -0.529625    0.327780
      2          6           0       -1.772242    0.584311   -0.350304
      3          6           0        0.556645    1.093188    0.251301
      4          6           0        1.455301   -0.031085    0.025940
      5          8           0        2.569415   -0.485821    0.098232
      6          8           0        0.272667   -0.500817   -0.385145
      7          1           0       -2.336569   -0.550968    1.419333
      8          1           0       -2.352920   -1.542017   -0.098996
      9          1           0       -3.521324   -0.225749    0.140808
     10          1           0       -1.758267    0.359310   -1.438763
     11          1           0        0.455029    1.885343   -0.484719
     12          1           0        0.117379    1.266449    1.229338
 ---------------------------------------------------------------------

 SCF Done:  E(RHF) =  -304.605003990     A.U. after    2 cycles

 The electronic state is 1-A.
 Alpha  occ. eigenvalues --  -20.63423 -20.58417 -11.42379 -11.37614 -11.28116
 Alpha  occ. eigenvalues --  -11.24783  -1.42132  -1.34066  -1.02705  -1.00718
 Alpha  occ. eigenvalues --   -0.82612  -0.77306  -0.71619  -0.70404  -0.68251
 Alpha  occ. eigenvalues --   -0.60378  -0.59188  -0.57372  -0.53518  -0.52731
 Alpha  occ. eigenvalues --   -0.50147  -0.47254  -0.35881
 Alpha virt. eigenvalues --    0.02802   0.03938   0.04302   0.05604   0.06350
 Alpha virt. eigenvalues --    0.06638   0.07386   0.09329   0.09632   0.11452
 Alpha virt. eigenvalues --    0.12322   0.13773   0.13937   0.14145   0.14435

 Mulliken charges:
               1
     1  C    0.315139
     2  C   -0.192562
     3  C    0.770778
     4  C    0.379118
     5  O   -0.383943
     6  O   -0.592906
     7  H   -0.074805
     8  H   -0.039954
     9  H    0.016945
    10  H   -0.076419
    11  H   -0.058186
    12  H   -0.063204
 Sum of Mulliken charges =  -0.00000

 Dipole moment (field-independent basis, Debye):
    X=             -3.0334    Y=              2.5821    Z=              0.6035  Tot=              4.0290

 Test job not archived.
 1\1\GINC-SE041\SP\RHF\Aug-CC-pVDZ\C4H6O2\OHZDE\09-Apr-2025\0\\#t hf au
 g-cc-pvdz iop(5/13=1,5/36=2,99/5=2) pseudo=read geom=check guess=(read
 ,tcheck) scf=(maxcycle=1)\\title\\0,1\C,0,-1.84716629,-0.11996829,0.30
 886321\C,0,-0.90935109,0.50681803,-0.64270605\C,0,1.46810985,0.6825244
 ,-0.0415352\C,0,2.08219871,-0.61381862,0.21293069\O,0,3.05894481,-1.24
 163783,0.53707474\O,0,0.82667606,-0.93275075,-0.11904349\H,0,-1.739658
 03,0.21869577,1.34890465\H,0,-1.97187334,-1.21619974,0.26496609\H,0,-2
 .80367639,0.31800401,-0.06603018\H,0,-0.93771984,-0.08524792,-1.583034

 Normal termination of Gaussian 16 at Wed Apr  9 03:14:56 2025.
