 Gaussian 16, Revision C.01,

 ----------------------------------------------------------------------
 #t hf aug-cc-pvdz symm=none int=(grid=ultrafine) guess=(read,tcheck) s
 table=(opt,rrhf)
 ----------------------------------------------------------------------
 -----
 title
 -----
 Symbolic Z-matrix:
 Charge =  0 Multiplicity = 1

 SCF Done:  E(RHF) =  -320.345829042     A.U. after   15 cycles
 Normal termination of Gaussian 16 at Wed Apr  9 04:05:28 2025.
 Gaussian 16:  ES64L-G16RevC.01  3-Jul-2019

 ----------------------------------------------------------------------
 #t hf aug-cc-pvdz iop(5/13=1,5/36=2,99/5=2) pseudo=read geom=check gue
 ss=(read,tcheck) scf=(maxcycle=1)
 ----------------------------------------------------------------------
 -----
 title
 -----
 Structure from the checkpoint file:  "Grambow2020_wb97xd3_009378_forward_mol2.chk"
 Charge =  0 Multiplicity = 1

                         Standard orientation:
 ---------------------------------------------------------------------
 Center     Atomic      Atomic             Coordinates (Angstroms)
 Number     Number       Type             X           Y           Z
 ---------------------------------------------------------------------
      1          8           0        1.541118   -1.343012   -0.496257
      2          6           0        0.765850   -0.568837   -0.020565
      3          6           0       -0.575445   -0.959681    0.571032
      4          6           0       -1.665419   -0.135886    0.063817
      5          6           0       -2.537082    0.554805   -0.374256
      6          6           0        1.102894    0.871506    0.053334
      7          7           0        1.381857    1.980594    0.137561
      8          1           0       -0.499448   -0.845721    1.658179
      9          1           0       -0.732624   -2.015934    0.351092
     10          1           0       -3.314662    1.170160   -0.762315
 ---------------------------------------------------------------------

 SCF Done:  E(RHF) =  -320.444354592     A.U. after    2 cycles

 The electronic state is 1-A.
 Alpha  occ. eigenvalues --  -20.63117 -15.67967 -11.42460 -11.31746 -11.31307
 Alpha  occ. eigenvalues --  -11.27779 -11.26923  -1.42951  -1.22667  -1.11842
 Alpha  occ. eigenvalues --   -1.02420  -0.92516  -0.77972  -0.74019  -0.70834
 Alpha  occ. eigenvalues --   -0.68687  -0.64676  -0.59455  -0.58814  -0.51760
 Alpha  occ. eigenvalues --   -0.50366  -0.49871  -0.42654  -0.42410
 Alpha virt. eigenvalues --    0.02859   0.03469   0.04676   0.05035   0.07484
 Alpha virt. eigenvalues --    0.08457   0.09693   0.10077   0.10389   0.11571
 Alpha virt. eigenvalues --    0.12567   0.13445   0.14030   0.14134   0.14982

 Mulliken charges:
               1
     1  O   -0.422960
     2  C    0.438549
     3  C    0.038281
     4  C   -0.488768
     5  C    0.976245
     6  C   -0.138953
     7  N   -0.123974
     8  H    0.162056
     9  H    0.061000
    10  H   -0.501475
 Sum of Mulliken charges =  -0.00000

 Dipole moment (field-independent basis, Debye):
    X=             -3.0886    Y=             -1.3864    Z=              1.2109  Tot=              3.5956

 Test job not archived.
 1\1\GINC-SE340\SP\RHF\Aug-CC-pVDZ\C5H3N1O1\OHZDE\09-Apr-2025\0\\#t hf
 aug-cc-pvdz iop(5/13=1,5/36=2,99/5=2) pseudo=read geom=check guess=(re
 ad,tcheck) scf=(maxcycle=1)\\title\\0,1\O,0,-2.19058263,-0.74754576,0.
 68633942\C,0,-1.28021673,-0.15549177,0.18896839\C,0,-0.08994561,-0.822
 4637,-0.47452315\C,0,1.17983329,-0.2832158,-0.00460876\C,0,2.20394999,
 0.17809306,0.40421875\C,0,-1.28270044,1.32531729,0.15986793\N,0,-1.304
 68332,2.47080005,0.11111609\H,0,-0.18430958,-0.66144339,-1.55425412\H,
 0,-0.16857623,-1.89297765,-0.28330096\H,0,3.11723126,0.58892767,0.7661

 Normal termination of Gaussian 16 at Wed Apr  9 04:05:31 2025.
