 Gaussian 16, Revision C.01,

 ----------------------------------------------------------------------
 #t hf aug-cc-pvdz symm=none int=(grid=ultrafine) guess=(read,tcheck) s
 table=(opt,rrhf)
 ----------------------------------------------------------------------
 -----
 title
 -----
 Symbolic Z-matrix:
 Charge =  0 Multiplicity = 1

 SCF Done:  E(RHF) =  -358.548895142     A.U. after   16 cycles
 Normal termination of Gaussian 16 at Wed Apr  9 03:27:37 2025.
 Gaussian 16:  ES64L-G16RevC.01  3-Jul-2019

 ----------------------------------------------------------------------
 #t hf aug-cc-pvdz iop(5/13=1,5/36=2,99/5=2) pseudo=read geom=check gue
 ss=(read,tcheck) scf=(maxcycle=1)
 ----------------------------------------------------------------------
 -----
 title
 -----
 Structure from the checkpoint file:  "Grambow2020_wb97xd3_006745_forward_mol2.chk"
 Charge =  0 Multiplicity = 1

                         Standard orientation:
 ---------------------------------------------------------------------
 Center     Atomic      Atomic             Coordinates (Angstroms)
 Number     Number       Type             X           Y           Z
 ---------------------------------------------------------------------
      1          8           0        1.779761   -1.271808    0.000591
      2          6           0        1.695240   -0.079136    0.007346
      3          6           0        0.374513    0.694019   -0.085570
      4          8           0        0.378919    1.883456    0.121534
      5          7           0       -0.711030   -0.036506   -0.469361
      6          6           0       -2.035418    0.107558    0.065339
      7          6           0       -1.280439   -1.173651    0.205642
      8          1           0        2.567720    0.590951    0.120469
      9          1           0       -2.831704    0.181344   -0.664743
     10          1           0       -2.140445    0.740525    0.939505
     11          1           0       -0.886195   -1.425192    1.183108
     12          1           0       -1.524977   -2.018007   -0.426357
 ---------------------------------------------------------------------

 SCF Done:  E(RHF) =  -358.659698506     A.U. after    2 cycles

 The electronic state is 1-A.
 Alpha  occ. eigenvalues --  -20.61144 -20.58153 -15.66586 -11.38880 -11.37027
 Alpha  occ. eigenvalues --  -11.30220 -11.29745  -1.40625  -1.38330  -1.28736
 Alpha  occ. eigenvalues --   -1.01944  -0.91253  -0.87362  -0.77894  -0.73064
 Alpha  occ. eigenvalues --   -0.71010  -0.70656  -0.67770  -0.60414  -0.56322
 Alpha  occ. eigenvalues --   -0.55068  -0.54783  -0.52759  -0.51091  -0.43869
 Alpha  occ. eigenvalues --   -0.41458
 Alpha virt. eigenvalues --    0.03216   0.04157   0.04675   0.04743   0.05379
 Alpha virt. eigenvalues --    0.07190   0.08816   0.09812   0.10871   0.11578
 Alpha virt. eigenvalues --    0.12818   0.13402   0.14268   0.14301   0.15673

 Mulliken charges:
               1
     1  O   -0.382781
     2  C    0.593384
     3  C    0.250819
     4  O   -0.471520
     5  N   -0.561772
     6  C    0.868630
     7  C    0.845154
     8  H   -0.088245
     9  H   -0.271483
    10  H   -0.252800
    11  H   -0.273779
    12  H   -0.255606
 Sum of Mulliken charges =  -0.00000

 Dipole moment (field-independent basis, Debye):
    X=             -1.7720    Y=             -1.1607    Z=              0.6429  Tot=              2.2137

 Test job not archived.
 1\1\GINC-SE045\SP\RHF\Aug-CC-pVDZ\C4H5N1O2\OHZDE\09-Apr-2025\0\\#t hf
 aug-cc-pvdz iop(5/13=1,5/36=2,99/5=2) pseudo=read geom=check guess=(re
 ad,tcheck) scf=(maxcycle=1)\\title\\0,1\O,0,1.71354152,1.57913571,0.71
 986953\C,0,1.99394432,0.46937741,0.37423005\C,0,0.96539062,-0.61942398
 ,0.04664743\O,0,1.34298812,-1.64091588,-0.47454935\N,0,-0.3135743,-0.3
 6119932,0.44279678\C,0,-1.49300724,-0.68395853,-0.30915073\C,0,-1.1526
 5924,0.73159443,0.02483378\H,0,3.03366569,0.12616527,0.21859953\H,0,-2
 .27748098,-1.18888421,0.24056406\H,0,-1.34224213,-1.02199654,-1.328388

 Normal termination of Gaussian 16 at Wed Apr  9 03:27:42 2025.
