 Gaussian 16, Revision C.01,

 ----------------------------------------------------------------------
 #t hf aug-cc-pvdz symm=none int=(grid=ultrafine) guess=(read,tcheck) s
 table=(opt,rrhf)
 ----------------------------------------------------------------------
 -----
 title
 -----
 Symbolic Z-matrix:
 Charge =  0 Multiplicity = 1

 SCF Done:  E(RHF) =  -338.609964573     A.U. after   16 cycles
 Normal termination of Gaussian 16 at Wed Apr  9 16:26:59 2025.
 Gaussian 16:  ES64L-G16RevC.01  3-Jul-2019

 ----------------------------------------------------------------------
 #t hf aug-cc-pvdz iop(5/13=1,5/36=2,99/5=2) pseudo=read geom=check gue
 ss=(read,tcheck) scf=(maxcycle=1)
 ----------------------------------------------------------------------
 -----
 title
 -----
 Structure from the checkpoint file:  "Grambow2020_wb97xd3_008311_reverse_mol1.chk"
 Charge =  0 Multiplicity = 1

                         Standard orientation:
 ---------------------------------------------------------------------
 Center     Atomic      Atomic             Coordinates (Angstroms)
 Number     Number       Type             X           Y           Z
 ---------------------------------------------------------------------
      1          6           0        2.306013    0.378605   -0.193594
      2          8           0        1.447476   -0.724044   -0.000871
      3          6           0        0.231605   -0.394333    0.207161
      4          6           0       -0.125809    1.010939    0.118050
      5          7           0       -1.530036    0.884929   -0.106407
      6          6           0       -1.839802   -0.426865   -0.102319
      7          7           0       -0.827683   -1.232144    0.085222
      8          1           0        3.262239   -0.009719   -0.529129
      9          1           0        2.394253    0.976114    0.715829
     10          1           0        0.743377    1.267986   -0.692375
     11          1           0        0.133916    1.709664    0.913956
     12          1           0       -2.189639    1.637629   -0.156773
     13          1           0       -2.851965   -0.768894   -0.272037
 ---------------------------------------------------------------------

 SCF Done:  E(RHF) =  -338.713773604     A.U. after    2 cycles

 The electronic state is 1-A.
 Alpha  occ. eigenvalues --  -20.64059 -15.69898 -15.64044 -11.37114 -11.37108
 Alpha  occ. eigenvalues --  -11.29621 -11.22263  -1.43250  -1.33600  -1.17509
 Alpha  occ. eigenvalues --   -1.03442  -0.94379  -0.86101  -0.80095  -0.77702
 Alpha  occ. eigenvalues --   -0.70013  -0.68157  -0.65975  -0.62808  -0.60034
 Alpha  occ. eigenvalues --   -0.57578  -0.50984  -0.49717  -0.45944  -0.40119
 Alpha  occ. eigenvalues --   -0.25811
 Alpha virt. eigenvalues --    0.01611   0.03345   0.04628   0.05439   0.06875
 Alpha virt. eigenvalues --    0.07230   0.08028   0.09074   0.10012   0.10552
 Alpha virt. eigenvalues --    0.12486   0.13042   0.13395   0.14361   0.14582

 Mulliken charges:
               1
     1  C    0.287826
     2  O   -0.494429
     3  C    0.375398
     4  C    0.521700
     5  N   -0.376093
     6  C    0.851505
     7  N   -0.609287
     8  H   -0.363382
     9  H   -0.176616
    10  H    0.415721
    11  H   -0.158369
    12  H   -0.105086
    13  H   -0.168887
 Sum of Mulliken charges =  -0.00000

 Dipole moment (field-independent basis, Debye):
    X=             -5.6566    Y=              3.0830    Z=              1.0397  Tot=              6.5256

 Test job not archived.
 1\1\GINC-SE138\SP\RHF\Aug-CC-pVDZ\C4H6N2O1\OHZDE\09-Apr-2025\0\\#t hf
 aug-cc-pvdz iop(5/13=1,5/36=2,99/5=2) pseudo=read geom=check guess=(re
 ad,tcheck) scf=(maxcycle=1)\\title\\0,1\C,0,2.22563692,-0.04976597,-0.
 11867073\O,0,1.28965976,0.60639144,-0.94539113\C,0,0.07729311,0.299744
 71,-0.68758589\C,0,-0.18725057,-0.56820736,0.44694173\N,0,-1.55576794,
 -0.23813974,0.68427776\C,0,-1.93571839,0.66673934,-0.23963073\N,0,-1.0
 023198,1.01806889,-1.08423945\H,0,3.19406244,0.40485052,-0.30094383\H,
 0,2.22919301,-1.1262315,-0.30050415\H,0,0.79182532,-0.19881262,1.06605

 Normal termination of Gaussian 16 at Wed Apr  9 16:27:03 2025.
