 Gaussian 16, Revision C.01,

 ----------------------------------------------------------------------
 #t hf aug-cc-pvdz symm=none int=(grid=ultrafine) guess=(read,tcheck) s
 table=(opt,rrhf)
 ----------------------------------------------------------------------
 -----
 title
 -----
 Symbolic Z-matrix:
 Charge =  0 Multiplicity = 1

 SCF Done:  E(RHF) =  -344.759061648     A.U. after   14 cycles

 1\1\GINC-SE138\Stability\RHF\Aug-CC-pVDZ\C5H10O2\OHZDE\09-Apr-2025\0\\
 #t hf aug-cc-pvdz symm=none int=(grid=ultrafine) guess=(read,tcheck) s
 table=(opt,rrhf)\\title\\0,1\C,0,2.14128917,-0.07676947,-0.5580961\C,0
 ,0.831378,0.26517492,0.10994678\O,0,0.05288898,1.06212096,-0.7496466\C
 ,0,-1.21950203,1.22008729,-0.1580705\C,0,-1.68362891,-0.12972563,0.359
 16699\C,0,0.03615733,-1.01313877,0.43220288\O,0,-0.02374757,-1.9884015
 5,-0.44978868\H,0,2.6835077,0.83662909,-0.8009218\H,0,1.94593366,-0.64
 280305,-1.46733303\H,0,2.75923167,-0.68749614,0.10222957\H,0,0.9992966

 Normal termination of Gaussian 16 at Wed Apr  9 15:48:13 2025.
 Gaussian 16:  ES64L-G16RevC.01  3-Jul-2019

 ----------------------------------------------------------------------
 #t hf aug-cc-pvdz iop(5/13=1,5/36=2,99/5=2) pseudo=read geom=check gue
 ss=(read,tcheck) scf=(maxcycle=1)
 ----------------------------------------------------------------------
 -----
 title
 -----
 Structure from the checkpoint file:  "Grambow2020_wb97xd3_007411_forward_mol1.chk"
 Charge =  0 Multiplicity = 1

                         Standard orientation:
 ---------------------------------------------------------------------
 Center     Atomic      Atomic             Coordinates (Angstroms)
 Number     Number       Type             X           Y           Z
 ---------------------------------------------------------------------
      1          6           0       -2.089239   -0.590755   -0.020928
      2          6           0       -0.650992   -0.499981    0.428829
      3          8           0        0.171926   -1.213245   -0.462311
      4          6           0        1.514726   -0.967230   -0.101398
      5          6           0        1.680341    0.518589    0.162905
      6          6           0       -0.180075    0.965659    0.449953
      7          8           0       -0.510456    1.775182   -0.533996
      8          1           0       -2.402819   -1.633777   -0.053078
      9          1           0       -2.187205   -0.145265   -1.009468
     10          1           0       -2.739995   -0.049009    0.667475
     11          1           0       -0.527606   -0.911087    1.444549
     12          1           0        2.134792   -1.324548   -0.922435
     13          1           0        1.770708   -1.540161    0.800050
     14          1           0        2.134868    0.801762    1.107199
     15          1           0        2.235183    1.033714   -0.639554
     16          1           0       -0.124200    1.393443    1.465485
     17          1           0        0.765954    1.321744   -0.405929
 ---------------------------------------------------------------------

 SCF Done:  E(RHF) =  -344.866385561     A.U. after    2 cycles

 The electronic state is 1-A.
 Alpha  occ. eigenvalues --  -20.58561 -20.51214 -11.36280 -11.30729 -11.30367
 Alpha  occ. eigenvalues --  -11.26710 -11.22656  -1.36874  -1.30702  -1.05635
 Alpha  occ. eigenvalues --   -1.03049  -0.91714  -0.86231  -0.79018  -0.72278
 Alpha  occ. eigenvalues --   -0.68687  -0.67470  -0.66026  -0.61884  -0.57946
 Alpha  occ. eigenvalues --   -0.56982  -0.54418  -0.52836  -0.52034  -0.50941
 Alpha  occ. eigenvalues --   -0.46152  -0.41076  -0.38001
 Alpha virt. eigenvalues --    0.02862   0.04055   0.04461   0.04857   0.05883
 Alpha virt. eigenvalues --    0.06310   0.06870   0.07345   0.08279   0.09802
 Alpha virt. eigenvalues --    0.11916   0.12213   0.12784   0.13714   0.14197

 Mulliken charges:
               1
     1  C    0.394184
     2  C    0.076868
     3  O   -0.686457
     4  C    0.836737
     5  C   -0.040530
     6  C    0.715745
     7  O   -0.944363
     8  H   -0.009276
     9  H    0.084614
    10  H    0.013219
    11  H   -0.150132
    12  H   -0.262390
    13  H   -0.141437
    14  H   -0.113519
    15  H   -0.013196
    16  H   -0.100546
    17  H    0.340477
 Sum of Mulliken charges =  -0.00000

 Dipole moment (field-independent basis, Debye):
    X=              2.7826    Y=             -1.5690    Z=              3.0526  Tot=              4.4185

 Test job not archived.
 1\1\GINC-SE138\SP\RHF\Aug-CC-pVDZ\C5H10O2\OHZDE\09-Apr-2025\0\\#t hf a
 ug-cc-pvdz iop(5/13=1,5/36=2,99/5=2) pseudo=read geom=check guess=(rea
 d,tcheck) scf=(maxcycle=1)\\title\\0,1\C,0,2.14128917,-0.07676947,-0.5
 580961\C,0,0.831378,0.26517492,0.10994678\O,0,0.05288898,1.06212096,-0
 .7496466\C,0,-1.21950203,1.22008729,-0.1580705\C,0,-1.68362891,-0.1297
 2563,0.35916699\C,0,0.03615733,-1.01313877,0.43220288\O,0,-0.02374757,
 -1.98840155,-0.44978868\H,0,2.6835077,0.83662909,-0.8009218\H,0,1.9459
 3366,-0.64280305,-1.46733303\H,0,2.75923167,-0.68749614,0.10222957\H,0

 Normal termination of Gaussian 16 at Wed Apr  9 15:48:19 2025.
