 Gaussian 16, Revision C.01,

 ----------------------------------------------------------------------
 #t hf aug-cc-pvdz symm=none int=(grid=ultrafine) guess=(read,tcheck) s
 table=(opt,rrhf)
 ----------------------------------------------------------------------
 -----
 title
 -----
 Symbolic Z-matrix:
 Charge =  0 Multiplicity = 1

 SCF Done:  E(RHF) =  -376.865832609     A.U. after   14 cycles
 Normal termination of Gaussian 16 at Wed Apr  9 03:58:43 2025.
 Gaussian 16:  ES64L-G16RevC.01  3-Jul-2019

 ----------------------------------------------------------------------
 #t hf aug-cc-pvdz iop(5/13=1,5/36=2,99/5=2) pseudo=read geom=check gue
 ss=(read,tcheck) scf=(maxcycle=1)
 ----------------------------------------------------------------------
 -----
 title
 -----
 Structure from the checkpoint file:  "Grambow2020_wb97xd3_008749_forward_mol1.chk"
 Charge =  0 Multiplicity = 1

                         Standard orientation:
 ---------------------------------------------------------------------
 Center     Atomic      Atomic             Coordinates (Angstroms)
 Number     Number       Type             X           Y           Z
 ---------------------------------------------------------------------
      1          7           0       -1.992407    0.153386    0.830820
      2          6           0       -1.201135   -0.265225   -0.132897
      3          8           0       -0.936023   -1.293761   -0.713299
      4          7           0       -0.509906    1.076399   -0.397410
      5          6           0        0.965498    1.117845   -0.405857
      6          6           0        1.602774    0.178529    0.612676
      7          8           0        1.808962   -1.121456    0.126732
      8          1           0       -1.297021    1.258483    0.593697
      9          1           0       -2.645475   -0.487128    1.257388
     10          1           0       -0.882936    1.480038   -1.250444
     11          1           0        1.255881    2.150428   -0.201291
     12          1           0        1.334956    0.848472   -1.398239
     13          1           0        1.009211    0.180717    1.538311
     14          1           0        2.590002    0.570345    0.862904
     15          1           0        0.965253   -1.475004   -0.187194
 ---------------------------------------------------------------------

 SCF Done:  E(RHF) =  -376.983319367     A.U. after    2 cycles

 The electronic state is 1-A.
 Alpha  occ. eigenvalues --  -20.56046 -20.55313 -15.69482 -15.61692 -11.40033
 Alpha  occ. eigenvalues --  -11.29869 -11.29794  -1.37502  -1.31998  -1.25397
 Alpha  occ. eigenvalues --   -1.14868  -1.00468  -0.87843  -0.80009  -0.73926
 Alpha  occ. eigenvalues --   -0.72165  -0.68419  -0.67618  -0.64888  -0.60381
 Alpha  occ. eigenvalues --   -0.59614  -0.58728  -0.54585  -0.50730  -0.49024
 Alpha  occ. eigenvalues --   -0.45568  -0.41970  -0.40339
 Alpha virt. eigenvalues --    0.02377   0.03784   0.04029   0.04946   0.06514
 Alpha virt. eigenvalues --    0.06936   0.07683   0.08530   0.10745   0.12257
 Alpha virt. eigenvalues --    0.12904   0.13690   0.13913   0.14401   0.15252

 Mulliken charges:
               1
     1  N   -0.284692
     2  C    0.521650
     3  O   -0.497005
     4  N   -0.799753
     5  C    0.701230
     6  C    0.725568
     7  O   -0.541261
     8  H    0.553969
     9  H   -0.074457
    10  H    0.061565
    11  H   -0.142509
    12  H   -0.147584
    13  H   -0.100913
    14  H   -0.188489
    15  H    0.212682
 Sum of Mulliken charges =  -0.00000

 Dipole moment (field-independent basis, Debye):
    X=             -0.6896    Y=              4.9151    Z=              0.1382  Tot=              4.9651

 Test job not archived.
 1\1\GINC-SE292\SP\RHF\Aug-CC-pVDZ\C3H8N2O2\OHZDE\09-Apr-2025\0\\#t hf
 aug-cc-pvdz iop(5/13=1,5/36=2,99/5=2) pseudo=read geom=check guess=(re
 ad,tcheck) scf=(maxcycle=1)\\title\\0,1\N,0,2.14688206,0.70902696,0.17
 126886\C,0,0.95905628,1.02098091,-0.29974186\O,0,0.23743609,1.98890916
 ,-0.38586937\N,0,0.57647408,-0.38429435,-0.77571569\C,0,-0.71795478,-0
 .94562043,-0.34215726\C,0,-1.10526566,-0.54609214,1.0777769\O,0,-1.804
 46494,0.66824764,1.14931124\H,0,1.712889,-0.48912136,-0.19902751\H,0,2
 .73475297,1.42837291,0.56581092\H,0,0.6640275,-0.42846909,-1.78572814\

 Normal termination of Gaussian 16 at Wed Apr  9 03:58:48 2025.
