 Gaussian 16, Revision C.01,

 ----------------------------------------------------------------------
 #t hf aug-cc-pvdz symm=none int=(grid=ultrafine) guess=(read,tcheck) s
 table=(opt,rrhf)
 ----------------------------------------------------------------------
 -----
 title
 -----
 Symbolic Z-matrix:
 Charge =  0 Multiplicity = 1

 SCF Done:  E(RHF) =  -318.816701245     A.U. after   16 cycles
 Normal termination of Gaussian 16 at Wed Apr  9 03:46:33 2025.
 Gaussian 16:  ES64L-G16RevC.01  3-Jul-2019

 ----------------------------------------------------------------------
 #t hf aug-cc-pvdz iop(5/13=1,5/36=2,99/5=2) pseudo=read geom=check gue
 ss=(read,tcheck) scf=(maxcycle=1)
 ----------------------------------------------------------------------
 -----
 title
 -----
 Structure from the checkpoint file:  "Grambow2020_wb97xd3_007955_reverse_mol2.chk"
 Charge =  0 Multiplicity = 1

                         Standard orientation:
 ---------------------------------------------------------------------
 Center     Atomic      Atomic             Coordinates (Angstroms)
 Number     Number       Type             X           Y           Z
 ---------------------------------------------------------------------
      1          6           0       -2.392806    0.113929    0.618249
      2          6           0       -1.530749   -0.142270   -0.604367
      3          6           0        0.538469    1.216053   -0.206330
      4          6           0        1.799684    0.753533    0.146144
      5          7           0        1.758080   -0.600954    0.222893
      6          7           0        0.579286   -1.077696   -0.049492
      7          7           0       -0.114148    0.016685   -0.300367
      8          1           0       -3.447966    0.017277    0.358342
      9          1           0       -2.166303   -0.601647    1.410291
     10          1           0       -2.217243    1.121544    0.995983
     11          1           0       -1.669273   -1.152877   -0.988081
     12          1           0       -1.755380    0.571612   -1.394923
     13          1           0        2.715246    1.286251    0.344148
     14          1           0        2.490805   -1.255867    0.440834
 ---------------------------------------------------------------------

 SCF Done:  E(RHF) =  -318.910151756     A.U. after    2 cycles

 The electronic state is 1-A.
 Alpha  occ. eigenvalues --  -15.74823 -15.72336 -15.72251 -11.28131 -11.27046
 Alpha  occ. eigenvalues --  -11.23153 -11.21310  -1.43226  -1.21910  -1.07418
 Alpha  occ. eigenvalues --   -1.03979  -0.91511  -0.85603  -0.80115  -0.73898
 Alpha  occ. eigenvalues --   -0.67968  -0.66106  -0.62252  -0.58145  -0.56171
 Alpha  occ. eigenvalues --   -0.53210  -0.51813  -0.50590  -0.42445  -0.34538
 Alpha  occ. eigenvalues --   -0.33700
 Alpha virt. eigenvalues --    0.02483   0.03711   0.04668   0.04823   0.06597
 Alpha virt. eigenvalues --    0.07289   0.08308   0.09655   0.10923   0.12256
 Alpha virt. eigenvalues --    0.12672   0.13065   0.13506   0.13969   0.15244

 Mulliken charges:
               1
     1  C    0.225722
     2  C    0.776476
     3  C   -0.499300
     4  C    0.741890
     5  N   -0.128873
     6  N   -0.299517
     7  N    0.013459
     8  H   -0.041809
     9  H   -0.078178
    10  H   -0.030843
    11  H   -0.205910
    12  H   -0.218406
    13  H   -0.234911
    14  H   -0.019800
 Sum of Mulliken charges =  -0.00000

 Dipole moment (field-independent basis, Debye):
    X=              1.2244    Y=             -3.2456    Z=              0.7015  Tot=              3.5391

 Test job not archived.
 1\1\GINC-SE342\SP\RHF\Aug-CC-pVDZ\C4H7N3\OHZDE\09-Apr-2025\0\\#t hf au
 g-cc-pvdz iop(5/13=1,5/36=2,99/5=2) pseudo=read geom=check guess=(read
 ,tcheck) scf=(maxcycle=1)\\title\\0,1\C,0,-1.87572981,0.80866138,0.370
 69446\C,0,-1.17303853,-0.53631836,0.34198864\C,0,0.64402671,-0.2562961
 1,-1.36241651\C,0,2.00734262,-0.12500176,-1.13229298\N,0,2.22967587,-0
 .19895466,0.20462741\N,0,1.1326127,-0.36944503,0.88169365\N,0,0.218672
 58,-0.40176772,-0.06968798\H,0,-2.921371,0.67795855,0.65319395\H,0,-1.
 40497059,1.47770086,1.09281304\H,0,-1.8358859,1.2732913,-0.61486377\H,

 Normal termination of Gaussian 16 at Wed Apr  9 03:46:38 2025.
