 Gaussian 16, Revision C.01,

 ----------------------------------------------------------------------
 #t hf aug-cc-pvdz symm=none int=(grid=ultrafine) guess=(read,tcheck) s
 table=(opt,rrhf)
 ----------------------------------------------------------------------
 -----
 title
 -----
 Symbolic Z-matrix:
 Charge =  0 Multiplicity = 1

 SCF Done:  E(RHF) =  -322.585894962     A.U. after   14 cycles
 Normal termination of Gaussian 16 at Wed Apr  9 03:34:23 2025.
 Gaussian 16:  ES64L-G16RevC.01  3-Jul-2019

 ----------------------------------------------------------------------
 #t hf aug-cc-pvdz iop(5/13=1,5/36=2,99/5=2) pseudo=read geom=check gue
 ss=(read,tcheck) scf=(maxcycle=1)
 ----------------------------------------------------------------------
 -----
 title
 -----
 Structure from the checkpoint file:  "Grambow2020_wb97xd3_007135_forward_mol1.chk"
 Charge =  0 Multiplicity = 1

                         Standard orientation:
 ---------------------------------------------------------------------
 Center     Atomic      Atomic             Coordinates (Angstroms)
 Number     Number       Type             X           Y           Z
 ---------------------------------------------------------------------
      1          7           0       -2.107082   -0.378596   -0.082382
      2          6           0       -0.898259    0.062692    0.022408
      3          8           0       -0.419907    1.246042    0.329820
      4          6           0        0.987319    1.240694   -0.081564
      5          6           0        1.314573   -0.187902   -0.488674
      6          6           0        1.120375   -1.199423    0.582762
      7          6           0        0.005743   -0.968927   -0.417765
      8          1           0       -2.940019    0.136885    0.164420
      9          1           0        1.565908    1.616624    0.763783
     10          1           0        1.067873    1.936788   -0.916869
     11          1           0        2.044813   -0.325588   -1.275434
     12          1           0        1.025708   -0.847961    1.607695
     13          1           0        1.639330   -2.144922    0.486329
     14          1           0       -1.473286   -1.372788   -0.594814
 ---------------------------------------------------------------------

 SCF Done:  E(RHF) =  -322.684753689     A.U. after    2 cycles

 The electronic state is 1-A.
 Alpha  occ. eigenvalues --  -20.63500 -15.63844 -11.37107 -11.31467 -11.24724
 Alpha  occ. eigenvalues --  -11.23540 -11.19970  -1.42519  -1.21585  -1.13882
 Alpha  occ. eigenvalues --   -0.97971  -0.89298  -0.82534  -0.75876  -0.74253
 Alpha  occ. eigenvalues --   -0.69514  -0.65611  -0.61745  -0.59372  -0.57105
 Alpha  occ. eigenvalues --   -0.53670  -0.50964  -0.45971  -0.44438  -0.38265
 Alpha  occ. eigenvalues --   -0.32324
 Alpha virt. eigenvalues --    0.03352   0.04044   0.04633   0.04885   0.06561
 Alpha virt. eigenvalues --    0.06897   0.07356   0.09139   0.10675   0.12235
 Alpha virt. eigenvalues --    0.13215   0.13854   0.14037   0.14424   0.15074

 Mulliken charges:
               1
     1  N   -0.364001
     2  C    0.453638
     3  O   -0.641771
     4  C    0.845086
     5  C    0.255774
     6  C    0.825175
     7  C   -0.477954
     8  H   -0.061555
     9  H   -0.125505
    10  H   -0.184202
    11  H   -0.349433
    12  H   -0.326745
    13  H   -0.318355
    14  H    0.469848
 Sum of Mulliken charges =  -0.00000

 Dipole moment (field-independent basis, Debye):
    X=              0.3472    Y=              1.7831    Z=              0.5623  Tot=              1.9016

 Test job not archived.
 1\1\GINC-SE044\SP\RHF\Aug-CC-pVDZ\C5H7N1O1\OHZDE\09-Apr-2025\0\\#t hf
 aug-cc-pvdz iop(5/13=1,5/36=2,99/5=2) pseudo=read geom=check guess=(re
 ad,tcheck) scf=(maxcycle=1)\\title\\0,1\N,0,1.51696418,-1.62853552,0.1
 7390751\C,0,0.92805002,-0.59098772,-0.31969577\O,0,1.38845714,0.453202
 24,-0.96879652\C,0,0.32429974,1.46114665,-0.93462136\C,0,-0.90085126,0
 .77833953,-0.34598074\C,0,-1.37957454,-0.40429327,-1.10825869\C,0,-0.4
 5717151,-0.61960038,0.07470561\H,0,2.49180356,-1.86141531,0.04792521\H
 ,0,0.19689602,1.82205712,-1.95648835\H,0,0.68752282,2.27293453,-0.3038

 Normal termination of Gaussian 16 at Wed Apr  9 03:34:27 2025.
