 Gaussian 16, Revision C.01,

 ----------------------------------------------------------------------
 #t hf aug-cc-pvdz symm=none int=(grid=ultrafine) guess=(read,tcheck) s
 table=(opt,rrhf)
 ----------------------------------------------------------------------
 -----
 title
 -----
 Symbolic Z-matrix:
 Charge =  0 Multiplicity = 1

 SCF Done:  E(RHF) =  -357.349301276     A.U. after   15 cycles
 Normal termination of Gaussian 16 at Wed Apr  9 16:34:44 2025.
 Gaussian 16:  ES64L-G16RevC.01  3-Jul-2019

 ----------------------------------------------------------------------
 #t hf aug-cc-pvdz iop(5/13=1,5/36=2,99/5=2) pseudo=read geom=check gue
 ss=(read,tcheck) scf=(maxcycle=1)
 ----------------------------------------------------------------------
 -----
 title
 -----
 Structure from the checkpoint file:  "Grambow2020_wb97xd3_008637_reverse_mol2.chk"
 Charge =  0 Multiplicity = 1

                         Standard orientation:
 ---------------------------------------------------------------------
 Center     Atomic      Atomic             Coordinates (Angstroms)
 Number     Number       Type             X           Y           Z
 ---------------------------------------------------------------------
      1          7           0        1.679512   -0.687170    0.553909
      2          6           0        1.251352    0.404504   -0.113168
      3          6           0        0.590396   -0.851395   -0.497719
      4          6           0       -0.822531   -1.076835   -0.119435
      5          6           0       -1.679010   -0.089323    0.036775
      6          8           0       -2.443190    0.760121    0.175414
      7          8           0        1.315099    1.591765   -0.165024
      8          1           0        1.497330   -0.811591    1.541877
      9          1           0        0.948601   -1.437477   -1.336489
     10          1           0       -1.219029   -2.077530   -0.004585
 ---------------------------------------------------------------------

 SCF Done:  E(RHF) =  -357.459878543     A.U. after    2 cycles

 The electronic state is 1-A.
 Alpha  occ. eigenvalues --  -20.66767 -20.58569 -15.66935 -11.41882 -11.39862
 Alpha  occ. eigenvalues --  -11.33096 -11.27797  -1.46884  -1.39267  -1.28658
 Alpha  occ. eigenvalues --   -1.09340  -0.93082  -0.83345  -0.77733  -0.72604
 Alpha  occ. eigenvalues --   -0.71445  -0.69070  -0.67868  -0.65935  -0.61478
 Alpha  occ. eigenvalues --   -0.56659  -0.54990  -0.47728  -0.42211  -0.38100
 Alpha virt. eigenvalues --    0.02435   0.03793   0.04484   0.06521   0.08849
 Alpha virt. eigenvalues --    0.09302   0.10349   0.10820   0.11314   0.11981
 Alpha virt. eigenvalues --    0.12997   0.13583   0.14605   0.14868   0.15020

 Mulliken charges:
               1
     1  N   -0.420818
     2  C   -0.055007
     3  C    0.838047
     4  C    1.187403
     5  C   -0.579714
     6  O   -0.185307
     7  O   -0.347691
     8  H    0.036523
     9  H   -0.240303
    10  H   -0.233133
 Sum of Mulliken charges =  -0.00000

 Dipole moment (field-independent basis, Debye):
    X=             -0.6295    Y=             -4.6837    Z=              0.5667  Tot=              4.7597

 Test job not archived.
 1\1\GINC-SE220\SP\RHF\Aug-CC-pVDZ\C4H3N1O2\OHZDE\09-Apr-2025\0\\#t hf
 aug-cc-pvdz iop(5/13=1,5/36=2,99/5=2) pseudo=read geom=check guess=(re
 ad,tcheck) scf=(maxcycle=1)\\title\\0,1\N,0,1.57313016,-0.49876217,0.3
 3254707\C,0,1.21587313,0.42099809,-0.58749389\C,0,0.24837467,-0.670027
 98,-0.39872262\C,0,-1.04401637,-0.39105254,0.26624626\C,0,-1.6257402,0
 .78880491,0.21457859\O,0,-2.15114111,1.81223764,0.17870033\O,0,1.49563
 487,1.47902406,-1.05510056\H,0,1.61888845,-0.27410632,1.31854352\H,0,0
 .26759127,-1.54989118,-1.03181736\H,0,-1.58772988,-1.17099051,0.783801

 Normal termination of Gaussian 16 at Wed Apr  9 16:34:48 2025.
