 Gaussian 16, Revision C.01,

 ----------------------------------------------------------------------
 #t hf aug-cc-pvdz symm=none int=(grid=ultrafine) guess=(read,tcheck) s
 table=(opt,rrhf)
 ----------------------------------------------------------------------
 -----
 title
 -----
 Symbolic Z-matrix:
 Charge =  0 Multiplicity = 1

 SCF Done:  E(RHF) =  -305.465346299     A.U. after   13 cycles
 Normal termination of Gaussian 16 at Wed Apr  9 03:52:31 2025.
 Gaussian 16:  ES64L-G16RevC.01  3-Jul-2019

 ----------------------------------------------------------------------
 #t hf aug-cc-pvdz iop(5/13=1,5/36=2,99/5=2) pseudo=read geom=check gue
 ss=(read,tcheck) scf=(maxcycle=1)
 ----------------------------------------------------------------------
 -----
 title
 -----
 Structure from the checkpoint file:  "Grambow2020_wb97xd3_008351_reverse_mol2.chk"
 Charge =  0 Multiplicity = 1

                         Standard orientation:
 ---------------------------------------------------------------------
 Center     Atomic      Atomic             Coordinates (Angstroms)
 Number     Number       Type             X           Y           Z
 ---------------------------------------------------------------------
      1          8           0       -2.677989   -0.847654   -0.394622
      2          6           0       -1.900039   -0.177309    0.503719
      3          6           0        2.383067   -1.426585    0.068777
      4          6           0        1.949634   -0.209720   -0.049742
      5          6           0        1.505717    1.012535   -0.170949
      6          6           0       -0.910121    0.622214    0.224647
      7          6           0        0.093868    1.418468   -0.037609
      8          1           0       -2.367167   -0.649425   -1.281948
      9          1           0       -2.200529   -0.379897    1.525005
     10          1           0        2.443299   -2.085177   -0.790732
     11          1           0        2.694163   -1.820176    1.030071
     12          1           0        2.222517    1.798451   -0.387094
     13          1           0       -0.101124    2.479834   -0.171377
 ---------------------------------------------------------------------

 SCF Done:  E(RHF) =  -305.562979262     A.U. after    2 cycles

 The electronic state is 1-A.
 Alpha  occ. eigenvalues --  -20.60390 -11.31540 -11.27298 -11.27088 -11.25986
 Alpha  occ. eigenvalues --  -11.25259 -11.24675  -1.36445  -1.10594  -1.04816
 Alpha  occ. eigenvalues --   -0.98747  -0.91752  -0.80480  -0.74200  -0.67314
 Alpha  occ. eigenvalues --   -0.66205  -0.63465  -0.61686  -0.60475  -0.59091
 Alpha  occ. eigenvalues --   -0.57201  -0.45488  -0.38985  -0.35556  -0.33313
 Alpha virt. eigenvalues --    0.03309   0.04098   0.04470   0.04649   0.05923
 Alpha virt. eigenvalues --    0.06182   0.08633   0.09613   0.10095   0.11314
 Alpha virt. eigenvalues --    0.11734   0.12337   0.13662   0.14148   0.15108

 Mulliken charges:
               1
     1  O   -0.536922
     2  C    1.204131
     3  C    0.872416
     4  C   -0.843536
     5  C    0.783549
     6  C   -0.857964
     7  C    0.696121
     8  H    0.135766
     9  H   -0.275999
    10  H   -0.226182
    11  H   -0.224640
    12  H   -0.354688
    13  H   -0.372052
 Sum of Mulliken charges =  -0.00000

 Dipole moment (field-independent basis, Debye):
    X=              1.1992    Y=              0.5189    Z=             -0.5772  Tot=              1.4285

 Test job not archived.
 1\1\GINC-SE187\SP\RHF\Aug-CC-pVDZ\C6H6O1\OHZDE\09-Apr-2025\0\\#t hf au
 g-cc-pvdz iop(5/13=1,5/36=2,99/5=2) pseudo=read geom=check guess=(read
 ,tcheck) scf=(maxcycle=1)\\title\\0,1\O,0,0.38799873,-1.06640664,2.843
 34699\C,0,1.11086918,-0.84386869,1.7077776\C,0,-1.60854753,-0.73211917
 ,-1.85412465\C,0,-0.82120065,0.2328813,-1.49145193\C,0,-0.02854003,1.2
 0153749,-1.11855305\C,0,0.98178292,0.16515115,0.89397589\C,0,0.8573035
 5,1.16534707,0.06036618\H,0,-0.25545442,-0.35997087,2.94418736\H,0,1.8
 4363629,-1.62417146,1.53883521\H,0,-2.62717951,-0.79109655,-1.48664917

 Normal termination of Gaussian 16 at Wed Apr  9 03:52:36 2025.
