 Gaussian 16, Revision C.01,

 ----------------------------------------------------------------------
 #t hf aug-cc-pvdz symm=none int=(grid=ultrafine) guess=(read,tcheck) s
 table=(opt,rrhf)
 ----------------------------------------------------------------------
 -----
 title
 -----
 Symbolic Z-matrix:
 Charge =  0 Multiplicity = 1

 SCF Done:  E(RHF) =  -306.722141688     A.U. after   15 cycles
 Normal termination of Gaussian 16 at Wed Apr  9 03:59:17 2025.
 Gaussian 16:  ES64L-G16RevC.01  3-Jul-2019

 ----------------------------------------------------------------------
 #t hf aug-cc-pvdz iop(5/13=1,5/36=2,99/5=2) pseudo=read geom=check gue
 ss=(read,tcheck) scf=(maxcycle=1)
 ----------------------------------------------------------------------
 -----
 title
 -----
 Structure from the checkpoint file:  "Grambow2020_wb97xd3_008782_reverse_mol2.chk"
 Charge =  0 Multiplicity = 1

                         Standard orientation:
 ---------------------------------------------------------------------
 Center     Atomic      Atomic             Coordinates (Angstroms)
 Number     Number       Type             X           Y           Z
 ---------------------------------------------------------------------
      1          8           0       -1.314562   -1.673131   -0.259230
      2          6           0       -0.847510   -0.611952    0.083782
      3          6           0        0.510123   -0.556401    0.769426
      4          6           0        1.611284   -0.427455   -0.245077
      5          6           0        2.523142    0.531217   -0.253542
      6          6           0       -1.148831    1.868079    0.046387
      7          6           0       -1.589986    0.642895   -0.204052
      8          1           0        0.564212    0.256297    1.494859
      9          1           0        0.615083   -1.503285    1.303090
     10          1           0        1.631249   -1.197764   -1.011454
     11          1           0       -0.183080    2.054301    0.499971
     12          1           0        2.535322    1.314278    0.498064
     13          1           0        3.298453    0.565086   -1.008725
     14          1           0       -1.740518    2.738943   -0.208426
     15          1           0       -2.553557    0.478892   -0.675086
 ---------------------------------------------------------------------

 SCF Done:  E(RHF) =  -306.818151484     A.U. after    2 cycles

 The electronic state is 1-A.
 Alpha  occ. eigenvalues --  -20.56504 -11.34636 -11.27080 -11.25868 -11.25866
 Alpha  occ. eigenvalues --  -11.25416 -11.24401  -1.35999  -1.09552  -1.06440
 Alpha  occ. eigenvalues --   -0.97231  -0.86603  -0.78494  -0.73808  -0.69395
 Alpha  occ. eigenvalues --   -0.67135  -0.63568  -0.61892  -0.60489  -0.56287
 Alpha  occ. eigenvalues --   -0.55003  -0.53838  -0.50184  -0.44284  -0.40333
 Alpha  occ. eigenvalues --   -0.37523
 Alpha virt. eigenvalues --    0.03135   0.04044   0.04475   0.04634   0.06140
 Alpha virt. eigenvalues --    0.06629   0.06868   0.07216   0.08033   0.10397
 Alpha virt. eigenvalues --    0.12052   0.12300   0.13024   0.14249   0.14515

 Mulliken charges:
               1
     1  O   -0.543402
     2  C   -0.140810
     3  C    0.540247
     4  C    0.476962
     5  C    0.484615
     6  C    0.496094
     7  C    0.849272
     8  H   -0.114025
     9  H   -0.045078
    10  H   -0.387662
    11  H   -0.274089
    12  H   -0.317004
    13  H   -0.301403
    14  H   -0.319548
    15  H   -0.404167
 Sum of Mulliken charges =  -0.00000

 Dipole moment (field-independent basis, Debye):
    X=              1.3462    Y=              3.3545    Z=              0.9123  Tot=              3.7279

 Test job not archived.
 1\1\GINC-SE036\SP\RHF\Aug-CC-pVDZ\C6H8O1\OHZDE\09-Apr-2025\0\\#t hf au
 g-cc-pvdz iop(5/13=1,5/36=2,99/5=2) pseudo=read geom=check guess=(read
 ,tcheck) scf=(maxcycle=1)\\title\\0,1\O,0,0.03469133,-2.18588984,1.290
 24203\C,0,0.34014606,-1.27755894,0.55299871\C,0,-0.6399239,-0.78086555
 ,-0.50014773\C,0,-1.51652469,0.30313349,0.06102424\C,0,-1.65423112,1.5
 1071451,-0.46184799\C,0,2.08269687,0.43171235,0.01946868\C,0,1.6649040
 9,-0.62193795,0.70771506\H,0,-0.12722909,-0.42955672,-1.39646436\H,0,-
 1.25339877,-1.64334706,-0.76881007\H,0,-2.06536787,0.03920903,0.961148

 Normal termination of Gaussian 16 at Wed Apr  9 03:59:23 2025.
