 Gaussian 16, Revision C.01,

 ----------------------------------------------------------------------
 #t hf aug-cc-pvdz symm=none int=(grid=ultrafine) guess=(read,tcheck) s
 table=(opt,rrhf)
 ----------------------------------------------------------------------
 -----
 title
 -----
 Symbolic Z-matrix:
 Charge =  0 Multiplicity = 1

 SCF Done:  E(RHF) =  -306.666856979     A.U. after   14 cycles
 Normal termination of Gaussian 16 at Wed Apr  9 16:23:05 2025.
 Gaussian 16:  ES64L-G16RevC.01  3-Jul-2019

 ----------------------------------------------------------------------
 #t hf aug-cc-pvdz iop(5/13=1,5/36=2,99/5=2) pseudo=read geom=check gue
 ss=(read,tcheck) scf=(maxcycle=1)
 ----------------------------------------------------------------------
 -----
 title
 -----
 Structure from the checkpoint file:  "Grambow2020_wb97xd3_008171_reverse_mol2.chk"
 Charge =  0 Multiplicity = 1

                         Standard orientation:
 ---------------------------------------------------------------------
 Center     Atomic      Atomic             Coordinates (Angstroms)
 Number     Number       Type             X           Y           Z
 ---------------------------------------------------------------------
      1          6           0       -2.779654    0.237142    0.358477
      2          6           0       -1.472966    0.317871    0.162797
      3          8           0       -0.809912   -0.540578   -0.646793
      4          6           0        0.599884   -0.509623   -0.603548
      5          6           0        1.321433   -0.762887    0.758263
      6          6           0        2.036287    0.535809    0.465380
      7          6           0        1.344821    0.807519   -0.639927
      8          1           0       -3.271800    0.962263    0.989759
      9          1           0       -3.372975   -0.537498   -0.109599
     10          1           0       -0.866766    1.094369    0.623615
     11          1           0        0.913833   -1.207022   -1.380469
     12          1           0        0.637768   -0.728645    1.608903
     13          1           0        1.927530   -1.668748    0.824696
     14          1           0        2.858891    1.033940    0.963052
     15          1           0        1.353985    1.620980   -1.354258
 ---------------------------------------------------------------------

 SCF Done:  E(RHF) =  -306.763597163     A.U. after    2 cycles

 The electronic state is 1-A.
 Alpha  occ. eigenvalues --  -20.59229 -11.30767 -11.29626 -11.25732 -11.24762
 Alpha  occ. eigenvalues --  -11.24612 -11.21512  -1.36963  -1.15560  -1.02490
 Alpha  occ. eigenvalues --   -0.91243  -0.89006  -0.80012  -0.73506  -0.70844
 Alpha  occ. eigenvalues --   -0.68562  -0.63686  -0.62191  -0.59057  -0.54849
 Alpha  occ. eigenvalues --   -0.54280  -0.52118  -0.47239  -0.46552  -0.37777
 Alpha  occ. eigenvalues --   -0.34195
 Alpha virt. eigenvalues --    0.03222   0.04291   0.04397   0.04682   0.05973
 Alpha virt. eigenvalues --    0.06476   0.06831   0.07971   0.10428   0.11087
 Alpha virt. eigenvalues --    0.11738   0.12645   0.13065   0.13214   0.14300

 Mulliken charges:
               1
     1  C    0.690750
     2  C    0.504323
     3  O   -0.673121
     4  C    0.762432
     5  C    0.422942
     6  C    0.143322
     7  C    0.258960
     8  H   -0.265700
     9  H   -0.359696
    10  H   -0.392387
    11  H   -0.275903
    12  H   -0.112036
    13  H   -0.157801
    14  H   -0.247727
    15  H   -0.298357
 Sum of Mulliken charges =  -0.00000

 Dipole moment (field-independent basis, Debye):
    X=              1.9886    Y=              0.6504    Z=              0.6948  Tot=              2.2046

 Test job not archived.
 1\1\GINC-SE141\SP\RHF\Aug-CC-pVDZ\C6H8O1\OHZDE\09-Apr-2025\0\\#t hf au
 g-cc-pvdz iop(5/13=1,5/36=2,99/5=2) pseudo=read geom=check guess=(read
 ,tcheck) scf=(maxcycle=1)\\title\\0,1\C,0,-2.30108224,-1.55997746,0.48
 881485\C,0,-1.3427058,-0.70034569,0.18093559\O,0,-0.38591859,-0.983080
 27,-0.73373904\C,0,0.70941346,-0.09776241,-0.8162793\C,0,1.57687857,0.
 15444852,0.45776887\C,0,1.31904248,1.61676259,0.1774736\C,0,0.4914924,
 1.39987058,-0.84319902\H,0,-3.06143488,-1.28017952,1.20302971\H,0,-2.3
 47443,-2.53997081,0.03202503\H,0,-1.28811479,0.28891302,0.62945405\H,0

 Normal termination of Gaussian 16 at Wed Apr  9 16:23:10 2025.
