 Gaussian 16, Revision C.01,

 ----------------------------------------------------------------------
 #t hf aug-cc-pvdz symm=none int=(grid=ultrafine) guess=(read,tcheck) s
 table=(opt,rrhf)
 ----------------------------------------------------------------------
 -----
 title
 -----
 Symbolic Z-matrix:
 Charge =  0 Multiplicity = 1

 SCF Done:  E(RHF) =  -306.507204513     A.U. after   18 cycles
 Normal termination of Gaussian 16 at Wed Apr  9 04:05:07 2025.
 Gaussian 16:  ES64L-G16RevC.01  3-Jul-2019

 ----------------------------------------------------------------------
 #t hf aug-cc-pvdz iop(5/13=1,5/36=2,99/5=2) pseudo=read geom=check gue
 ss=(read,tcheck) scf=(maxcycle=1)
 ----------------------------------------------------------------------
 -----
 title
 -----
 Structure from the checkpoint file:  "Grambow2020_wb97xd3_009209_forward_mol1.chk"
 Charge =  0 Multiplicity = 1

                         Standard orientation:
 ---------------------------------------------------------------------
 Center     Atomic      Atomic             Coordinates (Angstroms)
 Number     Number       Type             X           Y           Z
 ---------------------------------------------------------------------
      1          6           0       -3.392103   -0.466276    0.056888
      2          6           0       -2.194136    0.217968   -0.458635
      3          6           0       -1.067738    0.572081    0.038643
      4          6           0        0.306374    0.729210    0.183195
      5          6           0        1.280342   -0.298143   -0.216825
      6          6           0        2.669033    0.069420   -0.518855
      7          8           0        2.345533   -0.584931    0.688163
      8          1           0       -4.298080    0.094035   -0.180058
      9          1           0       -3.483458   -1.415667   -0.479540
     10          1           0       -3.374577   -0.689581    1.130260
     11          1           0       -0.967594    0.725858    1.188492
     12          1           0        0.685391    1.605424    0.697407
     13          1           0        0.860971   -1.172278   -0.705718
     14          1           0        3.225330   -0.521019   -1.241797
     15          1           0        2.977124    1.107106   -0.420811
 ---------------------------------------------------------------------

 SCF Done:  E(RHF) =  -306.603727383     A.U. after    2 cycles

 The electronic state is 1-A.
 Alpha  occ. eigenvalues --  -20.60359 -11.31782 -11.31189 -11.30740 -11.25571
 Alpha  occ. eigenvalues --  -11.24248 -11.23632  -1.40205  -1.11056  -1.02086
 Alpha  occ. eigenvalues --   -0.94927  -0.90808  -0.85291  -0.75854  -0.70088
 Alpha  occ. eigenvalues --   -0.66222  -0.61993  -0.60212  -0.58088  -0.57213
 Alpha  occ. eigenvalues --   -0.56144  -0.52784  -0.48999  -0.48046  -0.38043
 Alpha  occ. eigenvalues --   -0.28028
 Alpha virt. eigenvalues --    0.02758   0.03894   0.04048   0.05303   0.05581
 Alpha virt. eigenvalues --    0.05887   0.06315   0.08023   0.08377   0.09129
 Alpha virt. eigenvalues --    0.11268   0.11693   0.12037   0.13658   0.14035

 Mulliken charges:
               1
     1  C    0.313580
     2  C   -0.820470
     3  C    0.479768
     4  C    0.102557
     5  C    0.810088
     6  C    0.843058
     7  O   -0.689371
     8  H    0.039826
     9  H    0.062373
    10  H   -0.118421
    11  H    0.092641
    12  H   -0.369821
    13  H   -0.342563
    14  H   -0.189312
    15  H   -0.213932
 Sum of Mulliken charges =   0.00000

 Dipole moment (field-independent basis, Debye):
    X=              0.8089    Y=              0.2751    Z=             -0.0204  Tot=              0.8546

 Test job not archived.
 1\1\GINC-SE109\SP\RHF\Aug-CC-pVDZ\C6H8O1\OHZDE\09-Apr-2025\0\\#t hf au
 g-cc-pvdz iop(5/13=1,5/36=2,99/5=2) pseudo=read geom=check guess=(read
 ,tcheck) scf=(maxcycle=1)\\title\\0,1\C,0,2.70567799,-0.58429521,-1.63
 172978\C,0,1.83395266,-0.66693632,-0.44752428\C,0,0.95165901,0.0951105
 1,0.08379244\C,0,-0.25122857,0.50945569,0.64517248\C,0,-1.56033948,-0.
 00269951,0.21157337\C,0,-2.71825268,0.05528344,1.11194166\O,0,-2.60984
 244,0.94539849,0.0230608\H,0,3.74403924,-0.79671725,-1.3717906\H,0,2.4
 0382842,-1.3821923,-2.31707023\H,0,2.65626992,0.36370019,-2.18051419\H

 Normal termination of Gaussian 16 at Wed Apr  9 04:05:17 2025.
