 Gaussian 16, Revision C.01,

 ----------------------------------------------------------------------
 #t hf aug-cc-pvdz symm=none int=(grid=ultrafine) guess=(read,tcheck) s
 table=(opt,rrhf)
 ----------------------------------------------------------------------
 -----
 title
 -----
 Symbolic Z-matrix:
 Charge =  0 Multiplicity = 1

 SCF Done:  E(RHF) =  -308.997012780     A.U. after   14 cycles

 1\1\GINC-SE114\Stability\RHF\Aug-CC-pVDZ\C6H12O1\OHZDE\09-Apr-2025\0\\
 #t hf aug-cc-pvdz symm=none int=(grid=ultrafine) guess=(read,tcheck) s
 table=(opt,rrhf)\\title\\0,1\C,0,1.44903352,1.34635357,0.56839593\C,0,
 0.67500517,0.09452818,0.26897761\C,0,1.09062036,-1.10080411,0.68217612
 \C,0,-0.60048463,0.3279383,-0.45604516\C,0,-1.59337088,-0.76404025,-0.
 77249815\C,0,-1.90089831,0.21245359,0.31210218\O,0,-1.90521602,-0.1755
 6775,1.64393846\H,0,1.84546403,-0.09469156,-3.04424029\H,0,1.74646487,
 1.83988988,-0.36093995\H,0,2.34691333,1.13721155,1.14892434\H,0,0.8287

 Normal termination of Gaussian 16 at Wed Apr  9 16:26:29 2025.
 Gaussian 16:  ES64L-G16RevC.01  3-Jul-2019

 ----------------------------------------------------------------------
 #t hf aug-cc-pvdz iop(5/13=1,5/36=2,99/5=2) pseudo=read geom=check gue
 ss=(read,tcheck) scf=(maxcycle=1)
 ----------------------------------------------------------------------
 -----
 title
 -----
 Structure from the checkpoint file:  "Grambow2020_wb97xd3_008287_reverse_mol2.chk"
 Charge =  0 Multiplicity = 1

                         Standard orientation:
 ---------------------------------------------------------------------
 Center     Atomic      Atomic             Coordinates (Angstroms)
 Number     Number       Type             X           Y           Z
 ---------------------------------------------------------------------
      1          6           0       -1.951883   -0.689779   -0.858663
      2          6           0       -0.980027   -0.081995    0.111869
      3          6           0       -1.126224   -0.220473    1.427825
      4          6           0        0.165843    0.611985   -0.530303
      5          6           0        1.320057    1.206678    0.239445
      6          6           0        1.521413   -0.063789   -0.515434
      7          8           0        1.705555   -1.268329    0.147545
      8          1           0       -2.353072    3.143005   -0.200085
      9          1           0       -2.410869    0.089047   -1.473862
     10          1           0       -2.744396   -1.236098   -0.348369
     11          1           0       -1.435379   -1.373376   -1.537411
     12          1           0       -1.960177   -0.776288    1.839150
     13          1           0       -1.994493    2.596498    0.159314
     14          1           0       -0.448104    0.238275    2.137080
     15          1           0       -0.090297    1.105472   -1.461687
     16          1           0        1.755222    2.122219   -0.138920
     17          1           0        1.304698    1.131576    1.319269
     18          1           0        2.101564   -0.038055   -1.428970
     19          1           0        0.935788   -1.431395    0.705695
 ---------------------------------------------------------------------

 SCF Done:  E(RHF) =  -309.098619485     A.U. after    2 cycles

 The electronic state is 1-A.
 Alpha  occ. eigenvalues --  -20.57179 -11.29748 -11.26259 -11.24648 -11.23722
 Alpha  occ. eigenvalues --  -11.23627 -11.23201  -1.33458  -1.14197  -1.06420
 Alpha  occ. eigenvalues --   -0.94157  -0.86124  -0.83508  -0.73714  -0.70470
 Alpha  occ. eigenvalues --   -0.67970  -0.62064  -0.60934  -0.59383  -0.58652
 Alpha  occ. eigenvalues --   -0.57432  -0.55754  -0.54833  -0.52284  -0.49960
 Alpha  occ. eigenvalues --   -0.43734  -0.40450  -0.35458
 Alpha virt. eigenvalues --    0.03551   0.03979   0.04317   0.05184   0.05770
 Alpha virt. eigenvalues --    0.06097   0.06822   0.07183   0.07641   0.08721
 Alpha virt. eigenvalues --    0.09015   0.09749   0.12407   0.13379   0.13482

 Mulliken charges:
               1
     1  C    0.253235
     2  C   -0.993506
     3  C    1.462476
     4  C    0.420394
     5  C    0.811831
     6  C    0.930387
     7  O   -0.579902
     8  H   -0.018954
     9  H    0.046186
    10  H   -0.172668
    11  H    0.056005
    12  H   -0.485877
    13  H    0.060808
    14  H   -0.415640
    15  H   -0.430259
    16  H   -0.350719
    17  H   -0.371232
    18  H   -0.399506
    19  H    0.176941
 Sum of Mulliken charges =   0.00000

 Dipole moment (field-independent basis, Debye):
    X=             -1.4948    Y=              1.0798    Z=             -0.4227  Tot=              1.8918

 Test job not archived.
 1\1\GINC-SE114\SP\RHF\Aug-CC-pVDZ\C6H12O1\OHZDE\09-Apr-2025\0\\#t hf a
 ug-cc-pvdz iop(5/13=1,5/36=2,99/5=2) pseudo=read geom=check guess=(rea
 d,tcheck) scf=(maxcycle=1)\\title\\0,1\C,0,1.44903352,1.34635357,0.568
 39593\C,0,0.67500517,0.09452818,0.26897761\C,0,1.09062036,-1.10080411,
 0.68217612\C,0,-0.60048463,0.3279383,-0.45604516\C,0,-1.59337088,-0.76
 404025,-0.77249815\C,0,-1.90089831,0.21245359,0.31210218\O,0,-1.905216
 02,-0.17556775,1.64393846\H,0,1.84546403,-0.09469156,-3.04424029\H,0,1
 .74646487,1.83988988,-0.36093995\H,0,2.34691333,1.13721155,1.14892434\

 Normal termination of Gaussian 16 at Wed Apr  9 16:26:36 2025.
