 Gaussian 16, Revision C.01,

 ----------------------------------------------------------------------
 #t hf aug-cc-pvdz symm=none int=(grid=ultrafine) guess=(read,tcheck) s
 table=(opt,rrhf)
 ----------------------------------------------------------------------
 -----
 title
 -----
 Symbolic Z-matrix:
 Charge =  0 Multiplicity = 1

 SCF Done:  E(RHF) =  -344.835566486     A.U. after   15 cycles

 1\1\GINC-SE333\Stability\RHF\Aug-CC-pVDZ\C5H10O2\OHZDE\09-Apr-2025\0\\
 #t hf aug-cc-pvdz symm=none int=(grid=ultrafine) guess=(read,tcheck) s
 table=(opt,rrhf)\\title\\0,1\C,0,-3.07703634,-0.85215268,0.07176588\C,
 0,0.17262299,-0.56045716,-1.17676292\O,0,0.0046212,0.60609275,-1.71693
 609\C,0,0.51580852,-0.45011137,0.30079494\C,0,1.98742286,-0.06768226,0
 .48100741\C,0,2.27195856,1.39858719,0.35647618\O,0,1.47438803,2.227335
 37,-0.00699879\H,0,-4.11781284,-1.10351155,-0.12678011\H,0,-2.84539445
 ,-1.06991278,1.11402684\H,0,-2.92024753,0.20806297,-0.12430864\H,0,-2.

 Normal termination of Gaussian 16 at Wed Apr  9 03:33:30 2025.
 Gaussian 16:  ES64L-G16RevC.01  3-Jul-2019

 ----------------------------------------------------------------------
 #t hf aug-cc-pvdz iop(5/13=1,5/36=2,99/5=2) pseudo=read geom=check gue
 ss=(read,tcheck) scf=(maxcycle=1)
 ----------------------------------------------------------------------
 -----
 title
 -----
 Structure from the checkpoint file:  "Grambow2020_wb97xd3_007089_reverse_mol2.chk"
 Charge =  0 Multiplicity = 1

                         Standard orientation:
 ---------------------------------------------------------------------
 Center     Atomic      Atomic             Coordinates (Angstroms)
 Number     Number       Type             X           Y           Z
 ---------------------------------------------------------------------
      1          6           0       -3.565419    0.142810   -0.631765
      2          6           0       -0.586495   -0.103496    1.176423
      3          8           0       -0.314840   -1.320730    0.822310
      4          6           0       -0.108486    0.901945    0.140215
      5          6           0        1.402059    1.119815    0.263356
      6          6           0        2.240859    0.086188   -0.425444
      7          8           0        1.816987   -0.931752   -0.914509
      8          1           0       -4.631852   -0.072568   -0.678123
      9          1           0       -3.356592    1.055012   -1.190033
     10          1           0       -3.012209   -0.688216   -1.068159
     11          1           0       -3.263772    0.269509    0.407791
     12          1           0        0.184344   -1.388051   -0.024320
     13          1           0       -0.353166    0.575471   -0.879150
     14          1           0       -0.617788    1.846763    0.324491
     15          1           0        1.715516    1.137788    1.316270
     16          1           0        1.699230    2.094786   -0.135460
     17          1           0        3.324000    0.305790   -0.472428
 ---------------------------------------------------------------------

 SCF Done:  E(RHF) =  -344.946940298     A.U. after    2 cycles

 The electronic state is 1-A.
 Alpha  occ. eigenvalues --  -20.62472 -20.60538 -11.37560 -11.30277 -11.28055
 Alpha  occ. eigenvalues --  -11.25050 -11.21502  -1.40345  -1.39018  -1.08886
 Alpha  occ. eigenvalues --   -0.96006  -0.93647  -0.86288  -0.79948  -0.73106
 Alpha  occ. eigenvalues --   -0.71290  -0.67893  -0.63353  -0.60243  -0.58996
 Alpha  occ. eigenvalues --   -0.57049  -0.54582  -0.54427  -0.54269  -0.53248
 Alpha  occ. eigenvalues --   -0.52402  -0.46646  -0.34666
 Alpha virt. eigenvalues --    0.02489   0.03831   0.04571   0.04920   0.06031
 Alpha virt. eigenvalues --    0.06466   0.07130   0.07988   0.08682   0.08975
 Alpha virt. eigenvalues --    0.09157   0.11420   0.11567   0.12458   0.13127

 Mulliken charges:
               1
     1  C    0.748233
     2  C    0.009130
     3  O   -0.330060
     4  C    0.391636
     5  C    0.052050
     6  C    0.536389
     7  O   -0.459456
     8  H   -0.199017
     9  H   -0.169584
    10  H   -0.173315
    11  H   -0.164352
    12  H    0.244125
    13  H   -0.130733
    14  H   -0.174570
    15  H    0.003895
    16  H   -0.023500
    17  H   -0.160869
 Sum of Mulliken charges =  -0.00000

 Dipole moment (field-independent basis, Debye):
    X=              2.8550    Y=              3.3620    Z=             -1.7735  Tot=              4.7539

 Test job not archived.
 1\1\GINC-SE333\SP\RHF\Aug-CC-pVDZ\C5H10O2\OHZDE\09-Apr-2025\0\\#t hf a
 ug-cc-pvdz iop(5/13=1,5/36=2,99/5=2) pseudo=read geom=check guess=(rea
 d,tcheck) scf=(maxcycle=1)\\title\\0,1\C,0,-3.07703634,-0.85215268,0.0
 7176588\C,0,0.17262299,-0.56045716,-1.17676292\O,0,0.0046212,0.6060927
 5,-1.71693609\C,0,0.51580852,-0.45011137,0.30079494\C,0,1.98742286,-0.
 06768226,0.48100741\C,0,2.27195856,1.39858719,0.35647618\O,0,1.4743880
 3,2.22733537,-0.00699879\H,0,-4.11781284,-1.10351155,-0.12678011\H,0,-
 2.84539445,-1.06991278,1.11402684\H,0,-2.92024753,0.20806297,-0.124308

 Normal termination of Gaussian 16 at Wed Apr  9 03:33:36 2025.
