 Gaussian 16, Revision C.01,

 ----------------------------------------------------------------------
 #t hf aug-cc-pvdz symm=none int=(grid=ultrafine) guess=(read,tcheck) s
 table=(opt,rrhf)
 ----------------------------------------------------------------------
 -----
 title
 -----
 Symbolic Z-matrix:
 Charge =  0 Multiplicity = 1

 SCF Done:  E(RHF) =  -317.660584185     A.U. after   15 cycles
 Normal termination of Gaussian 16 at Wed Apr  9 16:16:49 2025.
 Gaussian 16:  ES64L-G16RevC.01  3-Jul-2019

 ----------------------------------------------------------------------
 #t hf aug-cc-pvdz iop(5/13=1,5/36=2,99/5=2) pseudo=read geom=check gue
 ss=(read,tcheck) scf=(maxcycle=1)
 ----------------------------------------------------------------------
 -----
 title
 -----
 Structure from the checkpoint file:  "Grambow2020_wb97xd3_008059_reverse_mol1.chk"
 Charge =  0 Multiplicity = 1

                         Standard orientation:
 ---------------------------------------------------------------------
 Center     Atomic      Atomic             Coordinates (Angstroms)
 Number     Number       Type             X           Y           Z
 ---------------------------------------------------------------------
      1          7           0       -2.649890    0.350052   -0.067516
      2          6           0       -2.182719   -0.563342   -0.622108
      3          6           0        0.032048   -0.606621    0.621333
      4          6           0        1.279445   -1.076872   -0.019762
      5          7           0        1.935662    0.123839   -0.502645
      6          6           0        1.193606    1.090318   -0.168627
      7          7           0        0.042439    0.688853    0.550801
      8          1           0       -0.730270   -1.162442    1.139615
      9          1           0        1.919386   -1.632183    0.673194
     10          1           0        1.041672   -1.751042   -0.848471
     11          1           0        1.365462    2.136299   -0.380831
     12          1           0       -0.828013    1.209266    0.687006
 ---------------------------------------------------------------------

 SCF Done:  E(RHF) =  -317.753362678     A.U. after    2 cycles

 The electronic state is 1-A.
 Alpha  occ. eigenvalues --  -15.75942 -15.68967 -15.53911 -11.41655 -11.39241
 Alpha  occ. eigenvalues --  -11.34364 -11.16718  -1.39772  -1.22978  -1.09673
 Alpha  occ. eigenvalues --   -1.08924  -0.91300  -0.88004  -0.84172  -0.71697
 Alpha  occ. eigenvalues --   -0.70399  -0.67088  -0.63109  -0.58844  -0.52079
 Alpha  occ. eigenvalues --   -0.50576  -0.47513  -0.38450  -0.38291  -0.37747
 Alpha virt. eigenvalues --    0.01525   0.01976   0.02550   0.03951   0.05514
 Alpha virt. eigenvalues --    0.06568   0.07944   0.08809   0.09834   0.11218
 Alpha virt. eigenvalues --    0.11828   0.12242   0.12830   0.13569   0.14006

 Mulliken charges:
               1
     1  N   -0.455859
     2  C   -0.450970
     3  C    0.412304
     4  C    0.664852
     5  N   -0.475665
     6  C    0.826294
     7  N   -0.321579
     8  H   -0.154826
     9  H   -0.007802
    10  H    0.055827
    11  H   -0.171288
    12  H    0.078711
 Sum of Mulliken charges =  -0.00000

 Dipole moment (field-independent basis, Debye):
    X=              7.7436    Y=              0.2927    Z=              3.6741  Tot=              8.5760

 Test job not archived.
 1\1\GINC-SE043\SP\RHF\Aug-CC-pVDZ\C4H5N3\OHZDE\09-Apr-2025\0\\#t hf au
 g-cc-pvdz iop(5/13=1,5/36=2,99/5=2) pseudo=read geom=check guess=(read
 ,tcheck) scf=(maxcycle=1)\\title\\0,1\N,0,2.64798898,0.25458846,1.1343
 6397\C,0,2.18505031,-0.80752431,1.00127248\C,0,0.35879767,-0.16741676,
 -0.64441184\C,0,-0.93340676,-0.88549502,-0.69644942\N,0,-1.83769082,-0
 .10246569,0.12491461\C,0,-1.17023345,0.88648051,0.5405868\N,0,0.162308
 59,0.9022529,0.06307374\H,0,1.28922809,-0.38279548,-1.14099433\H,0,-1.
 30994928,-0.99045936,-1.71884019\H,0,-0.81536987,-1.8955435,-0.2918893

 Normal termination of Gaussian 16 at Wed Apr  9 16:16:55 2025.
