 Gaussian 16, Revision C.01,

 ----------------------------------------------------------------------
 #t hf aug-cc-pvdz symm=none int=(grid=ultrafine) guess=(read,tcheck) s
 table=(opt,rrhf)
 ----------------------------------------------------------------------
 -----
 title
 -----
 Symbolic Z-matrix:
 Charge =  0 Multiplicity = 1

 SCF Done:  E(RHF) =  -310.247338058     A.U. after   12 cycles

 1\1\GINC-SE113\Stability\RHF\Aug-CC-pVDZ\C6H14O1\OHZDE\09-Apr-2025\0\\
 #t hf aug-cc-pvdz symm=none int=(grid=ultrafine) guess=(read,tcheck) s
 table=(opt,rrhf)\\title\\0,1\C,0,-3.48398155,-0.28320674,-0.74256241\C
 ,0,-2.26924926,-0.31705619,0.17526688\C,0,-0.96189889,-0.04017691,-0.5
 5763118\C,0,0.25631684,-0.07471894,0.3564993\C,0,1.54734923,0.19770207
 ,-0.38477325\O,0,2.62205865,0.13927575,0.52014495\C,0,3.8603325,0.3690
 191,-0.0935875\H,0,-4.40590114,-0.48743818,-0.19522583\H,0,-3.39609732
 ,-1.02811236,-1.53738652\H,0,-3.5894206,0.69499627,-1.21852206\H,0,-2.

 Normal termination of Gaussian 16 at Wed Apr  9 16:03:24 2025.
 Gaussian 16:  ES64L-G16RevC.01  3-Jul-2019

 ----------------------------------------------------------------------
 #t hf aug-cc-pvdz iop(5/13=1,5/36=2,99/5=2) pseudo=read geom=check gue
 ss=(read,tcheck) scf=(maxcycle=1)
 ----------------------------------------------------------------------
 -----
 title
 -----
 Structure from the checkpoint file:  "Grambow2020_wb97xd3_007724_forward_mol2.chk"
 Charge =  0 Multiplicity = 1

                         Standard orientation:
 ---------------------------------------------------------------------
 Center     Atomic      Atomic             Coordinates (Angstroms)
 Number     Number       Type             X           Y           Z
 ---------------------------------------------------------------------
      1          6           0        3.755526   -0.331992   -0.005908
      2          6           0        2.483776    0.505730   -0.003265
      3          6           0        1.215053   -0.338807    0.004938
      4          6           0       -0.059816    0.495210    0.005897
      5          6           0       -1.311303   -0.355805    0.009946
      6          8           0       -2.440803    0.481712    0.000671
      7          6           0       -3.645540   -0.233328   -0.009297
      8          1           0        4.648745    0.295143   -0.015142
      9          1           0        3.795393   -0.981994   -0.883553
     10          1           0        3.806764   -0.970891    0.879370
     11          1           0        2.482012    1.167277    0.869310
     12          1           0        2.473690    1.161386   -0.880267
     13          1           0        1.218247   -1.001510   -0.868543
     14          1           0        1.225438   -0.995175    0.883181
     15          1           0       -0.082903    1.145844   -0.873515
     16          1           0       -0.078167    1.151412    0.881190
     17          1           0       -1.327081   -1.016155   -0.871663
     18          1           0       -1.330576   -1.005262    0.899552
     19          1           0       -3.722853   -0.878866   -0.894840
     20          1           0       -4.459167    0.490789   -0.030077
     21          1           0       -3.749292   -0.861736    0.885762
 ---------------------------------------------------------------------

 SCF Done:  E(RHF) =  -310.349592682     A.U. after    2 cycles

 The electronic state is 1-A.
 Alpha  occ. eigenvalues --  -20.56588 -11.27907 -11.27847 -11.22611 -11.22551
 Alpha  occ. eigenvalues --  -11.22226 -11.22065  -1.33617  -1.07581  -1.01539
 Alpha  occ. eigenvalues --   -0.94178  -0.87989  -0.81900  -0.79133  -0.68347
 Alpha  occ. eigenvalues --   -0.65968  -0.64053  -0.63797  -0.58701  -0.58211
 Alpha  occ. eigenvalues --   -0.54896  -0.53469  -0.51384  -0.48732  -0.48634
 Alpha  occ. eigenvalues --   -0.47313  -0.46412  -0.45737  -0.43109
 Alpha virt. eigenvalues --    0.03578   0.03998   0.04690   0.04753   0.05741
 Alpha virt. eigenvalues --    0.06121   0.06163   0.07040   0.07950   0.08230
 Alpha virt. eigenvalues --    0.08520   0.10016   0.10874   0.11074   0.11991

 Mulliken charges:
               1
     1  C    0.566908
     2  C    0.261606
     3  C    0.079463
     4  C    0.180767
     5  C    0.749680
     6  O   -0.626938
     7  C    0.757596
     8  H   -0.063156
     9  H   -0.083801
    10  H   -0.084239
    11  H   -0.153526
    12  H   -0.154351
    13  H   -0.182583
    14  H   -0.181540
    15  H   -0.137454
    16  H   -0.137851
    17  H   -0.189007
    18  H   -0.188831
    19  H   -0.060355
    20  H   -0.291451
    21  H   -0.060936
 Sum of Mulliken charges =   0.00000

 Dipole moment (field-independent basis, Debye):
    X=              0.0723    Y=             -1.3157    Z=             -0.0038  Tot=              1.3177

 Test job not archived.
 1\1\GINC-SE113\SP\RHF\Aug-CC-pVDZ\C6H14O1\OHZDE\09-Apr-2025\0\\#t hf a
 ug-cc-pvdz iop(5/13=1,5/36=2,99/5=2) pseudo=read geom=check guess=(rea
 d,tcheck) scf=(maxcycle=1)\\title\\0,1\C,0,-3.48398155,-0.28320674,-0.
 74256241\C,0,-2.26924926,-0.31705619,0.17526688\C,0,-0.96189889,-0.040
 17691,-0.55763118\C,0,0.25631684,-0.07471894,0.3564993\C,0,1.54734923,
 0.19770207,-0.38477325\O,0,2.62205865,0.13927575,0.52014495\C,0,3.8603
 325,0.3690191,-0.0935875\H,0,-4.40590114,-0.48743818,-0.19522583\H,0,-
 3.39609732,-1.02811236,-1.53738652\H,0,-3.5894206,0.69499627,-1.218522

 Normal termination of Gaussian 16 at Wed Apr  9 16:03:33 2025.
