 Gaussian 16, Revision C.01,

 ----------------------------------------------------------------------
 #t hf aug-cc-pvdz symm=none int=(grid=ultrafine) guess=(read,tcheck) s
 table=(opt,rrhf)
 ----------------------------------------------------------------------
 -----
 title
 -----
 Symbolic Z-matrix:
 Charge =  0 Multiplicity = 1

 SCF Done:  E(RHF) =  -359.689346940     A.U. after   14 cycles
 Normal termination of Gaussian 16 at Wed Apr  9 03:51:37 2025.
 Gaussian 16:  ES64L-G16RevC.01  3-Jul-2019

 ----------------------------------------------------------------------
 #t hf aug-cc-pvdz iop(5/13=1,5/36=2,99/5=2) pseudo=read geom=check gue
 ss=(read,tcheck) scf=(maxcycle=1)
 ----------------------------------------------------------------------
 -----
 title
 -----
 Structure from the checkpoint file:  "Grambow2020_wb97xd3_008265_forward_mol1.chk"
 Charge =  0 Multiplicity = 1

                         Standard orientation:
 ---------------------------------------------------------------------
 Center     Atomic      Atomic             Coordinates (Angstroms)
 Number     Number       Type             X           Y           Z
 ---------------------------------------------------------------------
      1          6           0        2.294579   -0.490509   -0.338745
      2          6           0        1.073820   -0.044021    0.422330
      3          6           0        0.476729    1.323844   -0.015962
      4          7           0       -0.942351    1.026530   -0.017696
      5          6           0       -1.087326   -0.267297    0.025347
      6          8           0       -2.288140   -0.611898   -0.180623
      7          8           0       -0.013253   -1.004874    0.215885
      8          1           0        2.082390   -0.549491   -1.407316
      9          1           0        2.635763   -1.466702    0.005819
     10          1           0        3.102027    0.228415   -0.185025
     11          1           0        1.266897   -0.044525    1.497898
     12          1           0        0.837073    1.614765   -1.008990
     13          1           0        0.741912    2.112541    0.689148
     14          1           0       -2.205273    0.721354   -0.307576
 ---------------------------------------------------------------------

 SCF Done:  E(RHF) =  -359.802334144     A.U. after    2 cycles

 The electronic state is 1-A.
 Alpha  occ. eigenvalues --  -20.63725 -20.57235 -15.61754 -11.41483 -11.33045
 Alpha  occ. eigenvalues --  -11.29462 -11.25267  -1.45502  -1.36162  -1.19334
 Alpha  occ. eigenvalues --   -1.06952  -0.95070  -0.87621  -0.79649  -0.73176
 Alpha  occ. eigenvalues --   -0.72435  -0.66181  -0.64165  -0.61145  -0.59989
 Alpha  occ. eigenvalues --   -0.57943  -0.55839  -0.54614  -0.52478  -0.49607
 Alpha  occ. eigenvalues --   -0.45751  -0.38487
 Alpha virt. eigenvalues --    0.02771   0.04084   0.04282   0.04984   0.06474
 Alpha virt. eigenvalues --    0.06874   0.07129   0.09933   0.10259   0.12289
 Alpha virt. eigenvalues --    0.13049   0.13591   0.14639   0.14796   0.15078

 Mulliken charges:
               1
     1  C    0.443466
     2  C   -0.029207
     3  C    0.851947
     4  N   -0.682653
     5  C    0.610598
     6  O   -0.620594
     7  O   -0.571923
     8  H    0.005315
     9  H   -0.025766
    10  H    0.028968
    11  H   -0.225767
    12  H   -0.192145
    13  H   -0.097157
    14  H    0.504918
 Sum of Mulliken charges =  -0.00000

 Dipole moment (field-independent basis, Debye):
    X=              4.2318    Y=              2.1289    Z=              0.2301  Tot=              4.7427

 Test job not archived.
 1\1\GINC-SE103\SP\RHF\Aug-CC-pVDZ\C4H7N1O2\OHZDE\09-Apr-2025\0\\#t hf
 aug-cc-pvdz iop(5/13=1,5/36=2,99/5=2) pseudo=read geom=check guess=(re
 ad,tcheck) scf=(maxcycle=1)\\title\\0,1\C,0,-1.62991193,-0.92610956,-0
 .04916841\C,0,-0.3611165,-0.29129887,-0.55514376\C,0,-0.07334606,1.142
 00416,-0.02363448\N,0,1.34457952,1.05746551,0.26709955\C,0,1.68517045,
 -0.1998508,0.27089973\O,0,2.85774743,-0.36687813,0.7184402\O,0,0.79245
 793,-1.08453494,-0.12198007\H,0,-1.63009232,-0.97144385,1.0409201\H,0,
 -1.74665372,-1.93591933,-0.44253811\H,0,-2.48745332,-0.3317392,-0.3713

 Normal termination of Gaussian 16 at Wed Apr  9 03:51:42 2025.
