 Gaussian 16, Revision C.01,

 ----------------------------------------------------------------------
 #t hf aug-cc-pvdz symm=none int=(grid=ultrafine) guess=(read,tcheck) s
 table=(opt,rrhf)
 ----------------------------------------------------------------------
 -----
 title
 -----
 Symbolic Z-matrix:
 Charge =  0 Multiplicity = 1

 SCF Done:  E(RHF) =  -306.664354117     A.U. after   12 cycles
 Normal termination of Gaussian 16 at Wed Apr  9 16:23:03 2025.
 Gaussian 16:  ES64L-G16RevC.01  3-Jul-2019

 ----------------------------------------------------------------------
 #t hf aug-cc-pvdz iop(5/13=1,5/36=2,99/5=2) pseudo=read geom=check gue
 ss=(read,tcheck) scf=(maxcycle=1)
 ----------------------------------------------------------------------
 -----
 title
 -----
 Structure from the checkpoint file:  "Grambow2020_wb97xd3_008170_forward_mol2.chk"
 Charge =  0 Multiplicity = 1

                         Standard orientation:
 ---------------------------------------------------------------------
 Center     Atomic      Atomic             Coordinates (Angstroms)
 Number     Number       Type             X           Y           Z
 ---------------------------------------------------------------------
      1          6           0       -1.610400   -0.270564    0.242793
      2          6           0       -0.714049    0.416517   -0.797140
      3          8           0       -0.000559    1.362203   -0.000151
      4          6           0        0.713797    0.417290    0.796599
      5          6           0        1.610560   -0.270007   -0.242640
      6          6           0        0.270670   -0.812302   -0.732166
      7          6           0       -0.270191   -0.811889    0.732217
      8          1           0       -2.209074    0.377845    0.883019
      9          1           0       -2.216301   -1.068503   -0.188790
     10          1           0       -1.075395    0.867098   -1.717678
     11          1           0        1.075660    0.867413    1.717119
     12          1           0        2.210617    0.377236   -0.882760
     13          1           0        2.216025   -1.067394    0.190584
     14          1           0        0.137501   -1.633716   -1.431250
     15          1           0       -0.136886   -1.631874    1.432984
 ---------------------------------------------------------------------

 SCF Done:  E(RHF) =  -306.755539538     A.U. after    2 cycles

 The electronic state is 1-A.
 Alpha  occ. eigenvalues --  -20.56452 -11.29100 -11.29090 -11.24339 -11.24290
 Alpha  occ. eigenvalues --  -11.23067 -11.23063  -1.36547  -1.13338  -1.02870
 Alpha  occ. eigenvalues --   -0.92188  -0.83833  -0.77686  -0.75681  -0.71657
 Alpha  occ. eigenvalues --   -0.65483  -0.63832  -0.59940  -0.55461  -0.53666
 Alpha  occ. eigenvalues --   -0.50969  -0.48814  -0.47016  -0.43891  -0.41541
 Alpha  occ. eigenvalues --   -0.40653
 Alpha virt. eigenvalues --    0.03253   0.04107   0.04531   0.04657   0.06105
 Alpha virt. eigenvalues --    0.06469   0.06830   0.06835   0.11336   0.12297
 Alpha virt. eigenvalues --    0.12502   0.12633   0.13321   0.13875   0.14224

 Mulliken charges:
               1
     1  C    0.633118
     2  C    0.692083
     3  O   -0.842891
     4  C    0.692639
     5  C    0.632651
     6  C    0.218103
     7  C    0.217457
     8  H   -0.183167
     9  H   -0.188827
    10  H   -0.339736
    11  H   -0.339564
    12  H   -0.183971
    13  H   -0.188449
    14  H   -0.409603
    15  H   -0.409843
 Sum of Mulliken charges =  -0.00000

 Dipole moment (field-independent basis, Debye):
    X=              0.0010    Y=             -2.0363    Z=              0.0007  Tot=              2.0363

 Test job not archived.
 1\1\GINC-SE129\SP\RHF\Aug-CC-pVDZ\C6H8O1\OHZDE\09-Apr-2025\0\\#t hf au
 g-cc-pvdz iop(5/13=1,5/36=2,99/5=2) pseudo=read geom=check guess=(read
 ,tcheck) scf=(maxcycle=1)\\title\\0,1\C,0,-1.6054966,-0.13289782,-0.25
 210139\C,0,-0.66977088,-0.48204093,0.91387453\O,0,0.14567822,-1.507951
 31,0.3471901\C,0,0.78393481,-0.69943143,-0.64119109\C,0,1.5906528,0.28
 476003,0.21738629\C,0,0.19596436,0.79061234,0.57513177\C,0,-0.31254338
 ,0.41265165,-0.85158263\H,0,-2.12729403,-0.96196121,-0.73076273\H,0,-2
 .29250754,0.67882226,-0.00876175\H,0,-1.00573346,-0.74943004,1.9121817

 Normal termination of Gaussian 16 at Wed Apr  9 16:23:09 2025.
