 Gaussian 16, Revision C.01,

 ----------------------------------------------------------------------
 #t hf aug-cc-pvdz symm=none int=(grid=ultrafine) guess=(read,tcheck) s
 table=(opt,rrhf)
 ----------------------------------------------------------------------
 -----
 title
 -----
 Symbolic Z-matrix:
 Charge =  0 Multiplicity = 1

 SCF Done:  E(RHF) =  -268.548241002     A.U. after   16 cycles
 Normal termination of Gaussian 16 at Wed Apr  9 03:22:07 2025.
 Gaussian 16:  ES64L-G16RevC.01  3-Jul-2019

 ----------------------------------------------------------------------
 #t hf aug-cc-pvdz iop(5/13=1,5/36=2,99/5=2) pseudo=read geom=check gue
 ss=(read,tcheck) scf=(maxcycle=1)
 ----------------------------------------------------------------------
 -----
 title
 -----
 Structure from the checkpoint file:  "Grambow2020_wb97xd3_006201_reverse_mol1.chk"
 Charge =  0 Multiplicity = 1

                         Standard orientation:
 ---------------------------------------------------------------------
 Center     Atomic      Atomic             Coordinates (Angstroms)
 Number     Number       Type             X           Y           Z
 ---------------------------------------------------------------------
      1          6           0        1.515209    0.498036    0.635407
      2          6           0        2.035020   -0.025439   -0.614511
      3          6           0        0.687553   -0.591350    0.010501
      4          6           0       -0.619678   -0.110866    0.136726
      5          6           0       -1.676199    0.687337   -0.422213
      6          8           0       -1.841463   -0.675266    0.059195
      7          1           0        1.072537    1.478102    0.441624
      8          1           0        0.617158    0.438766    1.891890
      9          1           0        2.717387   -0.868412   -0.644400
     10          1           0        2.066247    0.599835   -1.502637
     11          1           0        0.841155   -1.587259    0.413328
     12          1           0       -0.313985    0.357771    1.762684
     13          1           0       -2.157607    1.443598    0.186931
     14          1           0       -1.762623    0.793423   -1.498435
 ---------------------------------------------------------------------

 SCF Done:  E(RHF) =  -268.635073795     A.U. after    2 cycles

 The electronic state is 1-A.
 Alpha  occ. eigenvalues --  -20.63168 -11.37148 -11.33182 -11.28363 -11.25502
 Alpha  occ. eigenvalues --  -11.23759  -1.44036  -1.16064  -0.96695  -0.94194
 Alpha  occ. eigenvalues --   -0.81943  -0.79093  -0.72358  -0.70755  -0.63966
 Alpha  occ. eigenvalues --   -0.62565  -0.58823  -0.54370  -0.51193  -0.50533
 Alpha  occ. eigenvalues --   -0.46595  -0.37983  -0.31178
 Alpha virt. eigenvalues --    0.03061   0.04068   0.04701   0.04887   0.06538
 Alpha virt. eigenvalues --    0.06675   0.07464   0.08180   0.09382   0.09707
 Alpha virt. eigenvalues --    0.10940   0.12634   0.12955   0.13462   0.15037

 Mulliken charges:
               1
     1  C   -0.136632
     2  C    0.759477
     3  C    0.741340
     4  C   -0.760968
     5  C    0.937826
     6  O   -0.643573
     7  H   -0.175997
     8  H    0.516851
     9  H   -0.211710
    10  H   -0.275508
    11  H   -0.292349
    12  H   -0.092484
    13  H   -0.219799
    14  H   -0.146471
 Sum of Mulliken charges =  -0.00000

 Dipole moment (field-independent basis, Debye):
    X=              0.0434    Y=              1.3856    Z=             -2.8572  Tot=              3.1757

 Test job not archived.
 1\1\GINC-SE454\SP\RHF\Aug-CC-pVDZ\C5H8O1\OHZDE\09-Apr-2025\0\\#t hf au
 g-cc-pvdz iop(5/13=1,5/36=2,99/5=2) pseudo=read geom=check guess=(read
 ,tcheck) scf=(maxcycle=1)\\title\\0,1\C,0,-1.24038674,0.04762528,-0.64
 427471\C,0,-1.31597594,1.38631489,-0.08864728\C,0,-0.60703343,0.209220
 06,0.71036042\C,0,0.60151552,-0.48255598,0.58189386\C,0,1.98437105,-0.
 4431847,0.19210011\O,0,1.501064,-0.97602322,1.4563185\H,0,-0.47886602,
 0.04167922,-1.42791376\H,0,-1.02514407,-1.47971479,-0.5459843\H,0,-2.1
 4477731,1.70280282,0.53588805\H,0,-0.77391961,2.20613109,-0.5520979\H,

 Normal termination of Gaussian 16 at Wed Apr  9 03:22:12 2025.
