 Gaussian 16, Revision C.01,

 ----------------------------------------------------------------------
 #t hf aug-cc-pvdz symm=none int=(grid=ultrafine) guess=(read,tcheck) s
 table=(opt,rrhf)
 ----------------------------------------------------------------------
 -----
 title
 -----
 Symbolic Z-matrix:
 Charge =  0 Multiplicity = 1

 SCF Done:  E(RHF) =  -324.854656429     A.U. after   16 cycles
 Normal termination of Gaussian 16 at Wed Apr  9 16:50:32 2025.
 Gaussian 16:  ES64L-G16RevC.01  3-Jul-2019

 ----------------------------------------------------------------------
 #t hf aug-cc-pvdz iop(5/13=1,5/36=2,99/5=2) pseudo=read geom=check gue
 ss=(read,tcheck) scf=(maxcycle=1)
 ----------------------------------------------------------------------
 -----
 title
 -----
 Structure from the checkpoint file:  "Grambow2020_wb97xd3_008961_reverse_mol1.chk"
 Charge =  0 Multiplicity = 1

                         Standard orientation:
 ---------------------------------------------------------------------
 Center     Atomic      Atomic             Coordinates (Angstroms)
 Number     Number       Type             X           Y           Z
 ---------------------------------------------------------------------
      1          6           0        2.865147   -0.016354    0.384806
      2          6           0        2.176283   -0.757849   -0.527234
      3          7           0        0.101352    0.018387   -0.726250
      4          6           0       -0.092362    1.156998   -0.130619
      5          6           0       -0.550585   -0.003913    0.604014
      6          6           0       -1.987687   -0.467286    0.648501
      7          8           0       -2.721512   -0.048314   -0.474601
      8          1           0        2.962612   -0.356944    1.409356
      9          1           0        1.857772    1.156698    0.730572
     10          1           0        3.600166    0.709151    0.054601
     11          1           0        2.304086   -0.595576   -1.587581
     12          1           0        1.698280   -1.684603   -0.244315
     13          1           0        1.117558    1.587153    0.669790
     14          1           0       -0.346913    2.141168   -0.498501
     15          1           0        0.066778   -0.328610    1.446118
     16          1           0       -2.000135   -1.562644    0.743259
     17          1           0       -2.484189   -0.055462    1.530351
     18          1           0       -2.178164   -0.222098   -1.249910
 ---------------------------------------------------------------------

 SCF Done:  E(RHF) =  -324.957677398     A.U. after    2 cycles

 The electronic state is 1-A.
 Alpha  occ. eigenvalues --  -20.56568 -15.63470 -11.30296 -11.28557 -11.27892
 Alpha  occ. eigenvalues --  -11.26634 -11.23902  -1.32722  -1.27053  -1.03849
 Alpha  occ. eigenvalues --   -0.96787  -0.83596  -0.81302  -0.79148  -0.71033
 Alpha  occ. eigenvalues --   -0.68640  -0.65156  -0.62567  -0.61729  -0.59399
 Alpha  occ. eigenvalues --   -0.59005  -0.53269  -0.51655  -0.49742  -0.46772
 Alpha  occ. eigenvalues --   -0.39459  -0.37950  -0.35174
 Alpha virt. eigenvalues --    0.03323   0.03793   0.04231   0.04711   0.06228
 Alpha virt. eigenvalues --    0.06510   0.06846   0.07473   0.08260   0.08815
 Alpha virt. eigenvalues --    0.10227   0.10664   0.11891   0.12627   0.13022

 Mulliken charges:
               1
     1  C    0.209820
     2  C    0.723634
     3  N   -0.729886
     4  C    0.332191
     5  C    0.509990
     6  C    0.747772
     7  O   -0.551011
     8  H   -0.168978
     9  H    0.117473
    10  H   -0.192550
    11  H   -0.271355
    12  H   -0.263939
    13  H    0.263781
    14  H   -0.336181
    15  H   -0.492086
    16  H   -0.025245
    17  H   -0.046639
    18  H    0.173207
 Sum of Mulliken charges =  -0.00000

 Dipole moment (field-independent basis, Debye):
    X=              2.0836    Y=              0.1738    Z=              0.9143  Tot=              2.2820

 Test job not archived.
 1\1\GINC-SE229\SP\RHF\Aug-CC-pVDZ\C5H11N1O1\OHZDE\09-Apr-2025\0\\#t hf
  aug-cc-pvdz iop(5/13=1,5/36=2,99/5=2) pseudo=read geom=check guess=(r
 ead,tcheck) scf=(maxcycle=1)\\title\\0,1\C,0,-2.51209151,-0.08969931,0
 .31563847\C,0,-1.88283122,-0.11931703,-0.89238427\N,0,0.27479002,-0.58
 270592,-0.61412074\C,0,0.57949135,-0.95863967,0.59193361\C,0,0.8712912
 5,0.42753662,0.29070967\C,0,2.24139741,0.94556449,-0.07863128\O,0,3.05
 933108,-0.05154512,-0.63733682\H,0,-2.68573124,0.85291894,0.82212063\H
 ,0,-1.38686363,-0.57442382,1.32028598\H,0,-3.14433827,-0.91567122,0.62

 Normal termination of Gaussian 16 at Wed Apr  9 16:50:38 2025.
