 Gaussian 16, Revision C.01,

 ----------------------------------------------------------------------
 #t hf aug-cc-pvdz symm=none int=(grid=ultrafine) guess=(read,tcheck) s
 table=(opt,rrhf)
 ----------------------------------------------------------------------
 -----
 title
 -----
 Symbolic Z-matrix:
 Charge =  0 Multiplicity = 1

 SCF Done:  E(RHF) =  -323.767363745     A.U. after   15 cycles
 Normal termination of Gaussian 16 at Wed Apr  9 15:24:06 2025.
 Gaussian 16:  ES64L-G16RevC.01  3-Jul-2019

 ----------------------------------------------------------------------
 #t hf aug-cc-pvdz iop(5/13=1,5/36=2,99/5=2) pseudo=read geom=check gue
 ss=(read,tcheck) scf=(maxcycle=1)
 ----------------------------------------------------------------------
 -----
 title
 -----
 Structure from the checkpoint file:  "Grambow2020_wb97xd3_006877_forward_mol1.chk"
 Charge =  0 Multiplicity = 1

                         Standard orientation:
 ---------------------------------------------------------------------
 Center     Atomic      Atomic             Coordinates (Angstroms)
 Number     Number       Type             X           Y           Z
 ---------------------------------------------------------------------
      1          6           0        2.433677   -0.287535   -0.640208
      2          7           0        1.165575    0.356830   -0.337215
      3          6           0        0.789394    0.504300    1.343526
      4          6           0        0.155584   -0.420562    0.364994
      5          6           0       -1.288986   -0.242526   -0.042561
      6          8           0       -2.017625   -1.203649   -0.046549
      7          6           0       -1.750059    1.143532   -0.387565
      8          1           0        3.237046    0.445634   -0.573512
      9          1           0        2.398763   -0.675671   -1.659324
     10          1           0        2.649908   -1.108947    0.049732
     11          1           0        1.625093   -0.012946    1.828000
     12          1           0        1.157972    1.314863    0.255196
     13          1           0        0.416394   -1.474834    0.413759
     14          1           0       -1.194855    1.511998   -1.252916
     15          1           0       -2.815502    1.133853   -0.602679
     16          1           0       -1.530510    1.814174    0.445519
 ---------------------------------------------------------------------

 SCF Done:  E(RHF) =  -323.865707015     A.U. after    2 cycles

 The electronic state is 1-A.
 Alpha  occ. eigenvalues --  -20.56340 -15.69102 -11.34081 -11.29482 -11.29472
 Alpha  occ. eigenvalues --  -11.26627 -11.23618  -1.35930  -1.27779  -1.04071
 Alpha  occ. eigenvalues --   -0.99449  -0.90545  -0.84411  -0.76470  -0.69897
 Alpha  occ. eigenvalues --   -0.67582  -0.63271  -0.61807  -0.61059  -0.60273
 Alpha  occ. eigenvalues --   -0.56364  -0.54608  -0.53128  -0.50277  -0.45678
 Alpha  occ. eigenvalues --   -0.40419  -0.35892
 Alpha virt. eigenvalues --    0.02784   0.03922   0.04319   0.04684   0.06402
 Alpha virt. eigenvalues --    0.06905   0.07266   0.07422   0.09163   0.10613
 Alpha virt. eigenvalues --    0.10919   0.11766   0.13061   0.13408   0.13818

 Mulliken charges:
               1
     1  C    0.852299
     2  N   -0.922536
     3  C   -0.183638
     4  C    0.850999
     5  C   -0.054584
     6  O   -0.499885
     7  C    0.386285
     8  H   -0.164165
     9  H   -0.158412
    10  H   -0.162232
    11  H   -0.143049
    12  H    0.463193
    13  H   -0.338574
    14  H    0.095521
    15  H   -0.119544
    16  H    0.098322
 Sum of Mulliken charges =  -0.00000

 Dipole moment (field-independent basis, Debye):
    X=              3.9558    Y=              1.1013    Z=             -1.3072  Tot=              4.3093

 Test job not archived.
 1\1\GINC-SE129\SP\RHF\Aug-CC-pVDZ\C5H9N1O1\OHZDE\09-Apr-2025\0\\#t hf
 aug-cc-pvdz iop(5/13=1,5/36=2,99/5=2) pseudo=read geom=check guess=(re
 ad,tcheck) scf=(maxcycle=1)\\title\\0,1\C,0,1.15787828,-0.02534931,-1.
 94637865\N,0,0.58591212,0.30267701,-0.65009678\C,0,1.13976273,-0.66252
 916,0.67269436\C,0,-0.19993726,-0.71777848,0.02712511\C,0,-1.43746441,
 -0.28083979,0.77691907\O,0,-2.41165375,-0.9917505,0.76107448\C,0,-1.37
 111276,1.01064516,1.53878297\H,0,2.12308371,0.4693279,-2.05153993\H,0,
 0.49144566,0.33910018,-2.72964742\H,0,1.30067782,-1.10332095,-2.069164

 Normal termination of Gaussian 16 at Wed Apr  9 15:24:11 2025.
