 Gaussian 16, Revision C.01,

 ----------------------------------------------------------------------
 #t hf aug-cc-pvdz symm=none int=(grid=ultrafine) guess=(read,tcheck) s
 table=(opt,rrhf)
 ----------------------------------------------------------------------
 -----
 title
 -----
 Symbolic Z-matrix:
 Charge =  0 Multiplicity = 1

 SCF Done:  E(RHF) =  -343.628390326     A.U. after   15 cycles
 Normal termination of Gaussian 16 at Wed Apr  9 03:27:17 2025.
 Gaussian 16:  ES64L-G16RevC.01  3-Jul-2019

 ----------------------------------------------------------------------
 #t hf aug-cc-pvdz iop(5/13=1,5/36=2,99/5=2) pseudo=read geom=check gue
 ss=(read,tcheck) scf=(maxcycle=1)
 ----------------------------------------------------------------------
 -----
 title
 -----
 Structure from the checkpoint file:  "Grambow2020_wb97xd3_006715_reverse_mol2.chk"
 Charge =  0 Multiplicity = 1

                         Standard orientation:
 ---------------------------------------------------------------------
 Center     Atomic      Atomic             Coordinates (Angstroms)
 Number     Number       Type             X           Y           Z
 ---------------------------------------------------------------------
      1          8           0       -2.349449    0.114293   -0.237500
      2          6           0       -1.576905   -0.777686   -0.047529
      3          6           0       -0.178508   -0.624042    0.500261
      4          8           0        0.169945    0.721338    0.822473
      5          6           0        1.102718    0.754283   -0.253726
      6          6           0        2.193146   -0.228869   -0.029041
      7          6           0        0.878027   -0.690262   -0.599449
      8          1           0       -1.343144    2.706199   -0.327713
      9          1           0       -0.053667   -1.313796    1.345471
     10          1           0       -1.837912   -1.832069   -0.288939
     11          1           0       -1.246233    3.369359   -0.657259
     12          1           0        1.156557    1.649925   -0.856609
     13          1           0        2.474333   -0.488549    0.985367
     14          1           0        3.004031   -0.198399   -0.746340
     15          1           0        0.771194   -1.178256   -1.556857
 ---------------------------------------------------------------------

 SCF Done:  E(RHF) =  -343.739423233     A.U. after    2 cycles

 The electronic state is 1-A.
 Alpha  occ. eigenvalues --  -20.58752 -20.58431 -11.35168 -11.32278 -11.31366
 Alpha  occ. eigenvalues --  -11.26831 -11.25940  -1.39426  -1.36809  -1.13122
 Alpha  occ. eigenvalues --   -1.01304  -0.85141  -0.84093  -0.76054  -0.73920
 Alpha  occ. eigenvalues --   -0.70592  -0.67771  -0.64953  -0.62761  -0.56979
 Alpha  occ. eigenvalues --   -0.56392  -0.56014  -0.53996  -0.49736  -0.46731
 Alpha  occ. eigenvalues --   -0.42341  -0.40653
 Alpha virt. eigenvalues --    0.02876   0.03767   0.04193   0.05268   0.06168
 Alpha virt. eigenvalues --    0.06487   0.07900   0.08658   0.10005   0.10810
 Alpha virt. eigenvalues --    0.11162   0.12578   0.12898   0.13703   0.14467

 Mulliken charges:
               1
     1  O   -0.428328
     2  C    0.717581
     3  C    0.664045
     4  O   -0.804709
     5  C    0.740053
     6  C    0.847616
     7  C    0.076366
     8  H    0.012783
     9  H   -0.184780
    10  H   -0.148608
    11  H    0.005879
    12  H   -0.405225
    13  H   -0.333378
    14  H   -0.294995
    15  H   -0.464301
 Sum of Mulliken charges =  -0.00000

 Dipole moment (field-independent basis, Debye):
    X=              3.2105    Y=             -3.2989    Z=             -1.0096  Tot=              4.7127

 Test job not archived.
 1\1\GINC-SE362\SP\RHF\Aug-CC-pVDZ\C5H8O2\OHZDE\09-Apr-2025\0\\#t hf au
 g-cc-pvdz iop(5/13=1,5/36=2,99/5=2) pseudo=read geom=check guess=(read
 ,tcheck) scf=(maxcycle=1)\\title\\0,1\O,0,2.46874431,-0.23526601,0.680
 42077\C,0,1.96699243,-0.06298004,-0.39060833\C,0,0.60910538,0.55041386
 ,-0.63368123\O,0,-0.059726,0.96104621,0.55767564\C,0,-1.02642131,-0.07
 177129,0.38991794\C,0,-1.80891038,0.14336218,-0.85408208\C,0,-0.452327
 17,-0.50619138,-0.92857207\H,0,0.81832876,-0.13942737,2.91776439\H,0,0
 .71489588,1.36052682,-1.36733677\H,0,2.48012726,-0.37320874,-1.3279323

 Normal termination of Gaussian 16 at Wed Apr  9 03:27:22 2025.
