 Gaussian 16, Revision C.01,

 ----------------------------------------------------------------------
 #t hf aug-cc-pvdz symm=none int=(grid=ultrafine) guess=(read,tcheck) s
 table=(opt,rrhf)
 ----------------------------------------------------------------------
 -----
 title
 -----
 Symbolic Z-matrix:
 Charge =  0 Multiplicity = 1

 SCF Done:  E(RHF) =  -299.544874972     A.U. after   16 cycles
 Normal termination of Gaussian 16 at Wed Apr  9 03:06:39 2025.
 Gaussian 16:  ES64L-G16RevC.01  3-Jul-2019

 ----------------------------------------------------------------------
 #t hf aug-cc-pvdz iop(5/13=1,5/36=2,99/5=2) pseudo=read geom=check gue
 ss=(read,tcheck) scf=(maxcycle=1)
 ----------------------------------------------------------------------
 -----
 title
 -----
 Structure from the checkpoint file:  "Grambow2020_b97d3_006598_forward_mol1.chk"
 Charge =  0 Multiplicity = 1

                         Standard orientation:
 ---------------------------------------------------------------------
 Center     Atomic      Atomic             Coordinates (Angstroms)
 Number     Number       Type             X           Y           Z
 ---------------------------------------------------------------------
      1          6           0       -2.179743   -0.272889   -0.000755
      2          6           0       -0.952319    0.523975    0.000631
      3          7           0       -0.149221    1.399248    0.000661
      4          6           0        1.701112    0.623323   -0.000013
      5          7           0        1.485390   -0.578757   -0.000550
      6          8           0        0.522919   -1.356056    0.000720
      7          1           0       -3.065626    0.377946   -0.015805
      8          1           0       -2.211749   -0.908424    0.892662
      9          1           0       -2.195870   -0.928994   -0.879416
     10          1           0        2.522409    1.318029   -0.003145
 ---------------------------------------------------------------------

 SCF Done:  E(RHF) =  -299.635602045     A.U. after    2 cycles

 The electronic state is 1-A.
 Alpha  occ. eigenvalues --  -20.57573 -15.75670 -15.66362 -11.34346 -11.33615
 Alpha  occ. eigenvalues --  -11.29455  -1.40942  -1.20876  -1.13944  -1.03198
 Alpha  occ. eigenvalues --   -0.79959  -0.71807  -0.70488  -0.65965  -0.63525
 Alpha  occ. eigenvalues --   -0.61668  -0.61508  -0.57979  -0.47420  -0.46911
 Alpha  occ. eigenvalues --   -0.38658  -0.37497
 Alpha virt. eigenvalues --    0.03144   0.03598   0.05558   0.05787   0.08067
 Alpha virt. eigenvalues --    0.09334   0.09492   0.09987   0.12491   0.13387
 Alpha virt. eigenvalues --    0.13438   0.14699   0.15346   0.15574   0.16141

 Mulliken charges:
               1
     1  C    0.408878
     2  C   -0.228402
     3  N   -0.371414
     4  C    0.556330
     5  N    0.208228
     6  O   -0.651406
     7  H    0.066015
     8  H    0.066895
     9  H    0.065914
    10  H   -0.121039
 Sum of Mulliken charges =   0.00000

 Dipole moment (field-independent basis, Debye):
    X=             -1.4886    Y=              1.8270    Z=             -0.0071  Tot=              2.3566

 Test job not archived.
 1\1\GINC-SE114\SP\RHF\Aug-CC-pVDZ\C3H4N2O1\OHZDE\09-Apr-2025\0\\#t hf
 aug-cc-pvdz iop(5/13=1,5/36=2,99/5=2) pseudo=read geom=check guess=(re
 ad,tcheck) scf=(maxcycle=1)\\title\\0,1\C,0,-1.74948475,0.07266152,0.0
 6178475\C,0,-0.37786681,0.33515654,0.4991891\N,0,0.59684798,0.69699579
 ,1.07370908\C,0,2.23295237,0.03706071,0.1179674\N,0,1.76003945,-0.5770
 9618,-0.82579911\O,0,0.65118388,-0.86646623,-1.29189951\H,0,-2.4715867
 6,0.55091568,0.73887053\H,0,-1.9329023,-1.00856484,0.04101146\H,0,-1.8
 9523607,0.45682984,-0.95504854\H,0,3.186053,0.30250717,0.54021484\\Ver

 Normal termination of Gaussian 16 at Wed Apr  9 03:06:42 2025.
