 Gaussian 16, Revision C.01,

 ----------------------------------------------------------------------
 #t hf aug-cc-pvdz symm=none int=(grid=ultrafine) guess=(read,tcheck) s
 table=(opt,rrhf)
 ----------------------------------------------------------------------
 -----
 title
 -----
 Symbolic Z-matrix:
 Charge =  0 Multiplicity = 1

 SCF Done:  E(RHF) =  -359.528603901     A.U. after   17 cycles
 Normal termination of Gaussian 16 at Wed Apr  9 17:15:30 2025.
 Gaussian 16:  ES64L-G16RevC.01  3-Jul-2019

 ----------------------------------------------------------------------
 #t hf aug-cc-pvdz iop(5/13=1,5/36=2,99/5=2) pseudo=read geom=check gue
 ss=(read,tcheck) scf=(maxcycle=1)
 ----------------------------------------------------------------------
 -----
 title
 -----
 Structure from the checkpoint file:  "Grambow2020_wb97xd3_009417_reverse_mol1.chk"
 Charge =  0 Multiplicity = 1

                         Standard orientation:
 ---------------------------------------------------------------------
 Center     Atomic      Atomic             Coordinates (Angstroms)
 Number     Number       Type             X           Y           Z
 ---------------------------------------------------------------------
      1          8           0       -1.954870   -0.037727    0.536858
      2          6           0       -0.955100   -0.156519   -0.438541
      3          6           0       -0.182684    1.143646   -0.655574
      4          8           0        0.899469    1.216023    0.353880
      5          6           0        1.387498    0.035928    0.546371
      6          7           0        1.330371   -0.916412   -0.378231
      7          6           0        0.063226   -1.296849   -0.275775
      8          1           0       -1.586988   -0.366262    1.365411
      9          1           0       -1.462970   -0.371047   -1.386843
     10          1           0        0.263528    1.190725   -1.647793
     11          1           0       -0.802568    2.012412   -0.454680
     12          1           0        0.948989   -0.493449    1.674422
     13          1           0       -0.223004   -2.290584   -0.615569
     14          1           0        0.115991   -1.050512    1.527882
 ---------------------------------------------------------------------

 SCF Done:  E(RHF) =  -359.638653777     A.U. after    2 cycles

 The electronic state is 1-A.
 Alpha  occ. eigenvalues --  -20.65746 -20.58942 -15.62905 -11.38988 -11.33034
 Alpha  occ. eigenvalues --  -11.32925 -11.32794  -1.45072  -1.35045  -1.24573
 Alpha  occ. eigenvalues --   -1.06332  -0.93403  -0.89590  -0.78617  -0.76070
 Alpha  occ. eigenvalues --   -0.73586  -0.71394  -0.66955  -0.63811  -0.62351
 Alpha  occ. eigenvalues --   -0.58883  -0.57049  -0.53251  -0.48662  -0.46958
 Alpha  occ. eigenvalues --   -0.39083  -0.35958
 Alpha virt. eigenvalues --    0.03223   0.04192   0.04334   0.05312   0.05861
 Alpha virt. eigenvalues --    0.07009   0.07197   0.08426   0.10487   0.11363
 Alpha virt. eigenvalues --    0.11786   0.13174   0.13305   0.13868   0.14058

 Mulliken charges:
               1
     1  O   -0.577509
     2  C    0.277506
     3  C    0.883255
     4  O   -0.528793
     5  C    0.312259
     6  N   -0.516157
     7  C    0.288367
     8  H    0.195469
     9  H   -0.034315
    10  H   -0.080034
    11  H   -0.129028
    12  H    0.311855
    13  H   -0.233623
    14  H   -0.169252
 Sum of Mulliken charges =  -0.00000

 Dipole moment (field-independent basis, Debye):
    X=             -0.9103    Y=              0.5208    Z=             -1.5367  Tot=              1.8605

 Test job not archived.
 1\1\GINC-SE041\SP\RHF\Aug-CC-pVDZ\C4H7N1O2\OHZDE\09-Apr-2025\0\\#t hf
 aug-cc-pvdz iop(5/13=1,5/36=2,99/5=2) pseudo=read geom=check guess=(re
 ad,tcheck) scf=(maxcycle=1)\\title\\0,1\O,0,-1.31177508,-0.5409,1.2503
 8918\C,0,-0.91468823,0.07107458,0.05336542\C,0,-0.13239427,1.36355063,
 0.28069453\O,0,1.29059957,1.01373894,0.49981366\C,0,1.61327126,0.02540
 542,-0.26629867\N,0,0.97892182,-0.22706801,-1.40601907\C,0,-0.13790054
 ,-0.78695523,-0.95867229\H,0,-0.65958751,-1.22125939,1.45419233\H,0,-1
 .83254893,0.35923702,-0.47362999\H,0,-0.19793354,2.03430427,-0.5746499

 Normal termination of Gaussian 16 at Wed Apr  9 17:15:35 2025.
