 Gaussian 16, Revision C.01,

 ----------------------------------------------------------------------
 #t hf aug-cc-pvdz symm=none int=(grid=ultrafine) guess=(read,tcheck) s
 table=(opt,rrhf)
 ----------------------------------------------------------------------
 -----
 title
 -----
 Symbolic Z-matrix:
 Charge =  0 Multiplicity = 1

 SCF Done:  E(RHF) =  -305.347776372     A.U. after   20 cycles
 Normal termination of Gaussian 16 at Wed Apr  9 16:15:03 2025.
 Gaussian 16:  ES64L-G16RevC.01  3-Jul-2019

 ----------------------------------------------------------------------
 #t hf aug-cc-pvdz iop(5/13=1,5/36=2,99/5=2) pseudo=read geom=check gue
 ss=(read,tcheck) scf=(maxcycle=1)
 ----------------------------------------------------------------------
 -----
 title
 -----
 Structure from the checkpoint file:  "Grambow2020_wb97xd3_008024_reverse_mol2.chk"
 Charge =  0 Multiplicity = 1

                         Standard orientation:
 ---------------------------------------------------------------------
 Center     Atomic      Atomic             Coordinates (Angstroms)
 Number     Number       Type             X           Y           Z
 ---------------------------------------------------------------------
      1          8           0        2.538822    0.429036    0.036962
      2          6           0        1.585819   -0.541576   -0.305097
      3          6           0        0.278374   -0.301479    0.433425
      4          6           0       -0.466839    0.931313    0.047686
      5          6           0       -1.812177    0.920568   -0.085866
      6          6           0       -0.911814   -1.040017    0.039182
      7          6           0       -2.132236   -0.486850   -0.083489
      8          1           0        2.155661    1.289239   -0.159462
      9          1           0        1.385540   -0.562560   -1.381813
     10          1           0        1.992496   -1.509513   -0.012891
     11          1           0        0.393818   -0.311705    1.518962
     12          1           0       -2.426812    1.789085   -0.281044
     13          1           0       -3.058040   -1.018587   -0.254497
 ---------------------------------------------------------------------

 SCF Done:  E(RHF) =  -305.437461362     A.U. after    2 cycles

 The electronic state is 1-A.
 Alpha  occ. eigenvalues --  -20.57685 -11.30395 -11.30239 -11.29149 -11.28349
 Alpha  occ. eigenvalues --  -11.27841 -11.27363  -1.33540  -1.20500  -1.04128
 Alpha  occ. eigenvalues --   -0.94277  -0.90980  -0.76743  -0.72524  -0.71429
 Alpha  occ. eigenvalues --   -0.64518  -0.64215  -0.62801  -0.61558  -0.55839
 Alpha  occ. eigenvalues --   -0.52040  -0.48664  -0.45053  -0.33101  -0.32465
 Alpha virt. eigenvalues --    0.01578   0.03193   0.04356   0.05091   0.05214
 Alpha virt. eigenvalues --    0.06371   0.06936   0.07857   0.09436   0.11447
 Alpha virt. eigenvalues --    0.11924   0.12845   0.13308   0.13991   0.14502

 Mulliken charges:
               1
     1  O   -0.549117
     2  C    1.093172
     3  C   -0.712640
     4  C   -0.360178
     5  C    0.592576
     6  C   -0.236570
     7  C    0.490434
     8  H    0.186380
     9  H   -0.061237
    10  H   -0.062332
    11  H    0.082175
    12  H   -0.238611
    13  H   -0.224053
 Sum of Mulliken charges =  -0.00000

 Dipole moment (field-independent basis, Debye):
    X=             -2.4657    Y=             -0.1421    Z=              0.3139  Tot=              2.4897

 Test job not archived.
 1\1\GINC-SE162\SP\RHF\Aug-CC-pVDZ\C6H6O1\OHZDE\09-Apr-2025\0\\#t hf au
 g-cc-pvdz iop(5/13=1,5/36=2,99/5=2) pseudo=read geom=check guess=(read
 ,tcheck) scf=(maxcycle=1)\\title\\0,1\O,0,2.31298996,-1.13300121,-0.18
 879489\C,0,1.69802447,-0.02766148,0.41729734\C,0,0.35545313,0.26936403
 ,-0.23212664\C,0,-0.70650299,-0.75658909,-0.02335759\C,0,-1.98458306,-
 0.39641428,0.23094626\C,0,-0.55264102,1.21307084,0.40206354\C,0,-1.877
 26281,1.0122452,0.52663056\H,0,1.70046235,-1.87211135,-0.12658882\H,0,
 1.54623348,-0.17698346,1.49178838\H,0,2.36167719,0.8257849,0.27994392\

 Normal termination of Gaussian 16 at Wed Apr  9 16:15:29 2025.
