 Gaussian 16, Revision C.01,

 ----------------------------------------------------------------------
 #t hf aug-cc-pvdz symm=none int=(grid=ultrafine) guess=(read,tcheck) s
 table=(opt,rrhf)
 ----------------------------------------------------------------------
 -----
 title
 -----
 Symbolic Z-matrix:
 Charge =  0 Multiplicity = 1

 SCF Done:  E(RHF) =  -343.697392888     A.U. after   13 cycles
 Normal termination of Gaussian 16 at Wed Apr  9 15:24:58 2025.
 Gaussian 16:  ES64L-G16RevC.01  3-Jul-2019

 ----------------------------------------------------------------------
 #t hf aug-cc-pvdz iop(5/13=1,5/36=2,99/5=2) pseudo=read geom=check gue
 ss=(read,tcheck) scf=(maxcycle=1)
 ----------------------------------------------------------------------
 -----
 title
 -----
 Structure from the checkpoint file:  "Grambow2020_wb97xd3_006883_reverse_mol2.chk"
 Charge =  0 Multiplicity = 1

                         Standard orientation:
 ---------------------------------------------------------------------
 Center     Atomic      Atomic             Coordinates (Angstroms)
 Number     Number       Type             X           Y           Z
 ---------------------------------------------------------------------
      1          6           0       -0.347142    1.169218    0.082666
      2          6           0        0.680087    0.060446   -0.027586
      3          6           0        1.769644   -0.345597    0.889566
      4          6           0        2.072525    0.085084   -0.533958
      5          8           0       -0.278331   -0.871005   -0.519946
      6          6           0       -1.319600    0.108039   -0.426448
      7          8           0       -2.291702   -0.203332    0.511296
      8          1           0       -0.574076    1.501119    1.093763
      9          1           0       -2.822734   -0.930855    0.179141
     10          1           0       -0.195115    2.020038   -0.578368
     11          1           0        2.035204    0.318282    1.702575
     12          1           0        1.849953   -1.401557    1.112675
     13          1           0        2.546129    1.045379   -0.696720
     14          1           0        2.353174   -0.690279   -1.235088
     15          1           0       -1.765355    0.269432   -1.414214
 ---------------------------------------------------------------------

 SCF Done:  E(RHF) =  -343.806080772     A.U. after    2 cycles

 The electronic state is 1-A.
 Alpha  occ. eigenvalues --  -20.58515 -20.56890 -11.34980 -11.29851 -11.24041
 Alpha  occ. eigenvalues --  -11.23354 -11.23270  -1.38692  -1.31844  -1.12742
 Alpha  occ. eigenvalues --   -1.01043  -0.87021  -0.83282  -0.75452  -0.73576
 Alpha  occ. eigenvalues --   -0.70098  -0.68100  -0.63192  -0.60962  -0.57700
 Alpha  occ. eigenvalues --   -0.54424  -0.52164  -0.50996  -0.50111  -0.48035
 Alpha  occ. eigenvalues --   -0.41875  -0.39001
 Alpha virt. eigenvalues --    0.03534   0.04238   0.04781   0.05066   0.06108
 Alpha virt. eigenvalues --    0.06509   0.06879   0.08776   0.09371   0.11405
 Alpha virt. eigenvalues --    0.12739   0.13208   0.13679   0.14552   0.15088

 Mulliken charges:
               1
     1  C    0.266068
     2  C    0.273124
     3  C    0.335197
     4  C    0.481007
     5  O   -0.866529
     6  C    1.179451
     7  O   -0.546972
     8  H   -0.077622
     9  H    0.145565
    10  H   -0.082091
    11  H   -0.222135
    12  H   -0.173656
    13  H   -0.246904
    14  H   -0.187652
    15  H   -0.276851
 Sum of Mulliken charges =  -0.00000

 Dipole moment (field-independent basis, Debye):
    X=              0.0488    Y=              1.1387    Z=             -0.7957  Tot=              1.3900

 Test job not archived.
 1\1\GINC-SE129\SP\RHF\Aug-CC-pVDZ\C5H8O2\OHZDE\09-Apr-2025\0\\#t hf au
 g-cc-pvdz iop(5/13=1,5/36=2,99/5=2) pseudo=read geom=check guess=(read
 ,tcheck) scf=(maxcycle=1)\\title\\0,1\C,0,-0.12795694,1.12929393,-0.24
 762059\C,0,-0.27628444,-0.32919335,0.13649314\C,0,-1.09063509,-1.41104
 523,-0.46317779\C,0,-1.28667707,-1.0030856,0.98553973\O,0,1.1200312,-0
 .47891823,0.37412366\C,0,1.35783756,0.88414093,0.00395107\O,0,2.113311
 12,1.02225228,-1.14994803\H,0,-0.3478707,1.36663609,-1.28650562\H,0,3.
 0212997,0.77610629,-0.95868757\H,0,-0.60398929,1.8435838,0.42107588\H,

 Normal termination of Gaussian 16 at Wed Apr  9 15:25:03 2025.
