 Gaussian 16, Revision C.01,

 ----------------------------------------------------------------------
 #t hf aug-cc-pvdz symm=none int=(grid=ultrafine) guess=(read,tcheck) s
 table=(opt,rrhf)
 ----------------------------------------------------------------------
 -----
 title
 -----
 Symbolic Z-matrix:
 Charge =  0 Multiplicity = 1

 SCF Done:  E(RHF) =  -284.649027478     A.U. after   16 cycles
 Normal termination of Gaussian 16 at Wed Apr  9 03:05:52 2025.
 Gaussian 16:  ES64L-G16RevC.01  3-Jul-2019

 ----------------------------------------------------------------------
 #t hf aug-cc-pvdz iop(5/13=1,5/36=2,99/5=2) pseudo=read geom=check gue
 ss=(read,tcheck) scf=(maxcycle=1)
 ----------------------------------------------------------------------
 -----
 title
 -----
 Structure from the checkpoint file:  "Grambow2020_b97d3_006563_forward_mol1.chk"
 Charge =  0 Multiplicity = 1

                         Standard orientation:
 ---------------------------------------------------------------------
 Center     Atomic      Atomic             Coordinates (Angstroms)
 Number     Number       Type             X           Y           Z
 ---------------------------------------------------------------------
      1          8           0        1.904200   -0.634401   -0.174616
      2          6           0        1.123092    0.145775    0.578845
      3          6           0        0.234664    1.152629   -0.177824
      4          7           0       -1.160779    0.690797   -0.047044
      5          6           0       -1.293820   -0.663477   -0.645376
      6          6           0       -0.992072   -0.550913    0.775659
      7          1           0        1.716433   -0.517148   -1.141379
      8          1           0        0.390655   -0.426347    1.348680
      9          1           0        0.517774    1.233728   -1.243772
     10          1           0        0.341545    2.154099    0.266971
     11          1           0       -0.515750   -1.030131   -1.331100
     12          1           0       -2.311093   -0.905371   -0.958491
     13          1           0       -1.678893   -0.773282    1.597493
 ---------------------------------------------------------------------

 SCF Done:  E(RHF) =  -284.732637597     A.U. after    2 cycles

 The electronic state is 1-A.
 Alpha  occ. eigenvalues --  -20.63947 -15.63791 -11.33128 -11.28377 -11.28000
 Alpha  occ. eigenvalues --  -11.27821  -1.39419  -1.25355  -1.01299  -0.90635
 Alpha  occ. eigenvalues --   -0.84098  -0.80315  -0.71845  -0.69297  -0.64642
 Alpha  occ. eigenvalues --   -0.63138  -0.59401  -0.57385  -0.52166  -0.49548
 Alpha  occ. eigenvalues --   -0.45030  -0.39529  -0.30195
 Alpha virt. eigenvalues --    0.03064   0.04123   0.04450   0.05012   0.06491
 Alpha virt. eigenvalues --    0.07241   0.07499   0.08913   0.10250   0.11307
 Alpha virt. eigenvalues --    0.12725   0.13617   0.13877   0.14143   0.14878

 Mulliken charges:
               1
     1  O   -0.465887
     2  C    0.221424
     3  C    0.631171
     4  N   -0.831608
     5  C    1.038502
     6  C    0.197317
     7  H    0.234226
     8  H    0.290779
     9  H   -0.162121
    10  H   -0.138665
    11  H   -0.321796
    12  H   -0.274197
    13  H   -0.419146
 Sum of Mulliken charges =   0.00000

 Dipole moment (field-independent basis, Debye):
    X=              0.0161    Y=             -0.3380    Z=             -1.9411  Tot=              1.9704

 Test job not archived.
 1\1\GINC-SE195\SP\RHF\Aug-CC-pVDZ\C4H7N1O1\OHZDE\09-Apr-2025\0\\#t hf
 aug-cc-pvdz iop(5/13=1,5/36=2,99/5=2) pseudo=read geom=check guess=(re
 ad,tcheck) scf=(maxcycle=1)\\title\\0,1\O,0,-1.58238735,-0.75110476,1.
 19150504\C,0,-1.4017799,0.07939109,0.15992134\C,0,-0.28588675,1.130474
 24,0.31996482\N,0,0.80746355,0.75213969,-0.59606023\C,0,1.31555549,-0.
 59673109,-0.23253511\C,0,0.25614034,-0.49075222,-1.22725792\H,0,-0.884
 51678,-0.63073507,1.88585592\H,0,-1.21140107,-0.44276956,-0.91131039\H
 ,0,0.08267461,1.18641318,1.3611216\H,0,-0.66992767,2.12746995,0.054031

 Normal termination of Gaussian 16 at Wed Apr  9 03:05:56 2025.
