 Gaussian 16, Revision C.01,

 ----------------------------------------------------------------------
 #t hf aug-cc-pvdz symm=none int=(grid=ultrafine) guess=(read,tcheck) s
 table=(opt,rrhf)
 ----------------------------------------------------------------------
 -----
 title
 -----
 Symbolic Z-matrix:
 Charge =  0 Multiplicity = 1

 SCF Done:  E(RHF) =  -320.571901614     A.U. after   15 cycles
 Normal termination of Gaussian 16 at Wed Apr  9 14:19:05 2025.
 Gaussian 16:  ES64L-G16RevC.01  3-Jul-2019

 ----------------------------------------------------------------------
 #t hf aug-cc-pvdz iop(5/13=1,5/36=2,99/5=2) pseudo=read geom=check gue
 ss=(read,tcheck) scf=(maxcycle=1)
 ----------------------------------------------------------------------
 -----
 title
 -----
 Structure from the checkpoint file:  "Grambow2020_b97d3_007126_reverse_mol1.chk"
 Charge =  0 Multiplicity = 1

                         Standard orientation:
 ---------------------------------------------------------------------
 Center     Atomic      Atomic             Coordinates (Angstroms)
 Number     Number       Type             X           Y           Z
 ---------------------------------------------------------------------
      1          6           0        2.091189   -0.697985    0.010631
      2          7           0        0.643922   -0.608169   -0.044489
      3          6           0       -0.038226    0.571623   -0.013926
      4          8           0        0.452409    1.699947    0.029827
      5          6           0       -1.564910    0.371849   -0.053568
      6          8           0       -1.968412   -0.895143    0.052080
      7          1           0        2.487513    0.317464   -0.092805
      8          1           0        2.429526   -1.118247    0.969972
      9          1           0        2.471584   -1.325732   -0.807327
     10          1           0        0.082258   -1.456924   -0.020505
     11          1           0       -2.778631   -0.070734   -0.051999
 ---------------------------------------------------------------------

 SCF Done:  E(RHF) =  -320.671613688     A.U. after    2 cycles

 The electronic state is 1-A.
 Alpha  occ. eigenvalues --  -20.65518 -20.56059 -15.66957 -11.38565 -11.36971
 Alpha  occ. eigenvalues --  -11.28609  -1.41871  -1.35448  -1.21222  -0.98820
 Alpha  occ. eigenvalues --   -0.88413  -0.78948  -0.78656  -0.69273  -0.64670
 Alpha  occ. eigenvalues --   -0.64189  -0.62061  -0.60010  -0.56097  -0.55055
 Alpha  occ. eigenvalues --   -0.48545  -0.40573  -0.39572
 Alpha virt. eigenvalues --    0.03046   0.03421   0.03681   0.05253   0.05598
 Alpha virt. eigenvalues --    0.07667   0.10249   0.11499   0.11609   0.12100
 Alpha virt. eigenvalues --    0.13089   0.13373   0.14561   0.15550   0.17104

 Mulliken charges:
               1
     1  C    0.672705
     2  N   -0.348661
     3  C    0.513992
     4  O   -0.478874
     5  C    0.137225
     6  O   -0.602292
     7  H   -0.142990
     8  H   -0.071408
     9  H   -0.105547
    10  H   -0.014172
    11  H    0.440023
 Sum of Mulliken charges =  -0.00000

 Dipole moment (field-independent basis, Debye):
    X=             -0.0108    Y=             -3.5457    Z=             -0.0991  Tot=              3.5471

 Test job not archived.
 1\1\GINC-SE018\SP\RHF\Aug-CC-pVDZ\C3H5N1O2\OHZDE\09-Apr-2025\0\\#t hf
 aug-cc-pvdz iop(5/13=1,5/36=2,99/5=2) pseudo=read geom=check guess=(re
 ad,tcheck) scf=(maxcycle=1)\\title\\0,1\C,0,-0.91954614,1.48864888,-0.
 06016987\N,0,0.01911371,0.38526871,-0.14476695\C,0,-0.26610814,-0.8790
 1715,0.27760754\O,0,-1.33493076,-1.27036831,0.74687933\C,0,0.921969,-1
 .84287292,0.09956456\O,0,2.0633142,-1.26393274,-0.27647315\H,0,-1.8907
 321,1.07244859,0.22703101\H,0,-0.60649178,2.2227744,0.69777612\H,0,-1.
 00986774,1.99544519,-1.03115964\H,0,0.97425578,0.55506012,-0.45347457\

 Normal termination of Gaussian 16 at Wed Apr  9 14:19:09 2025.
