 Gaussian 16, Revision C.01,

 ----------------------------------------------------------------------
 #t hf aug-cc-pvdz symm=none int=(grid=ultrafine) guess=(read,tcheck) s
 table=(opt,rrhf)
 ----------------------------------------------------------------------
 -----
 title
 -----
 Symbolic Z-matrix:
 Charge =  0 Multiplicity = 1

 SCF Done:  E(RHF) =  -268.841725105     A.U. after   13 cycles
 Normal termination of Gaussian 16 at Wed Apr  9 14:23:18 2025.
 Gaussian 16:  ES64L-G16RevC.01  3-Jul-2019

 ----------------------------------------------------------------------
 #t hf aug-cc-pvdz iop(5/13=1,5/36=2,99/5=2) pseudo=read geom=check gue
 ss=(read,tcheck) scf=(maxcycle=1)
 ----------------------------------------------------------------------
 -----
 title
 -----
 Structure from the checkpoint file:  "Grambow2020_wb97xd3_006181_reverse_mol2.chk"
 Charge =  0 Multiplicity = 1

                         Standard orientation:
 ---------------------------------------------------------------------
 Center     Atomic      Atomic             Coordinates (Angstroms)
 Number     Number       Type             X           Y           Z
 ---------------------------------------------------------------------
      1          8           0       -0.833165    1.296204    0.002106
      2          6           0       -0.858044   -0.064406   -0.000430
      3          6           0       -1.979822   -0.780598   -0.000752
      4          6           0        0.497310   -0.651999   -0.002786
      5          6           0        1.618805    0.015199    0.747214
      6          6           0        1.618892    0.023117   -0.745847
      7          1           0       -1.733624    1.627525    0.001777
      8          1           0       -2.956729   -0.311356   -0.000495
      9          1           0       -1.939087   -1.859682   -0.000593
     10          1           0        0.494819   -1.733849   -0.007817
     11          1           0        1.388578    0.943917    1.250914
     12          1           0        2.319764   -0.627096    1.263215
     13          1           0        1.389440    0.957247   -1.239630
     14          1           0        2.319314   -0.614221   -1.268613
 ---------------------------------------------------------------------

 SCF Done:  E(RHF) =  -268.927556998     A.U. after    2 cycles

 The electronic state is 1-A.
 Alpha  occ. eigenvalues --  -20.60260 -11.31213 -11.24543 -11.23546 -11.23490
 Alpha  occ. eigenvalues --  -11.21304  -1.37062  -1.14256  -1.02103  -0.87063
 Alpha  occ. eigenvalues --   -0.82270  -0.79209  -0.69379  -0.67293  -0.65300
 Alpha  occ. eigenvalues --   -0.60427  -0.58221  -0.55043  -0.52261  -0.51542
 Alpha  occ. eigenvalues --   -0.44834  -0.43123  -0.33192
 Alpha virt. eigenvalues --    0.03426   0.04131   0.04704   0.05285   0.06346
 Alpha virt. eigenvalues --    0.06515   0.07448   0.08722   0.10777   0.10857
 Alpha virt. eigenvalues --    0.12833   0.13454   0.14393   0.15019   0.15440

 Mulliken charges:
               1
     1  O   -0.558161
     2  C   -0.054125
     3  C    1.055150
     4  C    0.708638
     5  C    0.592077
     6  C    0.592598
     7  H    0.162430
     8  H   -0.475006
     9  H   -0.334682
    10  H   -0.394431
    11  H   -0.320350
    12  H   -0.326680
    13  H   -0.320562
    14  H   -0.326896
 Sum of Mulliken charges =  -0.00000

 Dipole moment (field-independent basis, Debye):
    X=             -0.4136    Y=             -0.1181    Z=             -0.0017  Tot=              0.4301

 Test job not archived.
 1\1\GINC-SE138\SP\RHF\Aug-CC-pVDZ\C5H8O1\OHZDE\09-Apr-2025\0\\#t hf au
 g-cc-pvdz iop(5/13=1,5/36=2,99/5=2) pseudo=read geom=check guess=(read
 ,tcheck) scf=(maxcycle=1)\\title\\0,1\O,0,0.83562126,0.38781656,1.4267
 3367\C,0,0.72285262,0.61718535,0.09011189\C,0,1.49622693,1.46904124,-0
 .57888161\C,0,-0.35191885,-0.1846425,-0.52972319\C,0,-1.61882101,-0.47
 712646,0.22844192\C,0,-0.64432249,-1.57669967,-0.03723708\H,0,1.545126
 29,0.92846093,1.78015571\H,0,2.27630861,2.03870053,-0.0874602\H,0,1.35
 992304,1.61271379,-1.64041909\H,0,-0.45261429,-0.01587433,-1.59358795\

 Normal termination of Gaussian 16 at Wed Apr  9 14:23:22 2025.
