 Gaussian 16, Revision C.01,

 ----------------------------------------------------------------------
 #t hf aug-cc-pvdz symm=none int=(grid=ultrafine) guess=(read,tcheck) s
 table=(opt,rrhf)
 ----------------------------------------------------------------------
 -----
 title
 -----
 Symbolic Z-matrix:
 Charge =  0 Multiplicity = 1

 SCF Done:  E(RHF) =  -339.874612807     A.U. after   15 cycles
 Normal termination of Gaussian 16 at Wed Apr  9 15:35:03 2025.
 Gaussian 16:  ES64L-G16RevC.01  3-Jul-2019

 ----------------------------------------------------------------------
 #t hf aug-cc-pvdz iop(5/13=1,5/36=2,99/5=2) pseudo=read geom=check gue
 ss=(read,tcheck) scf=(maxcycle=1)
 ----------------------------------------------------------------------
 -----
 title
 -----
 Structure from the checkpoint file:  "Grambow2020_wb97xd3_007005_reverse_mol2.chk"
 Charge =  0 Multiplicity = 1

                         Standard orientation:
 ---------------------------------------------------------------------
 Center     Atomic      Atomic             Coordinates (Angstroms)
 Number     Number       Type             X           Y           Z
 ---------------------------------------------------------------------
      1          6           0        0.277373   -1.085049    1.364106
      2          6           0       -0.046510   -0.382011    0.045432
      3          8           0       -0.704544   -1.253713   -0.816373
      4          6           0       -0.894105    0.857866    0.307937
      5          7           0       -2.012378    0.939769   -0.257975
      6          6           0        1.218446    0.098701   -0.574563
      7          7           0        2.197519    0.493400   -1.023090
      8          1           0        0.880308   -1.968594    1.160473
      9          1           0       -0.656426   -1.394586    1.833416
     10          1           0        0.829216   -0.428977    2.038812
     11          1           0       -1.501399   -0.788264   -1.118542
     12          1           0       -0.467561    1.604508    0.982645
     13          1           0        2.322304    2.002218    1.547092
     14          1           0       -2.516411    1.789850   -0.025905
     15          1           0        2.119110    2.244325    2.222976
 ---------------------------------------------------------------------

 SCF Done:  E(RHF) =  -339.981180179     A.U. after    2 cycles

 The electronic state is 1-A.
 Alpha  occ. eigenvalues --  -20.59571 -15.66187 -15.64856 -11.36701 -11.33723
 Alpha  occ. eigenvalues --  -11.29155 -11.26194  -1.37185  -1.22619  -1.20398
 Alpha  occ. eigenvalues --   -1.07392  -0.93271  -0.84761  -0.75749  -0.74730
 Alpha  occ. eigenvalues --   -0.69935  -0.63418  -0.60494  -0.59120  -0.58322
 Alpha  occ. eigenvalues --   -0.56293  -0.54911  -0.51656  -0.48251  -0.47859
 Alpha  occ. eigenvalues --   -0.47452  -0.45615
 Alpha virt. eigenvalues --    0.02592   0.03845   0.04700   0.05814   0.06646
 Alpha virt. eigenvalues --    0.06821   0.07964   0.08176   0.10186   0.10608
 Alpha virt. eigenvalues --    0.10682   0.12976   0.13710   0.13799   0.13946

 Mulliken charges:
               1
     1  C    0.768918
     2  C   -0.329258
     3  O   -0.579618
     4  C    1.167625
     5  N   -0.400180
     6  C   -0.452669
     7  N   -0.126319
     8  H    0.008892
     9  H   -0.018520
    10  H   -0.010871
    11  H    0.203302
    12  H   -0.255557
    13  H   -0.011922
    14  H    0.006853
    15  H    0.029322
 Sum of Mulliken charges =  -0.00000

 Dipole moment (field-independent basis, Debye):
    X=             -2.8556    Y=              1.5292    Z=              3.5176  Tot=              4.7819

 Test job not archived.
 1\1\GINC-SE120\SP\RHF\Aug-CC-pVDZ\C4H8N2O1\OHZDE\09-Apr-2025\0\\#t hf
 aug-cc-pvdz iop(5/13=1,5/36=2,99/5=2) pseudo=read geom=check guess=(re
 ad,tcheck) scf=(maxcycle=1)\\title\\0,1\C,0,0.34747945,1.49920586,-0.0
 0742809\C,0,0.45656286,0.08930362,0.57423988\O,0,0.91275912,0.14383444
 ,1.88743873\C,0,-0.89514265,-0.61237316,0.50237105\N,0,-1.39804518,-1.
 03698578,1.57208701\C,0,1.39011056,-0.712808,-0.26283651\N,0,2.0845577
 6,-1.3285219,-0.93677051\H,0,1.31867806,1.98785991,0.05290078\H,0,-0.3
 711668,2.06641209,0.58407105\H,0,0.0287761,1.47488693,-1.05051324\H,0,

 Normal termination of Gaussian 16 at Wed Apr  9 15:35:09 2025.
