 Gaussian 16, Revision C.01,

 ----------------------------------------------------------------------
 #t hf aug-cc-pvdz symm=none int=(grid=ultrafine) guess=(read,tcheck) s
 table=(opt,rrhf)
 ----------------------------------------------------------------------
 -----
 title
 -----
 Symbolic Z-matrix:
 Charge =  0 Multiplicity = 1

 SCF Done:  E(RHF) =  -338.688769759     A.U. after   14 cycles
 Normal termination of Gaussian 16 at Wed Apr  9 03:46:28 2025.
 Gaussian 16:  ES64L-G16RevC.01  3-Jul-2019

 ----------------------------------------------------------------------
 #t hf aug-cc-pvdz iop(5/13=1,5/36=2,99/5=2) pseudo=read geom=check gue
 ss=(read,tcheck) scf=(maxcycle=1)
 ----------------------------------------------------------------------
 -----
 title
 -----
 Structure from the checkpoint file:  "Grambow2020_wb97xd3_007965_forward_mol2.chk"
 Charge =  0 Multiplicity = 1

                         Standard orientation:
 ---------------------------------------------------------------------
 Center     Atomic      Atomic             Coordinates (Angstroms)
 Number     Number       Type             X           Y           Z
 ---------------------------------------------------------------------
      1          7           0        1.321061   -1.576174   -0.014683
      2          6           0        0.866225   -0.414383   -0.032149
      3          8           0        1.483307    0.810289   -0.049707
      4          6           0        0.208749    1.518870    0.031631
      5          6           0       -0.500370    0.178479   -0.003217
      6          6           0       -1.711921   -0.321848   -0.669027
      7          7           0       -1.622213   -0.255286    0.786282
      8          1           0        2.337277   -1.595730   -0.018585
      9          1           0        0.124358    2.066703    0.969455
     10          1           0        0.072606    2.172634   -0.829023
     11          1           0       -1.638915   -1.288274   -1.155276
     12          1           0       -2.400971    0.384927   -1.115885
     13          1           0       -1.428850   -1.169063    1.182353
 ---------------------------------------------------------------------

 SCF Done:  E(RHF) =  -338.790311864     A.U. after    2 cycles

 The electronic state is 1-A.
 Alpha  occ. eigenvalues --  -20.61478 -15.64758 -15.61157 -11.35917 -11.31626
 Alpha  occ. eigenvalues --  -11.29957 -11.28941  -1.41144  -1.26873  -1.17804
 Alpha  occ. eigenvalues --   -0.99537  -0.90602  -0.89597  -0.75764  -0.72174
 Alpha  occ. eigenvalues --   -0.70315  -0.69244  -0.64785  -0.59841  -0.54839
 Alpha  occ. eigenvalues --   -0.53047  -0.50325  -0.49624  -0.44314  -0.43331
 Alpha  occ. eigenvalues --   -0.39395
 Alpha virt. eigenvalues --    0.03318   0.04226   0.04425   0.04958   0.06336
 Alpha virt. eigenvalues --    0.06892   0.09433   0.09812   0.11240   0.12896
 Alpha virt. eigenvalues --    0.13038   0.13791   0.14544   0.15176   0.15463

 Mulliken charges:
               1
     1  N   -0.371574
     2  C    0.431288
     3  O   -0.711467
     4  C    0.865064
     5  C    0.054211
     6  C    0.944786
     7  N   -0.667174
     8  H    0.023365
     9  H   -0.072230
    10  H   -0.128757
    11  H   -0.178089
    12  H   -0.230558
    13  H    0.041135
 Sum of Mulliken charges =  -0.00000

 Dipole moment (field-independent basis, Debye):
    X=             -1.0753    Y=              1.1204    Z=             -0.8917  Tot=              1.7908

 Test job not archived.
 1\1\GINC-SE457\SP\RHF\Aug-CC-pVDZ\C4H6N2O1\OHZDE\09-Apr-2025\0\\#t hf
 aug-cc-pvdz iop(5/13=1,5/36=2,99/5=2) pseudo=read geom=check guess=(re
 ad,tcheck) scf=(maxcycle=1)\\title\\0,1\N,0,1.54567014,-1.16776039,-1.
 26500179\C,0,1.07412699,-0.24114657,-0.57509384\O,0,1.6391915,0.899813
 15,-0.0653573\C,0,0.40875664,1.26860775,0.6297858\C,0,-0.25578549,0.04
 218945,0.03397045\C,0,-1.58284361,-0.2267316,-0.53881558\N,0,-1.136261
 85,-0.89471734,0.67969298\H,0,2.52928598,-1.02981235,-1.48078515\H,0,0
 .54721109,1.24535336,1.71008475\H,0,0.04823788,2.23944865,0.29190835\H

 Normal termination of Gaussian 16 at Wed Apr  9 03:46:32 2025.
