 Gaussian 16, Revision C.01,

 ----------------------------------------------------------------------
 #t hf aug-cc-pvdz symm=none int=(grid=ultrafine) guess=(read,tcheck) s
 table=(opt,rrhf)
 ----------------------------------------------------------------------
 -----
 title
 -----
 Symbolic Z-matrix:
 Charge =  0 Multiplicity = 1

 SCF Done:  E(RHF) =  -338.639443386     A.U. after   14 cycles
 Normal termination of Gaussian 16 at Wed Apr  9 03:59:36 2025.
 Gaussian 16:  ES64L-G16RevC.01  3-Jul-2019

 ----------------------------------------------------------------------
 #t hf aug-cc-pvdz iop(5/13=1,5/36=2,99/5=2) pseudo=read geom=check gue
 ss=(read,tcheck) scf=(maxcycle=1)
 ----------------------------------------------------------------------
 -----
 title
 -----
 Structure from the checkpoint file:  "Grambow2020_wb97xd3_008805_reverse_mol1.chk"
 Charge =  0 Multiplicity = 1

                         Standard orientation:
 ---------------------------------------------------------------------
 Center     Atomic      Atomic             Coordinates (Angstroms)
 Number     Number       Type             X           Y           Z
 ---------------------------------------------------------------------
      1          7           0        1.964774   -1.300173    0.214024
      2          6           0        1.742424   -0.334635   -0.622992
      3          6           0       -1.260726   -0.495515    0.230664
      4          8           0       -2.525313   -0.775117   -0.132462
      5          7           0       -1.058142    0.789223   -0.022157
      6          6           0        0.163726    1.470181    0.158455
      7          6           0        1.369863    0.940840   -0.039875
      8          1           0        1.762485   -1.244328    1.208350
      9          1           0        2.237115   -2.207431   -0.129649
     10          1           0       -2.677912   -1.698410    0.070391
     11          1           0       -1.834219    1.341850   -0.375851
     12          1           0        0.055116    2.503861    0.459668
     13          1           0        2.221766    1.596825    0.126202
 ---------------------------------------------------------------------

 SCF Done:  E(RHF) =  -338.743412945     A.U. after    2 cycles

 The electronic state is 1-A.
 Alpha  occ. eigenvalues --  -20.61075 -15.66849 -15.66120 -11.30891 -11.27604
 Alpha  occ. eigenvalues --  -11.26344 -11.24334  -1.38638  -1.22599  -1.21116
 Alpha  occ. eigenvalues --   -1.03811  -0.91144  -0.83882  -0.76021  -0.74835
 Alpha  occ. eigenvalues --   -0.71383  -0.66785  -0.65548  -0.62292  -0.59964
 Alpha  occ. eigenvalues --   -0.55728  -0.48982  -0.47803  -0.39041  -0.37112
 Alpha  occ. eigenvalues --   -0.30119
 Alpha virt. eigenvalues --    0.03346   0.03593   0.04063   0.05595   0.05837
 Alpha virt. eigenvalues --    0.07045   0.10246   0.10966   0.11597   0.12120
 Alpha virt. eigenvalues --    0.13006   0.13169   0.13791   0.15433   0.15703

 Mulliken charges:
               1
     1  N    0.048173
     2  C   -0.241128
     3  C    0.219434
     4  O   -0.493528
     5  N   -0.328829
     6  C    0.627148
     7  C    0.583742
     8  H    0.023439
     9  H    0.028153
    10  H    0.202522
    11  H   -0.063968
    12  H   -0.333896
    13  H   -0.271262
 Sum of Mulliken charges =  -0.00000

 Dipole moment (field-independent basis, Debye):
    X=             -0.2295    Y=             -0.4614    Z=              2.1576  Tot=              2.2183

 Test job not archived.
 1\1\GINC-SE016\SP\RHF\Aug-CC-pVDZ\C4H6N2O1\OHZDE\09-Apr-2025\0\\#t hf
 aug-cc-pvdz iop(5/13=1,5/36=2,99/5=2) pseudo=read geom=check guess=(re
 ad,tcheck) scf=(maxcycle=1)\\title\\0,1\N,0,-1.79130266,1.35600195,0.1
 2267591\C,0,-0.74099226,1.34372575,0.88359384\C,0,-0.14044898,-1.50445
 319,-0.25691027\O,0,-0.03579218,-2.82222806,-0.00845034\N,0,1.05556134
 ,-0.97313904,-0.05008866\C,0,1.36135048,0.40068554,-0.14165616\C,0,0.5
 3955739,1.39083139,0.20268463\H,0,-1.75814486,1.25971555,-0.88843944\H
 ,0,-2.7095789,1.33535516,0.53708943\H,0,-0.89501579,-3.20903135,-0.178

 Normal termination of Gaussian 16 at Wed Apr  9 03:59:40 2025.
