 Gaussian 16, Revision C.01,

 ----------------------------------------------------------------------
 #t hf aug-cc-pvdz symm=none int=(grid=ultrafine) guess=(read,tcheck) s
 table=(opt,rrhf)
 ----------------------------------------------------------------------
 -----
 title
 -----
 Symbolic Z-matrix:
 Charge =  0 Multiplicity = 1

 SCF Done:  E(RHF) =  -324.890476797     A.U. after   18 cycles
 Normal termination of Gaussian 16 at Wed Apr  9 03:52:05 2025.
 Gaussian 16:  ES64L-G16RevC.01  3-Jul-2019

 ----------------------------------------------------------------------
 #t hf aug-cc-pvdz iop(5/13=1,5/36=2,99/5=2) pseudo=read geom=check gue
 ss=(read,tcheck) scf=(maxcycle=1)
 ----------------------------------------------------------------------
 -----
 title
 -----
 Structure from the checkpoint file:  "Grambow2020_wb97xd3_008238_reverse_mol1.chk"
 Charge =  0 Multiplicity = 1

                         Standard orientation:
 ---------------------------------------------------------------------
 Center     Atomic      Atomic             Coordinates (Angstroms)
 Number     Number       Type             X           Y           Z
 ---------------------------------------------------------------------
      1          6           0        2.566433    0.439062    0.087766
      2          6           0        1.518140   -0.626132   -0.214573
      3          6           0        0.337630   -0.612888    0.738151
      4          7           0       -2.039756   -0.082399    0.891773
      5          6           0       -1.095912   -0.164497   -0.067212
      6          8           0       -1.204437   -0.793225   -1.145987
      7          6           0       -0.751111    1.431106   -0.385665
      8          1           0        3.392914    0.380587   -0.622123
      9          1           0        2.152620    1.447880    0.027897
     10          1           0        2.982801    0.313628    1.089976
     11          1           0        1.144098   -0.540356   -1.237689
     12          1           0        1.979171   -1.615786   -0.165580
     13          1           0        0.073169   -1.604117    1.093061
     14          1           0        0.475392    0.055636    1.586370
     15          1           0       -1.675104    0.493021    1.648523
     16          1           0        0.067437    1.375277   -1.095033
     17          1           0       -0.486756    1.989314    0.507459
     18          1           0       -1.643036    1.827611   -0.858188
 ---------------------------------------------------------------------

 SCF Done:  E(RHF) =  -324.990853331     A.U. after    2 cycles

 The electronic state is 1-A.
 Alpha  occ. eigenvalues --  -20.48476 -15.69690 -11.33814 -11.29920 -11.29905
 Alpha  occ. eigenvalues --  -11.24520 -11.24041  -1.30486  -1.17084  -1.07448
 Alpha  occ. eigenvalues --   -0.98050  -0.95009  -0.82967  -0.76630  -0.68955
 Alpha  occ. eigenvalues --   -0.65096  -0.63344  -0.62573  -0.59959  -0.59064
 Alpha  occ. eigenvalues --   -0.57421  -0.54528  -0.52723  -0.50837  -0.49101
 Alpha  occ. eigenvalues --   -0.46249  -0.38860  -0.35511
 Alpha virt. eigenvalues --   -0.02799   0.02423   0.03743   0.04225   0.05030
 Alpha virt. eigenvalues --    0.05904   0.06278   0.06441   0.07143   0.08662
 Alpha virt. eigenvalues --    0.09180   0.09433   0.11748   0.13296   0.13442

 Mulliken charges:
               1
     1  C    0.416212
     2  C    0.316579
     3  C    0.520209
     4  N   -0.273660
     5  C   -0.033813
     6  O   -0.777418
     7  C    0.749492
     8  H   -0.091579
     9  H   -0.119804
    10  H   -0.067373
    11  H   -0.094731
    12  H   -0.092657
    13  H   -0.091670
    14  H   -0.293224
    15  H    0.153091
    16  H   -0.014368
    17  H   -0.144246
    18  H   -0.061039
 Sum of Mulliken charges =  -0.00000

 Dipole moment (field-independent basis, Debye):
    X=              3.1748    Y=              3.4342    Z=              3.9261  Tot=              6.1063

 Test job not archived.
 1\1\GINC-SE097\SP\RHF\Aug-CC-pVDZ\C5H11N1O1\OHZDE\09-Apr-2025\0\\#t hf
  aug-cc-pvdz iop(5/13=1,5/36=2,99/5=2) pseudo=read geom=check guess=(r
 ead,tcheck) scf=(maxcycle=1)\\title\\0,1\C,0,-1.81257512,-0.17309403,-
 1.00679814\C,0,-1.091419,0.84473458,-0.12991461\C,0,-0.37813529,0.2324
 936,1.06081998\N,0,1.8331328,-0.26604641,1.96565888\C,0,1.31155616,0.4
 0413583,0.91873589\O,0,1.60375362,1.5759677,0.58368013\C,0,1.59152061,
 -0.62535926,-0.35719928\H,0,-2.31133477,0.32078108,-1.8421168\H,0,-1.1
 2535403,-0.91176493,-1.42468875\H,0,-2.57418351,-0.71551566,-0.4417747

 Normal termination of Gaussian 16 at Wed Apr  9 03:52:12 2025.
