 Gaussian 16, Revision C.01,

 ----------------------------------------------------------------------
 #t hf aug-cc-pvdz symm=none int=(grid=ultrafine) guess=(read,tcheck) s
 table=(opt,rrhf)
 ----------------------------------------------------------------------
 -----
 title
 -----
 Symbolic Z-matrix:
 Charge =  0 Multiplicity = 1

 SCF Done:  E(RHF) =  -309.048197362     A.U. after   12 cycles

 1\1\GINC-SE207\Stability\RHF\Aug-CC-pVDZ\C6H12O1\OHZDE\09-Apr-2025\0\\
 #t hf aug-cc-pvdz symm=none int=(grid=ultrafine) guess=(read,tcheck) s
 table=(opt,rrhf)\\title\\0,1\C,0,-1.73430789,-0.92586134,-1.45224149\C
 ,0,-1.87378921,0.09696738,-0.35553988\C,0,-1.4543643,-0.23677938,1.055
 08754\C,0,-0.67210536,0.75034766,0.235945\O,0,0.56817384,0.38053276,-0
 .2623791\C,0,1.60460034,0.50326237,0.68928548\C,0,2.89827882,0.0501674
 1,0.05448178\H,0,-1.69605539,-0.44411432,-2.43137727\H,0,-0.81796416,-
 1.50353468,-1.33368092\H,0,-2.58119564,-1.61518131,-1.44630862\H,0,-2.

 Normal termination of Gaussian 16 at Wed Apr  9 03:28:07 2025.
 Gaussian 16:  ES64L-G16RevC.01  3-Jul-2019

 ----------------------------------------------------------------------
 #t hf aug-cc-pvdz iop(5/13=1,5/36=2,99/5=2) pseudo=read geom=check gue
 ss=(read,tcheck) scf=(maxcycle=1)
 ----------------------------------------------------------------------
 -----
 title
 -----
 Structure from the checkpoint file:  "Grambow2020_wb97xd3_006741_reverse_mol2.chk"
 Charge =  0 Multiplicity = 1

                         Standard orientation:
 ---------------------------------------------------------------------
 Center     Atomic      Atomic             Coordinates (Angstroms)
 Number     Number       Type             X           Y           Z
 ---------------------------------------------------------------------
      1          6           0        2.047175    1.322444    0.155236
      2          6           0        1.851563   -0.107040   -0.276850
      3          6           0        1.248167   -1.113691    0.671698
      4          6           0        0.486570   -0.645962   -0.536004
      5          8           0       -0.585561    0.216943   -0.364791
      6          6           0       -1.776342   -0.447930    0.002486
      7          6           0       -2.865470    0.581888    0.189973
      8          1           0        2.109604    1.985640   -0.709937
      9          1           0        1.214631    1.662086    0.770836
     10          1           0        2.969025    1.428329    0.730907
     11          1           0        2.622680   -0.490353   -0.936441
     12          1           0        0.911080   -0.727639    1.626622
     13          1           0        1.633599   -2.124565    0.696477
     14          1           0       -2.054806   -1.169121   -0.779096
     15          1           0        0.363563   -1.347266   -1.360116
     16          1           0       -1.611937   -1.016521    0.927620
     17          1           0       -3.025377    1.142865   -0.731768
     18          1           0       -3.802820    0.096142    0.466478
     19          1           0       -2.594727    1.286614    0.977510
 ---------------------------------------------------------------------

 SCF Done:  E(RHF) =  -309.148797147     A.U. after    2 cycles

 The electronic state is 1-A.
 Alpha  occ. eigenvalues --  -20.56907 -11.28321 -11.28182 -11.23466 -11.22613
 Alpha  occ. eigenvalues --  -11.22275 -11.21843  -1.34384  -1.13078  -1.00929
 Alpha  occ. eigenvalues --   -0.95355  -0.85250  -0.80515  -0.77578  -0.70355
 Alpha  occ. eigenvalues --   -0.66297  -0.64340  -0.60615  -0.56963  -0.56181
 Alpha  occ. eigenvalues --   -0.54088  -0.53293  -0.52574  -0.50047  -0.48654
 Alpha  occ. eigenvalues --   -0.45941  -0.40312  -0.39283
 Alpha virt. eigenvalues --    0.03533   0.04289   0.04519   0.04669   0.05969
 Alpha virt. eigenvalues --    0.06100   0.06337   0.06920   0.07521   0.08706
 Alpha virt. eigenvalues --    0.09247   0.09790   0.12215   0.13050   0.14227

 Mulliken charges:
               1
     1  C    0.407051
     2  C    0.183205
     3  C    0.504633
     4  C    0.874578
     5  O   -0.675687
     6  C    0.422481
     7  C    0.307234
     8  H   -0.009376
     9  H   -0.093091
    10  H    0.010107
    11  H   -0.432459
    12  H   -0.360471
    13  H   -0.300916
    14  H   -0.136021
    15  H   -0.423864
    16  H   -0.125982
    17  H   -0.043545
    18  H   -0.049126
    19  H   -0.058752
 Sum of Mulliken charges =  -0.00000

 Dipole moment (field-independent basis, Debye):
    X=             -0.2321    Y=             -1.2141    Z=              0.2153  Tot=              1.2546

 Test job not archived.
 1\1\GINC-SE207\SP\RHF\Aug-CC-pVDZ\C6H12O1\OHZDE\09-Apr-2025\0\\#t hf a
 ug-cc-pvdz iop(5/13=1,5/36=2,99/5=2) pseudo=read geom=check guess=(rea
 d,tcheck) scf=(maxcycle=1)\\title\\0,1\C,0,-1.73430789,-0.92586134,-1.
 45224149\C,0,-1.87378921,0.09696738,-0.35553988\C,0,-1.4543643,-0.2367
 7938,1.05508754\C,0,-0.67210536,0.75034766,0.235945\O,0,0.56817384,0.3
 8053276,-0.2623791\C,0,1.60460034,0.50326237,0.68928548\C,0,2.89827882
 ,0.05016741,0.05448178\H,0,-1.69605539,-0.44411432,-2.43137727\H,0,-0.
 81796416,-1.50353468,-1.33368092\H,0,-2.58119564,-1.61518131,-1.446308

 Normal termination of Gaussian 16 at Wed Apr  9 03:28:15 2025.
