 Gaussian 16, Revision C.01,

 ----------------------------------------------------------------------
 #t hf aug-cc-pvdz symm=none int=(grid=ultrafine) guess=(read,tcheck) s
 table=(opt,rrhf)
 ----------------------------------------------------------------------
 -----
 title
 -----
 Symbolic Z-matrix:
 Charge =  0 Multiplicity = 1

 SCF Done:  E(RHF) =  -302.081782387     A.U. after   13 cycles
 Normal termination of Gaussian 16 at Wed Apr  9 03:15:32 2025.
 Gaussian 16:  ES64L-G16RevC.01  3-Jul-2019

 ----------------------------------------------------------------------
 #t hf aug-cc-pvdz iop(5/13=1,5/36=2,99/5=2) pseudo=read geom=check gue
 ss=(read,tcheck) scf=(maxcycle=1)
 ----------------------------------------------------------------------
 -----
 title
 -----
 Structure from the checkpoint file:  "Grambow2020_b97d3_007040_forward_mol2.chk"
 Charge =  0 Multiplicity = 1

                         Standard orientation:
 ---------------------------------------------------------------------
 Center     Atomic      Atomic             Coordinates (Angstroms)
 Number     Number       Type             X           Y           Z
 ---------------------------------------------------------------------
      1          6           0       -1.517003   -1.080426    0.087172
      2          7           0       -0.595930    0.038629   -0.029373
      3          6           0       -1.161186    1.375738   -0.072308
      4          6           0        0.766586   -0.212987   -0.016432
      5          8           0        1.250316   -1.345184   -0.074832
      6          7           0        1.575922    0.935479    0.000886
      7          1           0       -0.928078   -2.001099    0.070547
      8          1           0       -2.091669   -1.028500    1.026742
      9          1           0       -2.226354   -1.085568   -0.755231
     10          1           0       -0.518642    2.037167   -0.665780
     11          1           0       -2.143448    1.333516   -0.562063
     12          1           0       -1.306908    1.816618    0.931520
     13          1           0        2.544274    0.674148    0.163467
     14          1           0        1.277966    1.702474    0.598267
 ---------------------------------------------------------------------

 SCF Done:  E(RHF) =  -302.178529892     A.U. after    2 cycles

 The electronic state is 1-A.
 Alpha  occ. eigenvalues --  -20.52352 -15.64922 -15.64533 -11.39121 -11.28484
 Alpha  occ. eigenvalues --  -11.26675  -1.34427  -1.21454  -1.15674  -0.97112
 Alpha  occ. eigenvalues --   -0.92557  -0.76243  -0.72816  -0.68130  -0.65805
 Alpha  occ. eigenvalues --   -0.62611  -0.59622  -0.56619  -0.56380  -0.55874
 Alpha  occ. eigenvalues --   -0.53214  -0.45567  -0.42363  -0.37277
 Alpha virt. eigenvalues --    0.02672   0.03673   0.04460   0.04939   0.06868
 Alpha virt. eigenvalues --    0.07351   0.07822   0.08928   0.10093   0.12432
 Alpha virt. eigenvalues --    0.13807   0.14227   0.14421   0.14889   0.16119

 Mulliken charges:
               1
     1  C    0.623588
     2  N   -0.518425
     3  C    0.759230
     4  C    0.608652
     5  O   -0.530730
     6  N   -0.213145
     7  H   -0.198149
     8  H   -0.040994
     9  H   -0.107498
    10  H   -0.156368
    11  H   -0.172939
    12  H   -0.088872
    13  H    0.010434
    14  H    0.025217
 Sum of Mulliken charges =  -0.00000

 Dipole moment (field-independent basis, Debye):
    X=             -2.1180    Y=              3.7592    Z=              1.2176  Tot=              4.4834

 Test job not archived.
 1\1\GINC-SE143\SP\RHF\Aug-CC-pVDZ\C3H8N2O1\OHZDE\09-Apr-2025\0\\#t hf
 aug-cc-pvdz iop(5/13=1,5/36=2,99/5=2) pseudo=read geom=check guess=(re
 ad,tcheck) scf=(maxcycle=1)\\title\\0,1\C,0,-1.34614098,-1.03885888,0.
 38608752\N,0,-0.27158791,-0.14730245,-0.01975043\C,0,-0.59562256,1.255
 12209,-0.21320696\C,0,1.0132878,-0.65471884,-0.12722908\O,0,1.27873373
 ,-1.85632466,-0.05683298\N,0,2.00378506,0.30564385,-0.39353293\H,0,-0.
 9353244,-2.04971952,0.45041944\H,0,-1.75890345,-0.74670626,1.36588483\
 H,0,-2.16131323,-1.02253448,-0.35423396\H,0,0.05813139,1.69041694,-0.9

 Normal termination of Gaussian 16 at Wed Apr  9 03:15:37 2025.
