 Gaussian 16, Revision C.01,

 ----------------------------------------------------------------------
 #t hf aug-cc-pvdz symm=none int=(grid=ultrafine) guess=(read,tcheck) s
 table=(opt,rrhf)
 ----------------------------------------------------------------------
 -----
 title
 -----
 Symbolic Z-matrix:
 Charge =  0 Multiplicity = 1

 SCF Done:  E(RHF) =  -227.819258027     A.U. after   13 cycles
 Normal termination of Gaussian 16 at Wed Apr  9 14:18:59 2025.
 Gaussian 16:  ES64L-G16RevC.01  3-Jul-2019

 ----------------------------------------------------------------------
 #t hf aug-cc-pvdz iop(5/13=1,5/36=2,99/5=2) pseudo=read geom=check gue
 ss=(read,tcheck) scf=(maxcycle=1)
 ----------------------------------------------------------------------
 -----
 title
 -----
 Structure from the checkpoint file:  "Grambow2020_b97d3_007157_forward_mol2.chk"
 Charge =  0 Multiplicity = 1

                         Standard orientation:
 ---------------------------------------------------------------------
 Center     Atomic      Atomic             Coordinates (Angstroms)
 Number     Number       Type             X           Y           Z
 ---------------------------------------------------------------------
      1          6           0       -1.373021   -0.410662   -0.000141
      2          8           0       -0.486289    0.734982    0.000049
      3          6           0        0.832575    0.437616    0.000201
      4          8           0        1.316687   -0.673896   -0.000067
      5          1           0       -1.221658   -1.012262    0.904099
      6          1           0       -1.192403   -1.035181   -0.882958
      7          1           0       -2.382379    0.008609   -0.021226
      8          1           0        1.395935    1.388415   -0.000128
 ---------------------------------------------------------------------

 SCF Done:  E(RHF) =  -227.894925992     A.U. after    2 cycles

 The electronic state is 1-A.
 Alpha  occ. eigenvalues --  -20.63058 -20.57736 -11.40577 -11.30787  -1.42166
 Alpha  occ. eigenvalues --   -1.33243  -0.99032  -0.82444  -0.74662  -0.69532
 Alpha  occ. eigenvalues --   -0.68464  -0.60509  -0.56302  -0.54927  -0.48793
 Alpha  occ. eigenvalues --   -0.48469
 Alpha virt. eigenvalues --    0.03424   0.04591   0.05777   0.06069   0.09730
 Alpha virt. eigenvalues --    0.09805   0.10597   0.14211   0.15602   0.15773
 Alpha virt. eigenvalues --    0.16730   0.17178   0.18678   0.21090   0.25111

 Mulliken charges:
               1
     1  C    0.715714
     2  O   -0.533370
     3  C    0.669052
     4  O   -0.396204
     5  H   -0.060902
     6  H   -0.059493
     7  H   -0.197313
     8  H   -0.137484
 Sum of Mulliken charges =  -0.00000

 Dipole moment (field-independent basis, Debye):
    X=             -1.7556    Y=              1.1799    Z=             -0.0008  Tot=              2.1153

 Test job not archived.
 1\1\GINC-SE057\SP\RHF\Aug-CC-pVDZ\C2H4O2\OHZDE\09-Apr-2025\0\\#t hf au
 g-cc-pvdz iop(5/13=1,5/36=2,99/5=2) pseudo=read geom=check guess=(read
 ,tcheck) scf=(maxcycle=1)\\title\\0,1\C,0,-1.03062212,-0.1456019,-0.03
 34532\O,0,0.28221766,-0.75674682,-0.07525511\C,0,1.31817456,0.10503034
 ,0.03411687\O,0,1.23932228,1.30821271,0.16043944\H,0,-1.15581423,0.550
 63014,-0.87135065\H,0,-1.17160455,0.39598391,0.90931996\H,0,-1.7360324
 5,-0.97695487,-0.11272848\H,0,2.25435884,-0.48055351,-0.01108883\\Vers
 ion=ES64L-G16RevC.01\State=1-A\HF=-227.894926\RMSD=2.394e-03\Dipole=-0

 Normal termination of Gaussian 16 at Wed Apr  9 14:19:01 2025.
