 Gaussian 16, Revision C.01,

 ----------------------------------------------------------------------
 #t hf aug-cc-pvdz symm=none int=(grid=ultrafine) guess=(read,tcheck) s
 table=(opt,rrhf)
 ----------------------------------------------------------------------
 -----
 title
 -----
 Symbolic Z-matrix:
 Charge =  0 Multiplicity = 1

 SCF Done:  E(RHF) =  -323.701827849     A.U. after   16 cycles
 Normal termination of Gaussian 16 at Wed Apr  9 15:23:11 2025.
 Gaussian 16:  ES64L-G16RevC.01  3-Jul-2019

 ----------------------------------------------------------------------
 #t hf aug-cc-pvdz iop(5/13=1,5/36=2,99/5=2) pseudo=read geom=check gue
 ss=(read,tcheck) scf=(maxcycle=1)
 ----------------------------------------------------------------------
 -----
 title
 -----
 Structure from the checkpoint file:  "Grambow2020_wb97xd3_006869_reverse_mol1.chk"
 Charge =  0 Multiplicity = 1

                         Standard orientation:
 ---------------------------------------------------------------------
 Center     Atomic      Atomic             Coordinates (Angstroms)
 Number     Number       Type             X           Y           Z
 ---------------------------------------------------------------------
      1          6           0        2.213198    0.287105   -0.884368
      2          7           0        1.185075    0.286584   -0.053444
      3          6           0        1.006510   -0.145524    1.198263
      4          6           0        0.101268   -0.661928    0.128756
      5          6           0       -1.301464   -0.181387   -0.102218
      6          8           0       -2.158303   -0.985577   -0.373449
      7          6           0       -1.594835    1.287051    0.069213
      8          1           0        2.834391   -1.147917    0.233462
      9          1           0        3.055661    0.918995   -0.633743
     10          1           0        2.021055    0.055816   -1.924370
     11          1           0        2.367542   -1.124649    0.953743
     12          1           0        0.856906    0.399145    2.116311
     13          1           0        0.279437   -1.684123   -0.209794
     14          1           0       -2.619890    1.482239   -0.235605
     15          1           0       -1.469342    1.569663    1.116686
     16          1           0       -0.902922    1.897454   -0.512871
 ---------------------------------------------------------------------

 SCF Done:  E(RHF) =  -323.803925663     A.U. after    2 cycles

 The electronic state is 1-A.
 Alpha  occ. eigenvalues --  -20.56735 -15.71366 -11.34894 -11.31976 -11.30400
 Alpha  occ. eigenvalues --  -11.28635 -11.24767  -1.36550  -1.33252  -1.06903
 Alpha  occ. eigenvalues --   -1.01109  -0.91044  -0.80558  -0.76495  -0.72001
 Alpha  occ. eigenvalues --   -0.70458  -0.67386  -0.63482  -0.61544  -0.60481
 Alpha  occ. eigenvalues --   -0.55753  -0.53483  -0.52769  -0.48894  -0.45266
 Alpha  occ. eigenvalues --   -0.42534  -0.30514
 Alpha virt. eigenvalues --    0.02862   0.03692   0.04141   0.04843   0.06241
 Alpha virt. eigenvalues --    0.06771   0.07389   0.07807   0.08466   0.09600
 Alpha virt. eigenvalues --    0.10440   0.10918   0.11898   0.13090   0.14099

 Mulliken charges:
               1
     1  C    0.596898
     2  N   -0.134988
     3  C    0.296043
     4  C    0.819989
     5  C   -0.138822
     6  O   -0.507939
     7  C    0.353156
     8  H   -0.155319
     9  H   -0.297318
    10  H   -0.292928
    11  H    0.382342
    12  H   -0.422262
    13  H   -0.492717
    14  H   -0.103774
    15  H    0.051063
    16  H    0.046577
 Sum of Mulliken charges =  -0.00000

 Dipole moment (field-independent basis, Debye):
    X=              1.9910    Y=              3.5341    Z=             -0.1419  Tot=              4.0588

 Test job not archived.
 1\1\GINC-SE113\SP\RHF\Aug-CC-pVDZ\C5H9N1O1\OHZDE\09-Apr-2025\0\\#t hf
 aug-cc-pvdz iop(5/13=1,5/36=2,99/5=2) pseudo=read geom=check guess=(re
 ad,tcheck) scf=(maxcycle=1)\\title\\0,1\C,0,0.97332135,0.16631013,-1.8
 8090708\N,0,0.60938155,0.14677761,-0.61022356\C,0,1.17501192,-0.317359
 7,0.50781529\C,0,-0.18904514,-0.80336185,0.14294364\C,0,-1.46139365,-0
 .31334071,0.76978848\O,0,-2.3321319,-1.10797008,1.02442652\C,0,-1.5778
 5998,1.1508801,1.10780782\H,0,2.09933367,-1.29897032,-1.35198311\H,0,1
 .81751096,0.78927334,-2.14756095\H,0,0.21462516,-0.03728458,-2.6258541

 Normal termination of Gaussian 16 at Wed Apr  9 15:23:17 2025.
