 Gaussian 16, Revision C.01,

 ----------------------------------------------------------------------
 #t hf aug-cc-pvdz symm=none int=(grid=ultrafine) guess=(read,tcheck) s
 table=(opt,rrhf)
 ----------------------------------------------------------------------
 -----
 title
 -----
 Symbolic Z-matrix:
 Charge =  0 Multiplicity = 1

 SCF Done:  E(RHF) =  -325.107779992     A.U. after   14 cycles
 Normal termination of Gaussian 16 at Wed Apr  9 16:21:19 2025.
 Gaussian 16:  ES64L-G16RevC.01  3-Jul-2019

 ----------------------------------------------------------------------
 #t hf aug-cc-pvdz iop(5/13=1,5/36=2,99/5=2) pseudo=read geom=check gue
 ss=(read,tcheck) scf=(maxcycle=1)
 ----------------------------------------------------------------------
 -----
 title
 -----
 Structure from the checkpoint file:  "Grambow2020_wb97xd3_008099_forward_mol2.chk"
 Charge =  0 Multiplicity = 1

                         Standard orientation:
 ---------------------------------------------------------------------
 Center     Atomic      Atomic             Coordinates (Angstroms)
 Number     Number       Type             X           Y           Z
 ---------------------------------------------------------------------
      1          6           0        2.237862   -0.465296    0.625953
      2          6           0        1.410249   -0.088591   -0.594833
      3          7           0        0.091166    0.421852   -0.250941
      4          6           0       -0.006077    1.842389   -0.010464
      5          6           0       -0.916499   -0.475921   -0.064502
      6          8           0       -0.731412   -1.672590   -0.200509
      7          6           0       -2.284804    0.054921    0.310261
      8          1           0        3.223366   -0.823865    0.323105
      9          1           0        1.740949   -1.260773    1.181885
     10          1           0        2.383566    0.388221    1.292048
     11          1           0        1.272700   -0.960512   -1.232540
     12          1           0        1.917488    0.682549   -1.180945
     13          1           0        0.254264    2.403335   -0.912941
     14          1           0       -1.012644    2.123629    0.283152
     15          1           0        0.674580    2.151276    0.789038
     16          1           0       -2.961377   -0.794342    0.342384
     17          1           0       -2.653925    0.781360   -0.415161
     18          1           0       -2.270217    0.531860    1.292133
 ---------------------------------------------------------------------

 SCF Done:  E(RHF) =  -325.212875398     A.U. after    2 cycles

 The electronic state is 1-A.
 Alpha  occ. eigenvalues --  -20.52233 -15.64357 -11.35416 -11.27955 -11.26491
 Alpha  occ. eigenvalues --  -11.24251 -11.22298  -1.34119  -1.21300  -1.03181
 Alpha  occ. eigenvalues --   -0.98653  -0.94492  -0.85835  -0.73301  -0.69073
 Alpha  occ. eigenvalues --   -0.66682  -0.64509  -0.60139  -0.59130  -0.58049
 Alpha  occ. eigenvalues --   -0.57236  -0.55184  -0.54388  -0.51710  -0.50881
 Alpha  occ. eigenvalues --   -0.48934  -0.42902  -0.36897
 Alpha virt. eigenvalues --    0.02922   0.03886   0.04190   0.04816   0.06320
 Alpha virt. eigenvalues --    0.06556   0.07124   0.07677   0.07749   0.09180
 Alpha virt. eigenvalues --    0.09845   0.10798   0.12733   0.12970   0.14127

 Mulliken charges:
               1
     1  C    0.328682
     2  C    0.583639
     3  N   -0.353875
     4  C    0.789406
     5  C    0.106521
     6  O   -0.580083
     7  C    0.290472
     8  H   -0.064727
     9  H   -0.061969
    10  H   -0.136330
    11  H   -0.162056
    12  H   -0.223038
    13  H   -0.103535
    14  H   -0.334620
    15  H   -0.067507
    16  H   -0.157701
    17  H    0.066460
    18  H    0.080261
 Sum of Mulliken charges =  -0.00000

 Dipole moment (field-independent basis, Debye):
    X=              0.2068    Y=              4.2333    Z=              0.4075  Tot=              4.2578

 Test job not archived.
 1\1\GINC-SE057\SP\RHF\Aug-CC-pVDZ\C5H11N1O1\OHZDE\09-Apr-2025\0\\#t hf
  aug-cc-pvdz iop(5/13=1,5/36=2,99/5=2) pseudo=read geom=check guess=(r
 ead,tcheck) scf=(maxcycle=1)\\title\\0,1\C,0,-2.12844028,0.58871205,-0
 .62304887\C,0,-1.39384043,-0.52203928,0.11435384\N,0,0.02836405,-0.254
 93763,0.27178586\C,0,0.41648966,0.49112939,1.44564887\C,0,0.86555519,-
 0.61500329,-0.74093778\O,0,0.44575947,-1.16444937,-1.74425836\C,0,2.34
 319364,-0.32109041,-0.58378795\H,0,-3.19211303,0.35636042,-0.70128078\
 H,0,-1.72708415,0.69542549,-1.63116217\H,0,-2.0332638,1.54621556,-0.10

 Normal termination of Gaussian 16 at Wed Apr  9 16:21:25 2025.
