 Gaussian 16, Revision C.01,

 ----------------------------------------------------------------------
 #t hf aug-cc-pvdz symm=none int=(grid=ultrafine) guess=(read,tcheck) s
 table=(opt,rrhf)
 ----------------------------------------------------------------------
 -----
 title
 -----
 Symbolic Z-matrix:
 Charge =  0 Multiplicity = 1

 SCF Done:  E(RHF) =  -337.407249035     A.U. after   17 cycles
 Normal termination of Gaussian 16 at Wed Apr  9 04:04:08 2025.
 Gaussian 16:  ES64L-G16RevC.01  3-Jul-2019

 ----------------------------------------------------------------------
 #t hf aug-cc-pvdz iop(5/13=1,5/36=2,99/5=2) pseudo=read geom=check gue
 ss=(read,tcheck) scf=(maxcycle=1)
 ----------------------------------------------------------------------
 -----
 title
 -----
 Structure from the checkpoint file:  "Grambow2020_wb97xd3_009185_forward_mol1.chk"
 Charge =  0 Multiplicity = 1

                         Standard orientation:
 ---------------------------------------------------------------------
 Center     Atomic      Atomic             Coordinates (Angstroms)
 Number     Number       Type             X           Y           Z
 ---------------------------------------------------------------------
      1          8           0        2.185895   -0.459325   -0.237024
      2          6           0        1.127347    0.031451    0.004668
      3          6           0        0.472792    1.284222   -0.132602
      4          6           0       -0.818352    1.004698    0.298508
      5          7           0       -1.705231   -0.048005   -0.338975
      6          6           0       -0.995141   -1.118614   -0.077081
      7          7           0       -0.004980   -0.733451    0.691376
      8          1           0        0.875774    2.228586   -0.465262
      9          1           0       -1.441785    1.739415    0.810452
     10          1           0       -2.448117    0.078173   -1.014944
     11          1           0       -1.221430   -2.111925   -0.461817
 ---------------------------------------------------------------------

 SCF Done:  E(RHF) =  -337.506901229     A.U. after    2 cycles

 The electronic state is 1-A.
 Alpha  occ. eigenvalues --  -20.54433 -15.70611 -15.61563 -11.39189 -11.37575
 Alpha  occ. eigenvalues --  -11.36685 -11.22312  -1.35950  -1.32819  -1.13743
 Alpha  occ. eigenvalues --   -1.07015  -0.89085  -0.85766  -0.79219  -0.72006
 Alpha  occ. eigenvalues --   -0.69332  -0.66040  -0.64281  -0.59768  -0.57435
 Alpha  occ. eigenvalues --   -0.53615  -0.47332  -0.40052  -0.39442  -0.30717
 Alpha virt. eigenvalues --    0.01727   0.02683   0.04117   0.04521   0.04860
 Alpha virt. eigenvalues --    0.08095   0.09679   0.10320   0.11234   0.12243
 Alpha virt. eigenvalues --    0.12570   0.13893   0.14697   0.14764   0.15110

 Mulliken charges:
               1
     1  O   -0.456179
     2  C    0.358404
     3  C    0.602824
     4  C    0.580305
     5  N   -0.307451
     6  C    0.755916
     7  N   -0.863160
     8  H   -0.235739
     9  H   -0.223973
    10  H   -0.086639
    11  H   -0.124309
 Sum of Mulliken charges =  -0.00000

 Dipole moment (field-independent basis, Debye):
    X=             -7.2234    Y=              0.9294    Z=             -1.7128  Tot=              7.4817

 Test job not archived.
 1\1\GINC-SE195\SP\RHF\Aug-CC-pVDZ\C4H4N2O1\OHZDE\09-Apr-2025\0\\#t hf
 aug-cc-pvdz iop(5/13=1,5/36=2,99/5=2) pseudo=read geom=check guess=(re
 ad,tcheck) scf=(maxcycle=1)\\title\\0,1\O,0,2.06587807,-1.5970308,-0.3
 0288569\C,0,1.31918001,-0.70862449,-0.03274542\C,0,1.17905651,0.683000
 22,-0.27864723\C,0,-0.04722468,0.97591732,0.30571444\N,0,-1.34796518,0
 .30641317,-0.09548411\C,0,-1.07026215,-0.92940414,0.24312578\N,0,0.088
 85327,-0.8993018,0.85536704\H,0,1.86065806,1.3575178,-0.77394952\H,0,-
 0.26553374,1.93979254,0.76815231\H,0,-2.07333933,0.65450706,-0.7098114

 Normal termination of Gaussian 16 at Wed Apr  9 04:04:16 2025.
