 Gaussian 16, Revision C.01,

 ----------------------------------------------------------------------
 #t hf aug-cc-pvdz symm=none int=(grid=ultrafine) guess=(read,tcheck) s
 table=(opt,rrhf)
 ----------------------------------------------------------------------
 -----
 title
 -----
 Symbolic Z-matrix:
 Charge =  0 Multiplicity = 1

 SCF Done:  E(RHF) =  -357.338814024     A.U. after   16 cycles
 Normal termination of Gaussian 16 at Wed Apr  9 03:58:23 2025.
 Gaussian 16:  ES64L-G16RevC.01  3-Jul-2019

 ----------------------------------------------------------------------
 #t hf aug-cc-pvdz iop(5/13=1,5/36=2,99/5=2) pseudo=read geom=check gue
 ss=(read,tcheck) scf=(maxcycle=1)
 ----------------------------------------------------------------------
 -----
 title
 -----
 Structure from the checkpoint file:  "Grambow2020_wb97xd3_008753_reverse_mol2.chk"
 Charge =  0 Multiplicity = 1

                         Standard orientation:
 ---------------------------------------------------------------------
 Center     Atomic      Atomic             Coordinates (Angstroms)
 Number     Number       Type             X           Y           Z
 ---------------------------------------------------------------------
      1          8           0        2.325464   -0.882385    0.388348
      2          6           0        1.838800   -0.056922   -0.325166
      3          6           0        0.507094    0.541993   -0.053408
      4          7           0       -0.232567    1.439939   -0.484612
      5          8           0       -1.847752   -0.996762   -0.671105
      6          6           0       -1.803821   -0.397350    0.367913
      7          6           0       -0.737768    0.592686    0.690465
      8          1           0        2.334379    0.330382   -1.231800
      9          1           0       -2.564086   -0.554389    1.156993
     10          1           0       -0.789852    1.095170    1.650324
 ---------------------------------------------------------------------

 SCF Done:  E(RHF) =  -357.446146392     A.U. after    2 cycles

 The electronic state is 1-A.
 Alpha  occ. eigenvalues --  -20.62700 -20.59047 -15.70686 -11.39778 -11.36235
 Alpha  occ. eigenvalues --  -11.34443 -11.32111  -1.41703  -1.38555  -1.33007
 Alpha  occ. eigenvalues --   -0.99077  -0.95207  -0.81548  -0.78270  -0.73314
 Alpha  occ. eigenvalues --   -0.71407  -0.69477  -0.66034  -0.60526  -0.59154
 Alpha  occ. eigenvalues --   -0.56450  -0.51062  -0.49264  -0.44535  -0.43277
 Alpha virt. eigenvalues --    0.02848   0.03355   0.03708   0.04860   0.06484
 Alpha virt. eigenvalues --    0.08528   0.09349   0.09834   0.11137   0.12074
 Alpha virt. eigenvalues --    0.12259   0.13046   0.14111   0.14380   0.14987

 Mulliken charges:
               1
     1  O   -0.434844
     2  C    0.880854
     3  C   -0.168128
     4  N   -0.473411
     5  O   -0.440076
     6  C    0.535538
     7  C    0.588344
     8  H   -0.098618
     9  H   -0.100665
    10  H   -0.288993
 Sum of Mulliken charges =  -0.00000

 Dipole moment (field-independent basis, Debye):
    X=              0.2650    Y=              2.1793    Z=              1.8146  Tot=              2.8482

 Test job not archived.
 1\1\GINC-SE328\SP\RHF\Aug-CC-pVDZ\C4H3N1O2\OHZDE\09-Apr-2025\0\\#t hf
 aug-cc-pvdz iop(5/13=1,5/36=2,99/5=2) pseudo=read geom=check guess=(re
 ad,tcheck) scf=(maxcycle=1)\\title\\0,1\O,0,-1.60125964,0.99286393,-1.
 82826572\C,0,-1.62597558,0.00427273,-1.15788458\C,0,-0.74454917,-0.175
 89163,0.02390276\N,0,-0.56747518,-0.9705947,0.96008242\O,0,2.01933562,
 -0.85946181,-0.41001691\C,0,1.75107738,-0.02536972,0.41041765\C,0,0.35
 874871,0.24883026,0.86529607\H,0,-2.3021259,-0.84545303,-1.3537767\H,0
 ,2.53744497,0.598115,0.87754134\H,0,0.21662778,1.01299198,1.62186165\\

 Normal termination of Gaussian 16 at Wed Apr  9 03:58:27 2025.
