 Gaussian 16, Revision C.01,

 ----------------------------------------------------------------------
 #t hf aug-cc-pvdz symm=none int=(grid=ultrafine) guess=(read,tcheck) s
 table=(opt,rrhf)
 ----------------------------------------------------------------------
 -----
 title
 -----
 Symbolic Z-matrix:
 Charge =  0 Multiplicity = 1

 SCF Done:  E(RHF) =  -271.072204243     A.U. after   14 cycles

 1\1\GINC-SE141\Stability\RHF\Aug-CC-pVDZ\C5H12O1\OHZDE\09-Apr-2025\0\\
 #t hf aug-cc-pvdz symm=none int=(grid=ultrafine) guess=(read,tcheck) s
 table=(opt,rrhf)\\title\\0,1\C,0,-2.51435217,-0.33432265,0.13469757\C,
 0,-1.47805383,0.41067366,-0.74430198\C,0,-0.32699451,1.17072252,-0.102
 53521\O,0,0.45843796,-0.10181401,0.84856602\C,0,1.55062025,-0.68774622
 ,0.05806745\C,0,2.71191748,0.28330422,0.06676396\H,0,-3.32637116,-0.77
 568151,-0.4641806\H,0,-2.06760489,-1.17762865,0.69527712\H,0,-2.959978
 05,0.34746757,0.87314678\H,0,-1.11346925,-0.27477203,-1.53201039\H,0,-

 Normal termination of Gaussian 16 at Wed Apr  9 14:10:25 2025.
 Gaussian 16:  ES64L-G16RevC.01  3-Jul-2019

 ----------------------------------------------------------------------
 #t hf aug-cc-pvdz iop(5/13=1,5/36=2,99/5=2) pseudo=read geom=check gue
 ss=(read,tcheck) scf=(maxcycle=1)
 ----------------------------------------------------------------------
 -----
 title
 -----
 Structure from the checkpoint file:  "Grambow2020_b97d3_006799_reverse_mol2.chk"
 Charge =  0 Multiplicity = 1

                         Standard orientation:
 ---------------------------------------------------------------------
 Center     Atomic      Atomic             Coordinates (Angstroms)
 Number     Number       Type             X           Y           Z
 ---------------------------------------------------------------------
      1          6           0        2.552097   -0.517608   -0.028663
      2          6           0        1.594256    0.583323    0.492936
      3          6           0        0.416154    1.044143   -0.352167
      4          8           0       -0.458193   -0.475746   -0.609652
      5          6           0       -1.503702   -0.608237    0.415250
      6          6           0       -2.643767    0.317347    0.047592
      7          1           0        3.395223   -0.694023    0.657518
      8          1           0        2.051096   -1.498143   -0.140674
      9          1           0        2.958233   -0.245403   -1.013390
     10          1           0        1.272315    0.325306    1.519105
     11          1           0        2.177564    1.515251    0.613036
     12          1           0        0.772824    1.081830   -1.404488
     13          1           0        0.178306   -1.214533   -0.491479
     14          1           0       -1.806837   -1.665688    0.414025
     15          1           0       -1.067006   -0.347737    1.387669
     16          1           0       -3.428293    0.256629    0.814803
     17          1           0       -2.252286    1.339703   -0.006092
     18          1           0       -3.075822    0.038967   -0.922499
 ---------------------------------------------------------------------

 SCF Done:  E(RHF) =  -271.157772154     A.U. after    2 cycles

 The electronic state is 1-A.
 Alpha  occ. eigenvalues --  -20.63597 -11.31111 -11.23145 -11.22891 -11.22531
 Alpha  occ. eigenvalues --  -11.22471  -1.36892  -1.03396  -1.01684  -0.89353
 Alpha  occ. eigenvalues --   -0.85475  -0.77353  -0.73755  -0.67555  -0.61733
 Alpha  occ. eigenvalues --   -0.60048  -0.56549  -0.55727  -0.54109  -0.52650
 Alpha  occ. eigenvalues --   -0.51796  -0.49711  -0.47879  -0.45526  -0.30287
 Alpha virt. eigenvalues --    0.02867   0.04275   0.04649   0.04944   0.06089
 Alpha virt. eigenvalues --    0.06169   0.06648   0.07347   0.08327   0.09056
 Alpha virt. eigenvalues --    0.09244   0.09844   0.11614   0.13479   0.14218

 Mulliken charges:
               1
     1  C    0.324385
     2  C    0.119249
     3  C   -0.014746
     4  O   -0.618234
     5  C    0.761637
     6  C    0.206487
     7  H   -0.081626
     8  H   -0.150392
     9  H   -0.047323
    10  H   -0.109262
    11  H    0.011290
    12  H   -0.232577
    13  H    0.231945
    14  H   -0.221838
    15  H   -0.127000
    16  H   -0.014674
    17  H    0.005360
    18  H   -0.042682
 Sum of Mulliken charges =  -0.00000

 Dipole moment (field-independent basis, Debye):
    X=             -0.2069    Y=             -3.3192    Z=              0.8837  Tot=              3.4410

 Test job not archived.
 1\1\GINC-SE141\SP\RHF\Aug-CC-pVDZ\C5H12O1\OHZDE\09-Apr-2025\0\\#t hf a
 ug-cc-pvdz iop(5/13=1,5/36=2,99/5=2) pseudo=read geom=check guess=(rea
 d,tcheck) scf=(maxcycle=1)\\title\\0,1\C,0,-2.51435217,-0.33432265,0.1
 3469757\C,0,-1.47805383,0.41067366,-0.74430198\C,0,-0.32699451,1.17072
 252,-0.10253521\O,0,0.45843796,-0.10181401,0.84856602\C,0,1.55062025,-
 0.68774622,0.05806745\C,0,2.71191748,0.28330422,0.06676396\H,0,-3.3263
 7116,-0.77568151,-0.4641806\H,0,-2.06760489,-1.17762865,0.69527712\H,0
 ,-2.95997805,0.34746757,0.87314678\H,0,-1.11346925,-0.27477203,-1.5320

 Normal termination of Gaussian 16 at Wed Apr  9 14:10:31 2025.
