 Gaussian 16, Revision C.01,

 ----------------------------------------------------------------------
 #t hf aug-cc-pvdz symm=none int=(grid=ultrafine) guess=(read,tcheck) s
 table=(opt,rrhf)
 ----------------------------------------------------------------------
 -----
 title
 -----
 Symbolic Z-matrix:
 Charge =  0 Multiplicity = 1

 SCF Done:  E(RHF) =  -286.746403855     A.U. after   16 cycles
 Normal termination of Gaussian 16 at Wed Apr  9 15:36:08 2025.
 Gaussian 16:  ES64L-G16RevC.01  3-Jul-2019

 ----------------------------------------------------------------------
 #t hf aug-cc-pvdz iop(5/13=1,5/36=2,99/5=2) pseudo=read geom=check gue
 ss=(read,tcheck) scf=(maxcycle=1)
 ----------------------------------------------------------------------
 -----
 title
 -----
 Structure from the checkpoint file:  "Grambow2020_wb97xd3_007186_reverse_mol1.chk"
 Charge =  0 Multiplicity = 1

                         Standard orientation:
 ---------------------------------------------------------------------
 Center     Atomic      Atomic             Coordinates (Angstroms)
 Number     Number       Type             X           Y           Z
 ---------------------------------------------------------------------
      1          6           0        2.454559   -0.607772   -0.066612
      2          6           0        1.102298    0.005730   -0.055322
      3          6           0        0.680175    1.275370   -0.041890
      4          6           0       -0.771177    1.335292    0.103369
      5          6           0       -1.259682    0.080811    0.181588
      6          6           0       -2.386361   -0.726803   -0.207527
      7          7           0       -0.074860   -0.829500    0.104104
      8          1           0        2.563163   -1.329556   -0.879878
      9          1           0        3.210793    0.165599   -0.194981
     10          1           0        2.670963   -1.131018    0.870597
     11          1           0        1.333340    2.132404   -0.132186
     12          1           0       -1.369618    2.229587    0.034599
     13          1           0       -3.235412   -0.197596   -0.626491
     14          1           0       -0.872414   -1.270652   -0.683369
     15          1           0       -2.682027   -1.489827    0.514411
     16          1           0       -0.013641   -1.478203    0.886934
 ---------------------------------------------------------------------

 SCF Done:  E(RHF) =  -286.832517942     A.U. after    2 cycles

 The electronic state is 1-A.
 Alpha  occ. eigenvalues --  -15.69935 -11.29222 -11.28624 -11.25799 -11.25712
 Alpha  occ. eigenvalues --  -11.22512 -11.17105  -1.28011  -1.07319  -1.04750
 Alpha  occ. eigenvalues --   -0.96343  -0.87666  -0.79429  -0.76589  -0.69383
 Alpha  occ. eigenvalues --   -0.66532  -0.60659  -0.59458  -0.57069  -0.56429
 Alpha  occ. eigenvalues --   -0.55512  -0.52347  -0.49841  -0.42578  -0.36269
 Alpha  occ. eigenvalues --   -0.24517
 Alpha virt. eigenvalues --    0.02641   0.03684   0.04202   0.04777   0.05950
 Alpha virt. eigenvalues --    0.06369   0.07456   0.08554   0.09030   0.09673
 Alpha virt. eigenvalues --    0.10329   0.12497   0.13059   0.13281   0.13766

 Mulliken charges:
               1
     1  C    0.363434
     2  C   -0.271779
     3  C    0.483920
     4  C    0.463731
     5  C    0.143804
     6  C    0.141745
     7  N   -0.799661
     8  H    0.051615
     9  H   -0.007525
    10  H    0.047267
    11  H   -0.388562
    12  H   -0.346527
    13  H   -0.224662
    14  H    0.511266
    15  H   -0.222408
    16  H    0.054343
 Sum of Mulliken charges =  -0.00000

 Dipole moment (field-independent basis, Debye):
    X=              4.0244    Y=             -0.2125    Z=              1.1673  Tot=              4.1956

 Test job not archived.
 1\1\GINC-SE219\SP\RHF\Aug-CC-pVDZ\C6H9N1\OHZDE\09-Apr-2025\0\\#t hf au
 g-cc-pvdz iop(5/13=1,5/36=2,99/5=2) pseudo=read geom=check guess=(read
 ,tcheck) scf=(maxcycle=1)\\title\\0,1\C,0,-2.37901969,-0.34803602,0.37
 14065\C,0,-1.00828813,0.17990061,0.15346101\C,0,-0.52765052,1.41612896
 ,-0.02283977\C,0,0.89810868,1.37614843,-0.33384561\C,0,1.31086102,0.09
 24761,-0.35113581\C,0,2.43336793,-0.74537995,-0.01792285\N,0,0.0990833
 5,-0.73509158,-0.059246\H,0,-2.42820439,-0.99022689,1.25420883\H,0,-3.
 07556282,0.47749587,0.51210745\H,0,-2.72889305,-0.9351119,-0.48410924\

 Normal termination of Gaussian 16 at Wed Apr  9 15:36:14 2025.
