 Gaussian 16, Revision C.01,

 ----------------------------------------------------------------------
 #t hf aug-cc-pvdz symm=none int=(grid=ultrafine) guess=(read,tcheck) s
 table=(opt,rrhf)
 ----------------------------------------------------------------------
 -----
 title
 -----
 Symbolic Z-matrix:
 Charge =  0 Multiplicity = 1

 SCF Done:  E(RHF) =  -338.646646116     A.U. after   15 cycles
 Normal termination of Gaussian 16 at Wed Apr  9 16:27:58 2025.
 Gaussian 16:  ES64L-G16RevC.01  3-Jul-2019

 ----------------------------------------------------------------------
 #t hf aug-cc-pvdz iop(5/13=1,5/36=2,99/5=2) pseudo=read geom=check gue
 ss=(read,tcheck) scf=(maxcycle=1)
 ----------------------------------------------------------------------
 -----
 title
 -----
 Structure from the checkpoint file:  "Grambow2020_wb97xd3_008464_forward_mol1.chk"
 Charge =  0 Multiplicity = 1

                         Standard orientation:
 ---------------------------------------------------------------------
 Center     Atomic      Atomic             Coordinates (Angstroms)
 Number     Number       Type             X           Y           Z
 ---------------------------------------------------------------------
      1          7           0       -1.481216   -1.417882   -0.075438
      2          6           0       -0.350287   -0.620741   -0.031247
      3          6           0       -0.242446    0.734330   -0.019103
      4          8           0       -1.310279    1.589800    0.103104
      5          6           0        1.166795    1.022617   -0.009803
      6          6           0        1.925926   -0.204495   -0.089990
      7          7           0        0.920377   -1.141502   -0.025717
      8          1           0       -2.324346   -0.869744    0.005274
      9          1           0       -1.483354   -2.177300    0.588135
     10          1           0       -1.315100    2.200667   -0.635876
     11          1           0        1.623855    1.992699   -0.154400
     12          1           0        1.795783    0.588428    1.005602
     13          1           0        1.111332   -2.127723   -0.024631
 ---------------------------------------------------------------------

 SCF Done:  E(RHF) =  -338.747726545     A.U. after    2 cycles

 The electronic state is 1-A.
 Alpha  occ. eigenvalues --  -20.60067 -15.66371 -15.64885 -11.32184 -11.27702
 Alpha  occ. eigenvalues --  -11.26481 -11.25048  -1.35809  -1.28168  -1.18054
 Alpha  occ. eigenvalues --   -1.05120  -0.97262  -0.80839  -0.80294  -0.74733
 Alpha  occ. eigenvalues --   -0.71305  -0.66245  -0.63892  -0.61897  -0.60373
 Alpha  occ. eigenvalues --   -0.57398  -0.52016  -0.48405  -0.40682  -0.35657
 Alpha  occ. eigenvalues --   -0.30829
 Alpha virt. eigenvalues --    0.02779   0.03285   0.04473   0.05869   0.06605
 Alpha virt. eigenvalues --    0.07114   0.10516   0.11121   0.11839   0.12325
 Alpha virt. eigenvalues --    0.12922   0.14229   0.14892   0.14942   0.15533

 Mulliken charges:
               1
     1  N   -0.308816
     2  C    0.405697
     3  C    0.939140
     4  O   -0.663575
     5  C    0.377951
     6  C   -0.445987
     7  N   -0.305626
     8  H    0.050702
     9  H   -0.036810
    10  H    0.146037
    11  H   -0.237758
    12  H    0.214162
    13  H   -0.135117
 Sum of Mulliken charges =  -0.00000

 Dipole moment (field-independent basis, Debye):
    X=             -2.7396    Y=             -0.3777    Z=              0.4266  Tot=              2.7982

 Test job not archived.
 1\1\GINC-SE042\SP\RHF\Aug-CC-pVDZ\C4H6N2O1\OHZDE\09-Apr-2025\0\\#t hf
 aug-cc-pvdz iop(5/13=1,5/36=2,99/5=2) pseudo=read geom=check guess=(re
 ad,tcheck) scf=(maxcycle=1)\\title\\0,1\N,0,1.91277097,0.68310762,-0.1
 3048094\C,0,0.56138799,0.38440545,-0.10003973\C,0,-0.05995903,-0.81683
 843,0.037568\O,0,0.59106064,-1.99037045,0.33087353\C,0,-1.47089391,-0.
 54770416,-0.03980013\C,0,-1.69578518,0.85537545,-0.30305719\N,0,-0.410
 28135,1.34313698,-0.25005154\H,0,2.47638134,-0.12858624,0.07283042\H,0
 ,2.18206722,1.46074128,0.45245542\H,0,0.38817542,-2.64358313,-0.341007

 Normal termination of Gaussian 16 at Wed Apr  9 16:28:03 2025.
