 Gaussian 16, Revision C.01,

 ----------------------------------------------------------------------
 #t hf aug-cc-pvdz symm=none int=(grid=ultrafine) guess=(read,tcheck) s
 table=(opt,rrhf)
 ----------------------------------------------------------------------
 -----
 title
 -----
 Symbolic Z-matrix:
 Charge =  0 Multiplicity = 1

 SCF Done:  E(RHF) =  -324.974690797     A.U. after   15 cycles
 Normal termination of Gaussian 16 at Wed Apr  9 16:21:21 2025.
 Gaussian 16:  ES64L-G16RevC.01  3-Jul-2019

 ----------------------------------------------------------------------
 #t hf aug-cc-pvdz iop(5/13=1,5/36=2,99/5=2) pseudo=read geom=check gue
 ss=(read,tcheck) scf=(maxcycle=1)
 ----------------------------------------------------------------------
 -----
 title
 -----
 Structure from the checkpoint file:  "Grambow2020_wb97xd3_008109_reverse_mol1.chk"
 Charge =  0 Multiplicity = 1

                         Standard orientation:
 ---------------------------------------------------------------------
 Center     Atomic      Atomic             Coordinates (Angstroms)
 Number     Number       Type             X           Y           Z
 ---------------------------------------------------------------------
      1          6           0        2.410725    0.091303    0.663378
      2          6           0        1.666135    0.253225   -0.615072
      3          7           0       -0.410778    0.715557   -0.165916
      4          6           0       -1.403771    1.731669    0.059446
      5          6           0       -0.627528   -0.554704   -0.084965
      6          8           0        0.362603   -1.305097   -0.314669
      7          6           0       -1.960191   -1.159399    0.262157
      8          1           0        3.384420    0.582368    0.545936
      9          1           0        2.568737   -0.953071    0.918061
     10          1           0        1.893274    0.587604    1.483214
     11          1           0        1.941718   -0.412658   -1.421367
     12          1           0        1.567012    1.274139   -0.950844
     13          1           0       -0.936915    2.712138   -0.053473
     14          1           0       -2.230308    1.681396   -0.659701
     15          1           0       -1.829890    1.692729    1.069880
     16          1           0       -1.872688   -2.238680    0.352905
     17          1           0       -2.689465   -0.923193   -0.515367
     18          1           0       -2.333491   -0.743451    1.199859
 ---------------------------------------------------------------------

 SCF Done:  E(RHF) =  -325.078991526     A.U. after    2 cycles

 The electronic state is 1-A.
 Alpha  occ. eigenvalues --  -20.51406 -15.57151 -11.34373 -11.31767 -11.24796
 Alpha  occ. eigenvalues --  -11.24359 -11.22850  -1.31589  -1.13876  -1.04603
 Alpha  occ. eigenvalues --   -0.97535  -0.91333  -0.85168  -0.70406  -0.67479
 Alpha  occ. eigenvalues --   -0.64391  -0.61919  -0.60683  -0.58272  -0.56696
 Alpha  occ. eigenvalues --   -0.55696  -0.54503  -0.53858  -0.53040  -0.50175
 Alpha  occ. eigenvalues --   -0.41572  -0.37065  -0.33942
 Alpha virt. eigenvalues --    0.03214   0.04038   0.04487   0.04691   0.06386
 Alpha virt. eigenvalues --    0.06613   0.06902   0.07485   0.07819   0.08985
 Alpha virt. eigenvalues --    0.09121   0.10085   0.11760   0.12814   0.13392

 Mulliken charges:
               1
     1  C    0.330690
     2  C    0.741501
     3  N   -0.484785
     4  C    0.878319
     5  C   -0.046005
     6  O   -0.708353
     7  C    0.382065
     8  H    0.004046
     9  H   -0.034348
    10  H   -0.035856
    11  H   -0.150360
    12  H   -0.236490
    13  H   -0.327858
    14  H   -0.148034
    15  H   -0.134854
    16  H   -0.159877
    17  H    0.063293
    18  H    0.066907
 Sum of Mulliken charges =  -0.00000

 Dipole moment (field-independent basis, Debye):
    X=              0.7479    Y=              2.0955    Z=              0.2945  Tot=              2.2444

 Test job not archived.
 1\1\GINC-SE163\SP\RHF\Aug-CC-pVDZ\C5H11N1O1\OHZDE\09-Apr-2025\0\\#t hf
  aug-cc-pvdz iop(5/13=1,5/36=2,99/5=2) pseudo=read geom=check guess=(r
 ead,tcheck) scf=(maxcycle=1)\\title\\0,1\C,0,-2.24972565,0.36693477,-1
 .03529587\C,0,-1.65265976,-0.76157122,-0.27040668\N,0,0.17144928,-0.07
 202639,0.691994\C,0,0.78147175,0.49877948,1.86304421\C,0,0.79856471,-0
 .35059005,-0.40172641\O,0,0.10332511,-0.84816899,-1.33192537\C,0,2.269
 02137,-0.11374624,-0.61101635\H,0,-3.33485917,0.33823825,-0.87819355\H
 ,0,-2.04359689,0.29710841,-2.09980646\H,0,-1.89250175,1.32548164,-0.66

 Normal termination of Gaussian 16 at Wed Apr  9 16:21:28 2025.
