 Gaussian 16, Revision C.01,

 ----------------------------------------------------------------------
 #t hf aug-cc-pvdz symm=none int=(grid=ultrafine) guess=(read,tcheck) s
 table=(opt,rrhf)
 ----------------------------------------------------------------------
 -----
 title
 -----
 Symbolic Z-matrix:
 Charge =  0 Multiplicity = 1

 SCF Done:  E(RHF) =  -284.685541195     A.U. after   16 cycles
 Normal termination of Gaussian 16 at Wed Apr  9 03:05:35 2025.
 Gaussian 16:  ES64L-G16RevC.01  3-Jul-2019

 ----------------------------------------------------------------------
 #t hf aug-cc-pvdz iop(5/13=1,5/36=2,99/5=2) pseudo=read geom=check gue
 ss=(read,tcheck) scf=(maxcycle=1)
 ----------------------------------------------------------------------
 -----
 title
 -----
 Structure from the checkpoint file:  "Grambow2020_b97d3_006558_reverse_mol2.chk"
 Charge =  0 Multiplicity = 1

                         Standard orientation:
 ---------------------------------------------------------------------
 Center     Atomic      Atomic             Coordinates (Angstroms)
 Number     Number       Type             X           Y           Z
 ---------------------------------------------------------------------
      1          8           0        1.560472    0.519269   -0.630627
      2          6           0        1.267904   -0.638957   -0.364633
      3          6           0        0.275565   -1.002850    0.716926
      4          7           0       -1.084893   -0.328608    0.669114
      5          6           0       -1.135364    0.976342   -0.078257
      6          6           0       -1.636961   -0.030340   -0.704920
      7          1           0        1.516053    2.314614    1.197511
      8          1           0        1.683590   -1.480765   -0.973153
      9          1           0        0.701994   -0.706390    1.687497
     10          1           0        0.096304   -2.087074    0.738386
     11          1           0        1.452387    2.832339    1.731859
     12          1           0       -0.855700    2.006126    0.085430
     13          1           0       -2.111022   -0.557913   -1.521005
 ---------------------------------------------------------------------

 SCF Done:  E(RHF) =  -284.775864859     A.U. after    2 cycles

 The electronic state is 1-A.
 Alpha  occ. eigenvalues --  -20.58435 -15.65600 -11.35524 -11.29899 -11.29071
 Alpha  occ. eigenvalues --  -11.27660  -1.35986  -1.24545  -1.02774  -0.87551
 Alpha  occ. eigenvalues --   -0.80027  -0.78342  -0.69930  -0.68794  -0.64395
 Alpha  occ. eigenvalues --   -0.60937  -0.58066  -0.57567  -0.52085  -0.48314
 Alpha  occ. eigenvalues --   -0.45118  -0.44522  -0.32315
 Alpha virt. eigenvalues --    0.03003   0.04232   0.04675   0.05149   0.06382
 Alpha virt. eigenvalues --    0.07056   0.07787   0.09207   0.10022   0.11571
 Alpha virt. eigenvalues --    0.12243   0.12930   0.13630   0.14115   0.15003

 Mulliken charges:
               1
     1  O   -0.492034
     2  C    0.567577
     3  C    0.486022
     4  N   -0.845836
     5  C    0.773836
     6  C    0.450485
     7  H   -0.052435
     8  H   -0.127703
     9  H   -0.019998
    10  H   -0.134703
    11  H    0.055187
    12  H   -0.345868
    13  H   -0.314530
 Sum of Mulliken charges =  -0.00000

 Dipole moment (field-independent basis, Debye):
    X=             -0.3609    Y=             -2.0336    Z=             -0.7356  Tot=              2.1925

 Test job not archived.
 1\1\GINC-SE127\SP\RHF\Aug-CC-pVDZ\C4H7N1O1\OHZDE\09-Apr-2025\0\\#t hf
 aug-cc-pvdz iop(5/13=1,5/36=2,99/5=2) pseudo=read geom=check guess=(re
 ad,tcheck) scf=(maxcycle=1)\\title\\0,1\O,0,-1.27327863,-0.97542796,0.
 55693178\C,0,-1.47838539,0.15256697,0.12868461\C,0,-0.39198071,1.20028
 235,0.03412066\N,0,0.89031401,0.81107078,-0.68139962\C,0,1.17338548,-0
 .66528425,-0.74660372\C,0,0.74607348,-0.1433547,-1.84328508\H,0,0.5240
 8119,-1.37252764,2.33994409\H,0,-2.48317448,0.42815193,-0.2789704\H,0,
 -0.07571971,1.45964993,1.05610134\H,0,-0.76615529,2.11303118,-0.450667

 Normal termination of Gaussian 16 at Wed Apr  9 03:05:38 2025.
