 Gaussian 16, Revision C.01,

 ----------------------------------------------------------------------
 #t hf aug-cc-pvdz symm=none int=(grid=ultrafine) guess=(read,tcheck) s
 table=(opt,rrhf)
 ----------------------------------------------------------------------
 -----
 title
 -----
 Symbolic Z-matrix:
 Charge =  0 Multiplicity = 1

 SCF Done:  E(RHF) =  -343.647747979     A.U. after   14 cycles
 Normal termination of Gaussian 16 at Wed Apr  9 15:38:04 2025.
 Gaussian 16:  ES64L-G16RevC.01  3-Jul-2019

 ----------------------------------------------------------------------
 #t hf aug-cc-pvdz iop(5/13=1,5/36=2,99/5=2) pseudo=read geom=check gue
 ss=(read,tcheck) scf=(maxcycle=1)
 ----------------------------------------------------------------------
 -----
 title
 -----
 Structure from the checkpoint file:  "Grambow2020_wb97xd3_007221_reverse_mol2.chk"
 Charge =  0 Multiplicity = 1

                         Standard orientation:
 ---------------------------------------------------------------------
 Center     Atomic      Atomic             Coordinates (Angstroms)
 Number     Number       Type             X           Y           Z
 ---------------------------------------------------------------------
      1          8           0        2.538464   -0.025903    0.009370
      2          6           0        1.852446   -1.113117   -0.063990
      3          6           0       -1.318311    0.041496   -1.082949
      4          6           0       -1.816554   -0.958837   -0.009094
      5          6           0       -1.234496   -0.056449    1.108101
      6          6           0       -0.517197    0.713794    0.015605
      7          8           0        0.370861    1.528960    0.017037
      8          1           0        1.912482    0.735606    0.034027
      9          1           0       -0.741435   -0.342262   -1.922338
     10          1           0        2.623311   -1.915668   -0.085944
     11          1           0       -2.100971    0.708316   -1.453511
     12          1           0       -2.889986   -1.131744    0.025757
     13          1           0       -1.287972   -1.907164   -0.072314
     14          1           0       -0.599842   -0.508556    1.867693
     15          1           0       -1.985516    0.575686    1.589344
 ---------------------------------------------------------------------

 SCF Done:  E(RHF) =  -343.755570699     A.U. after    2 cycles

 The electronic state is 1-A.
 Alpha  occ. eigenvalues --  -20.62985 -20.57602 -11.35790 -11.30330 -11.24958
 Alpha  occ. eigenvalues --  -11.24955 -11.24681  -1.40319  -1.36995  -1.13707
 Alpha  occ. eigenvalues --   -0.93487  -0.89536  -0.86722  -0.73949  -0.70852
 Alpha  occ. eigenvalues --   -0.68707  -0.66632  -0.64070  -0.63280  -0.59110
 Alpha  occ. eigenvalues --   -0.56833  -0.55833  -0.51344  -0.49258  -0.48994
 Alpha  occ. eigenvalues --   -0.42273  -0.36454
 Alpha virt. eigenvalues --    0.03274   0.04290   0.04571   0.04877   0.06294
 Alpha virt. eigenvalues --    0.06463   0.07098   0.07694   0.09820   0.10793
 Alpha virt. eigenvalues --    0.11701   0.11811   0.13290   0.13824   0.13888

 Mulliken charges:
               1
     1  O   -0.335771
     2  C    0.132479
     3  C    0.317171
     4  C    0.445391
     5  C    0.323781
     6  C    0.318965
     7  O   -0.636871
     8  H    0.305040
     9  H   -0.151862
    10  H   -0.155187
    11  H   -0.031936
    12  H   -0.193372
    13  H   -0.142753
    14  H   -0.163082
    15  H   -0.031992
 Sum of Mulliken charges =   0.00000

 Dipole moment (field-independent basis, Debye):
    X=             -2.7403    Y=             -1.4671    Z=              0.0526  Tot=              3.1087

 Test job not archived.
 1\1\GINC-SE037\SP\RHF\Aug-CC-pVDZ\C5H8O2\OHZDE\09-Apr-2025\0\\#t hf au
 g-cc-pvdz iop(5/13=1,5/36=2,99/5=2) pseudo=read geom=check guess=(read
 ,tcheck) scf=(maxcycle=1)\\title\\0,1\O,0,2.53811434,-1.18635273,-0.68
 231353\C,0,2.21620471,0.05318812,-0.81628833\C,0,-0.6479675,0.3318101,
 1.2193925\C,0,-1.1871199,1.15172867,0.01975611\C,0,-1.24546503,-0.1361
 074,-0.84006583\C,0,-0.44126832,-0.81723384,0.2511141\O,0,0.15798952,-
 1.86120853,0.31555363\H,0,1.76303102,-1.67055325,-0.31197185\H,0,0.244
 92794,0.68601589,1.73115938\H,0,3.13313637,0.52458851,-1.23560058\H,0,

 Normal termination of Gaussian 16 at Wed Apr  9 15:38:10 2025.
