 Gaussian 16, Revision C.01,

 ----------------------------------------------------------------------
 #t hf aug-cc-pvdz symm=none int=(grid=ultrafine) guess=(read,tcheck) s
 table=(opt,rrhf)
 ----------------------------------------------------------------------
 -----
 title
 -----
 Symbolic Z-matrix:
 Charge =  0 Multiplicity = 1

 SCF Done:  E(RHF) =  -307.722041900     A.U. after   15 cycles

 1\1\GINC-SE115\Stability\RHF\Aug-CC-pVDZ\C6H10O1\OHZDE\09-Apr-2025\0\\
 #t hf aug-cc-pvdz symm=none int=(grid=ultrafine) guess=(read,tcheck) s
 table=(opt,rrhf)\\title\\0,1\O,0,1.41327337,-0.44505957,1.45409207\C,0
 ,1.33977979,-0.35563166,0.02604381\C,0,0.01643541,-1.42243915,-0.25918
 755\C,0,-1.21829284,-0.71590742,-0.21908255\C,0,-1.2423935,0.52637934,
 0.60840654\C,0,-0.37974477,1.28728537,-0.41006328\C,0,1.02486666,0.934
 02456,-0.50043221\H,0,1.81954197,0.37736399,1.73929364\H,0,2.22000561,
 -0.82903068,-0.41463557\H,0,0.22375074,-1.96076274,0.67063737\H,0,0.14

 Normal termination of Gaussian 16 at Wed Apr  9 03:53:56 2025.
 Gaussian 16:  ES64L-G16RevC.01  3-Jul-2019

 ----------------------------------------------------------------------
 #t hf aug-cc-pvdz iop(5/13=1,5/36=2,99/5=2) pseudo=read geom=check gue
 ss=(read,tcheck) scf=(maxcycle=1)
 ----------------------------------------------------------------------
 -----
 title
 -----
 Structure from the checkpoint file:  "Grambow2020_wb97xd3_008410_forward_mol1.chk"
 Charge =  0 Multiplicity = 1

                         Standard orientation:
 ---------------------------------------------------------------------
 Center     Atomic      Atomic             Coordinates (Angstroms)
 Number     Number       Type             X           Y           Z
 ---------------------------------------------------------------------
      1          8           0       -1.649248    0.099297    0.919026
      2          6           0       -1.162589   -0.106223   -0.412757
      3          6           0       -0.189132    1.305988   -0.582211
      4          6           0        1.138299    1.060221   -0.131793
      5          6           0        1.300107   -0.011075    0.895211
      6          6           0        1.016343   -1.116368   -0.133490
      7          6           0       -0.348157   -1.263495   -0.605068
      8          1           0       -1.856090   -0.777773    1.251802
      9          1           0       -1.986544   -0.001598   -1.122162
     10          1           0       -0.793886    1.836448    0.159564
     11          1           0       -0.264288    1.793178   -1.553809
     12          1           0        2.008572    1.500475   -0.601491
     13          1           0        1.448048   -0.545838   -1.064627
     14          1           0        2.316979   -0.081456    1.277370
     15          1           0        0.585297    0.028045    1.715641
     16          1           0        1.658050   -1.990354   -0.033432
     17          1           0       -0.451386   -1.769790   -1.560420
 ---------------------------------------------------------------------

 SCF Done:  E(RHF) =  -307.814272519     A.U. after    2 cycles

 The electronic state is 1-A.
 Alpha  occ. eigenvalues --  -20.56008 -11.30003 -11.29755 -11.25806 -11.24758
 Alpha  occ. eigenvalues --  -11.24375 -11.19278  -1.31659  -1.13654  -1.00577
 Alpha  occ. eigenvalues --   -0.99052  -0.85688  -0.81087  -0.74939  -0.70312
 Alpha  occ. eigenvalues --   -0.66691  -0.63214  -0.60791  -0.57953  -0.56055
 Alpha  occ. eigenvalues --   -0.55484  -0.52257  -0.51266  -0.48488  -0.45535
 Alpha  occ. eigenvalues --   -0.42841  -0.23466
 Alpha virt. eigenvalues --    0.03051   0.04123   0.04465   0.04787   0.05133
 Alpha virt. eigenvalues --    0.06227   0.06825   0.06970   0.07073   0.07976
 Alpha virt. eigenvalues --    0.08865   0.12378   0.13367   0.14144   0.14303

 Mulliken charges:
               1
     1  O   -0.639675
     2  C    0.588865
     3  C    0.230087
     4  C    0.177416
     5  C    1.018196
     6  C   -0.339922
     7  C    0.033973
     8  H    0.201000
     9  H   -0.273670
    10  H    0.090790
    11  H   -0.187579
    12  H   -0.365442
    13  H    0.288548
    14  H   -0.159442
    15  H   -0.091624
    16  H   -0.212524
    17  H   -0.358998
 Sum of Mulliken charges =   0.00000

 Dipole moment (field-independent basis, Debye):
    X=              2.2200    Y=              0.8433    Z=             -0.7407  Tot=              2.4876

 Test job not archived.
 1\1\GINC-SE115\SP\RHF\Aug-CC-pVDZ\C6H10O1\OHZDE\09-Apr-2025\0\\#t hf a
 ug-cc-pvdz iop(5/13=1,5/36=2,99/5=2) pseudo=read geom=check guess=(rea
 d,tcheck) scf=(maxcycle=1)\\title\\0,1\O,0,1.41327337,-0.44505957,1.45
 409207\C,0,1.33977979,-0.35563166,0.02604381\C,0,0.01643541,-1.4224391
 5,-0.25918755\C,0,-1.21829284,-0.71590742,-0.21908255\C,0,-1.2423935,0
 .52637934,0.60840654\C,0,-0.37974477,1.28728537,-0.41006328\C,0,1.0248
 6666,0.93402456,-0.50043221\H,0,1.81954197,0.37736399,1.73929364\H,0,2
 .22000561,-0.82903068,-0.41463557\H,0,0.22375074,-1.96076274,0.6706373

 Normal termination of Gaussian 16 at Wed Apr  9 03:54:03 2025.
