 Gaussian 16, Revision C.01,

 ----------------------------------------------------------------------
 #t hf aug-cc-pvdz symm=none int=(grid=ultrafine) guess=(read,tcheck) s
 table=(opt,rrhf)
 ----------------------------------------------------------------------
 -----
 title
 -----
 Symbolic Z-matrix:
 Charge =  0 Multiplicity = 1

 SCF Done:  E(RHF) =  -305.905431870     A.U. after   14 cycles
 Normal termination of Gaussian 16 at Wed Apr  9 14:18:17 2025.
 Gaussian 16:  ES64L-G16RevC.01  3-Jul-2019

 ----------------------------------------------------------------------
 #t hf aug-cc-pvdz iop(5/13=1,5/36=2,99/5=2) pseudo=read geom=check gue
 ss=(read,tcheck) scf=(maxcycle=1)
 ----------------------------------------------------------------------
 -----
 title
 -----
 Structure from the checkpoint file:  "Grambow2020_b97d3_007090_forward_mol2.chk"
 Charge =  0 Multiplicity = 1

                         Standard orientation:
 ---------------------------------------------------------------------
 Center     Atomic      Atomic             Coordinates (Angstroms)
 Number     Number       Type             X           Y           Z
 ---------------------------------------------------------------------
      1          6           0       -0.872389    1.446396    0.292379
      2          6           0       -0.679643    0.045543   -0.281669
      3          6           0       -1.941974   -0.806230   -0.251007
      4          8           0        0.311054   -0.682221    0.531121
      5          6           0        1.610873   -0.438272    0.262397
      6          8           0        2.054106    0.323338   -0.572473
      7          1           0       -1.642171    1.980852   -0.281711
      8          1           0       -1.198111    1.388696    1.340018
      9          1           0        0.061548    2.017531    0.235915
     10          1           0       -0.277599    0.111793   -1.300834
     11          1           0       -1.744873   -1.811099   -0.645857
     12          1           0       -2.721529   -0.336746   -0.866162
     13          1           0       -2.320722   -0.901236    0.775780
     14          1           0        2.220973   -1.063352    0.941064
 ---------------------------------------------------------------------

 SCF Done:  E(RHF) =  -306.004267280     A.U. after    2 cycles

 The electronic state is 1-A.
 Alpha  occ. eigenvalues --  -20.62109 -20.57105 -11.40130 -11.31152 -11.24018
 Alpha  occ. eigenvalues --  -11.23632  -1.41301  -1.32615  -1.06719  -0.94561
 Alpha  occ. eigenvalues --   -0.88512  -0.78299  -0.73726  -0.69184  -0.66199
 Alpha  occ. eigenvalues --   -0.61671  -0.59199  -0.56316  -0.55297  -0.53935
 Alpha  occ. eigenvalues --   -0.51883  -0.49485  -0.47729  -0.46806
 Alpha virt. eigenvalues --    0.03430   0.04375   0.04733   0.05138   0.06464
 Alpha virt. eigenvalues --    0.07280   0.07560   0.07764   0.10229   0.11123
 Alpha virt. eigenvalues --    0.12892   0.14538   0.14850   0.15487   0.15716

 Mulliken charges:
               1
     1  C    0.305210
     2  C   -0.108560
     3  C    0.506007
     4  O   -0.543486
     5  C    0.630516
     6  O   -0.412533
     7  H   -0.002926
     8  H    0.023955
     9  H   -0.067705
    10  H   -0.113077
    11  H   -0.045359
    12  H    0.018772
    13  H    0.016439
    14  H   -0.207253
 Sum of Mulliken charges =   0.00000

 Dipole moment (field-independent basis, Debye):
    X=             -2.0119    Y=             -0.7537    Z=              0.8795  Tot=              2.3214

 Test job not archived.
 1\1\GINC-SE087\SP\RHF\Aug-CC-pVDZ\C4H8O2\OHZDE\09-Apr-2025\0\\#t hf au
 g-cc-pvdz iop(5/13=1,5/36=2,99/5=2) pseudo=read geom=check guess=(read
 ,tcheck) scf=(maxcycle=1)\\title\\0,1\C,0,-0.16611887,1.41874542,-0.07
 713152\C,0,-0.22345775,-0.09747155,-0.24105619\C,0,-1.53996377,-0.7120
 0656,0.21621323\O,0,0.81757142,-0.7180835,0.59730291\C,0,2.0660261,-0.
 75160077,0.0859418\O,0,2.42751851,-0.31786352,-0.9886323\H,0,-0.967859
 45,1.88693481,-0.66517667\H,0,-0.30264219,1.69462728,0.9774873\H,0,0.7
 9581251,1.80812259,-0.43025312\H,0,-0.00627427,-0.36888801,-1.28215672

 Normal termination of Gaussian 16 at Wed Apr  9 14:18:21 2025.
