 Gaussian 16, Revision C.01,

 ----------------------------------------------------------------------
 #t hf aug-cc-pvdz symm=none int=(grid=ultrafine) guess=(read,tcheck) s
 table=(opt,rrhf)
 ----------------------------------------------------------------------
 -----
 title
 -----
 Symbolic Z-matrix:
 Charge =  0 Multiplicity = 1

 SCF Done:  E(RHF) =  -308.929928588     A.U. after   13 cycles

 1\1\GINC-SE219\Stability\RHF\Aug-CC-pVDZ\C6H12O1\OHZDE\09-Apr-2025\0\\
 #t hf aug-cc-pvdz symm=none int=(grid=ultrafine) guess=(read,tcheck) s
 table=(opt,rrhf)\\title\\0,1\C,0,1.58748362,-0.44979016,1.09804637\C,0
 ,1.77346077,-0.74349061,-0.18196574\C,0,2.3725271,0.17399155,-1.198758
 13\C,0,-2.22364209,-1.2584799,-0.54007304\C,0,-2.5464019,-0.69878579,0
 .58597368\C,0,-2.22760433,0.21987154,-0.52892478\O,0,-1.04099944,0.966
 59026,-0.55911294\H,0,-0.99364546,2.05709603,2.63833479\H,0,1.13642411
 ,-1.15867975,1.78201646\H,0,1.88496626,0.51042275,1.50742418\H,0,1.457

 Normal termination of Gaussian 16 at Wed Apr  9 16:26:21 2025.
 Gaussian 16:  ES64L-G16RevC.01  3-Jul-2019

 ----------------------------------------------------------------------
 #t hf aug-cc-pvdz iop(5/13=1,5/36=2,99/5=2) pseudo=read geom=check gue
 ss=(read,tcheck) scf=(maxcycle=1)
 ----------------------------------------------------------------------
 -----
 title
 -----
 Structure from the checkpoint file:  "Grambow2020_wb97xd3_008291_reverse_mol2.chk"
 Charge =  0 Multiplicity = 1

                         Standard orientation:
 ---------------------------------------------------------------------
 Center     Atomic      Atomic             Coordinates (Angstroms)
 Number     Number       Type             X           Y           Z
 ---------------------------------------------------------------------
      1          6           0       -1.749956    1.314798   -0.422136
      2          6           0       -2.008781    0.036062   -0.661135
      3          6           0       -2.694448   -0.896205    0.285047
      4          6           0        1.969693   -0.593190   -1.043326
      5          6           0        2.348367    0.536438   -0.527614
      6          6           0        1.936084   -0.510921    0.432399
      7          8           0        0.731013   -0.431513    1.145161
      8          1           0        0.857589    2.811666    2.083715
      9          1           0       -1.238380    1.934504   -1.148805
     10          1           0       -2.045731    1.787700    0.508980
     11          1           0       -1.691385   -0.390588   -1.610400
     12          1           0       -3.577688   -1.340767   -0.179748
     13          1           0       -3.003812   -0.384014    1.196703
     14          1           0       -2.027565   -1.716120    0.563428
     15          1           0        1.760568   -1.173333   -1.927087
     16          1           0        2.670377    1.553159   -0.680881
     17          1           0        0.908970    2.070650    2.007690
     18          1           0        2.658462   -1.035299    1.051474
     19          1           0        0.074731    0.012660    0.594227
 ---------------------------------------------------------------------

 SCF Done:  E(RHF) =  -309.034746525     A.U. after    2 cycles

 The electronic state is 1-A.
 Alpha  occ. eigenvalues --  -20.55587 -11.30635 -11.25736 -11.25537 -11.25313
 Alpha  occ. eigenvalues --  -11.23664 -11.23405  -1.31969  -1.15296  -1.06838
 Alpha  occ. eigenvalues --   -0.93764  -0.83472  -0.77738  -0.76592  -0.72047
 Alpha  occ. eigenvalues --   -0.65152  -0.63461  -0.61225  -0.59543  -0.58701
 Alpha  occ. eigenvalues --   -0.57390  -0.55854  -0.53081  -0.50017  -0.48829
 Alpha  occ. eigenvalues --   -0.39618  -0.39146  -0.37078
 Alpha virt. eigenvalues --    0.03245   0.04127   0.04536   0.04831   0.05630
 Alpha virt. eigenvalues --    0.06135   0.06958   0.07063   0.07525   0.08676
 Alpha virt. eigenvalues --    0.10160   0.10842   0.11067   0.12216   0.12690

 Mulliken charges:
               1
     1  C    0.636963
     2  C    0.450559
     3  C    0.223997
     4  C    0.329689
     5  C    0.354910
     6  C    0.805031
     7  O   -0.460159
     8  H    0.014599
     9  H   -0.369094
    10  H   -0.362653
    11  H   -0.452284
    12  H   -0.006598
    13  H   -0.130081
    14  H   -0.016894
    15  H   -0.378196
    16  H   -0.380152
    17  H   -0.007719
    18  H   -0.308426
    19  H    0.056507
 Sum of Mulliken charges =   0.00000

 Dipole moment (field-independent basis, Debye):
    X=             -0.1897    Y=              0.3573    Z=             -2.1288  Tot=              2.1669

 Test job not archived.
 1\1\GINC-SE219\SP\RHF\Aug-CC-pVDZ\C6H12O1\OHZDE\09-Apr-2025\0\\#t hf a
 ug-cc-pvdz iop(5/13=1,5/36=2,99/5=2) pseudo=read geom=check guess=(rea
 d,tcheck) scf=(maxcycle=1)\\title\\0,1\C,0,1.58748362,-0.44979016,1.09
 804637\C,0,1.77346077,-0.74349061,-0.18196574\C,0,2.3725271,0.17399155
 ,-1.19875813\C,0,-2.22364209,-1.2584799,-0.54007304\C,0,-2.5464019,-0.
 69878579,0.58597368\C,0,-2.22760433,0.21987154,-0.52892478\O,0,-1.0409
 9944,0.96659026,-0.55911294\H,0,-0.99364546,2.05709603,2.63833479\H,0,
 1.13642411,-1.15867975,1.78201646\H,0,1.88496626,0.51042275,1.50742418

 Normal termination of Gaussian 16 at Wed Apr  9 16:26:28 2025.
