 Gaussian 16, Revision C.01,

 ----------------------------------------------------------------------
 #t hf aug-cc-pvdz symm=none int=(grid=ultrafine) guess=(read,tcheck) s
 table=(opt,rrhf)
 ----------------------------------------------------------------------
 -----
 title
 -----
 Symbolic Z-matrix:
 Charge =  0 Multiplicity = 1

 SCF Done:  E(RHF) =  -324.933157975     A.U. after   15 cycles
 Normal termination of Gaussian 16 at Wed Apr  9 16:26:27 2025.
 Gaussian 16:  ES64L-G16RevC.01  3-Jul-2019

 ----------------------------------------------------------------------
 #t hf aug-cc-pvdz iop(5/13=1,5/36=2,99/5=2) pseudo=read geom=check gue
 ss=(read,tcheck) scf=(maxcycle=1)
 ----------------------------------------------------------------------
 -----
 title
 -----
 Structure from the checkpoint file:  "Grambow2020_wb97xd3_008231_reverse_mol1.chk"
 Charge =  0 Multiplicity = 1

                         Standard orientation:
 ---------------------------------------------------------------------
 Center     Atomic      Atomic             Coordinates (Angstroms)
 Number     Number       Type             X           Y           Z
 ---------------------------------------------------------------------
      1          6           0        1.464801   -1.382142   -0.299365
      2          6           0        2.234569   -0.297488   -0.006438
      3          6           0        0.719132    1.550893    0.059979
      4          7           0       -0.313624    1.036748   -0.533905
      5          6           0       -0.946247   -0.144952    0.139305
      6          8           0       -0.809644   -0.164070    1.387132
      7          6           0       -2.293392   -0.471726   -0.495020
      8          1           0        1.459288   -1.798524   -1.301389
      9          1           0        1.107080   -2.023450    0.497880
     10          1           0       -0.096127   -0.875235   -0.415244
     11          1           0        2.490017   -0.071591    1.019676
     12          1           0        2.830239    0.177665   -0.776788
     13          1           0        0.715957    1.475334    1.139206
     14          1           0        1.360905    2.238379   -0.472207
     15          1           0       -0.375728    1.092432   -1.541600
     16          1           0       -2.570880   -1.481411   -0.196902
     17          1           0       -2.272120   -0.422903   -1.587619
     18          1           0       -3.049281    0.217124   -0.115495
 ---------------------------------------------------------------------

 SCF Done:  E(RHF) =  -325.035590234     A.U. after    2 cycles

 The electronic state is 1-A.
 Alpha  occ. eigenvalues --  -20.45634 -15.69687 -11.33892 -11.31953 -11.26090
 Alpha  occ. eigenvalues --  -11.23819 -11.21901  -1.29722  -1.21648  -1.03512
 Alpha  occ. eigenvalues --   -0.99427  -0.90725  -0.81168  -0.80070  -0.73179
 Alpha  occ. eigenvalues --   -0.66966  -0.65391  -0.63307  -0.59181  -0.58393
 Alpha  occ. eigenvalues --   -0.55557  -0.53613  -0.52593  -0.51574  -0.46730
 Alpha  occ. eigenvalues --   -0.38922  -0.38097  -0.31254
 Alpha virt. eigenvalues --    0.02036   0.03468   0.04347   0.04907   0.06073
 Alpha virt. eigenvalues --    0.06481   0.06570   0.07080   0.07854   0.08821
 Alpha virt. eigenvalues --    0.09084   0.10291   0.11827   0.12348   0.13540

 Mulliken charges:
               1
     1  C    0.314661
     2  C    0.531822
     3  C    0.653356
     4  N   -0.123701
     5  C    0.062443
     6  O   -0.768260
     7  C    0.606488
     8  H   -0.190358
     9  H   -0.086395
    10  H    0.022372
    11  H   -0.204761
    12  H   -0.291488
    13  H   -0.168396
    14  H   -0.239918
    15  H   -0.039924
    16  H    0.005044
    17  H   -0.110415
    18  H    0.027430
 Sum of Mulliken charges =   0.00000

 Dipole moment (field-independent basis, Debye):
    X=              2.3398    Y=              2.3763    Z=             -5.1067  Tot=              6.0992

 Test job not archived.
 1\1\GINC-SE125\SP\RHF\Aug-CC-pVDZ\C5H11N1O1\OHZDE\09-Apr-2025\0\\#t hf
  aug-cc-pvdz iop(5/13=1,5/36=2,99/5=2) pseudo=read geom=check guess=(r
 ead,tcheck) scf=(maxcycle=1)\\title\\0,1\C,0,-1.48127966,0.22648814,-1
 .00437908\C,0,-1.98478951,0.81362945,0.11658684\C,0,-0.28816931,0.5517
 7014,1.78103361\N,0,0.4515702,-0.36027887,1.22914455\C,0,1.09290408,0.
 00576888,-0.07643433\O,0,1.32316625,1.23220683,-0.21400899\C,0,2.14335
 058,-1.02607114,-0.47117482\H,0,-1.82116023,-0.75761721,-1.31011394\H,
 0,-0.99419673,0.83154028,-1.76035598\H,0,0.03089057,-0.31753893,-0.651

 Normal termination of Gaussian 16 at Wed Apr  9 16:26:34 2025.
