 Gaussian 16, Revision C.01,

 ----------------------------------------------------------------------
 #t hf aug-cc-pvdz symm=none int=(grid=ultrafine) guess=(read,tcheck) s
 table=(opt,rrhf)
 ----------------------------------------------------------------------
 -----
 title
 -----
 Symbolic Z-matrix:
 Charge =  0 Multiplicity = 1

 SCF Done:  E(RHF) =  -304.628601238     A.U. after   13 cycles
 Normal termination of Gaussian 16 at Wed Apr  9 14:16:03 2025.
 Gaussian 16:  ES64L-G16RevC.01  3-Jul-2019

 ----------------------------------------------------------------------
 #t hf aug-cc-pvdz iop(5/13=1,5/36=2,99/5=2) pseudo=read geom=check gue
 ss=(read,tcheck) scf=(maxcycle=1)
 ----------------------------------------------------------------------
 -----
 title
 -----
 Structure from the checkpoint file:  "Grambow2020_b97d3_006923_forward_mol2.chk"
 Charge =  0 Multiplicity = 1

                         Standard orientation:
 ---------------------------------------------------------------------
 Center     Atomic      Atomic             Coordinates (Angstroms)
 Number     Number       Type             X           Y           Z
 ---------------------------------------------------------------------
      1          8           0       -1.792825   -0.494814   -0.333477
      2          6           0       -0.525755   -0.114042    0.092427
      3          6           0       -0.169261    1.280363    0.569948
      4          6           0        0.520374    0.687449   -0.634284
      5          8           0        1.586805   -0.191530   -0.230658
      6          6           0        0.614533   -1.085927    0.403913
      7          1           0       -2.395571   -0.409215    0.429833
      8          1           0       -0.927740    2.027812    0.330779
      9          1           0        0.392130    1.446017    1.492395
     10          1           0        0.558356    1.132595   -1.627350
     11          1           0        0.858487   -1.289219    1.458012
     12          1           0        0.523157   -2.024293   -0.162621
 ---------------------------------------------------------------------

 SCF Done:  E(RHF) =  -304.722558889     A.U. after    2 cycles

 The electronic state is 1-A.
 Alpha  occ. eigenvalues --  -20.60084 -20.57534 -11.31050 -11.30212 -11.30041
 Alpha  occ. eigenvalues --  -11.25310  -1.36672  -1.33513  -1.10387  -0.95141
 Alpha  occ. eigenvalues --   -0.84149  -0.77206  -0.73648  -0.67440  -0.65835
 Alpha  occ. eigenvalues --   -0.65013  -0.57539  -0.56857  -0.55306  -0.53274
 Alpha  occ. eigenvalues --   -0.47817  -0.41313  -0.38897
 Alpha virt. eigenvalues --    0.03070   0.04547   0.04834   0.04921   0.06526
 Alpha virt. eigenvalues --    0.06957   0.09582   0.10945   0.11050   0.13642
 Alpha virt. eigenvalues --    0.13964   0.14423   0.14662   0.15297   0.15398

 Mulliken charges:
               1
     1  O   -0.598611
     2  C   -0.000555
     3  C    0.751817
     4  C    0.807610
     5  O   -0.801974
     6  C    0.812198
     7  H    0.163795
     8  H   -0.261801
     9  H   -0.312757
    10  H   -0.304787
    11  H   -0.145113
    12  H   -0.109823
 Sum of Mulliken charges =  -0.00000

 Dipole moment (field-independent basis, Debye):
    X=             -1.9803    Y=              0.5548    Z=              1.7647  Tot=              2.7099

 Test job not archived.
 1\1\GINC-SE219\SP\RHF\Aug-CC-pVDZ\C4H6O2\OHZDE\09-Apr-2025\0\\#t hf au
 g-cc-pvdz iop(5/13=1,5/36=2,99/5=2) pseudo=read geom=check guess=(read
 ,tcheck) scf=(maxcycle=1)\\title\\0,1\O,0,0.10812697,-1.37634549,-1.28
 439246\C,0,0.07357987,-0.40914075,-0.28681108\C,0,-1.15616872,-0.07422
 045,0.53478737\C,0,-0.50603693,0.97909316,-0.32844799\O,0,0.6295719,1.
 55816876,0.34077447\C,0,1.31000201,0.26032364,0.31727497\H,0,-0.062531
 67,-2.23925798,-0.86068097\H,0,-2.07872643,-0.48660328,0.12247684\H,0,
 -1.11445843,0.01164031,1.623088\H,0,-1.00113621,1.55443519,-1.10923988

 Normal termination of Gaussian 16 at Wed Apr  9 14:16:07 2025.
