 Gaussian 16, Revision C.01,

 ----------------------------------------------------------------------
 #t hf aug-cc-pvdz symm=none int=(grid=ultrafine) guess=(read,tcheck) s
 table=(opt,rrhf)
 ----------------------------------------------------------------------
 -----
 title
 -----
 Symbolic Z-matrix:
 Charge =  0 Multiplicity = 1

 SCF Done:  E(RHF) =  -360.795857156     A.U. after   15 cycles
 Normal termination of Gaussian 16 at Wed Apr  9 03:28:28 2025.
 Gaussian 16:  ES64L-G16RevC.01  3-Jul-2019

 ----------------------------------------------------------------------
 #t hf aug-cc-pvdz iop(5/13=1,5/36=2,99/5=2) pseudo=read geom=check gue
 ss=(read,tcheck) scf=(maxcycle=1)
 ----------------------------------------------------------------------
 -----
 title
 -----
 Structure from the checkpoint file:  "Grambow2020_wb97xd3_006772_reverse_mol1.chk"
 Charge =  0 Multiplicity = 1

                         Standard orientation:
 ---------------------------------------------------------------------
 Center     Atomic      Atomic             Coordinates (Angstroms)
 Number     Number       Type             X           Y           Z
 ---------------------------------------------------------------------
      1          6           0       -2.498186    0.176577    0.135097
      2          7           0       -1.202139   -0.157998   -0.424728
      3          6           0       -0.379936   -0.916640    0.275318
      4          8           0        0.781719   -1.320429   -0.297625
      5          6           0        1.850715   -0.389388   -0.065590
      6          6           0        1.165910    0.867056    0.496959
      7          8           0        0.542870    1.604640   -0.355242
      8          1           0       -2.418836    1.004760    0.844772
      9          1           0       -3.170880    0.472344   -0.668144
     10          1           0       -2.924958   -0.687656    0.645283
     11          1           0       -0.803740   -1.582881    1.026189
     12          1           0        2.557779   -0.837556    0.639389
     13          1           0        2.343804   -0.181446   -1.015588
     14          1           0        0.327907    0.165749    1.161476
     15          1           0        1.705380    1.381176    1.309711
     16          1           0       -0.629216    0.672181   -0.797767
 ---------------------------------------------------------------------

 SCF Done:  E(RHF) =  -360.909333761     A.U. after    2 cycles

 The electronic state is 1-A.
 Alpha  occ. eigenvalues --  -20.61058 -20.49449 -15.65725 -11.40675 -11.30838
 Alpha  occ. eigenvalues --  -11.29926 -11.28598  -1.40479  -1.27397  -1.23296
 Alpha  occ. eigenvalues --   -1.00619  -0.96383  -0.89175  -0.79953  -0.73444
 Alpha  occ. eigenvalues --   -0.72276  -0.70448  -0.64897  -0.63123  -0.60135
 Alpha  occ. eigenvalues --   -0.58013  -0.57600  -0.55562  -0.53723  -0.48919
 Alpha  occ. eigenvalues --   -0.43599  -0.39193  -0.36663
 Alpha virt. eigenvalues --    0.02732   0.03960   0.04523   0.04967   0.06447
 Alpha virt. eigenvalues --    0.06685   0.06741   0.08104   0.08969   0.09915
 Alpha virt. eigenvalues --    0.10376   0.11791   0.12882   0.13722   0.14426

 Mulliken charges:
               1
     1  C    0.720255
     2  N   -0.458336
     3  C    0.825669
     4  O   -0.726510
     5  C    0.815569
     6  C    0.351471
     7  O   -0.820696
     8  H   -0.115064
     9  H   -0.179019
    10  H   -0.123173
    11  H   -0.356641
    12  H   -0.163505
    13  H   -0.163108
    14  H    0.305646
    15  H   -0.230109
    16  H    0.317550
 Sum of Mulliken charges =  -0.00000

 Dipole moment (field-independent basis, Debye):
    X=             -1.6238    Y=             -2.7110    Z=              2.6320  Tot=              4.1127

 Test job not archived.
 1\1\GINC-SE338\SP\RHF\Aug-CC-pVDZ\C4H9N1O2\OHZDE\09-Apr-2025\0\\#t hf
 aug-cc-pvdz iop(5/13=1,5/36=2,99/5=2) pseudo=read geom=check guess=(re
 ad,tcheck) scf=(maxcycle=1)\\title\\0,1\C,0,2.04109042,-0.59379247,-1.
 04707141\N,0,0.8687299,0.25040145,-0.91294277\C,0,0.52966873,0.6879114
 8,0.28507266\O,0,-0.49783252,1.56753218,0.39119253\C,0,-1.76162619,0.9
 0470114,0.5552399\C,0,-1.47752838,-0.57276589,0.23830151\O,0,-1.342587
 91,-0.87119268,-1.00716568\H,0,1.811181,-1.6311699,-0.78859208\H,0,2.3
 8976735,-0.56309082,-2.07793211\H,0,2.84164677,-0.23607077,-0.3986372\

 Normal termination of Gaussian 16 at Wed Apr  9 03:28:33 2025.
