 Gaussian 16, Revision C.01,

 ----------------------------------------------------------------------
 #t hf aug-cc-pvdz symm=none int=(grid=ultrafine) guess=(read,tcheck) s
 table=(opt,rrhf)
 ----------------------------------------------------------------------
 -----
 title
 -----
 Symbolic Z-matrix:
 Charge =  0 Multiplicity = 1

 SCF Done:  E(RHF) =  -271.916447288     A.U. after   16 cycles
 Normal termination of Gaussian 16 at Wed Apr  9 15:48:29 2025.
 Gaussian 16:  ES64L-G16RevC.01  3-Jul-2019

 ----------------------------------------------------------------------
 #t hf aug-cc-pvdz iop(5/13=1,5/36=2,99/5=2) pseudo=read geom=check gue
 ss=(read,tcheck) scf=(maxcycle=1)
 ----------------------------------------------------------------------
 -----
 title
 -----
 Structure from the checkpoint file:  "Grambow2020_wb97xd3_007415_forward_mol1.chk"
 Charge =  0 Multiplicity = 1

                         Standard orientation:
 ---------------------------------------------------------------------
 Center     Atomic      Atomic             Coordinates (Angstroms)
 Number     Number       Type             X           Y           Z
 ---------------------------------------------------------------------
      1          6           0       -1.920849   -0.625366   -1.090727
      2          6           0       -1.599360    0.057191    0.227315
      3          6           0       -0.849493   -0.734209    1.192028
      4          6           0        1.484453    0.003305    0.315393
      5          6           0        2.699650   -0.525207   -0.380534
      6          6           0        0.710287    1.030007   -0.159049
      7          6           0       -0.638651    1.206964    0.129602
      8          1           0       -1.001126   -0.994638   -1.549952
      9          1           0       -2.591644   -1.473089   -0.928353
     10          1           0       -2.394413    0.067791   -1.788474
     11          1           0       -2.513890    0.448614    0.686216
     12          1           0       -0.866138   -0.447565    2.234668
     13          1           0       -0.451284   -1.708882    0.946632
     14          1           0        1.332818   -0.301908    1.338959
     15          1           0        2.886910    0.007629   -1.314420
     16          1           0        2.569635   -1.581325   -0.635571
     17          1           0        3.591797   -0.460943    0.248462
     18          1           0        1.165797    1.753036   -0.840064
     19          1           0       -1.044686    2.215169    0.197724
 ---------------------------------------------------------------------

 SCF Done:  E(RHF) =  -272.001405454     A.U. after    2 cycles

 The electronic state is 1-A.
 Alpha  occ. eigenvalues --  -11.25667 -11.24498 -11.24434 -11.23593 -11.23185
 Alpha  occ. eigenvalues --  -11.22702 -11.22071  -1.11301  -1.04349  -0.96543
 Alpha  occ. eigenvalues --   -0.91866  -0.86714  -0.77549  -0.72147  -0.66199
 Alpha  occ. eigenvalues --   -0.61545  -0.60766  -0.57952  -0.57372  -0.56310
 Alpha  occ. eigenvalues --   -0.52988  -0.51623  -0.50442  -0.48677  -0.47883
 Alpha  occ. eigenvalues --   -0.34921  -0.24561
 Alpha virt. eigenvalues --    0.03431   0.04055   0.04390   0.04636   0.05655
 Alpha virt. eigenvalues --    0.06116   0.06420   0.06678   0.07397   0.07709
 Alpha virt. eigenvalues --    0.08990   0.09027   0.09508   0.12780   0.13162

 Mulliken charges:
               1
     1  C    0.507537
     2  C   -0.082624
     3  C    0.718832
     4  C    0.025058
     5  C    0.147974
     6  C    0.824346
     7  C   -0.109559
     8  H    0.032177
     9  H   -0.023752
    10  H   -0.074750
    11  H   -0.113373
    12  H   -0.335205
    13  H   -0.298020
    14  H   -0.325805
    15  H   -0.128815
    16  H    0.025657
    17  H    0.008139
    18  H   -0.403572
    19  H   -0.394245
 Sum of Mulliken charges =  -0.00000

 Dipole moment (field-independent basis, Debye):
    X=             -0.1662    Y=             -0.2195    Z=             -0.0007  Tot=              0.2754

 Test job not archived.
 1\1\GINC-SE226\SP\RHF\Aug-CC-pVDZ\C7H12\OHZDE\09-Apr-2025\0\\#t hf aug
 -cc-pvdz iop(5/13=1,5/36=2,99/5=2) pseudo=read geom=check guess=(read,
 tcheck) scf=(maxcycle=1)\\title\\0,1\C,0,-2.11339406,-0.79893554,-0.02
 973534\C,0,-1.53734917,0.59896332,0.11353324\C,0,-0.67083093,0.8197911
 2,1.26230028\C,0,1.50935161,0.1177935,0.03196643\C,0,2.55981291,-0.948
 35041,0.01744733\C,0,0.7146581,0.43105227,-1.03989028\C,0,-0.5543328,0
 .99317953,-0.95077851\H,0,-1.30525172,-1.53381378,-0.02894914\H,0,-2.7
 8566393,-1.02232495,0.80280052\H,0,-2.66669746,-0.90343583,-0.96489012

 Normal termination of Gaussian 16 at Wed Apr  9 15:48:37 2025.
