 Gaussian 16, Revision C.01,

 ----------------------------------------------------------------------
 #t hf aug-cc-pvdz symm=none int=(grid=ultrafine) guess=(read,tcheck) s
 table=(opt,rrhf)
 ----------------------------------------------------------------------
 -----
 title
 -----
 Symbolic Z-matrix:
 Charge =  0 Multiplicity = 1

 SCF Done:  E(RHF) =  -307.698978344     A.U. after   15 cycles

 1\1\GINC-SE113\Stability\RHF\Aug-CC-pVDZ\C6H10O1\OHZDE\09-Apr-2025\0\\
 #t hf aug-cc-pvdz symm=none int=(grid=ultrafine) guess=(read,tcheck) s
 table=(opt,rrhf)\\title\\0,1\C,0,1.86111991,-0.654935,0.08147068\C,0,0
 .63199966,0.13149827,0.49427539\C,0,0.36281243,1.43128087,-0.33545764\
 C,0,-1.16448169,1.64805494,-0.48238884\C,0,-1.4916014,0.52597481,0.037
 29073\C,0,-0.71153811,-0.6716515,0.42137176\O,0,-0.77055112,-1.7288563
 2,-0.50642513\H,0,1.795435,-0.98647216,-0.95672433\H,0,2.75145592,-0.0
 290247,0.17325889\H,0,2.0013096,-1.54073794,0.70284823\H,0,0.73338753,

 Normal termination of Gaussian 16 at Wed Apr  9 16:09:18 2025.
 Gaussian 16:  ES64L-G16RevC.01  3-Jul-2019

 ----------------------------------------------------------------------
 #t hf aug-cc-pvdz iop(5/13=1,5/36=2,99/5=2) pseudo=read geom=check gue
 ss=(read,tcheck) scf=(maxcycle=1)
 ----------------------------------------------------------------------
 -----
 title
 -----
 Structure from the checkpoint file:  "Grambow2020_wb97xd3_007814_forward_mol1.chk"
 Charge =  0 Multiplicity = 1

                         Standard orientation:
 ---------------------------------------------------------------------
 Center     Atomic      Atomic             Coordinates (Angstroms)
 Number     Number       Type             X           Y           Z
 ---------------------------------------------------------------------
      1          6           0       -2.112090   -0.136321   -0.050102
      2          6           0       -0.719068   -0.408342    0.483861
      3          6           0        0.079544   -1.521124   -0.273957
      4          6           0        1.585625   -1.157218   -0.296356
      5          6           0        1.430675    0.009557    0.204409
      6          6           0        0.234438    0.835155    0.483211
      7          8           0       -0.022695    1.832805   -0.476241
      8          1           0       -2.086047    0.189135   -1.091966
      9          1           0       -2.713069   -1.047078   -0.002854
     10          1           0       -2.621015    0.638446    0.525349
     11          1           0       -0.790864   -0.716769    1.530139
     12          1           0       -0.241411   -1.609309   -1.316187
     13          1           0       -0.072205   -2.500603    0.181044
     14          1           0        2.663040    1.073895   -0.067122
     15          1           0        2.756786    0.781118    0.655723
     16          1           0        0.230588    1.352888    1.441347
     17          1           0        0.061008    1.445591   -1.351940
 ---------------------------------------------------------------------

 SCF Done:  E(RHF) =  -307.793715393     A.U. after    2 cycles

 The electronic state is 1-A.
 Alpha  occ. eigenvalues --  -20.59066 -11.32518 -11.28670 -11.25452 -11.25244
 Alpha  occ. eigenvalues --  -11.23422 -11.21423  -1.35007  -1.14659  -1.02395
 Alpha  occ. eigenvalues --   -0.96242  -0.90328  -0.79915  -0.75422  -0.72089
 Alpha  occ. eigenvalues --   -0.66832  -0.63606  -0.60808  -0.58227  -0.56732
 Alpha  occ. eigenvalues --   -0.54148  -0.52078  -0.50126  -0.48804  -0.45048
 Alpha  occ. eigenvalues --   -0.39490  -0.35085
 Alpha virt. eigenvalues --    0.03140   0.04051   0.04189   0.04927   0.06055
 Alpha virt. eigenvalues --    0.06127   0.06950   0.07340   0.07717   0.09099
 Alpha virt. eigenvalues --    0.10739   0.11986   0.12685   0.12878   0.13415

 Mulliken charges:
               1
     1  C    0.774920
     2  C   -0.876215
     3  C    0.562202
     4  C   -0.541711
     5  C    0.340118
     6  C    0.746818
     7  O   -0.600241
     8  H   -0.040187
     9  H   -0.032369
    10  H   -0.042524
    11  H   -0.152841
    12  H   -0.103019
    13  H   -0.085376
    14  H    0.037382
    15  H    0.033148
    16  H   -0.184049
    17  H    0.163945
 Sum of Mulliken charges =  -0.00000

 Dipole moment (field-independent basis, Debye):
    X=             -1.3694    Y=              1.1516    Z=              0.8255  Tot=              1.9705

 Test job not archived.
 1\1\GINC-SE113\SP\RHF\Aug-CC-pVDZ\C6H10O1\OHZDE\09-Apr-2025\0\\#t hf a
 ug-cc-pvdz iop(5/13=1,5/36=2,99/5=2) pseudo=read geom=check guess=(rea
 d,tcheck) scf=(maxcycle=1)\\title\\0,1\C,0,1.86111991,-0.654935,0.0814
 7068\C,0,0.63199966,0.13149827,0.49427539\C,0,0.36281243,1.43128087,-0
 .33545764\C,0,-1.16448169,1.64805494,-0.48238884\C,0,-1.4916014,0.5259
 7481,0.03729073\C,0,-0.71153811,-0.6716515,0.42137176\O,0,-0.77055112,
 -1.72885632,-0.50642513\H,0,1.795435,-0.98647216,-0.95672433\H,0,2.751
 45592,-0.0290247,0.17325889\H,0,2.0013096,-1.54073794,0.70284823\H,0,0

 Normal termination of Gaussian 16 at Wed Apr  9 16:09:24 2025.
