 Gaussian 16, Revision C.01,

 ----------------------------------------------------------------------
 #t hf aug-cc-pvdz symm=none int=(grid=ultrafine) guess=(read,tcheck) s
 table=(opt,rrhf)
 ----------------------------------------------------------------------
 -----
 title
 -----
 Symbolic Z-matrix:
 Charge =  0 Multiplicity = 1

 SCF Done:  E(RHF) =  -359.540389505     A.U. after   17 cycles
 Normal termination of Gaussian 16 at Wed Apr  9 16:11:09 2025.
 Gaussian 16:  ES64L-G16RevC.01  3-Jul-2019

 ----------------------------------------------------------------------
 #t hf aug-cc-pvdz iop(5/13=1,5/36=2,99/5=2) pseudo=read geom=check gue
 ss=(read,tcheck) scf=(maxcycle=1)
 ----------------------------------------------------------------------
 -----
 title
 -----
 Structure from the checkpoint file:  "Grambow2020_wb97xd3_007895_forward_mol1.chk"
 Charge =  0 Multiplicity = 1

                         Standard orientation:
 ---------------------------------------------------------------------
 Center     Atomic      Atomic             Coordinates (Angstroms)
 Number     Number       Type             X           Y           Z
 ---------------------------------------------------------------------
      1          6           0        1.514439    1.423408    0.032449
      2          6           0        0.385781    0.457195   -0.157251
      3          7           0        0.556797   -0.827922   -0.291420
      4          8           0        1.776773   -1.236215    0.258223
      5          6           0       -0.953507    0.903360   -0.195032
      6          6           0       -1.766873   -0.857403   -0.189689
      7          8           0       -1.935584    0.244503    0.536756
      8          1           0        2.410449    1.092653   -0.490948
      9          1           0        1.220376    2.412298   -0.321941
     10          1           0        1.759601    1.512434    1.092841
     11          1           0        1.912804   -2.100658   -0.135005
     12          1           0       -1.235989    1.896349   -0.525237
     13          1           0       -2.089439   -0.845925   -1.222390
     14          1           0       -1.683934   -1.797364    0.339932
 ---------------------------------------------------------------------

 SCF Done:  E(RHF) =  -359.652016270     A.U. after    2 cycles

 The electronic state is 1-A.
 Alpha  occ. eigenvalues --  -20.63918 -20.59858 -15.66716 -11.35398 -11.28674
 Alpha  occ. eigenvalues --  -11.28518 -11.23488  -1.42891  -1.36761  -1.14208
 Alpha  occ. eigenvalues --   -0.98407  -0.94312  -0.89591  -0.76724  -0.70974
 Alpha  occ. eigenvalues --   -0.70134  -0.68944  -0.67254  -0.61674  -0.60372
 Alpha  occ. eigenvalues --   -0.57580  -0.55585  -0.54324  -0.49281  -0.45078
 Alpha  occ. eigenvalues --   -0.38039  -0.28928
 Alpha virt. eigenvalues --    0.03328   0.04085   0.04322   0.05391   0.06178
 Alpha virt. eigenvalues --    0.06850   0.07752   0.08506   0.10649   0.11220
 Alpha virt. eigenvalues --    0.11788   0.13241   0.14726   0.14861   0.15609

 Mulliken charges:
               1
     1  C    0.389705
     2  C    0.040016
     3  N   -0.301928
     4  O   -0.546703
     5  C    0.618693
     6  C    0.880574
     7  O   -0.603237
     8  H    0.005518
     9  H   -0.052970
    10  H    0.085656
    11  H    0.173845
    12  H   -0.364285
    13  H   -0.097997
    14  H   -0.226886
 Sum of Mulliken charges =  -0.00000

 Dipole moment (field-independent basis, Debye):
    X=             -0.3817    Y=             -0.5701    Z=             -1.3084  Tot=              1.4774

 Test job not archived.
 1\1\GINC-SE226\SP\RHF\Aug-CC-pVDZ\C4H7N1O2\OHZDE\09-Apr-2025\0\\#t hf
 aug-cc-pvdz iop(5/13=1,5/36=2,99/5=2) pseudo=read geom=check guess=(re
 ad,tcheck) scf=(maxcycle=1)\\title\\0,1\C,0,-1.45876734,-1.09823057,-0
 .42796619\C,0,-0.28194825,-0.20349899,-0.18718534\N,0,-0.36578792,0.94
 096015,0.43084101\O,0,-1.49460841,0.98909961,1.25582533\C,0,1.0099398,
 -0.56931571,-0.62466088\C,0,1.9526978,0.88086319,0.2528728\O,0,2.10326
 372,-0.44085731,0.22517521\H,0,-2.37153613,-0.5214343,-0.57056888\H,0,
 -1.27545504,-1.72623958,-1.30087502\H,0,-1.61051473,-1.75919331,0.4279

 Normal termination of Gaussian 16 at Wed Apr  9 16:11:14 2025.
