 Gaussian 16, Revision C.01,

 ----------------------------------------------------------------------
 #t hf aug-cc-pvdz symm=none int=(grid=ultrafine) guess=(read,tcheck) s
 table=(opt,rrhf)
 ----------------------------------------------------------------------
 -----
 title
 -----
 Symbolic Z-matrix:
 Charge =  0 Multiplicity = 1

 SCF Done:  E(RHF) =  -302.297950256     A.U. after   15 cycles
 Normal termination of Gaussian 16 at Wed Apr  9 13:51:01 2025.
 Gaussian 16:  ES64L-G16RevC.01  3-Jul-2019

 ----------------------------------------------------------------------
 #t hf aug-cc-pvdz iop(5/13=1,5/36=2,99/5=2) pseudo=read geom=check gue
 ss=(read,tcheck) scf=(maxcycle=1)
 ----------------------------------------------------------------------
 -----
 title
 -----
 Structure from the checkpoint file:  "Grambow2020_b97d3_006709_reverse_mol2.chk"
 Charge =  0 Multiplicity = 1

                         Standard orientation:
 ---------------------------------------------------------------------
 Center     Atomic      Atomic             Coordinates (Angstroms)
 Number     Number       Type             X           Y           Z
 ---------------------------------------------------------------------
      1          8           0        0.172763    1.846721   -0.001372
      2          6           0       -2.225857   -0.706021    0.000514
      3          6           0       -1.168108   -0.099416   -0.000030
      4          6           0        0.083930    0.622408    0.000182
      5          6           0        1.372550   -0.225035    0.002360
      6          8           0        1.389304   -1.438006   -0.002078
      7          1           0       -3.158330   -1.234597    0.001743
      8          1           0        2.286693    0.413266    0.007702
 ---------------------------------------------------------------------

 SCF Done:  E(RHF) =  -302.391113799     A.U. after    2 cycles

 The electronic state is 1-A.
 Alpha  occ. eigenvalues --  -20.62488 -20.62457 -11.40818 -11.38726 -11.30214
 Alpha  occ. eigenvalues --  -11.28792  -1.40589  -1.38915  -1.07540  -0.97463
 Alpha  occ. eigenvalues --   -0.87313  -0.75766  -0.72794  -0.72292  -0.68260
 Alpha  occ. eigenvalues --   -0.61852  -0.55495  -0.55388  -0.46734  -0.43973
 Alpha  occ. eigenvalues --   -0.43754
 Alpha virt. eigenvalues --    0.00751   0.03062   0.04152   0.08050   0.08069
 Alpha virt. eigenvalues --    0.08857   0.09671   0.11307   0.11341   0.12496
 Alpha virt. eigenvalues --    0.12979   0.14000   0.14543   0.15207   0.16834

 Mulliken charges:
               1
     1  O   -0.494493
     2  C    0.684013
     3  C    0.031175
     4  C   -0.032833
     5  C    0.668836
     6  O   -0.404479
     7  H   -0.373490
     8  H   -0.078728
 Sum of Mulliken charges =  -0.00000

 Dipole moment (field-independent basis, Debye):
    X=             -1.1528    Y=             -0.6853    Z=              0.0154  Tot=              1.3412

 Test job not archived.
 1\1\GINC-SE054\SP\RHF\Aug-CC-pVDZ\C4H2O2\OHZDE\09-Apr-2025\0\\#t hf au
 g-cc-pvdz iop(5/13=1,5/36=2,99/5=2) pseudo=read geom=check guess=(read
 ,tcheck) scf=(maxcycle=1)\\title\\0,1\O,0,-0.38951787,1.9426823,-0.139
 29836\C,0,-1.73457348,-1.28605782,-0.32886314\C,0,-0.9630608,-0.348774
 71,-0.21453624\C,0,-0.05127184,0.76423388,-0.07858596\C,0,1.43344121,0
 .41920971,0.15655259\O,0,1.86652717,-0.71183126,0.22569691\H,0,-2.4169
 5206,-2.10653196,-0.42927174\H,0,2.06011668,1.33616986,0.25441095\\Ver
 sion=ES64L-G16RevC.01\State=1-A\HF=-302.3911138\RMSD=7.193e-03\Dipole=

 Normal termination of Gaussian 16 at Wed Apr  9 13:51:04 2025.
