 Gaussian 16, Revision C.01,

 ----------------------------------------------------------------------
 #t hf aug-cc-pvdz symm=none int=(grid=ultrafine) guess=(read,tcheck) s
 table=(opt,rrhf)
 ----------------------------------------------------------------------
 -----
 title
 -----
 Symbolic Z-matrix:
 Charge =  0 Multiplicity = 1

 SCF Done:  E(RHF) =  -360.764343027     A.U. after   16 cycles
 Normal termination of Gaussian 16 at Wed Apr  9 16:37:15 2025.
 Gaussian 16:  ES64L-G16RevC.01  3-Jul-2019

 ----------------------------------------------------------------------
 #t hf aug-cc-pvdz iop(5/13=1,5/36=2,99/5=2) pseudo=read geom=check gue
 ss=(read,tcheck) scf=(maxcycle=1)
 ----------------------------------------------------------------------
 -----
 title
 -----
 Structure from the checkpoint file:  "Grambow2020_wb97xd3_008688_reverse_mol1.chk"
 Charge =  0 Multiplicity = 1

                         Standard orientation:
 ---------------------------------------------------------------------
 Center     Atomic      Atomic             Coordinates (Angstroms)
 Number     Number       Type             X           Y           Z
 ---------------------------------------------------------------------
      1          6           0        2.729610   -0.497642   -0.221065
      2          7           0        1.479467   -0.315807    0.486984
      3          6           0        0.279579   -0.368623   -0.171972
      4          6           0       -0.663629    0.866402   -0.073056
      5          8           0       -0.150454    1.961614    0.088265
      6          8           0       -1.871093    0.528275   -0.186438
      7          6           0       -2.027795   -1.563763    0.118664
      8          1           0        2.680410   -1.404464   -0.825292
      9          1           0        3.541288   -0.621817    0.495154
     10          1           0        2.964727    0.348766   -0.875465
     11          1           0        1.500489    0.387664    1.210448
     12          1           0       -0.522940   -1.128374    0.254185
     13          1           0        0.388044   -0.682626   -1.213842
     14          1           0       -2.572691   -1.456222   -0.805220
     15          1           0       -2.553471   -1.248568    1.006743
     16          1           0       -1.516339   -2.521072    0.214364
 ---------------------------------------------------------------------

 SCF Done:  E(RHF) =  -360.879487588     A.U. after    2 cycles

 The electronic state is 1-A.
 Alpha  occ. eigenvalues --  -20.53185 -20.50657 -15.63623 -11.37811 -11.34465
 Alpha  occ. eigenvalues --  -11.30935 -11.27540  -1.35061  -1.25698  -1.21356
 Alpha  occ. eigenvalues --   -1.01583  -0.98077  -0.88628  -0.75761  -0.70214
 Alpha  occ. eigenvalues --   -0.68045  -0.66753  -0.64763  -0.62828  -0.61146
 Alpha  occ. eigenvalues --   -0.59365  -0.58012  -0.54809  -0.54014  -0.42886
 Alpha  occ. eigenvalues --   -0.42365  -0.42166  -0.36280
 Alpha virt. eigenvalues --   -0.00206   0.02525   0.03800   0.04128   0.04779
 Alpha virt. eigenvalues --    0.06020   0.06756   0.06761   0.08605   0.08967
 Alpha virt. eigenvalues --    0.11387   0.11633   0.12177   0.14115   0.14879

 Mulliken charges:
               1
     1  C    0.701853
     2  N   -0.441730
     3  C    0.598968
     4  C    0.335741
     5  O   -0.552072
     6  O   -0.618322
     7  C    0.528441
     8  H   -0.139804
     9  H   -0.202799
    10  H   -0.073657
    11  H   -0.012226
    12  H   -0.063594
    13  H   -0.051402
    14  H   -0.020021
    15  H    0.028337
    16  H   -0.017714
 Sum of Mulliken charges =  -0.00000

 Dipole moment (field-independent basis, Debye):
    X=              0.9309    Y=             -7.6485    Z=              0.0718  Tot=              7.7052

 Test job not archived.
 1\1\GINC-SE138\SP\RHF\Aug-CC-pVDZ\C4H9N1O2\OHZDE\09-Apr-2025\0\\#t hf
 aug-cc-pvdz iop(5/13=1,5/36=2,99/5=2) pseudo=read geom=check guess=(re
 ad,tcheck) scf=(maxcycle=1)\\title\\0,1\C,0,-2.49922857,-0.09632968,0.
 40068051\N,0,-1.24064094,-0.47020635,-0.21040517\C,0,-0.06675522,0.127
 06564,0.16642864\C,0,0.78002506,0.83309349,-0.93320676\O,0,0.18935055,
 1.29543967,-1.89560146\O,0,2.0049419,0.82280956,-0.64229689\C,0,2.3366
 0707,-0.62202333,0.87319692\H,0,-2.40267421,-0.12570015,1.48679851\H,0
 ,-3.27031544,-0.81250785,0.1183255\H,0,-2.82506474,0.90638172,0.103483

 Normal termination of Gaussian 16 at Wed Apr  9 16:37:20 2025.
