 Gaussian 16, Revision C.01,

 ----------------------------------------------------------------------
 #t hf aug-cc-pvdz symm=none int=(grid=ultrafine) guess=(read,tcheck) s
 table=(opt,rrhf)
 ----------------------------------------------------------------------
 -----
 title
 -----
 Symbolic Z-matrix:
 Charge =  0 Multiplicity = 1

 SCF Done:  E(RHF) =  -281.685579556     A.U. after   14 cycles
 Normal termination of Gaussian 16 at Wed Apr  9 03:06:34 2025.
 Gaussian 16:  ES64L-G16RevC.01  3-Jul-2019

 ----------------------------------------------------------------------
 #t hf aug-cc-pvdz iop(5/13=1,5/36=2,99/5=2) pseudo=read geom=check gue
 ss=(read,tcheck) scf=(maxcycle=1)
 ----------------------------------------------------------------------
 -----
 title
 -----
 Structure from the checkpoint file:  "Grambow2020_b97d3_006583_reverse_mol2.chk"
 Charge =  0 Multiplicity = 1

                         Standard orientation:
 ---------------------------------------------------------------------
 Center     Atomic      Atomic             Coordinates (Angstroms)
 Number     Number       Type             X           Y           Z
 ---------------------------------------------------------------------
      1          8           0       -2.263680   -0.129531   -0.000815
      2          6           0       -1.022807    0.367855   -0.001798
      3          7           0        0.019967   -0.382608    0.002790
      4          6           0        1.253218    0.301835    0.002995
      5          8           0        2.328942   -0.260098   -0.003268
      6          1           0       -1.050771    1.466935   -0.008084
      7          1           0       -2.171581   -1.109871    0.003835
      8          1           0        1.178020    1.420082    0.010201
 ---------------------------------------------------------------------

 SCF Done:  E(RHF) =  -281.773749992     A.U. after    2 cycles

 The electronic state is 1-A.
 Alpha  occ. eigenvalues --  -20.66276 -20.57276 -15.65410 -11.41380 -11.38287
 Alpha  occ. eigenvalues --   -1.43427  -1.36342  -1.22173  -0.92852  -0.85846
 Alpha  occ. eigenvalues --   -0.75992  -0.72574  -0.65964  -0.65707  -0.63939
 Alpha  occ. eigenvalues --   -0.57027  -0.49766  -0.44415  -0.44087
 Alpha virt. eigenvalues --    0.02877   0.03550   0.05782   0.06907   0.08542
 Alpha virt. eigenvalues --    0.09985   0.11789   0.12328   0.13532   0.14615
 Alpha virt. eigenvalues --    0.15388   0.17254   0.17932   0.19679   0.20358

 Mulliken charges:
               1
     1  O   -0.410375
     2  C    0.788109
     3  N   -0.546190
     4  C    0.770575
     5  O   -0.443075
     6  H   -0.203391
     7  H    0.174317
     8  H   -0.129970
 Sum of Mulliken charges =  -0.00000

 Dipole moment (field-independent basis, Debye):
    X=             -3.8792    Y=              2.2254    Z=              0.0118  Tot=              4.4722

 Test job not archived.
 1\1\GINC-SE090\SP\RHF\Aug-CC-pVDZ\C2H3N1O2\OHZDE\09-Apr-2025\0\\#t hf
 aug-cc-pvdz iop(5/13=1,5/36=2,99/5=2) pseudo=read geom=check guess=(re
 ad,tcheck) scf=(maxcycle=1)\\title\\0,1\O,0,-2.04122233,0.35568915,0.1
 9195272\C,0,-0.81379832,-0.04773034,-0.15132856\N,0,0.24062578,0.35736
 86,0.46078082\C,0,1.45693227,-0.1630548,-0.02822677\O,0,2.53974912,0.1
 1196158,0.44597123\H,0,-0.8633572,-0.74661453,-0.99861941\H,0,-1.93013
 909,0.97358658,0.95052658\H,0,1.36093277,-0.86034123,-0.90044161\\Vers
 ion=ES64L-G16RevC.01\State=1-A\HF=-281.77375\RMSD=2.481e-03\Dipole=-1.

 Normal termination of Gaussian 16 at Wed Apr  9 03:06:36 2025.
