 Gaussian 16, Revision C.01,

 ----------------------------------------------------------------------
 #t hf aug-cc-pvdz symm=none int=(grid=ultrafine) guess=(read,tcheck) s
 table=(opt,rrhf)
 ----------------------------------------------------------------------
 -----
 title
 -----
 Symbolic Z-matrix:
 Charge =  0 Multiplicity = 1

 SCF Done:  E(RHF) =  -304.543646561     A.U. after   16 cycles
 Normal termination of Gaussian 16 at Wed Apr  9 14:16:04 2025.
 Gaussian 16:  ES64L-G16RevC.01  3-Jul-2019

 ----------------------------------------------------------------------
 #t hf aug-cc-pvdz iop(5/13=1,5/36=2,99/5=2) pseudo=read geom=check gue
 ss=(read,tcheck) scf=(maxcycle=1)
 ----------------------------------------------------------------------
 -----
 title
 -----
 Structure from the checkpoint file:  "Grambow2020_b97d3_006925_forward_mol1.chk"
 Charge =  0 Multiplicity = 1

                         Standard orientation:
 ---------------------------------------------------------------------
 Center     Atomic      Atomic             Coordinates (Angstroms)
 Number     Number       Type             X           Y           Z
 ---------------------------------------------------------------------
      1          8           0        1.549329   -0.822567    0.464229
      2          6           0        0.609518   -0.014786   -0.117452
      3          6           0        0.876719    1.285037   -0.510448
      4          6           0       -1.022658    0.367456    1.034995
      5          8           0       -1.661248   -0.058799   -0.084670
      6          6           0       -0.560137   -0.804314   -0.688284
      7          1           0        2.362229   -0.296613    0.600357
      8          1           0        1.696329    1.845636   -0.060536
      9          1           0        0.188957    1.820391   -1.157398
     10          1           0       -1.572432    1.281162    1.381671
     11          1           0       -0.655677   -0.757842   -1.779809
     12          1           0       -0.544702   -1.842162   -0.333619
 ---------------------------------------------------------------------

 SCF Done:  E(RHF) =  -304.637418925     A.U. after    2 cycles

 The electronic state is 1-A.
 Alpha  occ. eigenvalues --  -20.62214 -20.61328 -11.34976 -11.32123 -11.31855
 Alpha  occ. eigenvalues --  -11.23275  -1.39617  -1.36736  -1.04610  -0.96394
 Alpha  occ. eigenvalues --   -0.86741  -0.78354  -0.71553  -0.69963  -0.67932
 Alpha  occ. eigenvalues --   -0.63756  -0.59643  -0.58138  -0.55843  -0.54502
 Alpha  occ. eigenvalues --   -0.51291  -0.41314  -0.30280
 Alpha virt. eigenvalues --    0.03324   0.04478   0.04783   0.04899   0.06705
 Alpha virt. eigenvalues --    0.07128   0.08221   0.09411   0.10998   0.11891
 Alpha virt. eigenvalues --    0.13338   0.14092   0.15138   0.15397   0.15781

 Mulliken charges:
               1
     1  O   -0.630534
     2  C    0.143499
     3  C    0.805224
     4  C    0.357702
     5  O   -0.630543
     6  C    0.949848
     7  H    0.181451
     8  H   -0.361660
     9  H   -0.345699
    10  H   -0.214338
    11  H   -0.100918
    12  H   -0.154034
 Sum of Mulliken charges =  -0.00000

 Dipole moment (field-independent basis, Debye):
    X=              1.1019    Y=              0.6957    Z=             -0.8278  Tot=              1.5438

 Test job not archived.
 1\1\GINC-SE112\SP\RHF\Aug-CC-pVDZ\C4H6O2\OHZDE\09-Apr-2025\0\\#t hf au
 g-cc-pvdz iop(5/13=1,5/36=2,99/5=2) pseudo=read geom=check guess=(read
 ,tcheck) scf=(maxcycle=1)\\title\\0,1\O,0,0.31689622,-1.49816518,-1.01
 95278\C,0,0.01907166,-0.52636941,-0.10245543\C,0,-1.13458662,-0.543912
 72,0.6618388\C,0,-0.1797212,1.34592572,-0.87267204\O,0,0.71397491,1.62
 566225,0.11028008\C,0,1.24408573,0.27923119,0.30698907\H,0,-0.43975046
 ,-2.11556622,-1.06713544\H,0,-2.01386722,-1.09667921,0.33052621\H,0,-1
 .23880741,0.1095944,1.52220612\H,0,-0.95174502,2.15828018,-0.83588933\

 Normal termination of Gaussian 16 at Wed Apr  9 14:16:08 2025.
