 Gaussian 16, Revision C.01,

 ----------------------------------------------------------------------
 #t hf aug-cc-pvdz symm=none int=(grid=ultrafine) guess=(read,tcheck) s
 table=(opt,rrhf)
 ----------------------------------------------------------------------
 -----
 title
 -----
 Symbolic Z-matrix:
 Charge =  0 Multiplicity = 1

 SCF Done:  E(RHF) =  -272.052679448     A.U. after   13 cycles
 Normal termination of Gaussian 16 at Wed Apr  9 15:53:21 2025.
 Gaussian 16:  ES64L-G16RevC.01  3-Jul-2019

 ----------------------------------------------------------------------
 #t hf aug-cc-pvdz iop(5/13=1,5/36=2,99/5=2) pseudo=read geom=check gue
 ss=(read,tcheck) scf=(maxcycle=1)
 ----------------------------------------------------------------------
 -----
 title
 -----
 Structure from the checkpoint file:  "Grambow2020_wb97xd3_007430_reverse_mol2.chk"
 Charge =  0 Multiplicity = 1

                         Standard orientation:
 ---------------------------------------------------------------------
 Center     Atomic      Atomic             Coordinates (Angstroms)
 Number     Number       Type             X           Y           Z
 ---------------------------------------------------------------------
      1          6           0        1.036479    1.917583    0.360656
      2          6           0        1.103139    0.756153   -0.630027
      3          6           0        0.826859   -0.588491   -0.008925
      4          6           0       -0.521376   -0.776259    0.650093
      5          6           0       -1.667132   -0.545493   -0.293471
      6          6           0       -2.626634    0.349548   -0.117857
      7          6           0        1.719782   -1.570198   -0.040821
      8          1           0        1.308193    2.854336   -0.128405
      9          1           0        1.722406    1.759747    1.195775
     10          1           0        0.030875    2.040590    0.766954
     11          1           0        0.374588    0.933456   -1.428344
     12          1           0        2.087795    0.729983   -1.101656
     13          1           0        1.514988   -2.539279    0.400437
     14          1           0       -0.618491   -0.095824    1.501695
     15          1           0       -0.578498   -1.793222    1.047695
     16          1           0       -1.680772   -1.172752   -1.182508
     17          1           0       -3.431237    0.468082   -0.833371
     18          1           0       -2.644789    0.996026    0.754007
     19          1           0        2.688241   -1.438193   -0.510171
 ---------------------------------------------------------------------

 SCF Done:  E(RHF) =  -272.139059332     A.U. after    2 cycles

 The electronic state is 1-A.
 Alpha  occ. eigenvalues --  -11.24483 -11.24459 -11.23871 -11.23188 -11.23054
 Alpha  occ. eigenvalues --  -11.22371 -11.22151  -1.10618  -1.04485  -0.99176
 Alpha  occ. eigenvalues --   -0.92489  -0.85337  -0.76990  -0.71768  -0.65680
 Alpha  occ. eigenvalues --   -0.63579  -0.61005  -0.60094  -0.57805  -0.55090
 Alpha  occ. eigenvalues --   -0.52029  -0.51373  -0.49372  -0.48280  -0.47249
 Alpha  occ. eigenvalues --   -0.36892  -0.35420
 Alpha virt. eigenvalues --    0.03559   0.04249   0.04397   0.04630   0.05759
 Alpha virt. eigenvalues --    0.06330   0.06548   0.06895   0.07467   0.08804
 Alpha virt. eigenvalues --    0.09191   0.09552   0.11394   0.12228   0.12376

 Mulliken charges:
               1
     1  C    0.398274
     2  C    0.144477
     3  C   -0.644905
     4  C    0.377880
     5  C    0.691060
     6  C    0.444987
     7  C    1.227441
     8  H   -0.104105
     9  H   -0.073945
    10  H   -0.145136
    11  H   -0.001893
    12  H   -0.202436
    13  H   -0.401213
    14  H   -0.099780
    15  H   -0.123875
    16  H   -0.438717
    17  H   -0.319115
    18  H   -0.328168
    19  H   -0.400832
 Sum of Mulliken charges =  -0.00000

 Dipole moment (field-independent basis, Debye):
    X=             -0.0712    Y=              0.3014    Z=             -0.0117  Tot=              0.3099

 Test job not archived.
 1\1\GINC-SE168\SP\RHF\Aug-CC-pVDZ\C7H12\OHZDE\09-Apr-2025\0\\#t hf aug
 -cc-pvdz iop(5/13=1,5/36=2,99/5=2) pseudo=read geom=check guess=(read,
 tcheck) scf=(maxcycle=1)\\title\\0,1\C,0,1.70666932,0.32214632,-1.1380
 4524\C,0,0.99120787,-0.86122292,-0.48799404\C,0,0.36763507,-0.53637495
 ,0.84459628\C,0,-0.68194232,0.55234046,0.86420748\C,0,-1.84285489,0.25
 740626,-0.04222524\C,0,-2.24236611,1.03038678,-1.03995967\C,0,0.714824
 56,-1.17741395,1.9539227\H,0,2.19306318,0.01366769,-2.06474762\H,0,2.4
 7120015,0.73052447,-0.47355095\H,0,1.00973453,1.12476894,-1.38608903\H

 Normal termination of Gaussian 16 at Wed Apr  9 15:53:29 2025.
