 Gaussian 16, Revision C.01,

 ----------------------------------------------------------------------
 #t hf aug-cc-pvdz symm=none int=(grid=ultrafine) guess=(read,tcheck) s
 table=(opt,rrhf)
 ----------------------------------------------------------------------
 -----
 title
 -----
 Symbolic Z-matrix:
 Charge =  0 Multiplicity = 1

 SCF Done:  E(RHF) =  -308.915709148     A.U. after   15 cycles

 1\1\GINC-SE174\Stability\RHF\Aug-CC-pVDZ\C6H12O1\OHZDE\09-Apr-2025\0\\
 #t hf aug-cc-pvdz symm=none int=(grid=ultrafine) guess=(read,tcheck) s
 table=(opt,rrhf)\\title\\0,1\C,0,-2.01212357,-1.00615297,-0.81576286\C
 ,0,-0.80299999,-0.23244841,-0.46119046\C,0,-0.81511402,1.02508792,1.06
 981691\C,0,-0.03859616,-0.41433754,0.68148592\O,0,1.8144315,-1.6524260
 8,0.47384314\C,0,1.55023204,-0.39319262,0.69549368\C,0,2.12355759,0.60
 006714,-0.32692139\H,0,-2.75402719,-0.4121624,-1.34913602\H,0,-1.66847
 04,-1.79482677,-1.49703502\H,0,-2.4582342,-1.49232539,0.0505535\H,0,-0

 Normal termination of Gaussian 16 at Wed Apr  9 16:01:26 2025.
 Gaussian 16:  ES64L-G16RevC.01  3-Jul-2019

 ----------------------------------------------------------------------
 #t hf aug-cc-pvdz iop(5/13=1,5/36=2,99/5=2) pseudo=read geom=check gue
 ss=(read,tcheck) scf=(maxcycle=1)
 ----------------------------------------------------------------------
 -----
 title
 -----
 Structure from the checkpoint file:  "Grambow2020_wb97xd3_007696_forward_mol1.chk"
 Charge =  0 Multiplicity = 1

                         Standard orientation:
 ---------------------------------------------------------------------
 Center     Atomic      Atomic             Coordinates (Angstroms)
 Number     Number       Type             X           Y           Z
 ---------------------------------------------------------------------
      1          6           0        2.387882   -0.873566    0.341636
      2          6           0        1.115097   -0.129943    0.457242
      3          6           0        0.853334    1.588542   -0.493450
      4          6           0        0.190882    0.045097   -0.561725
      5          8           0       -1.568823   -1.337919   -0.581477
      6          6           0       -1.381242   -0.065234   -0.358577
      7          6           0       -1.822156    0.443551    1.022485
      8          1           0        3.183703   -0.449180    0.953434
      9          1           0        2.177429   -1.880023    0.725029
     10          1           0        2.711149   -0.977544   -0.693047
     11          1           0        0.842196    0.237292    1.443343
     12          1           0        0.519182    1.891690   -1.486634
     13          1           0        1.933812    1.742268   -0.463282
     14          1           0        0.358162    2.182423    0.266577
     15          1           0        0.454518   -0.394328   -1.519940
     16          1           0       -1.804250    0.645033   -1.119073
     17          1           0       -1.419843   -0.198016    1.810706
     18          1           0       -2.908600    0.363001    1.067999
     19          1           0       -1.559652    1.490053    1.221043
 ---------------------------------------------------------------------

 SCF Done:  E(RHF) =  -309.013076170     A.U. after    2 cycles

 The electronic state is 1-A.
 Alpha  occ. eigenvalues --  -20.40360 -11.36817 -11.30870 -11.29227 -11.27886
 Alpha  occ. eigenvalues --  -11.25809 -11.19798  -1.20290  -1.15794  -1.03767
 Alpha  occ. eigenvalues --   -0.94979  -0.92694  -0.84698  -0.76151  -0.68095
 Alpha  occ. eigenvalues --   -0.66493  -0.64354  -0.61182  -0.60510  -0.59189
 Alpha  occ. eigenvalues --   -0.57987  -0.54726  -0.50966  -0.49915  -0.47821
 Alpha  occ. eigenvalues --   -0.46955  -0.31538  -0.31188
 Alpha virt. eigenvalues --    0.01515   0.02938   0.03381   0.04342   0.05111
 Alpha virt. eigenvalues --    0.05905   0.06140   0.06514   0.07018   0.07857
 Alpha virt. eigenvalues --    0.08646   0.08999   0.10009   0.11980   0.12781

 Mulliken charges:
               1
     1  C    0.383501
     2  C   -0.019287
     3  C    0.416551
     4  C    0.171959
     5  O   -0.981191
     6  C    0.570760
     7  C    0.388857
     8  H    0.029801
     9  H    0.152085
    10  H    0.002913
    11  H   -0.314805
    12  H    0.005076
    13  H   -0.024608
    14  H   -0.138105
    15  H   -0.360445
    16  H   -0.095309
    17  H   -0.005740
    18  H   -0.084713
    19  H   -0.097299
 Sum of Mulliken charges =  -0.00000

 Dipole moment (field-independent basis, Debye):
    X=              8.5117    Y=              5.0959    Z=              1.9255  Tot=             10.1057

 Test job not archived.
 1\1\GINC-SE174\SP\RHF\Aug-CC-pVDZ\C6H12O1\OHZDE\09-Apr-2025\0\\#t hf a
 ug-cc-pvdz iop(5/13=1,5/36=2,99/5=2) pseudo=read geom=check guess=(rea
 d,tcheck) scf=(maxcycle=1)\\title\\0,1\C,0,-2.01212357,-1.00615297,-0.
 81576286\C,0,-0.80299999,-0.23244841,-0.46119046\C,0,-0.81511402,1.025
 08792,1.06981691\C,0,-0.03859616,-0.41433754,0.68148592\O,0,1.8144315,
 -1.65242608,0.47384314\C,0,1.55023204,-0.39319262,0.69549368\C,0,2.123
 55759,0.60006714,-0.32692139\H,0,-2.75402719,-0.4121624,-1.34913602\H,
 0,-1.6684704,-1.79482677,-1.49703502\H,0,-2.4582342,-1.49232539,0.0505

 Normal termination of Gaussian 16 at Wed Apr  9 16:01:34 2025.
