 Gaussian 16, Revision C.01,

 ----------------------------------------------------------------------
 #t hf aug-cc-pvdz symm=none int=(grid=ultrafine) guess=(read,tcheck) s
 table=(opt,rrhf)
 ----------------------------------------------------------------------
 -----
 title
 -----
 Symbolic Z-matrix:
 Charge =  0 Multiplicity = 1

 SCF Done:  E(RHF) =  -308.908631211     A.U. after   15 cycles

 1\1\GINC-SE222\Stability\RHF\Aug-CC-pVDZ\C6H12O1\OHZDE\09-Apr-2025\0\\
 #t hf aug-cc-pvdz symm=none int=(grid=ultrafine) guess=(read,tcheck) s
 table=(opt,rrhf)\\title\\0,1\C,0,2.4559203,-0.56731661,-0.39458621\O,0
 ,1.06581617,-0.68519825,-0.19122045\C,0,0.5698532,0.1541405,0.78839231
 \C,0,0.06305911,1.50790844,0.31415738\C,0,-1.25445933,1.05314769,-0.30
 551854\C,0,-1.57297208,-0.12318796,0.60798456\C,0,-1.81468713,-1.40452
 264,-0.11076391\H,0,3.01000693,-0.7983963,0.52316966\H,0,2.73226359,0.
 43791324,-0.73167588\H,0,2.72608699,-1.28665034,-1.16569511\H,0,1.2096

 Normal termination of Gaussian 16 at Wed Apr  9 03:54:04 2025.
 Gaussian 16:  ES64L-G16RevC.01  3-Jul-2019

 ----------------------------------------------------------------------
 #t hf aug-cc-pvdz iop(5/13=1,5/36=2,99/5=2) pseudo=read geom=check gue
 ss=(read,tcheck) scf=(maxcycle=1)
 ----------------------------------------------------------------------
 -----
 title
 -----
 Structure from the checkpoint file:  "Grambow2020_wb97xd3_008403_reverse_mol1.chk"
 Charge =  0 Multiplicity = 1

                         Standard orientation:
 ---------------------------------------------------------------------
 Center     Atomic      Atomic             Coordinates (Angstroms)
 Number     Number       Type             X           Y           Z
 ---------------------------------------------------------------------
      1          6           0        2.494557   -0.477202   -0.265874
      2          8           0        1.101514   -0.630085   -0.111923
      3          6           0        0.521756    0.316366    0.711620
      4          6           0       -0.013092    1.563100    0.023131
      5          6           0       -1.277098    0.962963   -0.584145
      6          6           0       -1.595881   -0.084413    0.474668
      7          6           0       -1.748239   -1.465255   -0.060969
      8          1           0        3.008530   -0.548418    0.700276
      9          1           0        2.747861    0.481411   -0.732115
     10          1           0        2.833285   -1.285839   -0.911172
     11          1           0        1.113374    0.471667    1.624777
     12          1           0       -0.263308    2.302767    0.785796
     13          1           0        0.684329    2.020388   -0.681053
     14          1           0       -1.046210    0.527966   -1.565439
     15          1           0       -2.098832    1.671292   -0.713748
     16          1           0       -0.544546   -0.068310    1.266085
     17          1           0       -2.725026   -1.440253   -0.563177
     18          1           0       -1.009574   -1.755453   -0.819973
     19          1           0       -1.804021   -2.229896    0.714545
 ---------------------------------------------------------------------

 SCF Done:  E(RHF) =  -309.005194569     A.U. after    2 cycles

 The electronic state is 1-A.
 Alpha  occ. eigenvalues --  -20.58959 -11.31955 -11.29659 -11.24115 -11.23791
 Alpha  occ. eigenvalues --  -11.22482 -11.21493  -1.36412  -1.10524  -0.98907
 Alpha  occ. eigenvalues --   -0.96186  -0.89023  -0.83454  -0.74527  -0.70181
 Alpha  occ. eigenvalues --   -0.66308  -0.64849  -0.60987  -0.59948  -0.58099
 Alpha  occ. eigenvalues --   -0.55993  -0.52032  -0.51832  -0.50253  -0.47955
 Alpha  occ. eigenvalues --   -0.45816  -0.44391  -0.29582
 Alpha virt. eigenvalues --    0.03161   0.04371   0.04581   0.04821   0.06175
 Alpha virt. eigenvalues --    0.06235   0.06705   0.06841   0.07515   0.09017
 Alpha virt. eigenvalues --    0.09267   0.09797   0.11521   0.12186   0.12723

 Mulliken charges:
               1
     1  C    0.684113
     2  O   -0.665412
     3  C    0.647659
     4  C    0.336042
     5  C    0.411232
     6  C   -0.912342
     7  C    0.552181
     8  H   -0.085632
     9  H   -0.062660
    10  H   -0.264296
    11  H   -0.172930
    12  H   -0.080570
    13  H   -0.185678
    14  H   -0.109479
    15  H   -0.085079
    16  H    0.151661
    17  H    0.012173
    18  H   -0.060532
    19  H   -0.110450
 Sum of Mulliken charges =  -0.00000

 Dipole moment (field-independent basis, Debye):
    X=              2.8253    Y=              0.7713    Z=             -0.6148  Tot=              2.9925

 Test job not archived.
 1\1\GINC-SE222\SP\RHF\Aug-CC-pVDZ\C6H12O1\OHZDE\09-Apr-2025\0\\#t hf a
 ug-cc-pvdz iop(5/13=1,5/36=2,99/5=2) pseudo=read geom=check guess=(rea
 d,tcheck) scf=(maxcycle=1)\\title\\0,1\C,0,2.4559203,-0.56731661,-0.39
 458621\O,0,1.06581617,-0.68519825,-0.19122045\C,0,0.5698532,0.1541405,
 0.78839231\C,0,0.06305911,1.50790844,0.31415738\C,0,-1.25445933,1.0531
 4769,-0.30551854\C,0,-1.57297208,-0.12318796,0.60798456\C,0,-1.8146871
 3,-1.40452264,-0.11076391\H,0,3.01000693,-0.7983963,0.52316966\H,0,2.7
 3226359,0.43791324,-0.73167588\H,0,2.72608699,-1.28665034,-1.16569511\

 Normal termination of Gaussian 16 at Wed Apr  9 03:54:12 2025.
