 Gaussian 16, Revision C.01,

 ----------------------------------------------------------------------
 #t hf aug-cc-pvdz symm=none int=(grid=ultrafine) guess=(read,tcheck) s
 table=(opt,rrhf)
 ----------------------------------------------------------------------
 -----
 title
 -----
 Symbolic Z-matrix:
 Charge =  0 Multiplicity = 1

 SCF Done:  E(RHF) =  -359.637933620     A.U. after   15 cycles
 Normal termination of Gaussian 16 at Wed Apr  9 03:51:37 2025.
 Gaussian 16:  ES64L-G16RevC.01  3-Jul-2019

 ----------------------------------------------------------------------
 #t hf aug-cc-pvdz iop(5/13=1,5/36=2,99/5=2) pseudo=read geom=check gue
 ss=(read,tcheck) scf=(maxcycle=1)
 ----------------------------------------------------------------------
 -----
 title
 -----
 Structure from the checkpoint file:  "Grambow2020_wb97xd3_008277_reverse_mol1.chk"
 Charge =  0 Multiplicity = 1

                         Standard orientation:
 ---------------------------------------------------------------------
 Center     Atomic      Atomic             Coordinates (Angstroms)
 Number     Number       Type             X           Y           Z
 ---------------------------------------------------------------------
      1          6           0       -2.364182   -0.561949    0.027768
      2          6           0       -1.052893    0.029670   -0.375771
      3          6           0       -0.513550    1.216284    0.390110
      4          7           0        0.806932    1.073489   -0.288621
      5          6           0        1.171074   -0.332190    0.009897
      6          8           0        2.293114   -0.711853    0.144268
      7          8           0        0.039913   -0.961187    0.006382
      8          1           0       -2.414697   -0.845412    1.088016
      9          1           0       -2.587520   -1.446130   -0.569970
     10          1           0       -3.152916    0.167651   -0.169018
     11          1           0        0.205593    0.860633   -1.244484
     12          1           0       -0.386052    1.121167    1.477255
     13          1           0       -0.983239    2.158782    0.116682
     14          1           0        1.563390    1.742317   -0.195360
 ---------------------------------------------------------------------

 SCF Done:  E(RHF) =  -359.749251222     A.U. after    2 cycles

 The electronic state is 1-A.
 Alpha  occ. eigenvalues --  -20.62060 -20.57700 -15.74678 -11.44415 -11.30868
 Alpha  occ. eigenvalues --  -11.25465 -11.22033  -1.45705  -1.36013  -1.26561
 Alpha  occ. eigenvalues --   -1.03953  -0.94708  -0.85408  -0.84058  -0.78798
 Alpha  occ. eigenvalues --   -0.71581  -0.67353  -0.67126  -0.61635  -0.59449
 Alpha  occ. eigenvalues --   -0.57136  -0.55932  -0.53787  -0.51363  -0.49883
 Alpha  occ. eigenvalues --   -0.48723  -0.29967
 Alpha virt. eigenvalues --    0.02024   0.03765   0.04157   0.05112   0.06567
 Alpha virt. eigenvalues --    0.07160   0.07339   0.09722   0.10509   0.11663
 Alpha virt. eigenvalues --    0.12734   0.13049   0.14015   0.14743   0.15590

 Mulliken charges:
               1
     1  C    0.483400
     2  C   -0.744149
     3  C    0.843592
     4  N   -0.601484
     5  C    0.730653
     6  O   -0.408529
     7  O   -0.500424
     8  H    0.029261
     9  H   -0.060880
    10  H   -0.001786
    11  H    0.508898
    12  H   -0.163525
    13  H   -0.081711
    14  H   -0.033317
 Sum of Mulliken charges =  -0.00000

 Dipole moment (field-independent basis, Debye):
    X=             -0.8291    Y=              5.2318    Z=              0.5240  Tot=              5.3230

 Test job not archived.
 1\1\GINC-SE322\SP\RHF\Aug-CC-pVDZ\C4H7N1O2\OHZDE\09-Apr-2025\0\\#t hf
 aug-cc-pvdz iop(5/13=1,5/36=2,99/5=2) pseudo=read geom=check guess=(re
 ad,tcheck) scf=(maxcycle=1)\\title\\0,1\C,0,-1.7319107,-1.00143099,-0.
 10514638\C,0,-0.4233856,-0.36221568,-0.43906667\C,0,-0.11820206,1.0164
 0091,0.10111315\N,0,1.30490727,0.88529765,-0.32586506\C,0,1.72563548,-
 0.37045263,0.34026158\O,0,2.83589197,-0.57867918,0.72124035\O,0,0.6656
 6226,-1.11282799,0.31764919\H,0,-1.9373239,-1.0530969,0.97289168\H,0,-
 1.77935154,-2.01371071,-0.50762001\H,0,-2.53241204,-0.42859932,-0.5786

 Normal termination of Gaussian 16 at Wed Apr  9 03:51:42 2025.
