 Gaussian 16, Revision C.01,

 ----------------------------------------------------------------------
 #t hf aug-cc-pvdz symm=none int=(grid=ultrafine) guess=(read,tcheck) s
 table=(opt,rrhf)
 ----------------------------------------------------------------------
 -----
 title
 -----
 Symbolic Z-matrix:
 Charge =  0 Multiplicity = 1

 SCF Done:  E(RHF) =  -338.597994890     A.U. after   15 cycles
 Normal termination of Gaussian 16 at Wed Apr  9 03:59:39 2025.
 Gaussian 16:  ES64L-G16RevC.01  3-Jul-2019

 ----------------------------------------------------------------------
 #t hf aug-cc-pvdz iop(5/13=1,5/36=2,99/5=2) pseudo=read geom=check gue
 ss=(read,tcheck) scf=(maxcycle=1)
 ----------------------------------------------------------------------
 -----
 title
 -----
 Structure from the checkpoint file:  "Grambow2020_wb97xd3_008802_reverse_mol1.chk"
 Charge =  0 Multiplicity = 1

                         Standard orientation:
 ---------------------------------------------------------------------
 Center     Atomic      Atomic             Coordinates (Angstroms)
 Number     Number       Type             X           Y           Z
 ---------------------------------------------------------------------
      1          7           0        1.850432   -0.949449    0.000649
      2          6           0        0.477085   -0.662525    0.044830
      3          6           0        0.036583    0.721977    0.069782
      4          8           0        0.717767    1.880347   -0.038744
      5          7           0       -1.305654    0.687974   -0.054004
      6          6           0       -1.696634   -0.657521   -0.063611
      7          6           0       -0.658242   -1.546941   -0.004251
      8          1           0        2.224393   -0.789732   -0.925713
      9          1           0        1.991734   -1.923535    0.234990
     10          1           0        1.659475    1.681593   -0.012870
     11          1           0       -1.892175    1.500333    0.030920
     12          1           0       -2.761405   -0.850755   -0.096819
     13          1           0        0.269637    0.039703    1.172433
 ---------------------------------------------------------------------

 SCF Done:  E(RHF) =  -338.697995269     A.U. after    2 cycles

 The electronic state is 1-A.
 Alpha  occ. eigenvalues --  -20.65104 -15.68275 -15.64736 -11.39588 -11.32698
 Alpha  occ. eigenvalues --  -11.25960 -11.16308  -1.42628  -1.28559  -1.20115
 Alpha  occ. eigenvalues --   -1.03954  -0.98482  -0.83821  -0.79401  -0.78148
 Alpha  occ. eigenvalues --   -0.71752  -0.69412  -0.66901  -0.63324  -0.61965
 Alpha  occ. eigenvalues --   -0.56463  -0.54961  -0.46968  -0.40389  -0.31211
 Alpha  occ. eigenvalues --   -0.30277
 Alpha virt. eigenvalues --    0.02268   0.03294   0.04442   0.04933   0.06328
 Alpha virt. eigenvalues --    0.07314   0.10011   0.10783   0.11500   0.12383
 Alpha virt. eigenvalues --    0.12850   0.14240   0.14793   0.15345   0.15731

 Mulliken charges:
               1
     1  N   -0.339090
     2  C    0.269721
     3  C    0.404158
     4  O   -0.525383
     5  N   -0.410993
     6  C    0.869217
     7  C   -0.426193
     8  H    0.028434
     9  H    0.057438
    10  H    0.179352
    11  H   -0.089080
    12  H   -0.331449
    13  H    0.313867
 Sum of Mulliken charges =  -0.00000

 Dipole moment (field-independent basis, Debye):
    X=              2.0024    Y=              4.4394    Z=             -0.1470  Tot=              4.8723

 Test job not archived.
 1\1\GINC-SE162\SP\RHF\Aug-CC-pVDZ\C4H6N2O1\OHZDE\09-Apr-2025\0\\#t hf
 aug-cc-pvdz iop(5/13=1,5/36=2,99/5=2) pseudo=read geom=check guess=(re
 ad,tcheck) scf=(maxcycle=1)\\title\\0,1\N,0,-1.76197541,0.87492108,-0.
 04394721\C,0,-0.39437164,0.55870313,-0.04884766\C,0,0.0224803,-0.81481
 782,0.17739307\O,0,-0.68504261,-1.95436334,0.31325411\N,0,1.35220108,-
 0.84173881,-0.04441133\C,0,1.76486402,0.47120615,-0.30747157\C,0,0.749
 46925,1.38853627,-0.32556863\H,0,-2.20645878,0.57451052,-0.90167134\H,
 0,-1.86841691,1.87817564,0.0327031\H,0,-1.61860419,-1.7262077,0.371506

 Normal termination of Gaussian 16 at Wed Apr  9 03:59:43 2025.
