 Gaussian 16, Revision C.01,

 ----------------------------------------------------------------------
 #t hf aug-cc-pvdz symm=none int=(grid=ultrafine) guess=(read,tcheck) s
 table=(opt,rrhf)
 ----------------------------------------------------------------------
 -----
 title
 -----
 Symbolic Z-matrix:
 Charge =  0 Multiplicity = 1

 SCF Done:  E(RHF) =  -317.621487886     A.U. after   16 cycles
 Normal termination of Gaussian 16 at Wed Apr  9 16:10:46 2025.
 Gaussian 16:  ES64L-G16RevC.01  3-Jul-2019

 ----------------------------------------------------------------------
 #t hf aug-cc-pvdz iop(5/13=1,5/36=2,99/5=2) pseudo=read geom=check gue
 ss=(read,tcheck) scf=(maxcycle=1)
 ----------------------------------------------------------------------
 -----
 title
 -----
 Structure from the checkpoint file:  "Grambow2020_wb97xd3_007981_reverse_mol2.chk"
 Charge =  0 Multiplicity = 1

                         Standard orientation:
 ---------------------------------------------------------------------
 Center     Atomic      Atomic             Coordinates (Angstroms)
 Number     Number       Type             X           Y           Z
 ---------------------------------------------------------------------
      1          7           0       -1.683657   -0.000809   -0.751836
      2          6           0        1.250011    0.001957   -0.804869
      3          7           0        1.141719    1.120939   -0.088451
      4          6           0        0.019999    1.191789    0.535284
      5          6           0       -0.919102   -0.002170    0.489115
      6          6           0        0.023650   -1.193708    0.533274
      7          7           0        1.145235   -1.117579   -0.089958
      8          1           0       -2.267830   -0.821342   -0.830475
      9          1           0       -2.264216    0.822402   -0.830503
     10          1           0       -0.206144    2.071356    1.128925
     11          1           0       -1.533875   -0.003880    1.399208
     12          1           0       -0.198367   -2.073593    1.127730
 ---------------------------------------------------------------------

 SCF Done:  E(RHF) =  -317.711510454     A.U. after    2 cycles

 The electronic state is 1-A.
 Alpha  occ. eigenvalues --  -15.66030 -15.66026 -15.63683 -11.31703 -11.31700
 Alpha  occ. eigenvalues --  -11.31182 -11.31173  -1.32198  -1.19141  -1.18204
 Alpha  occ. eigenvalues --   -1.01501  -0.88846  -0.86852  -0.72230  -0.71752
 Alpha  occ. eigenvalues --   -0.66269  -0.65200  -0.65034  -0.58890  -0.55752
 Alpha  occ. eigenvalues --   -0.50868  -0.44097  -0.41795  -0.41282  -0.33131
 Alpha virt. eigenvalues --    0.02091   0.03310   0.03453   0.05490   0.06033
 Alpha virt. eigenvalues --    0.06816   0.09208   0.10009   0.10573   0.11914
 Alpha virt. eigenvalues --    0.11937   0.13491   0.13533   0.14341   0.14601

 Mulliken charges:
               1
     1  N   -0.382986
     2  C    0.225002
     3  N   -0.424869
     4  C    0.560889
     5  C    0.474958
     6  C    0.563770
     7  N   -0.424294
     8  H    0.003701
     9  H    0.004856
    10  H   -0.256224
    11  H   -0.087943
    12  H   -0.256860
 Sum of Mulliken charges =  -0.00000

 Dipole moment (field-independent basis, Debye):
    X=             -4.6654    Y=             -0.0070    Z=              3.2293  Tot=              5.6740

 Test job not archived.
 1\1\GINC-SE454\SP\RHF\Aug-CC-pVDZ\C4H5N3\OHZDE\09-Apr-2025\0\\#t hf au
 g-cc-pvdz iop(5/13=1,5/36=2,99/5=2) pseudo=read geom=check guess=(read
 ,tcheck) scf=(maxcycle=1)\\title\\0,1\N,0,1.25455658,0.0197256,0.90206
 739\C,0,0.33160955,-0.34220621,-1.85952626\N,0,-0.41615249,-1.32292012
 ,-1.35340987\C,0,-0.63657645,-1.16664975,-0.09670236\C,0,-0.16297866,0
 .11144029,0.57543798\C,0,-0.39814692,1.17496077,-0.48480433\N,0,-0.192
 79991,0.87446095,-1.7175648\H,0,1.60375084,0.88386474,1.29199538\H,0,1
 .43875365,-0.73058116,1.55324\H,0,-1.20622565,-1.91616559,0.44266309\H

 Normal termination of Gaussian 16 at Wed Apr  9 16:10:51 2025.
