 Gaussian 16, Revision C.01,

 ----------------------------------------------------------------------
 #t hf aug-cc-pvdz symm=none int=(grid=ultrafine) guess=(read,tcheck) s
 table=(opt,rrhf)
 ----------------------------------------------------------------------
 -----
 title
 -----
 Symbolic Z-matrix:
 Charge =  0 Multiplicity = 1

 SCF Done:  E(RHF) =  -267.537813570     A.U. after   16 cycles
 Normal termination of Gaussian 16 at Wed Apr  9 14:22:10 2025.
 Gaussian 16:  ES64L-G16RevC.01  3-Jul-2019

 ----------------------------------------------------------------------
 #t hf aug-cc-pvdz iop(5/13=1,5/36=2,99/5=2) pseudo=read geom=check gue
 ss=(read,tcheck) scf=(maxcycle=1)
 ----------------------------------------------------------------------
 -----
 title
 -----
 Structure from the checkpoint file:  "Grambow2020_wb97xd3_006077_forward_mol1.chk"
 Charge =  0 Multiplicity = 1

                         Standard orientation:
 ---------------------------------------------------------------------
 Center     Atomic      Atomic             Coordinates (Angstroms)
 Number     Number       Type             X           Y           Z
 ---------------------------------------------------------------------
      1          8           0       -0.482351   -1.339964   -0.118550
      2          6           0        0.694378   -1.058702    0.307077
      3          6           0        1.474976   -0.106151   -0.314300
      4          6           0        0.338849    1.533166    0.147877
      5          6           0       -0.950712    1.082967    0.046218
      6          6           0       -1.535411   -0.025973   -0.081245
      7          1           0        0.970830   -1.431253    1.299272
      8          1           0        1.330867    0.052874   -1.375134
      9          1           0        2.471634    0.082263    0.068436
     10          1           0        0.698674    1.831089    1.128746
     11          1           0        0.749539    2.130110   -0.660347
     12          1           0       -2.495218   -0.497211   -0.146338
 ---------------------------------------------------------------------

 SCF Done:  E(RHF) =  -267.622034305     A.U. after    2 cycles

 The electronic state is 1-A.
 Alpha  occ. eigenvalues --  -20.59065 -11.32633 -11.30204 -11.28764 -11.25216
 Alpha  occ. eigenvalues --  -11.22102  -1.35522  -1.07715  -1.02664  -0.92854
 Alpha  occ. eigenvalues --   -0.81956  -0.74301  -0.67505  -0.66771  -0.63552
 Alpha  occ. eigenvalues --   -0.61640  -0.60393  -0.55892  -0.49123  -0.43396
 Alpha  occ. eigenvalues --   -0.37131  -0.31875
 Alpha virt. eigenvalues --    0.03143   0.04295   0.04675   0.05092   0.06235
 Alpha virt. eigenvalues --    0.06927   0.07693   0.09661   0.11242   0.11975
 Alpha virt. eigenvalues --    0.12885   0.13514   0.13841   0.14931   0.15533

 Mulliken charges:
               1
     1  O   -0.676246
     2  C    0.774114
     3  C    0.314964
     4  C    0.326106
     5  C   -0.399639
     6  C    0.748911
     7  H   -0.223522
     8  H   -0.218393
     9  H   -0.205265
    10  H   -0.070035
    11  H    0.010865
    12  H   -0.381861
 Sum of Mulliken charges =  -0.00000

 Dipole moment (field-independent basis, Debye):
    X=              2.6021    Y=              0.9008    Z=              0.6477  Tot=              2.8287

 Test job not archived.
 1\1\GINC-SE226\SP\RHF\Aug-CC-pVDZ\C5H6O1\OHZDE\09-Apr-2025\0\\#t hf au
 g-cc-pvdz iop(5/13=1,5/36=2,99/5=2) pseudo=read geom=check guess=(read
 ,tcheck) scf=(maxcycle=1)\\title\\0,1\O,0,0.20030828,-1.25962928,1.060
 85507\C,0,-0.92130414,-0.68509948,0.82240657\C,0,-1.02969072,0.6893108
 7,0.77716943\C,0,0.09478861,1.00456932,-0.9044701\C,0,1.10873269,0.089
 42352,-0.80245558\C,0,1.38483622,-0.90816752,-0.08381379\H,0,-1.733802
 16,-1.3115608,0.4389168\H,0,-0.3464533,1.2710823,1.38227549\H,0,-2.002
 96846,1.13011081,0.5934822\H,0,-0.61578703,0.88913786,-1.71816157\H,0,

 Normal termination of Gaussian 16 at Wed Apr  9 14:22:14 2025.
