 Gaussian 16, Revision C.01,

 ----------------------------------------------------------------------
 #t hf aug-cc-pvdz symm=none int=(grid=ultrafine) guess=(read,tcheck) s
 table=(opt,rrhf)
 ----------------------------------------------------------------------
 -----
 title
 -----
 Symbolic Z-matrix:
 Charge =  0 Multiplicity = 1

 SCF Done:  E(RHF) =  -343.598580428     A.U. after   16 cycles
 Normal termination of Gaussian 16 at Wed Apr  9 03:34:27 2025.
 Gaussian 16:  ES64L-G16RevC.01  3-Jul-2019

 ----------------------------------------------------------------------
 #t hf aug-cc-pvdz iop(5/13=1,5/36=2,99/5=2) pseudo=read geom=check gue
 ss=(read,tcheck) scf=(maxcycle=1)
 ----------------------------------------------------------------------
 -----
 title
 -----
 Structure from the checkpoint file:  "Grambow2020_wb97xd3_007158_forward_mol1.chk"
 Charge =  0 Multiplicity = 1

                         Standard orientation:
 ---------------------------------------------------------------------
 Center     Atomic      Atomic             Coordinates (Angstroms)
 Number     Number       Type             X           Y           Z
 ---------------------------------------------------------------------
      1          8           0        0.739855    1.238389   -0.692382
      2          6           0        0.376362    0.191319   -0.027687
      3          6           0       -0.736204    0.323354    0.946536
      4          6           0       -2.077082   -0.060501    0.349065
      5          8           0       -2.233013   -0.450786   -0.770782
      6          6           0        2.454876   -0.276378    0.290162
      7          6           0        1.164192   -0.982808   -0.285886
      8          1           0        1.739135    1.017041   -0.859232
      9          1           0       -0.563450   -0.332701    1.805257
     10          1           0       -0.806122    1.348993    1.319067
     11          1           0       -2.930990    0.043821    1.047399
     12          1           0        3.074252   -0.999454    0.827815
     13          1           0        2.248013    0.555282    0.970985
     14          1           0        1.260150   -1.259657   -1.337330
     15          1           0        0.831417   -1.844076    0.298210
 ---------------------------------------------------------------------

 SCF Done:  E(RHF) =  -343.706148680     A.U. after    2 cycles

 The electronic state is 1-A.
 Alpha  occ. eigenvalues --  -20.64217 -20.60953 -11.40406 -11.38489 -11.30190
 Alpha  occ. eigenvalues --  -11.25606 -11.19435  -1.43428  -1.40293  -1.11057
 Alpha  occ. eigenvalues --   -1.04496  -0.89689  -0.83156  -0.80446  -0.74342
 Alpha  occ. eigenvalues --   -0.72852  -0.70882  -0.66875  -0.64212  -0.62049
 Alpha  occ. eigenvalues --   -0.58152  -0.56704  -0.55342  -0.51139  -0.47581
 Alpha  occ. eigenvalues --   -0.46679  -0.27228
 Alpha virt. eigenvalues --    0.02171   0.04095   0.04375   0.04846   0.06311
 Alpha virt. eigenvalues --    0.06522   0.07108   0.08047   0.08172   0.08682
 Alpha virt. eigenvalues --    0.09717   0.12352   0.12702   0.13498   0.13613

 Mulliken charges:
               1
     1  O   -0.597122
     2  C    0.276574
     3  C   -0.271663
     4  C    0.712693
     5  O   -0.423346
     6  C    0.174403
     7  C    0.594335
     8  H    0.371180
     9  H    0.057736
    10  H    0.069022
    11  H   -0.127789
    12  H   -0.307750
    13  H   -0.236336
    14  H   -0.099626
    15  H   -0.192311
 Sum of Mulliken charges =  -0.00000

 Dipole moment (field-independent basis, Debye):
    X=             -3.1260    Y=              0.0766    Z=              3.5832  Tot=              4.7558

 Test job not archived.
 1\1\GINC-SE333\SP\RHF\Aug-CC-pVDZ\C5H8O2\OHZDE\09-Apr-2025\0\\#t hf au
 g-cc-pvdz iop(5/13=1,5/36=2,99/5=2) pseudo=read geom=check guess=(read
 ,tcheck) scf=(maxcycle=1)\\title\\0,1\O,0,0.00716022,-0.82615951,-1.41
 673722\C,0,0.02109251,-0.14230995,-0.32017077\C,0,1.06362383,-0.449397
 86,0.69134983\C,0,2.27769025,0.45160554,0.5628773\O,0,2.38709256,1.330
 48017,-0.24105328\C,0,-2.12075661,-0.34611535,-0.21559716\C,0,-1.04641
 917,0.81243878,-0.19854811\H,0,-1.00180756,-0.78238594,-1.65224099\H,0
 ,0.66129976,-0.31054915,1.69957095\H,0,1.39472043,-1.48786777,0.604408

 Normal termination of Gaussian 16 at Wed Apr  9 03:34:32 2025.
