 Gaussian 16, Revision C.01,

 ----------------------------------------------------------------------
 #t hf aug-cc-pvdz symm=none int=(grid=ultrafine) guess=(read,tcheck) s
 table=(opt,rrhf)
 ----------------------------------------------------------------------
 -----
 title
 -----
 Symbolic Z-matrix:
 Charge =  0 Multiplicity = 1

 SCF Done:  E(RHF) =  -335.394068827     A.U. after   19 cycles
 Normal termination of Gaussian 16 at Wed Apr  9 03:09:39 2025.
 Gaussian 16:  ES64L-G16RevC.01  3-Jul-2019

 ----------------------------------------------------------------------
 #t hf aug-cc-pvdz iop(5/13=1,5/36=2,99/5=2) pseudo=read geom=check gue
 ss=(read,tcheck) scf=(maxcycle=1)
 ----------------------------------------------------------------------
 -----
 title
 -----
 Structure from the checkpoint file:  "Grambow2020_b97d3_006740_forward_mol1.chk"
 Charge =  0 Multiplicity = 1

                         Standard orientation:
 ---------------------------------------------------------------------
 Center     Atomic      Atomic             Coordinates (Angstroms)
 Number     Number       Type             X           Y           Z
 ---------------------------------------------------------------------
      1          8           0       -2.315057    0.032424   -0.110017
      2          6           0       -1.287407   -0.027251    0.417409
      3          7           0        0.330832    1.269631   -0.209216
      4          6           0        1.436537    0.625997    0.008335
      5          7           0        1.416029   -0.790991    0.120053
      6          8           0        0.330371   -1.314048   -0.189047
      7          1           0        0.378514    2.251446    0.094727
      8          1           0        2.376168    1.058591    0.367463
 ---------------------------------------------------------------------

 SCF Done:  E(RHF) =  -335.494242773     A.U. after    2 cycles

 The electronic state is 1-A.
 Alpha  occ. eigenvalues --  -20.68360 -20.62985 -15.78562 -15.69615 -11.36361
 Alpha  occ. eigenvalues --  -11.34841  -1.47388  -1.42626  -1.23276  -1.05202
 Alpha  occ. eigenvalues --   -0.83358  -0.78767  -0.76106  -0.72225  -0.65178
 Alpha  occ. eigenvalues --   -0.64053  -0.61641  -0.60416  -0.54040  -0.49147
 Alpha  occ. eigenvalues --   -0.46017  -0.40872
 Alpha virt. eigenvalues --   -0.00123   0.02255   0.04533   0.07303   0.08206
 Alpha virt. eigenvalues --    0.10314   0.10993   0.11329   0.12468   0.14099
 Alpha virt. eigenvalues --    0.15021   0.16056   0.16900   0.18226   0.18816

 Mulliken charges:
               1
     1  O   -0.330317
     2  C    0.379369
     3  N   -0.252964
     4  C    0.790288
     5  N   -0.121871
     6  O   -0.389617
     7  H    0.064304
     8  H   -0.139192
 Sum of Mulliken charges =  -0.00000

 Dipole moment (field-independent basis, Debye):
    X=              3.6257    Y=              3.3900    Z=              0.7669  Tot=              5.0225

 Test job not archived.
 1\1\GINC-SE332\SP\RHF\Aug-CC-pVDZ\C2H2N2O2\OHZDE\09-Apr-2025\0\\#t hf
 aug-cc-pvdz iop(5/13=1,5/36=2,99/5=2) pseudo=read geom=check guess=(re
 ad,tcheck) scf=(maxcycle=1)\\title\\0,1\O,0,2.66369155,0.25379225,0.31
 865036\C,0,1.66854112,-0.12382493,-0.13399265\N,0,-0.18716891,0.897093
 83,0.32133624\C,0,-1.1280543,0.00396032,0.28633201\N,0,-0.80019378,-1.
 37049118,0.44172906\O,0,0.37643719,-1.58114429,0.78661921\H,0,-0.45083
 156,1.76813955,-0.15863852\H,0,-2.1429563,0.14919745,-0.09824171\\Vers
 ion=ES64L-G16RevC.01\State=1-A\HF=-335.4942428\RMSD=2.277e-03\Dipole=-

 Normal termination of Gaussian 16 at Wed Apr  9 03:09:41 2025.
