 Gaussian 16, Revision C.01,

 ----------------------------------------------------------------------
 #t hf aug-cc-pvdz symm=none int=(grid=ultrafine) guess=(read,tcheck) s
 table=(opt,rrhf)
 ----------------------------------------------------------------------
 -----
 title
 -----
 Symbolic Z-matrix:
 Charge =  0 Multiplicity = 1

 SCF Done:  E(RHF) =  -339.780109707     A.U. after   16 cycles
 Normal termination of Gaussian 16 at Wed Apr  9 15:35:10 2025.
 Gaussian 16:  ES64L-G16RevC.01  3-Jul-2019

 ----------------------------------------------------------------------
 #t hf aug-cc-pvdz iop(5/13=1,5/36=2,99/5=2) pseudo=read geom=check gue
 ss=(read,tcheck) scf=(maxcycle=1)
 ----------------------------------------------------------------------
 -----
 title
 -----
 Structure from the checkpoint file:  "Grambow2020_wb97xd3_007006_reverse_mol1.chk"
 Charge =  0 Multiplicity = 1

                         Standard orientation:
 ---------------------------------------------------------------------
 Center     Atomic      Atomic             Coordinates (Angstroms)
 Number     Number       Type             X           Y           Z
 ---------------------------------------------------------------------
      1          6           0       -1.401157   -1.441490   -0.606042
      2          6           0       -0.518829   -0.398476    0.037684
      3          8           0       -0.000705   -0.830145    1.237808
      4          6           0        1.505167    0.215748   -0.982013
      5          7           0        2.352653    0.174063    0.063693
      6          6           0       -1.103598    0.929194    0.093650
      7          7           0       -1.523340    2.000968    0.104848
      8          1           0       -2.262323   -1.660080    0.029347
      9          1           0       -0.832491   -2.362040   -0.745099
     10          1           0       -1.762427   -1.094433   -1.574472
     11          1           0        0.871469   -0.414557    1.352746
     12          1           0        1.160665    1.228316   -1.190703
     13          1           0        0.520923   -0.492759   -0.920735
     14          1           0        2.674821    1.015153    0.518602
     15          1           0        2.940310   -0.633513    0.188386
 ---------------------------------------------------------------------

 SCF Done:  E(RHF) =  -339.884487945     A.U. after    2 cycles

 The electronic state is 1-A.
 Alpha  occ. eigenvalues --  -20.59862 -15.68677 -15.63218 -11.34070 -11.30408
 Alpha  occ. eigenvalues --  -11.27908 -11.25009  -1.36522  -1.22663  -1.18813
 Alpha  occ. eigenvalues --   -1.04750  -0.91993  -0.87812  -0.76678  -0.75444
 Alpha  occ. eigenvalues --   -0.71500  -0.65089  -0.63151  -0.57612  -0.57102
 Alpha  occ. eigenvalues --   -0.54906  -0.54771  -0.51810  -0.48665  -0.47586
 Alpha  occ. eigenvalues --   -0.46250  -0.30635
 Alpha virt. eigenvalues --    0.02186   0.03817   0.04347   0.05012   0.06524
 Alpha virt. eigenvalues --    0.06683   0.06895   0.08215   0.09353   0.10616
 Alpha virt. eigenvalues --    0.11912   0.12281   0.12947   0.14560   0.14708

 Mulliken charges:
               1
     1  C    0.571023
     2  C   -0.097797
     3  O   -0.536373
     4  C    0.486639
     5  N   -0.164474
     6  C   -0.346361
     7  N   -0.197394
     8  H    0.030263
     9  H   -0.099423
    10  H   -0.030487
    11  H    0.188458
    12  H   -0.154136
    13  H    0.260572
    14  H    0.031144
    15  H    0.058347
 Sum of Mulliken charges =   0.00000

 Dipole moment (field-independent basis, Debye):
    X=              4.3300    Y=             -1.8418    Z=             -0.1235  Tot=              4.7071

 Test job not archived.
 1\1\GINC-SE129\SP\RHF\Aug-CC-pVDZ\C4H8N2O1\OHZDE\09-Apr-2025\0\\#t hf
 aug-cc-pvdz iop(5/13=1,5/36=2,99/5=2) pseudo=read geom=check guess=(re
 ad,tcheck) scf=(maxcycle=1)\\title\\0,1\C,0,1.10788175,1.68750925,-0.1
 8900538\C,0,0.64710772,0.30379205,0.20313865\O,0,0.18220361,0.26231201
 ,1.49821873\C,0,-1.22929151,-0.64643395,-0.84080027\N,0,-1.91549288,-1
 .11278149,0.21991619\C,0,1.58798943,-0.75434451,-0.11761576\N,0,2.2935
 439,-1.61667058,-0.40674376\H,0,1.94368639,2.00527694,0.43834041\H,0,0
 .28783902,2.39445518,-0.05526156\H,0,1.42866488,1.70469563,-1.23093807

 Normal termination of Gaussian 16 at Wed Apr  9 15:35:16 2025.
