 Gaussian 16, Revision C.01,

 ----------------------------------------------------------------------
 #t hf aug-cc-pvdz symm=none int=(grid=ultrafine) guess=(read,tcheck) s
 table=(opt,rrhf)
 ----------------------------------------------------------------------
 -----
 title
 -----
 Symbolic Z-matrix:
 Charge =  0 Multiplicity = 1

 SCF Done:  E(RHF) =  -360.804544442     A.U. after   15 cycles
 Normal termination of Gaussian 16 at Wed Apr  9 03:58:51 2025.
 Gaussian 16:  ES64L-G16RevC.01  3-Jul-2019

 ----------------------------------------------------------------------
 #t hf aug-cc-pvdz iop(5/13=1,5/36=2,99/5=2) pseudo=read geom=check gue
 ss=(read,tcheck) scf=(maxcycle=1)
 ----------------------------------------------------------------------
 -----
 title
 -----
 Structure from the checkpoint file:  "Grambow2020_wb97xd3_008725_forward_mol1.chk"
 Charge =  0 Multiplicity = 1

                         Standard orientation:
 ---------------------------------------------------------------------
 Center     Atomic      Atomic             Coordinates (Angstroms)
 Number     Number       Type             X           Y           Z
 ---------------------------------------------------------------------
      1          6           0       -2.721301   -0.814187    0.093000
      2          6           0       -0.925597    0.198439   -0.523534
      3          8           0       -1.131757    1.429895    0.021786
      4          6           0        0.004949   -0.611768    0.332589
      5          6           0        1.468391   -0.288229    0.034407
      6          8           0        2.266293   -1.147752   -0.267478
      7          7           0        1.810269    1.015876    0.177339
      8          1           0       -2.563041   -0.463436    1.106464
      9          1           0       -2.670465   -1.898242    0.015565
     10          1           0       -3.648413   -0.415520   -0.319568
     11          1           0       -1.922420   -0.389020   -0.905148
     12          1           0       -1.495118    2.004048   -0.656454
     13          1           0       -0.159449   -0.442466    1.406658
     14          1           0       -0.117454   -1.670663    0.121358
     15          1           0        2.754346    1.286985   -0.030043
     16          1           0        1.115195    1.714509    0.366560
 ---------------------------------------------------------------------

 SCF Done:  E(RHF) =  -360.918738345     A.U. after    2 cycles

 The electronic state is 1-A.
 Alpha  occ. eigenvalues --  -20.62285 -20.52905 -15.63996 -11.36071 -11.32088
 Alpha  occ. eigenvalues --  -11.26273 -11.25240  -1.38514  -1.34479  -1.17525
 Alpha  occ. eigenvalues --   -1.05002  -0.96615  -0.85867  -0.78887  -0.74711
 Alpha  occ. eigenvalues --   -0.71814  -0.66865  -0.64562  -0.63655  -0.59952
 Alpha  occ. eigenvalues --   -0.59584  -0.58203  -0.56094  -0.54556  -0.51572
 Alpha  occ. eigenvalues --   -0.43471  -0.41203  -0.31914
 Alpha virt. eigenvalues --    0.02589   0.03817   0.04380   0.05102   0.05777
 Alpha virt. eigenvalues --    0.06452   0.07307   0.08144   0.09051   0.11263
 Alpha virt. eigenvalues --    0.11709   0.11961   0.13499   0.14677   0.15039

 Mulliken charges:
               1
     1  C    0.278159
     2  C    0.198837
     3  O   -0.555372
     4  C    0.485059
     5  C    0.349208
     6  O   -0.516044
     7  N   -0.092900
     8  H   -0.026220
     9  H   -0.156759
    10  H   -0.213687
    11  H    0.211527
    12  H    0.207887
    13  H   -0.030835
    14  H   -0.107216
    15  H   -0.052788
    16  H    0.021142
 Sum of Mulliken charges =   0.00000

 Dipole moment (field-independent basis, Debye):
    X=             -3.8563    Y=              3.2643    Z=              0.5392  Tot=              5.0811

 Test job not archived.
 1\1\GINC-SE222\SP\RHF\Aug-CC-pVDZ\C4H9N1O2\OHZDE\09-Apr-2025\0\\#t hf
 aug-cc-pvdz iop(5/13=1,5/36=2,99/5=2) pseudo=read geom=check guess=(re
 ad,tcheck) scf=(maxcycle=1)\\title\\0,1\C,0,-2.26856937,-0.17858621,-0
 .95221825\C,0,-0.21255706,0.45262696,-0.88540506\O,0,-0.31146299,1.545
 77674,-0.07818726\C,0,0.28384959,-0.73491725,-0.11170302\C,0,1.8081075
 6,-0.73777393,-0.00269253\O,0,2.47440971,-1.68461212,-0.35779648\N,0,2
 .34710986,0.37222063,0.55890344\H,0,-2.31759799,-0.11026411,0.12857277
 \H,0,-2.41093622,-1.19569305,-1.31135794\H,0,-2.9585106,0.52339806,-1.

 Normal termination of Gaussian 16 at Wed Apr  9 03:58:56 2025.
