 Gaussian 16, Revision C.01,

 ----------------------------------------------------------------------
 #t hf aug-cc-pvdz symm=none int=(grid=ultrafine) guess=(read,tcheck) s
 table=(opt,rrhf)
 ----------------------------------------------------------------------
 -----
 title
 -----
 Symbolic Z-matrix:
 Charge =  0 Multiplicity = 1

 SCF Done:  E(RHF) =  -284.698159382     A.U. after   16 cycles
 Normal termination of Gaussian 16 at Wed Apr  9 03:05:27 2025.
 Gaussian 16:  ES64L-G16RevC.01  3-Jul-2019

 ----------------------------------------------------------------------
 #t hf aug-cc-pvdz iop(5/13=1,5/36=2,99/5=2) pseudo=read geom=check gue
 ss=(read,tcheck) scf=(maxcycle=1)
 ----------------------------------------------------------------------
 -----
 title
 -----
 Structure from the checkpoint file:  "Grambow2020_b97d3_006543_reverse_mol1.chk"
 Charge =  0 Multiplicity = 1

                         Standard orientation:
 ---------------------------------------------------------------------
 Center     Atomic      Atomic             Coordinates (Angstroms)
 Number     Number       Type             X           Y           Z
 ---------------------------------------------------------------------
      1          6           0       -0.734268    1.075053    0.334824
      2          6           0        0.715778    1.175889   -0.182670
      3          8           0        1.463210   -0.065697   -0.039781
      4          6           0        0.704837   -1.176653    0.171180
      5          7           0       -0.569309   -1.243030   -0.045481
      6          6           0       -1.250647   -0.147550   -0.407312
      7          1           0       -0.703699    0.945047    1.427980
      8          1           0       -1.278486    1.997355    0.093977
      9          1           0        0.745902    1.445531   -1.246566
     10          1           0        1.272455    1.923085    0.395072
     11          1           0        1.308671   -2.039749    0.443615
     12          1           0       -3.097889   -0.332131    0.380811
     13          1           0       -2.581668   -0.272790   -0.354406
 ---------------------------------------------------------------------

 SCF Done:  E(RHF) =  -284.785758778     A.U. after    2 cycles

 The electronic state is 1-A.
 Alpha  occ. eigenvalues --  -20.62966 -15.63926 -11.37804 -11.32587 -11.30094
 Alpha  occ. eigenvalues --  -11.26318  -1.40154  -1.22378  -1.07374  -0.91651
 Alpha  occ. eigenvalues --   -0.91260  -0.74909  -0.72784  -0.69868  -0.66959
 Alpha  occ. eigenvalues --   -0.62482  -0.59447  -0.57153  -0.54686  -0.52343
 Alpha  occ. eigenvalues --   -0.46039  -0.42794  -0.30320
 Alpha virt. eigenvalues --    0.02614   0.04050   0.04184   0.04745   0.06076
 Alpha virt. eigenvalues --    0.07028   0.08203   0.09198   0.09908   0.10589
 Alpha virt. eigenvalues --    0.12498   0.12676   0.13568   0.14430   0.14860

 Mulliken charges:
               1
     1  C    0.159101
     2  C    0.742566
     3  O   -0.590146
     4  C    0.654676
     5  N   -0.294521
     6  C    0.065079
     7  H   -0.055954
     8  H   -0.065308
     9  H   -0.149567
    10  H   -0.123765
    11  H   -0.260909
    12  H   -0.323596
    13  H    0.242344
 Sum of Mulliken charges =  -0.00000

 Dipole moment (field-independent basis, Debye):
    X=              1.7387    Y=              1.9285    Z=              1.0384  Tot=              2.7965

 Test job not archived.
 1\1\GINC-SE080\SP\RHF\Aug-CC-pVDZ\C4H7N1O1\OHZDE\09-Apr-2025\0\\#t hf
 aug-cc-pvdz iop(5/13=1,5/36=2,99/5=2) pseudo=read geom=check guess=(re
 ad,tcheck) scf=(maxcycle=1)\\title\\0,1\C,0,0.51183942,-0.72266969,0.3
 8778494\C,0,-0.92048088,-1.03276763,-0.09481212\O,0,-1.770547,0.147605
 25,-0.1634673\C,0,-1.10974754,1.33801832,-0.15259054\N,0,0.15601958,1.
 47278853,-0.38597639\C,0,0.92970866,0.39245759,-0.55775614\H,0,0.46179
 263,-0.40894333,1.44225039\H,0,1.13340776,-1.62367723,0.30618244\H,0,-
 0.91942811,-1.48357881,-1.0959399\H,0,-1.41708209,-1.71309379,0.606985

 Normal termination of Gaussian 16 at Wed Apr  9 03:05:31 2025.
