 Gaussian 16, Revision C.01,

 ----------------------------------------------------------------------
 #t hf aug-cc-pvdz symm=none int=(grid=ultrafine) guess=(read,tcheck) s
 table=(opt,rrhf)
 ----------------------------------------------------------------------
 -----
 title
 -----
 Symbolic Z-matrix:
 Charge =  0 Multiplicity = 1

 SCF Done:  E(RHF) =  -338.573299991     A.U. after   15 cycles
 Normal termination of Gaussian 16 at Wed Apr  9 03:46:28 2025.
 Gaussian 16:  ES64L-G16RevC.01  3-Jul-2019

 ----------------------------------------------------------------------
 #t hf aug-cc-pvdz iop(5/13=1,5/36=2,99/5=2) pseudo=read geom=check gue
 ss=(read,tcheck) scf=(maxcycle=1)
 ----------------------------------------------------------------------
 -----
 title
 -----
 Structure from the checkpoint file:  "Grambow2020_wb97xd3_007969_forward_mol1.chk"
 Charge =  0 Multiplicity = 1

                         Standard orientation:
 ---------------------------------------------------------------------
 Center     Atomic      Atomic             Coordinates (Angstroms)
 Number     Number       Type             X           Y           Z
 ---------------------------------------------------------------------
      1          7           0       -1.257199   -1.588786    0.007616
      2          6           0       -0.837139   -0.414887    0.033346
      3          8           0       -1.472729    0.793061   -0.007955
      4          6           0       -0.206772    1.525893   -0.001115
      5          6           0        0.531097    0.198954    0.092304
      6          6           0        1.670596   -0.231589    0.908706
      7          7           0        1.535327   -0.248061   -0.851148
      8          1           0       -2.270113   -1.643623   -0.053780
      9          1           0       -0.070804    2.080458   -0.928385
     10          1           0       -0.130998    2.168747    0.874000
     11          1           0        1.522813   -1.279168    1.191484
     12          1           0        2.475078   -0.071464   -0.191264
     13          1           0        1.362265   -1.211731   -1.123143
 ---------------------------------------------------------------------

 SCF Done:  E(RHF) =  -338.672535697     A.U. after    2 cycles

 The electronic state is 1-A.
 Alpha  occ. eigenvalues --  -20.62066 -15.69534 -15.61899 -11.36649 -11.31833
 Alpha  occ. eigenvalues --  -11.31452 -11.27614  -1.41858  -1.26927  -1.18526
 Alpha  occ. eigenvalues --   -1.00934  -0.92035  -0.89522  -0.75680  -0.73064
 Alpha  occ. eigenvalues --   -0.71618  -0.69392  -0.67404  -0.56779  -0.55854
 Alpha  occ. eigenvalues --   -0.54374  -0.53630  -0.45524  -0.45210  -0.41971
 Alpha  occ. eigenvalues --   -0.37003
 Alpha virt. eigenvalues --    0.03571   0.04079   0.04474   0.04698   0.06758
 Alpha virt. eigenvalues --    0.06909   0.09561   0.09889   0.10430   0.12094
 Alpha virt. eigenvalues --    0.13105   0.13471   0.14458   0.14681   0.15500

 Mulliken charges:
               1
     1  N   -0.361184
     2  C    0.413402
     3  O   -0.705296
     4  C    0.940978
     5  C    0.173522
     6  C   -0.123983
     7  N   -0.627815
     8  H    0.023208
     9  H   -0.071131
    10  H   -0.104243
    11  H   -0.033036
    12  H    0.420645
    13  H    0.054935
 Sum of Mulliken charges =  -0.00000

 Dipole moment (field-independent basis, Debye):
    X=              0.3804    Y=              0.4264    Z=             -0.9933  Tot=              1.1460

 Test job not archived.
 1\1\GINC-SE461\SP\RHF\Aug-CC-pVDZ\C4H6N2O1\OHZDE\09-Apr-2025\0\\#t hf
 aug-cc-pvdz iop(5/13=1,5/36=2,99/5=2) pseudo=read geom=check guess=(re
 ad,tcheck) scf=(maxcycle=1)\\title\\0,1\N,0,1.46365404,-1.21595649,-1.
 20378565\C,0,1.03722248,-0.23976521,-0.55543444\O,0,1.660468,0.8385445
 8,0.00459305\C,0,0.40939254,1.34169292,0.57150524\C,0,-0.32307718,0.17
 744838,-0.07808551\C,0,-1.59005923,0.10616516,-0.81294086\N,0,-1.13320
 064,-0.78432559,0.64100674\H,0,2.47095645,-1.19146231,-1.33612574\H,0,
 0.44218207,1.33405561,1.65995612\H,0,0.16907924,2.327367,0.17713543\H,

 Normal termination of Gaussian 16 at Wed Apr  9 03:46:32 2025.
