 Gaussian 16, Revision C.01,

 ----------------------------------------------------------------------
 #t hf aug-cc-pvdz symm=none int=(grid=ultrafine) guess=(read,tcheck) s
 table=(opt,rrhf)
 ----------------------------------------------------------------------
 -----
 title
 -----
 Symbolic Z-matrix:
 Charge =  0 Multiplicity = 1

 SCF Done:  E(RHF) =  -354.568169135     A.U. after   17 cycles
 Normal termination of Gaussian 16 at Wed Apr  9 15:42:44 2025.
 Gaussian 16:  ES64L-G16RevC.01  3-Jul-2019

 ----------------------------------------------------------------------
 #t hf aug-cc-pvdz iop(5/13=1,5/36=2,99/5=2) pseudo=read geom=check gue
 ss=(read,tcheck) scf=(maxcycle=1)
 ----------------------------------------------------------------------
 -----
 title
 -----
 Structure from the checkpoint file:  "Grambow2020_wb97xd3_007310_reverse_mol1.chk"
 Charge =  0 Multiplicity = 1

                         Standard orientation:
 ---------------------------------------------------------------------
 Center     Atomic      Atomic             Coordinates (Angstroms)
 Number     Number       Type             X           Y           Z
 ---------------------------------------------------------------------
      1          8           0        2.032585    0.671554   -0.067816
      2          6           0        1.701456   -0.672895    0.006514
      3          6           0        0.245845   -0.469596    0.047261
      4          7           0        0.169123    0.908460   -0.087493
      5          7           0       -1.625255    0.871410    0.075022
      6          6           0       -1.878774   -0.385546   -0.049187
      7          7           0       -0.817860   -1.218630    0.053051
      8          1           0        0.343885    1.565631    0.654849
      9          1           0        2.064944   -1.183413    0.913293
     10          1           0        2.000421   -1.292679   -0.854216
     11          1           0       -2.303593    1.569203   -0.198959
     12          1           0       -2.859564   -0.791625   -0.284042
 ---------------------------------------------------------------------

 SCF Done:  E(RHF) =  -354.671303612     A.U. after    2 cycles

 The electronic state is 1-A.
 Alpha  occ. eigenvalues --  -20.48212 -15.76852 -15.68563 -15.65136 -11.37741
 Alpha  occ. eigenvalues --  -11.37529 -11.27862  -1.35887  -1.26562  -1.17371
 Alpha  occ. eigenvalues --   -1.13260  -0.95848  -0.87128  -0.81451  -0.76666
 Alpha  occ. eigenvalues --   -0.72133  -0.66384  -0.62859  -0.58238  -0.54646
 Alpha  occ. eigenvalues --   -0.53310  -0.50357  -0.47250  -0.43518  -0.38398
 Alpha  occ. eigenvalues --   -0.35678
 Alpha virt. eigenvalues --    0.01833   0.03596   0.04412   0.05106   0.06558
 Alpha virt. eigenvalues --    0.07341   0.08910   0.09709   0.10579   0.11926
 Alpha virt. eigenvalues --    0.13262   0.13753   0.14430   0.14724   0.15770

 Mulliken charges:
               1
     1  O   -0.897554
     2  C    0.877443
     3  C    0.038672
     4  N   -0.075886
     5  N   -0.254526
     6  C    0.892000
     7  N   -0.549613
     8  H    0.174770
     9  H   -0.014162
    10  H    0.008485
    11  H   -0.020607
    12  H   -0.179021
 Sum of Mulliken charges =   0.00000

 Dipole moment (field-independent basis, Debye):
    X=             -6.2620    Y=              0.2178    Z=              0.6438  Tot=              6.2988

 Test job not archived.
 1\1\GINC-SE057\SP\RHF\Aug-CC-pVDZ\C3H5N3O1\OHZDE\09-Apr-2025\0\\#t hf
 aug-cc-pvdz iop(5/13=1,5/36=2,99/5=2) pseudo=read geom=check guess=(re
 ad,tcheck) scf=(maxcycle=1)\\title\\0,1\O,0,-1.96893929,0.9933552,-0.4
 5545204\C,0,-1.8453618,-0.24366332,0.15873809\C,0,-0.38313008,-0.33145
 665,0.03238917\N,0,-0.09492109,0.89676603,-0.54336147\N,0,1.65679923,0
 .4876863,-0.65155237\C,0,1.73189708,-0.56330325,0.08967697\N,0,0.55553
 88,-1.14834454,0.41205748\H,0,-0.22774704,1.11661389,-1.51676261\H,0,-
 2.34826131,-1.06905572,-0.37118635\H,0,-2.16516376,-0.29448457,1.21207

 Normal termination of Gaussian 16 at Wed Apr  9 15:42:48 2025.
