 Gaussian 16, Revision C.01,

 ----------------------------------------------------------------------
 #t hf aug-cc-pvdz symm=none int=(grid=ultrafine) guess=(read,tcheck) s
 table=(opt,rrhf)
 ----------------------------------------------------------------------
 -----
 title
 -----
 Symbolic Z-matrix:
 Charge =  0 Multiplicity = 1

 SCF Done:  E(RHF) =  -269.462867034     A.U. after   18 cycles
 Normal termination of Gaussian 16 at Wed Apr  9 14:37:52 2025.
 Gaussian 16:  ES64L-G16RevC.01  3-Jul-2019

 ----------------------------------------------------------------------
 #t hf aug-cc-pvdz iop(5/13=1,5/36=2,99/5=2) pseudo=read geom=check gue
 ss=(read,tcheck) scf=(maxcycle=1)
 ----------------------------------------------------------------------
 -----
 title
 -----
 Structure from the checkpoint file:  "Grambow2020_wb97xd3_006583_reverse_mol1.chk"
 Charge =  0 Multiplicity = 1

                         Standard orientation:
 ---------------------------------------------------------------------
 Center     Atomic      Atomic             Coordinates (Angstroms)
 Number     Number       Type             X           Y           Z
 ---------------------------------------------------------------------
      1          6           0       -0.051685    1.757228   -0.069094
      2          6           0       -0.244534    0.285720    0.165983
      3          6           0        0.606702   -0.451524    1.183927
      4          6           0        1.292119   -0.643095   -0.092105
      5          6           0        2.488485   -0.549347   -0.683800
      6          6           0       -1.541847   -0.246379   -0.128313
      7          6           0       -2.631808   -0.684798   -0.370022
      8          1           0       -0.805767    2.312100    0.495961
      9          1           0        0.941949    2.069778    0.246740
     10          1           0       -0.178406    2.008911   -1.122403
     11          1           0        0.442945   -0.749609   -0.884565
     12          1           0        1.123338    0.185857    1.896180
     13          1           0        0.120641   -1.304683    1.649345
     14          1           0        2.449473   -0.252635   -1.738651
     15          1           0       -3.598767   -1.076545   -0.582064
 ---------------------------------------------------------------------

 SCF Done:  E(RHF) =  -269.545241803     A.U. after    2 cycles

 The electronic state is 1-A.
 Alpha  occ. eigenvalues --  -11.35510 -11.27819 -11.27280 -11.26903 -11.26629
 Alpha  occ. eigenvalues --  -11.25839 -11.22333  -1.18207  -1.06050  -1.01302
 Alpha  occ. eigenvalues --   -0.95361  -0.87578  -0.76509  -0.73205  -0.68609
 Alpha  occ. eigenvalues --   -0.63708  -0.61258  -0.58442  -0.56974  -0.55595
 Alpha  occ. eigenvalues --   -0.51751  -0.44450  -0.42319  -0.36710  -0.29389
 Alpha virt. eigenvalues --    0.02632   0.03581   0.04190   0.04619   0.05515
 Alpha virt. eigenvalues --    0.06349   0.06906   0.07165   0.07761   0.09523
 Alpha virt. eigenvalues --    0.09960   0.11038   0.11794   0.12955   0.13516

 Mulliken charges:
               1
     1  C    0.528697
     2  C   -1.058744
     3  C    0.985967
     4  C    0.093859
     5  C   -0.268373
     6  C   -0.291345
     7  C    0.745873
     8  H    0.095154
     9  H   -0.104826
    10  H    0.120934
    11  H    0.214456
    12  H   -0.130568
    13  H   -0.169060
    14  H   -0.239070
    15  H   -0.522956
 Sum of Mulliken charges =  -0.00000

 Dipole moment (field-independent basis, Debye):
    X=             -4.7243    Y=              1.9052    Z=              0.2788  Tot=              5.1016

 Test job not archived.
 1\1\GINC-SE114\SP\RHF\Aug-CC-pVDZ\C7H8\OHZDE\09-Apr-2025\0\\#t hf aug-
 cc-pvdz iop(5/13=1,5/36=2,99/5=2) pseudo=read geom=check guess=(read,t
 check) scf=(maxcycle=1)\\title\\0,1\C,0,-0.05640404,-1.51073619,-0.451
 36465\C,0,-0.30986569,-0.07680028,-0.08072806\C,0,0.18544776,1.0495109
 9,-0.96978849\C,0,1.23285446,0.87065773,0.03305839\C,0,2.55350065,0.71
 248162,0.17817282\C,0,-1.45116128,0.17991731,0.74649775\C,0,-2.4117758
 8,0.38941391,1.43350559\H,0,-0.94948299,-1.91974514,-0.93191902\H,0,0.
 78989105,-1.58794467,-1.13148984\H,0,0.14900151,-2.11656794,0.43160701

 Normal termination of Gaussian 16 at Wed Apr  9 14:37:57 2025.
