 Gaussian 16, Revision C.01,

 ----------------------------------------------------------------------
 #t hf aug-cc-pvdz symm=none int=(grid=ultrafine) guess=(read,tcheck) s
 table=(opt,rrhf)
 ----------------------------------------------------------------------
 -----
 title
 -----
 Symbolic Z-matrix:
 Charge =  0 Multiplicity = 1

 SCF Done:  E(RHF) =  -358.533934340     A.U. after   15 cycles
 Normal termination of Gaussian 16 at Wed Apr  9 03:39:14 2025.
 Gaussian 16:  ES64L-G16RevC.01  3-Jul-2019

 ----------------------------------------------------------------------
 #t hf aug-cc-pvdz iop(5/13=1,5/36=2,99/5=2) pseudo=read geom=check gue
 ss=(read,tcheck) scf=(maxcycle=1)
 ----------------------------------------------------------------------
 -----
 title
 -----
 Structure from the checkpoint file:  "Grambow2020_wb97xd3_007447_forward_mol2.chk"
 Charge =  0 Multiplicity = 1

                         Standard orientation:
 ---------------------------------------------------------------------
 Center     Atomic      Atomic             Coordinates (Angstroms)
 Number     Number       Type             X           Y           Z
 ---------------------------------------------------------------------
      1          8           0       -2.458820   -0.453061   -0.053183
      2          6           0       -1.611478    0.659501    0.035901
      3          6           0       -0.159144    0.297545    0.003330
      4          7           0        0.189560   -0.954828    0.015493
      5          8           0        1.559500   -0.982367    0.005678
      6          6           0        2.009933    0.272262   -0.012699
      7          6           0        0.982507    1.145504   -0.014484
      8          1           0       -1.932548   -1.246754    0.085625
      9          1           0       -1.827888    1.337275   -0.796428
     10          1           0       -1.804638    1.216977    0.962117
     11          1           0        3.081741    0.389747   -0.024105
     12          1           0        1.020071    2.221104   -0.027905
 ---------------------------------------------------------------------

 SCF Done:  E(RHF) =  -358.644233954     A.U. after    2 cycles

 The electronic state is 1-A.
 Alpha  occ. eigenvalues --  -20.67311 -20.57499 -15.69270 -11.33838 -11.31146
 Alpha  occ. eigenvalues --  -11.30448 -11.26005  -1.47565  -1.33656  -1.16734
 Alpha  occ. eigenvalues --   -1.08206  -0.96818  -0.85694  -0.79998  -0.76549
 Alpha  occ. eigenvalues --   -0.69508  -0.67991  -0.65052  -0.64070  -0.62175
 Alpha  occ. eigenvalues --   -0.58489  -0.53003  -0.48856  -0.48448  -0.42605
 Alpha  occ. eigenvalues --   -0.38391
 Alpha virt. eigenvalues --    0.02649   0.03780   0.05067   0.05416   0.06892
 Alpha virt. eigenvalues --    0.08918   0.08936   0.10070   0.12378   0.12627
 Alpha virt. eigenvalues --    0.13347   0.13527   0.14176   0.14298   0.15392

 Mulliken charges:
               1
     1  O   -0.523062
     2  C    0.994186
     3  C   -0.546216
     4  N   -0.260021
     5  O   -0.637301
     6  C    0.610302
     7  C    0.696990
     8  H    0.167275
     9  H    0.026579
    10  H    0.060753
    11  H   -0.274169
    12  H   -0.315316
 Sum of Mulliken charges =  -0.00000

 Dipole moment (field-independent basis, Debye):
    X=              2.4077    Y=              3.2697    Z=              0.2738  Tot=              4.0698

 Test job not archived.
 1\1\GINC-SE026\SP\RHF\Aug-CC-pVDZ\C4H5N1O2\OHZDE\09-Apr-2025\0\\#t hf
 aug-cc-pvdz iop(5/13=1,5/36=2,99/5=2) pseudo=read geom=check guess=(re
 ad,tcheck) scf=(maxcycle=1)\\title\\0,1\O,0,-2.38792974,0.6364614,-0.4
 0666861\C,0,-1.52556226,-0.35510158,0.07999805\C,0,-0.08065147,0.02718
 783,-0.00621209\N,0,0.25511225,1.13351667,-0.60075325\O,0,1.62239934,1
 .20836241,-0.55060499\C,0,2.08439138,0.12982807,0.08236365\C,0,1.06739
 81,-0.6710901,0.45973797\H,0,-1.8635761,1.28540657,-0.88635793\H,0,-1.
 77711725,-0.56150318,1.12551259\H,0,-1.66531582,-1.29253342,-0.4746711

 Normal termination of Gaussian 16 at Wed Apr  9 03:39:19 2025.
