 Gaussian 16, Revision C.01,

 ----------------------------------------------------------------------
 #t hf aug-cc-pvdz symm=none int=(grid=ultrafine) guess=(read,tcheck) s
 table=(opt,rrhf)
 ----------------------------------------------------------------------
 -----
 title
 -----
 Symbolic Z-matrix:
 Charge =  0 Multiplicity = 1

 SCF Done:  E(RHF) =  -267.530658542     A.U. after   17 cycles
 Normal termination of Gaussian 16 at Wed Apr  9 14:22:09 2025.
 Gaussian 16:  ES64L-G16RevC.01  3-Jul-2019

 ----------------------------------------------------------------------
 #t hf aug-cc-pvdz iop(5/13=1,5/36=2,99/5=2) pseudo=read geom=check gue
 ss=(read,tcheck) scf=(maxcycle=1)
 ----------------------------------------------------------------------
 -----
 title
 -----
 Structure from the checkpoint file:  "Grambow2020_wb97xd3_006075_reverse_mol1.chk"
 Charge =  0 Multiplicity = 1

                         Standard orientation:
 ---------------------------------------------------------------------
 Center     Atomic      Atomic             Coordinates (Angstroms)
 Number     Number       Type             X           Y           Z
 ---------------------------------------------------------------------
      1          8           0       -1.338012   -0.406512    0.693480
      2          6           0       -0.680955   -0.631557   -0.401365
      3          6           0        0.784863   -1.028588   -0.261753
      4          6           0        1.412192    0.224239    0.369509
      5          6           0        0.530372    1.287749   -0.203098
      6          6           0       -0.754661    1.034423   -0.244059
      7          1           0       -1.230422   -0.962371   -1.290934
      8          1           0        1.218982   -1.230615   -1.242127
      9          1           0        0.871678   -1.930024    0.349226
     10          1           0        1.317229    0.213804    1.458815
     11          1           0        2.463936    0.343729    0.117386
     12          1           0       -1.688176    1.499974   -0.495602
 ---------------------------------------------------------------------

 SCF Done:  E(RHF) =  -267.610138281     A.U. after    2 cycles

 The electronic state is 1-A.
 Alpha  occ. eigenvalues --  -20.59131 -11.36074 -11.30629 -11.26193 -11.26094
 Alpha  occ. eigenvalues --  -11.25756  -1.36765  -1.12296  -1.00385  -0.92889
 Alpha  occ. eigenvalues --   -0.80294  -0.76744  -0.69611  -0.65383  -0.62740
 Alpha  occ. eigenvalues --   -0.59610  -0.56954  -0.54869  -0.52381  -0.45717
 Alpha  occ. eigenvalues --   -0.41768  -0.34615
 Alpha virt. eigenvalues --    0.03308   0.03905   0.04447   0.05212   0.06147
 Alpha virt. eigenvalues --    0.06399   0.07154   0.09325   0.10486   0.12278
 Alpha virt. eigenvalues --    0.13127   0.14128   0.14251   0.14647   0.15287

 Mulliken charges:
               1
     1  O   -0.715741
     2  C    0.474514
     3  C    0.200662
     4  C    0.419825
     5  C   -0.525341
     6  C    0.750368
     7  H   -0.139850
     8  H   -0.090152
     9  H   -0.009945
    10  H   -0.035696
    11  H   -0.104318
    12  H   -0.224325
 Sum of Mulliken charges =  -0.00000

 Dipole moment (field-independent basis, Debye):
    X=              0.8617    Y=             -1.5411    Z=             -1.3622  Tot=              2.2301

 Test job not archived.
 1\1\GINC-SE138\SP\RHF\Aug-CC-pVDZ\C5H6O1\OHZDE\09-Apr-2025\0\\#t hf au
 g-cc-pvdz iop(5/13=1,5/36=2,99/5=2) pseudo=read geom=check guess=(read
 ,tcheck) scf=(maxcycle=1)\\title\\0,1\O,0,-0.68736806,-1.59282516,0.13
 158972\C,0,-0.48884039,-0.56350756,0.89457594\C,0,-0.82150312,0.806210
 34,0.31237671\C,0,0.1786748,0.92847205,-0.84792688\C,0,1.31862584,0.12
 359723,-0.31012867\C,0,1.01795212,-0.99456376,0.30344725\H,0,-0.531103
 1,-0.69409574,1.98262223\H,0,-0.65341308,1.58644086,1.05628074\H,0,-1.
 86967146,0.83796939,0.00618317\H,0,-0.20557695,0.46054704,-1.75848271\

 Normal termination of Gaussian 16 at Wed Apr  9 14:22:13 2025.
