 Gaussian 16, Revision C.01,

 ----------------------------------------------------------------------
 #t hf aug-cc-pvdz symm=none int=(grid=ultrafine) guess=(read,tcheck) s
 table=(opt,rrhf)
 ----------------------------------------------------------------------
 -----
 title
 -----
 Symbolic Z-matrix:
 Charge =  0 Multiplicity = 1

 SCF Done:  E(RHF) =  -339.749125832     A.U. after   15 cycles
 Normal termination of Gaussian 16 at Wed Apr  9 15:35:08 2025.
 Gaussian 16:  ES64L-G16RevC.01  3-Jul-2019

 ----------------------------------------------------------------------
 #t hf aug-cc-pvdz iop(5/13=1,5/36=2,99/5=2) pseudo=read geom=check gue
 ss=(read,tcheck) scf=(maxcycle=1)
 ----------------------------------------------------------------------
 -----
 title
 -----
 Structure from the checkpoint file:  "Grambow2020_wb97xd3_007003_forward_mol1.chk"
 Charge =  0 Multiplicity = 1

                         Standard orientation:
 ---------------------------------------------------------------------
 Center     Atomic      Atomic             Coordinates (Angstroms)
 Number     Number       Type             X           Y           Z
 ---------------------------------------------------------------------
      1          6           0       -1.796345    0.647365   -0.614674
      2          6           0       -0.611318   -0.034760    0.023610
      3          8           0       -0.941378   -0.444786    1.317110
      4          6           0        0.126738   -1.146839   -0.732978
      5          7           0        1.389638   -1.049011   -0.025811
      6          6           0        0.626875    0.841650    0.100976
      7          7           0        1.481368    1.667622    0.078680
      8          1           0       -2.169288    1.447149    0.024326
      9          1           0       -2.587113   -0.092598   -0.736905
     10          1           0       -1.534494    1.054240   -1.591213
     11          1           0       -0.188123   -0.985061    1.604470
     12          1           0        0.149382   -0.916779   -1.810704
     13          1           0       -0.416061   -2.091075   -0.596206
     14          1           0        1.977475    0.586080   -0.037589
     15          1           0        2.126506   -1.618436   -0.424746
 ---------------------------------------------------------------------

 SCF Done:  E(RHF) =  -339.850410528     A.U. after    2 cycles

 The electronic state is 1-A.
 Alpha  occ. eigenvalues --  -20.59538 -15.69473 -15.55512 -11.40322 -11.35421
 Alpha  occ. eigenvalues --  -11.26633 -11.25813  -1.36883  -1.30389  -1.13287
 Alpha  occ. eigenvalues --   -1.04390  -0.91791  -0.85509  -0.77393  -0.70800
 Alpha  occ. eigenvalues --   -0.66920  -0.64842  -0.62713  -0.59457  -0.57930
 Alpha  occ. eigenvalues --   -0.57491  -0.55886  -0.52878  -0.52080  -0.47597
 Alpha  occ. eigenvalues --   -0.39644  -0.32122
 Alpha virt. eigenvalues --    0.03207   0.04189   0.04590   0.04905   0.06478
 Alpha virt. eigenvalues --    0.06874   0.07556   0.07816   0.10616   0.10822
 Alpha virt. eigenvalues --    0.11670   0.12643   0.13129   0.14278   0.15286

 Mulliken charges:
               1
     1  C    0.859836
     2  C   -0.757640
     3  O   -0.592063
     4  C    1.124854
     5  N   -0.847410
     6  C    0.236685
     7  N   -0.361326
     8  H    0.069939
     9  H    0.089434
    10  H    0.048465
    11  H    0.222404
    12  H   -0.168289
    13  H   -0.063714
    14  H    0.286905
    15  H   -0.148080
 Sum of Mulliken charges =   0.00000

 Dipole moment (field-independent basis, Debye):
    X=             -1.0013    Y=              0.2360    Z=             -1.9781  Tot=              2.2297

 Test job not archived.
 1\1\GINC-SE041\SP\RHF\Aug-CC-pVDZ\C4H8N2O1\OHZDE\09-Apr-2025\0\\#t hf
 aug-cc-pvdz iop(5/13=1,5/36=2,99/5=2) pseudo=read geom=check guess=(re
 ad,tcheck) scf=(maxcycle=1)\\title\\0,1\C,0,1.19319235,1.40761818,-0.4
 0755925\C,0,0.23807664,0.4273447,0.22790035\O,0,-0.12981868,0.87981377
 ,1.49680813\C,0,-0.98638038,-0.06161723,-0.55663307\N,0,-1.20251341,-1
 .292367,0.18032882\C,0,0.80666935,-0.97436256,0.3661729\N,0,1.41685468
 ,-1.99403952,0.39479022\H,0,2.03466131,1.60839885,0.25476957\H,0,0.657
 12377,2.34149706,-0.57578998\H,0,1.5627693,1.03164029,-1.3613912\H,0,-

 Normal termination of Gaussian 16 at Wed Apr  9 15:35:15 2025.
