 Gaussian 16, Revision C.01,

 ----------------------------------------------------------------------
 #t hf aug-cc-pvdz symm=none int=(grid=ultrafine) guess=(read,tcheck) s
 table=(opt,rrhf)
 ----------------------------------------------------------------------
 -----
 title
 -----
 Symbolic Z-matrix:
 Charge =  0 Multiplicity = 1

 SCF Done:  E(RHF) =  -323.922387170     A.U. after   14 cycles
 Normal termination of Gaussian 16 at Wed Apr  9 15:39:07 2025.
 Gaussian 16:  ES64L-G16RevC.01  3-Jul-2019

 ----------------------------------------------------------------------
 #t hf aug-cc-pvdz iop(5/13=1,5/36=2,99/5=2) pseudo=read geom=check gue
 ss=(read,tcheck) scf=(maxcycle=1)
 ----------------------------------------------------------------------
 -----
 title
 -----
 Structure from the checkpoint file:  "Grambow2020_wb97xd3_007249_forward_mol2.chk"
 Charge =  0 Multiplicity = 1

                         Standard orientation:
 ---------------------------------------------------------------------
 Center     Atomic      Atomic             Coordinates (Angstroms)
 Number     Number       Type             X           Y           Z
 ---------------------------------------------------------------------
      1          6           0        1.312080    1.206233    0.559467
      2          6           0        0.572526    0.000410   -0.011494
      3          6           0        1.549277   -1.039396   -0.542405
      4          6           0       -0.427491   -0.600653    1.007418
      5          8           0       -1.722527   -0.234222    0.502863
      6          6           0       -1.487825    0.311347   -0.707753
      7          7           0       -0.303934    0.467167   -1.103696
      8          1           0        1.904538    1.687375   -0.219522
      9          1           0        1.980681    0.903975    1.369241
     10          1           0        0.605365    1.940754    0.950640
     11          1           0        2.179294   -1.426259    0.262427
     12          1           0        1.013179   -1.875435   -0.994788
     13          1           0        2.192946   -0.596482   -1.303280
     14          1           0       -0.377695   -1.691151    1.053590
     15          1           0       -0.323033   -0.192866    2.013192
     16          1           0       -2.378925    0.586051   -1.259922
 ---------------------------------------------------------------------

 SCF Done:  E(RHF) =  -324.022957545     A.U. after    2 cycles

 The electronic state is 1-A.
 Alpha  occ. eigenvalues --  -20.60923 -15.60883 -11.34174 -11.29752 -11.27957
 Alpha  occ. eigenvalues --  -11.22809 -11.22770  -1.40391  -1.19108  -1.06862
 Alpha  occ. eigenvalues --   -0.95021  -0.93974  -0.81606  -0.78477  -0.70755
 Alpha  occ. eigenvalues --   -0.68801  -0.62572  -0.60108  -0.59479  -0.57150
 Alpha  occ. eigenvalues --   -0.55999  -0.51857  -0.51637  -0.49979  -0.48508
 Alpha  occ. eigenvalues --   -0.42753  -0.38422
 Alpha virt. eigenvalues --    0.03377   0.04154   0.04580   0.04823   0.06552
 Alpha virt. eigenvalues --    0.06748   0.07281   0.07364   0.09398   0.10197
 Alpha virt. eigenvalues --    0.11536   0.12499   0.12602   0.14191   0.15097

 Mulliken charges:
               1
     1  C    0.892902
     2  C   -2.017636
     3  C    0.858409
     4  C    1.351965
     5  O   -0.590063
     6  C    0.618909
     7  N   -0.385348
     8  H   -0.013177
     9  H    0.026734
    10  H   -0.068279
    11  H    0.040912
    12  H   -0.039184
    13  H    0.010158
    14  H   -0.200095
    15  H   -0.183045
    16  H   -0.303162
 Sum of Mulliken charges =  -0.00000

 Dipole moment (field-independent basis, Debye):
    X=              0.6267    Y=             -0.6324    Z=              1.2668  Tot=              1.5484

 Test job not archived.
 1\1\GINC-SE229\SP\RHF\Aug-CC-pVDZ\C5H9N1O1\OHZDE\09-Apr-2025\0\\#t hf
 aug-cc-pvdz iop(5/13=1,5/36=2,99/5=2) pseudo=read geom=check guess=(re
 ad,tcheck) scf=(maxcycle=1)\\title\\0,1\C,0,0.9151512,1.16073876,0.641
 81566\C,0,0.17896986,0.05216845,-0.10387465\C,0,1.15847274,-0.89008044
 ,-0.78932682\C,0,-0.81494985,-0.70166349,0.81446833\O,0,-2.11327963,-0
 .26906736,0.37496223\C,0,-1.88506844,0.45535019,-0.73924606\N,0,-0.703
 21754,0.67529899,-1.11005758\H,0,1.50285539,1.75759156,-0.05653845\H,0
 ,1.58780597,0.74212573,1.39442395\H,0,0.20654676,1.82381067,1.1420143\

 Normal termination of Gaussian 16 at Wed Apr  9 15:39:14 2025.
