 Gaussian 16, Revision C.01,

 ----------------------------------------------------------------------
 #t hf aug-cc-pvdz symm=none int=(grid=ultrafine) guess=(read,tcheck) s
 table=(opt,rrhf)
 ----------------------------------------------------------------------
 -----
 title
 -----
 Symbolic Z-matrix:
 Charge =  0 Multiplicity = 1

 SCF Done:  E(RHF) =  -269.475815824     A.U. after   16 cycles
 Normal termination of Gaussian 16 at Wed Apr  9 14:39:47 2025.
 Gaussian 16:  ES64L-G16RevC.01  3-Jul-2019

 ----------------------------------------------------------------------
 #t hf aug-cc-pvdz iop(5/13=1,5/36=2,99/5=2) pseudo=read geom=check gue
 ss=(read,tcheck) scf=(maxcycle=1)
 ----------------------------------------------------------------------
 -----
 title
 -----
 Structure from the checkpoint file:  "Grambow2020_wb97xd3_006589_reverse_mol1.chk"
 Charge =  0 Multiplicity = 1

                         Standard orientation:
 ---------------------------------------------------------------------
 Center     Atomic      Atomic             Coordinates (Angstroms)
 Number     Number       Type             X           Y           Z
 ---------------------------------------------------------------------
      1          6           0        2.148388   -0.620781   -0.218885
      2          6           0        0.874699   -0.085958    0.422549
      3          6           0        0.432380    1.354155   -0.052310
      4          6           0       -1.087524    1.441662   -0.249952
      5          6           0       -1.488187    0.099484   -0.009327
      6          6           0       -0.370016   -0.859671    0.192169
      7          6           0       -1.533417   -1.332850   -0.142844
      8          1           0        2.032213   -0.695645   -1.301625
      9          1           0        2.984466    0.050247   -0.015337
     10          1           0        2.405512   -1.608292    0.165559
     11          1           0        1.004891   -0.060304    1.511374
     12          1           0        0.848145    2.140907    0.579518
     13          1           0        0.810667    1.558124   -1.065350
     14          1           0       -1.806815    0.815082    0.921051
     15          1           0       -2.137015   -2.176367   -0.443587
 ---------------------------------------------------------------------

 SCF Done:  E(RHF) =  -269.555278722     A.U. after    2 cycles

 The electronic state is 1-A.
 Alpha  occ. eigenvalues --  -11.30436 -11.28185 -11.27566 -11.27449 -11.24870
 Alpha  occ. eigenvalues --  -11.24497 -11.24160  -1.22622  -1.08141  -1.01550
 Alpha  occ. eigenvalues --   -0.91057  -0.86487  -0.75825  -0.70979  -0.65279
 Alpha  occ. eigenvalues --   -0.60483  -0.59876  -0.58780  -0.54774  -0.52998
 Alpha  occ. eigenvalues --   -0.51170  -0.50208  -0.41795  -0.36011  -0.31694
 Alpha virt. eigenvalues --    0.02939   0.03613   0.04383   0.04994   0.06056
 Alpha virt. eigenvalues --    0.06974   0.07118   0.07705   0.09105   0.10310
 Alpha virt. eigenvalues --    0.11236   0.11692   0.12443   0.12594   0.14053

 Mulliken charges:
               1
     1  C    0.766150
     2  C   -0.805560
     3  C    0.777912
     4  C   -0.660061
     5  C   -0.177486
     6  C   -0.194591
     7  C    0.723451
     8  H    0.002562
     9  H   -0.040307
    10  H   -0.039879
    11  H    0.064440
    12  H   -0.113373
    13  H   -0.057679
    14  H    0.158856
    15  H   -0.404435
 Sum of Mulliken charges =  -0.00000

 Dipole moment (field-independent basis, Debye):
    X=              2.3122    Y=             -2.9141    Z=              0.8837  Tot=              3.8235

 Test job not archived.
 1\1\GINC-SE114\SP\RHF\Aug-CC-pVDZ\C7H8\OHZDE\09-Apr-2025\0\\#t hf aug-
 cc-pvdz iop(5/13=1,5/36=2,99/5=2) pseudo=read geom=check guess=(read,t
 check) scf=(maxcycle=1)\\title\\0,1\C,0,-0.60909882,-1.78972719,-0.591
 31907\C,0,0.20660155,-0.68215335,0.06264517\C,0,0.9064831,0.32136217,-
 0.93644599\C,0,0.81454353,1.77054847,-0.43821401\C,0,0.01254355,1.6257
 1753,0.72612836\C,0,-0.52393615,0.25697238,0.94886189\C,0,-1.11027319,
 1.25200203,1.54531853\H,0,-1.416941,-1.36915488,-1.19293174\H,0,0.0242
 9261,-2.38769624,-1.24857487\H,0,-1.04865617,-2.45505867,0.15246266\H,

 Normal termination of Gaussian 16 at Wed Apr  9 14:39:52 2025.
