 Gaussian 16, Revision C.01,

 ----------------------------------------------------------------------
 #t hf aug-cc-pvdz symm=none int=(grid=ultrafine) guess=(read,tcheck) s
 table=(opt,rrhf)
 ----------------------------------------------------------------------
 -----
 title
 -----
 Symbolic Z-matrix:
 Charge =  0 Multiplicity = 1

 SCF Done:  E(RHF) =  -322.517789428     A.U. after   17 cycles
 Normal termination of Gaussian 16 at Wed Apr  9 03:34:27 2025.
 Gaussian 16:  ES64L-G16RevC.01  3-Jul-2019

 ----------------------------------------------------------------------
 #t hf aug-cc-pvdz iop(5/13=1,5/36=2,99/5=2) pseudo=read geom=check gue
 ss=(read,tcheck) scf=(maxcycle=1)
 ----------------------------------------------------------------------
 -----
 title
 -----
 Structure from the checkpoint file:  "Grambow2020_wb97xd3_007124_forward_mol1.chk"
 Charge =  0 Multiplicity = 1

                         Standard orientation:
 ---------------------------------------------------------------------
 Center     Atomic      Atomic             Coordinates (Angstroms)
 Number     Number       Type             X           Y           Z
 ---------------------------------------------------------------------
      1          7           0       -2.186542   -0.489153    0.053517
      2          6           0       -0.997067   -0.131597   -0.063595
      3          8           0       -0.550997    1.166339    0.093123
      4          6           0        0.768115    1.244879   -0.187659
      5          6           0        1.388128    0.006281   -0.419672
      6          6           0        1.191653   -1.078024    0.600673
      7          6           0        0.149720   -1.036055   -0.384900
      8          1           0       -2.790399    0.274429    0.345965
      9          1           0        1.229158    1.104039    1.704154
     10          1           0        1.072767    2.198386   -0.599956
     11          1           0        2.238904   -0.042058   -1.085046
     12          1           0        1.175633    0.288806    1.806917
     13          1           0        1.844833   -1.945348    0.548930
     14          1           0       -0.060417   -1.817800   -1.109644
 ---------------------------------------------------------------------

 SCF Done:  E(RHF) =  -322.618405142     A.U. after    2 cycles

 The electronic state is 1-A.
 Alpha  occ. eigenvalues --  -20.65925 -15.62314 -11.37931 -11.37470 -11.29932
 Alpha  occ. eigenvalues --  -11.28144 -11.23987  -1.45405  -1.20419  -1.17399
 Alpha  occ. eigenvalues --   -1.00149  -0.89260  -0.86830  -0.76358  -0.73547
 Alpha  occ. eigenvalues --   -0.70266  -0.68418  -0.65144  -0.61209  -0.58927
 Alpha  occ. eigenvalues --   -0.55750  -0.49450  -0.45985  -0.43412  -0.42429
 Alpha  occ. eigenvalues --   -0.29536
 Alpha virt. eigenvalues --    0.02695   0.03630   0.04183   0.04636   0.05448
 Alpha virt. eigenvalues --    0.05774   0.07503   0.09018   0.09681   0.10457
 Alpha virt. eigenvalues --    0.12264   0.12561   0.13147   0.13881   0.14251

 Mulliken charges:
               1
     1  N   -0.375784
     2  C    0.532553
     3  O   -0.623710
     4  C    0.646900
     5  C    0.149647
     6  C    0.277657
     7  C    0.418172
     8  H    0.008353
     9  H    0.058046
    10  H   -0.279166
    11  H   -0.352221
    12  H    0.218698
    13  H   -0.352087
    14  H   -0.327059
 Sum of Mulliken charges =  -0.00000

 Dipole moment (field-independent basis, Debye):
    X=              1.6691    Y=              1.3351    Z=             -2.7233  Tot=              3.4619

 Test job not archived.
 1\1\GINC-SE058\SP\RHF\Aug-CC-pVDZ\C5H7N1O1\OHZDE\09-Apr-2025\0\\#t hf
 aug-cc-pvdz iop(5/13=1,5/36=2,99/5=2) pseudo=read geom=check guess=(re
 ad,tcheck) scf=(maxcycle=1)\\title\\0,1\N,0,1.74158962,-1.80064597,-0.
 092583\C,0,0.99405321,-0.80884509,-0.21060901\O,0,1.39965854,0.4254032
 5,-0.67996296\C,0,0.38400083,1.3127226,-0.60142227\C,0,-0.84608908,0.7
 5602425,-0.21498077\C,0,-1.33622416,-0.44960355,-0.96441645\C,0,-0.462
 94743,-0.77983562,0.12511333\H,0,2.6775515,-1.62070248,-0.44588575\H,0
 ,-0.08621076,1.01441684,-2.47259006\H,0,0.70475675,2.33256065,-0.43105

 Normal termination of Gaussian 16 at Wed Apr  9 03:34:31 2025.
