 Gaussian 16, Revision C.01,

 ----------------------------------------------------------------------
 #t hf aug-cc-pvdz symm=none int=(grid=ultrafine) guess=(read,tcheck) s
 table=(opt,rrhf)
 ----------------------------------------------------------------------
 -----
 title
 -----
 Symbolic Z-matrix:
 Charge =  0 Multiplicity = 1

 SCF Done:  E(RHF) =  -337.480165100     A.U. after   16 cycles
 Normal termination of Gaussian 16 at Wed Apr  9 17:10:08 2025.
 Gaussian 16:  ES64L-G16RevC.01  3-Jul-2019

 ----------------------------------------------------------------------
 #t hf aug-cc-pvdz iop(5/13=1,5/36=2,99/5=2) pseudo=read geom=check gue
 ss=(read,tcheck) scf=(maxcycle=1)
 ----------------------------------------------------------------------
 -----
 title
 -----
 Structure from the checkpoint file:  "Grambow2020_wb97xd3_009177_reverse_mol2.chk"
 Charge =  0 Multiplicity = 1

                         Standard orientation:
 ---------------------------------------------------------------------
 Center     Atomic      Atomic             Coordinates (Angstroms)
 Number     Number       Type             X           Y           Z
 ---------------------------------------------------------------------
      1          8           0       -2.252563    0.599406    0.000580
      2          6           0       -1.130820    0.222094    0.000037
      3          6           0       -0.614949   -1.154627    0.001185
      4          6           0        0.702627   -1.445540    0.000529
      5          7           0        1.719643   -0.457864   -0.001342
      6          6           0        1.020830    0.564922   -0.002072
      7          7           0        0.012176    1.219763   -0.001805
      8          1           0       -1.356909   -1.938684    0.003457
      9          1           0        1.077370   -2.460000    0.001341
     10          1           0        2.898991    2.845104    0.008614
     11          1           0        3.412197    2.303952    0.005898
 ---------------------------------------------------------------------

 SCF Done:  E(RHF) =  -337.583556297     A.U. after    2 cycles

 The electronic state is 1-A.
 Alpha  occ. eigenvalues --  -20.58593 -15.68708 -15.68579 -11.43193 -11.42467
 Alpha  occ. eigenvalues --  -11.36094 -11.28121  -1.40716  -1.35118  -1.23924
 Alpha  occ. eigenvalues --   -1.08680  -0.91213  -0.84961  -0.75007  -0.73064
 Alpha  occ. eigenvalues --   -0.67642  -0.67063  -0.62745  -0.61198  -0.58330
 Alpha  occ. eigenvalues --   -0.57451  -0.52443  -0.46849  -0.46804  -0.37734
 Alpha virt. eigenvalues --    0.02589   0.04132   0.05395   0.05886   0.06653
 Alpha virt. eigenvalues --    0.06944   0.07681   0.09082   0.10759   0.11468
 Alpha virt. eigenvalues --    0.12360   0.12445   0.13205   0.13557   0.14174

 Mulliken charges:
               1
     1  O   -0.403418
     2  C    0.482871
     3  C    0.772780
     4  C    0.734911
     5  N   -0.320170
     6  C   -0.395274
     7  N   -0.233283
     8  H   -0.377582
     9  H   -0.290625
    10  H    0.016167
    11  H    0.013622
 Sum of Mulliken charges =  -0.00000

 Dipole moment (field-independent basis, Debye):
    X=              2.7471    Y=             -2.7180    Z=              0.0017  Tot=              3.8645

 Test job not archived.
 1\1\GINC-SE174\SP\RHF\Aug-CC-pVDZ\C4H4N2O1\OHZDE\09-Apr-2025\0\\#t hf
 aug-cc-pvdz iop(5/13=1,5/36=2,99/5=2) pseudo=read geom=check guess=(re
 ad,tcheck) scf=(maxcycle=1)\\title\\0,1\O,0,2.51290768,-1.27492747,-0.
 04817999\C,0,1.52640755,-0.62133724,-0.03059319\C,0,1.38247107,0.84177
 62,-0.03866589\C,0,0.18455446,1.46234713,-0.01580462\N,0,-1.0521608,0.
 77009785,0.01816545\C,0,-0.64038994,-0.39818106,0.01763598\N,0,0.16542
 313,-1.29078122,0.00620657\H,0,2.3010801,1.4081677,-0.06346811\H,0,0.0
 8369391,2.53907952,-0.02190066\H,0,-3.04136418,-2.11724428,0.10116417\

 Normal termination of Gaussian 16 at Wed Apr  9 17:10:12 2025.
