 Gaussian 16, Revision C.01,

 ----------------------------------------------------------------------
 #t hf aug-cc-pvdz symm=none int=(grid=ultrafine) guess=(read,tcheck) s
 table=(opt,rrhf)
 ----------------------------------------------------------------------
 -----
 title
 -----
 Symbolic Z-matrix:
 Charge =  0 Multiplicity = 1

 SCF Done:  E(RHF) =  -360.677356934     A.U. after   17 cycles
 Normal termination of Gaussian 16 at Wed Apr  9 03:28:31 2025.
 Gaussian 16:  ES64L-G16RevC.01  3-Jul-2019

 ----------------------------------------------------------------------
 #t hf aug-cc-pvdz iop(5/13=1,5/36=2,99/5=2) pseudo=read geom=check gue
 ss=(read,tcheck) scf=(maxcycle=1)
 ----------------------------------------------------------------------
 -----
 title
 -----
 Structure from the checkpoint file:  "Grambow2020_wb97xd3_006762_forward_mol1.chk"
 Charge =  0 Multiplicity = 1

                         Standard orientation:
 ---------------------------------------------------------------------
 Center     Atomic      Atomic             Coordinates (Angstroms)
 Number     Number       Type             X           Y           Z
 ---------------------------------------------------------------------
      1          6           0        1.902224   -0.785726    0.500713
      2          7           0        1.365865   -0.379252   -0.604488
      3          6           0        0.809992    0.809331   -0.799347
      4          8           0       -0.079785    1.389010   -0.048213
      5          6           0       -0.896319    0.743861    0.823596
      6          6           0       -1.342100   -0.637100    0.462945
      7          8           0       -1.579957   -0.805406   -0.924819
      8          1           0        0.669907   -0.399959    2.244015
      9          1           0        2.234126   -1.816209    0.567419
     10          1           0        2.219915   -0.098245    1.275383
     11          1           0        1.032430    1.366906   -1.699467
     12          1           0        0.082546    0.146460    2.036176
     13          1           0       -1.638335    1.449518    1.173775
     14          1           0       -0.629634   -1.400823    0.810620
     15          1           0       -2.282407   -0.807659    0.991968
     16          1           0       -0.814453   -1.236260   -1.311661
 ---------------------------------------------------------------------

 SCF Done:  E(RHF) =  -360.794000511     A.U. after    2 cycles

 The electronic state is 1-A.
 Alpha  occ. eigenvalues --  -20.68167 -20.56587 -15.66906 -11.38694 -11.33983
 Alpha  occ. eigenvalues --  -11.28233 -11.26560  -1.45734  -1.31765  -1.24795
 Alpha  occ. eigenvalues --   -1.04242  -0.96686  -0.90458  -0.77896  -0.76612
 Alpha  occ. eigenvalues --   -0.72296  -0.70934  -0.69582  -0.64614  -0.62697
 Alpha  occ. eigenvalues --   -0.59334  -0.57874  -0.56342  -0.49473  -0.48244
 Alpha  occ. eigenvalues --   -0.46148  -0.44359  -0.24567
 Alpha virt. eigenvalues --    0.03000   0.03798   0.04522   0.04735   0.05169
 Alpha virt. eigenvalues --    0.06456   0.07055   0.07650   0.08645   0.09192
 Alpha virt. eigenvalues --    0.10291   0.11401   0.12758   0.13744   0.14332

 Mulliken charges:
               1
     1  C    0.769185
     2  N   -0.381742
     3  C    0.743208
     4  O   -0.293134
     5  C    0.116297
     6  C    0.915393
     7  O   -0.562767
     8  H   -0.447588
     9  H   -0.249935
    10  H   -0.235949
    11  H   -0.362977
    12  H    0.684211
    13  H   -0.389137
    14  H   -0.327233
    15  H   -0.163832
    16  H    0.185999
 Sum of Mulliken charges =  -0.00000

 Dipole moment (field-independent basis, Debye):
    X=              3.0418    Y=             -0.1334    Z=             -0.1865  Tot=              3.0504

 Test job not archived.
 1\1\GINC-SE334\SP\RHF\Aug-CC-pVDZ\C4H9N1O2\OHZDE\09-Apr-2025\0\\#t hf
 aug-cc-pvdz iop(5/13=1,5/36=2,99/5=2) pseudo=read geom=check guess=(re
 ad,tcheck) scf=(maxcycle=1)\\title\\0,1\C,0,1.35107509,0.48595072,-1.4
 1094748\N,0,1.20642785,1.04274225,-0.25188238\C,0,1.18616577,0.4056698
 7,0.91148512\O,0,0.46960417,-0.63492197,1.22074619\C,0,-0.66657248,-1.
 01108019,0.5799644\C,0,-1.53531693,0.06878065,0.01869081\O,0,-1.578937
 42,1.23172113,0.8289111\H,0,0.08025392,-1.24962852,-1.69255019\H,0,1.2
 4968152,1.10182865,-2.29803133\H,0,1.76916114,-0.50678692,-1.52646812\

 Normal termination of Gaussian 16 at Wed Apr  9 03:28:36 2025.
