 Gaussian 16, Revision C.01,

 ----------------------------------------------------------------------
 #t hf aug-cc-pvdz symm=none int=(grid=ultrafine) guess=(read,tcheck) s
 table=(opt,rrhf)
 ----------------------------------------------------------------------
 -----
 title
 -----
 Symbolic Z-matrix:
 Charge =  0 Multiplicity = 1

 SCF Done:  E(RHF) =  -320.749062288     A.U. after   14 cycles
 Normal termination of Gaussian 16 at Wed Apr  9 14:19:04 2025.
 Gaussian 16:  ES64L-G16RevC.01  3-Jul-2019

 ----------------------------------------------------------------------
 #t hf aug-cc-pvdz iop(5/13=1,5/36=2,99/5=2) pseudo=read geom=check gue
 ss=(read,tcheck) scf=(maxcycle=1)
 ----------------------------------------------------------------------
 -----
 title
 -----
 Structure from the checkpoint file:  "Grambow2020_b97d3_007150_reverse_mol2.chk"
 Charge =  0 Multiplicity = 1

                         Standard orientation:
 ---------------------------------------------------------------------
 Center     Atomic      Atomic             Coordinates (Angstroms)
 Number     Number       Type             X           Y           Z
 ---------------------------------------------------------------------
      1          8           0        1.749692   -0.543270   -1.028421
      2          6           0        1.599023    0.085272   -0.046632
      3          7           0       -1.062926   -0.991347    0.721864
      4          6           0       -1.636988   -0.261807   -0.325547
      5          6           0       -1.725340    1.080913   -0.410529
      6          8           0        1.492865    0.729221    0.933952
      7          1           0       -1.485688   -1.902115    0.883514
      8          1           0       -1.953390   -0.887658   -1.162666
      9          1           0       -0.972710   -0.468125    1.590516
     10          1           0       -1.404642    1.733188    0.402673
     11          1           0       -2.103718    1.550265   -1.315081
 ---------------------------------------------------------------------

 SCF Done:  E(RHF) =  -320.852537896     A.U. after    2 cycles

 The electronic state is 1-A.
 Alpha  occ. eigenvalues --  -20.65466 -20.65432 -15.63956 -11.47313 -11.29012
 Alpha  occ. eigenvalues --  -11.22281  -1.46970  -1.42242  -1.18411  -0.99020
 Alpha  occ. eigenvalues --   -0.79960  -0.79350  -0.74190  -0.71445  -0.70924
 Alpha  occ. eigenvalues --   -0.69828  -0.63992  -0.57999  -0.54908  -0.54796
 Alpha  occ. eigenvalues --   -0.52539  -0.49780  -0.32723
 Alpha virt. eigenvalues --    0.03320   0.04479   0.04754   0.06932   0.07251
 Alpha virt. eigenvalues --    0.07683   0.10581   0.11099   0.12238   0.12987
 Alpha virt. eigenvalues --    0.13851   0.14623   0.15087   0.16488   0.17693

 Mulliken charges:
               1
     1  O   -0.165923
     2  C    0.341188
     3  N   -0.381735
     4  C    0.835400
     5  C    0.460870
     6  O   -0.161524
     7  H    0.008759
     8  H   -0.351499
     9  H    0.034768
    10  H   -0.339372
    11  H   -0.280931
 Sum of Mulliken charges =  -0.00000

 Dipole moment (field-independent basis, Debye):
    X=             -1.0856    Y=             -1.0360    Z=              0.9067  Tot=              1.7532

 Test job not archived.
 1\1\GINC-SE048\SP\RHF\Aug-CC-pVDZ\C3H5N1O2\OHZDE\09-Apr-2025\0\\#t hf
 aug-cc-pvdz iop(5/13=1,5/36=2,99/5=2) pseudo=read geom=check guess=(re
 ad,tcheck) scf=(maxcycle=1)\\title\\0,1\O,0,2.38961559,-0.23722325,-1.
 26649144\C,0,2.15759568,0.60513794,-0.48019027\N,0,-0.00483577,-0.8009
 7227,0.99710751\C,0,-0.85702222,-0.59167198,-0.09322095\C,0,-1.3314374
 9,0.59567765,-0.52107057\O,0,1.96354885,1.47219649,0.29314182\H,0,-0.1
 3399777,-1.69259572,1.46899948\H,0,-1.05806619,-1.50150826,-0.66273719
 \H,0,0.01251997,-0.03122428,1.66317347\H,0,-1.13602612,1.52353416,0.01

 Normal termination of Gaussian 16 at Wed Apr  9 14:19:07 2025.
