 Gaussian 16, Revision C.01,

 ----------------------------------------------------------------------
 #t hf aug-cc-pvdz symm=none int=(grid=ultrafine) guess=(read,tcheck) s
 table=(opt,rrhf)
 ----------------------------------------------------------------------
 -----
 title
 -----
 Symbolic Z-matrix:
 Charge =  0 Multiplicity = 1

 SCF Done:  E(RHF) =  -283.603066431     A.U. after   16 cycles
 Normal termination of Gaussian 16 at Wed Apr  9 14:25:09 2025.
 Gaussian 16:  ES64L-G16RevC.01  3-Jul-2019

 ----------------------------------------------------------------------
 #t hf aug-cc-pvdz iop(5/13=1,5/36=2,99/5=2) pseudo=read geom=check gue
 ss=(read,tcheck) scf=(maxcycle=1)
 ----------------------------------------------------------------------
 -----
 title
 -----
 Structure from the checkpoint file:  "Grambow2020_wb97xd3_006235_forward_mol1.chk"
 Charge =  0 Multiplicity = 1

                         Standard orientation:
 ---------------------------------------------------------------------
 Center     Atomic      Atomic             Coordinates (Angstroms)
 Number     Number       Type             X           Y           Z
 ---------------------------------------------------------------------
      1          8           0        1.644926   -0.952772   -0.403958
      2          6           0        1.012700   -0.138191    0.095123
      3          6           0        0.500880    1.084152    0.624913
      4          6           0       -0.487578    1.011848   -0.513329
      5          6           0       -1.367934   -0.070323   -0.389069
      6          7           0       -1.159122   -0.909536    0.587649
      7          1           0        1.254513    1.860062    0.494110
      8          1           0        0.113355    1.020501    1.643561
      9          1           0       -0.464523    1.722733   -1.321832
     10          1           0       -2.149349   -0.208855   -1.140279
     11          1           0       -1.747948   -1.730433    0.536731
 ---------------------------------------------------------------------

 SCF Done:  E(RHF) =  -283.690359107     A.U. after    2 cycles

 The electronic state is 1-A.
 Alpha  occ. eigenvalues --  -20.66993 -15.57508 -11.45389 -11.30789 -11.28421
 Alpha  occ. eigenvalues --  -11.22015  -1.47848  -1.18524  -1.09926  -0.92282
 Alpha  occ. eigenvalues --   -0.80524  -0.74675  -0.73481  -0.70868  -0.67111
 Alpha  occ. eigenvalues --   -0.64620  -0.61070  -0.55309  -0.54357  -0.44985
 Alpha  occ. eigenvalues --   -0.40027  -0.28084
 Alpha virt. eigenvalues --    0.02992   0.04126   0.04832   0.05808   0.06704
 Alpha virt. eigenvalues --    0.07381   0.10423   0.11133   0.11494   0.12219
 Alpha virt. eigenvalues --    0.13301   0.13586   0.14201   0.14792   0.15229

 Mulliken charges:
               1
     1  O   -0.248450
     2  C    0.082202
     3  C    0.746691
     4  C    0.141867
     5  C    0.629014
     6  N   -0.510220
     7  H    0.008186
     8  H   -0.052704
     9  H   -0.453697
    10  H   -0.275573
    11  H   -0.067315
 Sum of Mulliken charges =  -0.00000

 Dipole moment (field-independent basis, Debye):
    X=              0.6438    Y=              2.0670    Z=             -0.1340  Tot=              2.1691

 Test job not archived.
 1\1\GINC-SE041\SP\RHF\Aug-CC-pVDZ\C4H5N1O1\OHZDE\09-Apr-2025\0\\#t hf
 aug-cc-pvdz iop(5/13=1,5/36=2,99/5=2) pseudo=read geom=check guess=(re
 ad,tcheck) scf=(maxcycle=1)\\title\\0,1\O,0,-0.82933574,1.63573049,-1.
 36913671\C,0,-0.88860056,0.73905518,-0.6586484\C,0,-1.17975456,-0.5067
 0331,-0.02613271\C,0,0.25096164,-0.85842961,-0.35356386\C,0,1.16992241
 ,-0.0690628,0.3492663\N,0,0.69700807,0.90485284,1.07707086\H,0,-1.9067
 7606,-1.04236964,-0.63573138\H,0,-1.46108143,-0.43651647,1.02638736\H,
 0,0.4896502,-1.62356361,-1.07270645\H,0,2.23900168,-0.25209257,0.21627

 Normal termination of Gaussian 16 at Wed Apr  9 14:25:13 2025.
