 Gaussian 16, Revision C.01,

 ----------------------------------------------------------------------
 #t hf aug-cc-pvdz symm=none int=(grid=ultrafine) guess=(read,tcheck) s
 table=(opt,rrhf)
 ----------------------------------------------------------------------
 -----
 title
 -----
 Symbolic Z-matrix:
 Charge =  0 Multiplicity = 1

 SCF Done:  E(RHF) =  -336.593677333     A.U. after   16 cycles
 Normal termination of Gaussian 16 at Wed Apr  9 14:18:03 2025.
 Gaussian 16:  ES64L-G16RevC.01  3-Jul-2019

 ----------------------------------------------------------------------
 #t hf aug-cc-pvdz iop(5/13=1,5/36=2,99/5=2) pseudo=read geom=check gue
 ss=(read,tcheck) scf=(maxcycle=1)
 ----------------------------------------------------------------------
 -----
 title
 -----
 Structure from the checkpoint file:  "Grambow2020_b97d3_007114_reverse_mol1.chk"
 Charge =  0 Multiplicity = 1

                         Standard orientation:
 ---------------------------------------------------------------------
 Center     Atomic      Atomic             Coordinates (Angstroms)
 Number     Number       Type             X           Y           Z
 ---------------------------------------------------------------------
      1          7           0        1.459008    0.553514    0.941270
      2          6           0        0.937197    0.022113   -0.210539
      3          8           0        1.544422   -0.727257   -0.966409
      4          6           0       -1.155128   -0.104723    0.056081
      5          8           0       -1.574389   -1.039941    0.658056
      6          7           0       -1.370838    1.001259   -0.620747
      7          1           0        0.937014    1.231572    1.484415
      8          1           0        2.427826    0.372659    1.198877
      9          1           0       -2.359568    1.271851   -0.794319
     10          1           0       -0.075140    0.873756   -0.739061
 ---------------------------------------------------------------------

 SCF Done:  E(RHF) =  -336.697637399     A.U. after    2 cycles

 The electronic state is 1-A.
 Alpha  occ. eigenvalues --  -20.66109 -20.55254 -15.68432 -15.66237 -11.48041
 Alpha  occ. eigenvalues --  -11.36052  -1.44922  -1.34399  -1.23735  -1.17810
 Alpha  occ. eigenvalues --   -0.86803  -0.79997  -0.77118  -0.73027  -0.69270
 Alpha  occ. eigenvalues --   -0.66937  -0.65159  -0.60888  -0.55319  -0.53901
 Alpha  occ. eigenvalues --   -0.46645  -0.42382  -0.37929
 Alpha virt. eigenvalues --    0.02440   0.03113   0.04143   0.05500   0.06335
 Alpha virt. eigenvalues --    0.08479   0.11319   0.11999   0.12480   0.12954
 Alpha virt. eigenvalues --    0.13854   0.14152   0.16077   0.16645   0.17646

 Mulliken charges:
               1
     1  N   -0.150643
     2  C    0.266801
     3  O   -0.530270
     4  C    0.241730
     5  O   -0.256086
     6  N   -0.299731
     7  H    0.027037
     8  H   -0.034672
     9  H    0.032609
    10  H    0.703224
 Sum of Mulliken charges =  -0.00000

 Dipole moment (field-independent basis, Debye):
    X=             -1.7531    Y=              4.2903    Z=              2.0480  Tot=              5.0670

 Test job not archived.
 1\1\GINC-SE174\SP\RHF\Aug-CC-pVDZ\C2H4N2O2\OHZDE\09-Apr-2025\0\\#t hf
 aug-cc-pvdz iop(5/13=1,5/36=2,99/5=2) pseudo=read geom=check guess=(re
 ad,tcheck) scf=(maxcycle=1)\\title\\0,1\N,0,-1.6031029,0.26704003,-0.1
 3534058\C,0,-0.41347651,0.84945821,0.22091138\O,0,-0.31307116,1.925017
 62,0.79945147\C,0,0.98335241,-0.71130753,0.4999786\O,0,0.96774825,-1.2
 7951027,1.54386061\N,0,1.51037397,-0.53634593,-0.69143142\H,0,-1.62148
 028,-0.58495935,-0.68398133\H,0,-2.48395859,0.74931934,0.03547469\H,0,
 2.34402583,-1.10770259,-0.93537761\H,0,0.62958899,0.42898946,-0.653546

 Normal termination of Gaussian 16 at Wed Apr  9 14:18:06 2025.
