 Gaussian 16, Revision C.01,

 ----------------------------------------------------------------------
 #t hf aug-cc-pvdz symm=none int=(grid=ultrafine) guess=(read,tcheck) s
 table=(opt,rrhf)
 ----------------------------------------------------------------------
 -----
 title
 -----
 Symbolic Z-matrix:
 Charge =  0 Multiplicity = 1

 SCF Done:  E(RHF) =  -231.672235885     A.U. after   15 cycles
 Normal termination of Gaussian 16 at Wed Apr  9 14:21:19 2025.
 Gaussian 16:  ES64L-G16RevC.01  3-Jul-2019

 ----------------------------------------------------------------------
 #t hf aug-cc-pvdz iop(5/13=1,5/36=2,99/5=2) pseudo=read geom=check gue
 ss=(read,tcheck) scf=(maxcycle=1)
 ----------------------------------------------------------------------
 -----
 title
 -----
 Structure from the checkpoint file:  "Grambow2020_wb97xd3_006056_reverse_mol1.chk"
 Charge =  0 Multiplicity = 1

                         Standard orientation:
 ---------------------------------------------------------------------
 Center     Atomic      Atomic             Coordinates (Angstroms)
 Number     Number       Type             X           Y           Z
 ---------------------------------------------------------------------
      1          6           0       -1.389365    0.292917    0.584688
      2          6           0       -0.983759   -0.972727   -0.162330
      3          6           0       -0.444247    0.869745   -0.378904
      4          6           0        0.982044    0.964670   -0.159615
      5          6           0        1.389436   -0.298447    0.585868
      6          6           0        0.445258   -0.860443   -0.387868
      7          1           0       -1.111542    0.350384    1.636648
      8          1           0       -2.424988    0.576956    0.435152
      9          1           0       -1.580561   -1.230272   -1.028188
     10          1           0       -0.861966    1.287562   -1.289991
     11          1           0        1.583714    1.244943   -1.014191
     12          1           0        2.426185   -0.577652    0.436470
     13          1           0        1.107100   -0.360659    1.636169
     14          1           0        0.865850   -1.265543   -1.303101
 ---------------------------------------------------------------------

 SCF Done:  E(RHF) =  -231.740005020     A.U. after    2 cycles

 The electronic state is 1-A.
 Alpha  occ. eigenvalues --  -11.32172 -11.32098 -11.24833 -11.24687 -11.22122
 Alpha  occ. eigenvalues --  -11.21668  -1.20176  -1.04555  -0.94943  -0.88036
 Alpha  occ. eigenvalues --   -0.75512  -0.74592  -0.72159  -0.62603  -0.59789
 Alpha  occ. eigenvalues --   -0.57919  -0.54572  -0.51047  -0.50644  -0.48564
 Alpha  occ. eigenvalues --   -0.42715  -0.22147
 Alpha virt. eigenvalues --    0.03116   0.03950   0.04598   0.05074   0.06301
 Alpha virt. eigenvalues --    0.06481   0.06865   0.08902   0.09650   0.11159
 Alpha virt. eigenvalues --    0.11782   0.12187   0.14089   0.14458   0.15026

 Mulliken charges:
               1
     1  C    0.574570
     2  C    0.022409
     3  C    0.436168
     4  C    0.043395
     5  C    0.597748
     6  C    0.420157
     7  H   -0.176598
     8  H   -0.183894
     9  H   -0.297929
    10  H   -0.381614
    11  H   -0.308682
    12  H   -0.187598
    13  H   -0.177187
    14  H   -0.380945
 Sum of Mulliken charges =  -0.00000

 Dipole moment (field-independent basis, Debye):
    X=              0.1187    Y=              0.1697    Z=             -1.6130  Tot=              1.6263

 Test job not archived.
 1\1\GINC-SE173\SP\RHF\Aug-CC-pVDZ\C6H8\OHZDE\09-Apr-2025\0\\#t hf aug-
 cc-pvdz iop(5/13=1,5/36=2,99/5=2) pseudo=read geom=check guess=(read,t
 check) scf=(maxcycle=1)\\title\\0,1\C,0,1.28705959,-0.74119667,-0.4267
 8594\C,0,1.00570537,-0.14959858,0.94989818\C,0,0.47845719,0.41911259,-
 0.81963778\C,0,-0.96556411,0.4130499,-0.89818648\C,0,-1.4570137,-0.455
 42953,0.25133437\C,0,-0.37915353,0.2827314,0.92126847\H,0,0.8644397,-1
 .72412973,-0.63255843\H,0,2.32974413,-0.69198905,-0.71994553\H,0,1.720
 71386,0.57704635,1.3145378\H,0,1.01392684,1.31825143,-1.10940016\H,0,-

 Normal termination of Gaussian 16 at Wed Apr  9 14:21:23 2025.
