 Gaussian 16, Revision C.01,

 ----------------------------------------------------------------------
 #t hf aug-cc-pvdz symm=none int=(grid=ultrafine) guess=(read,tcheck) s
 table=(opt,rrhf)
 ----------------------------------------------------------------------
 -----
 title
 -----
 Symbolic Z-matrix:
 Charge =  0 Multiplicity = 1

 SCF Done:  E(RHF) =  -308.940585918     A.U. after   14 cycles

 1\1\GINC-SE138\Stability\RHF\Aug-CC-pVDZ\C6H12O1\OHZDE\09-Apr-2025\0\\
 #t hf aug-cc-pvdz symm=none int=(grid=ultrafine) guess=(read,tcheck) s
 table=(opt,rrhf)\\title\\0,1\C,0,-1.21860431,-0.74387367,-1.04942995\C
 ,0,-0.78564701,0.25738976,0.00160306\C,0,-1.93004726,0.80180395,0.8251
 2396\C,0,1.14010109,0.58800942,1.73933024\O,0,0.0974703,-0.42000493,0.
 93274411\C,0,1.56141584,-0.42258235,0.74939516\C,0,2.14067584,-0.02188
 665,-0.57631649\H,0,-1.89779506,-0.26486449,-1.75643877\H,0,-0.3665448
 1,-1.13200997,-1.60770617\H,0,-1.74002693,-1.58327772,-0.58594271\H,0,

 Normal termination of Gaussian 16 at Wed Apr  9 16:02:26 2025.
 Gaussian 16:  ES64L-G16RevC.01  3-Jul-2019

 ----------------------------------------------------------------------
 #t hf aug-cc-pvdz iop(5/13=1,5/36=2,99/5=2) pseudo=read geom=check gue
 ss=(read,tcheck) scf=(maxcycle=1)
 ----------------------------------------------------------------------
 -----
 title
 -----
 Structure from the checkpoint file:  "Grambow2020_wb97xd3_007699_reverse_mol2.chk"
 Charge =  0 Multiplicity = 1

                         Standard orientation:
 ---------------------------------------------------------------------
 Center     Atomic      Atomic             Coordinates (Angstroms)
 Number     Number       Type             X           Y           Z
 ---------------------------------------------------------------------
      1          6           0       -1.350297    1.474143   -0.336257
      2          6           0       -0.922244    0.152196    0.266966
      3          6           0       -2.040367   -0.860587    0.358048
      4          6           0        1.099075   -1.503401    0.163139
      5          8           0        0.085142   -0.432903   -0.598260
      6          6           0        1.525188   -0.198357   -0.379136
      7          6           0        1.962846    0.916931    0.525407
      8          1           0       -2.120807    1.930786    0.286963
      9          1           0       -0.514950    2.170877   -0.407566
     10          1           0       -1.761115    1.322930   -1.336089
     11          1           0       -0.477731    0.287371    1.252827
     12          1           0       -2.469667   -1.050169   -0.627707
     13          1           0       -2.827783   -0.485110    1.013471
     14          1           0       -1.657672   -1.795069    0.767651
     15          1           0        1.197311   -2.245302   -0.641315
     16          1           0        1.966391   -0.114551   -1.374460
     17          1           0        1.524996    0.836332    1.518463
     18          1           0        1.770411    1.905107    0.102419
     19          1           0        3.044266    0.814473    0.642423
 ---------------------------------------------------------------------

 SCF Done:  E(RHF) =  -309.038389946     A.U. after    2 cycles

 The electronic state is 1-A.
 Alpha  occ. eigenvalues --  -20.62872 -11.30359 -11.30185 -11.23671 -11.23555
 Alpha  occ. eigenvalues --  -11.23181 -11.22575  -1.38683  -1.08862  -1.01613
 Alpha  occ. eigenvalues --   -0.94617  -0.92301  -0.80840  -0.77544  -0.70154
 Alpha  occ. eigenvalues --   -0.66326  -0.62519  -0.61606  -0.57733  -0.56053
 Alpha  occ. eigenvalues --   -0.55312  -0.54865  -0.52957  -0.51683  -0.49431
 Alpha  occ. eigenvalues --   -0.47883  -0.44412  -0.32611
 Alpha virt. eigenvalues --    0.03309   0.04099   0.04567   0.04962   0.06093
 Alpha virt. eigenvalues --    0.06342   0.06446   0.06993   0.07599   0.09037
 Alpha virt. eigenvalues --    0.09279   0.09967   0.11310   0.12817   0.13827

 Mulliken charges:
               1
     1  C    0.561625
     2  C   -0.376286
     3  C    0.634354
     4  C   -0.043753
     5  O   -0.828079
     6  C    0.530188
     7  C    0.404544
     8  H    0.020075
     9  H   -0.148341
    10  H    0.027057
    11  H   -0.237652
    12  H    0.010312
    13  H    0.007204
    14  H   -0.004584
    15  H   -0.123855
    16  H   -0.409145
    17  H   -0.012429
    18  H    0.007186
    19  H   -0.018421
 Sum of Mulliken charges =  -0.00000

 Dipole moment (field-independent basis, Debye):
    X=             -0.3686    Y=              2.7099    Z=             -0.7582  Tot=              2.8380

 Test job not archived.
 1\1\GINC-SE138\SP\RHF\Aug-CC-pVDZ\C6H12O1\OHZDE\09-Apr-2025\0\\#t hf a
 ug-cc-pvdz iop(5/13=1,5/36=2,99/5=2) pseudo=read geom=check guess=(rea
 d,tcheck) scf=(maxcycle=1)\\title\\0,1\C,0,-1.21860431,-0.74387367,-1.
 04942995\C,0,-0.78564701,0.25738976,0.00160306\C,0,-1.93004726,0.80180
 395,0.82512396\C,0,1.14010109,0.58800942,1.73933024\O,0,0.0974703,-0.4
 2000493,0.93274411\C,0,1.56141584,-0.42258235,0.74939516\C,0,2.1406758
 4,-0.02188665,-0.57631649\H,0,-1.89779506,-0.26486449,-1.75643877\H,0,
 -0.36654481,-1.13200997,-1.60770617\H,0,-1.74002693,-1.58327772,-0.585

 Normal termination of Gaussian 16 at Wed Apr  9 16:02:33 2025.
