 Gaussian 16, Revision C.01,

 ----------------------------------------------------------------------
 #t hf aug-cc-pvdz symm=none int=(grid=ultrafine) guess=(read,tcheck) s
 table=(opt,rrhf)
 ----------------------------------------------------------------------
 -----
 title
 -----
 Symbolic Z-matrix:
 Charge =  0 Multiplicity = 1

 SCF Done:  E(RHF) =  -306.837742168     A.U. after   14 cycles

 1\1\GINC-SE069\Stability\RHF\Aug-CC-pVDZ\C4H10O2\OHZDE\09-Apr-2025\0\\
 #t hf aug-cc-pvdz symm=none int=(grid=ultrafine) guess=(read,tcheck) s
 table=(opt,rrhf)\\title\\0,1\C,0,2.42726793,-0.56565978,-0.53066546\O,
 0,1.28179271,-0.17965069,0.21834822\C,0,0.13580813,0.03521238,-0.58621
 374\C,0,-1.07041169,0.08125991,0.32858184\C,0,-2.34291637,0.4389909,-0
 .21008552\O,0,-0.99732073,-0.72946347,1.39567314\H,0,2.25181855,-1.501
 502,-1.09069048\H,0,2.72333175,0.22326956,-1.2425257\H,0,3.23651506,-0
 .71985904,0.19177027\H,0,-0.03807375,-0.83191992,-1.25813683\H,0,0.207

 Normal termination of Gaussian 16 at Wed Apr  9 03:05:58 2025.
 Gaussian 16:  ES64L-G16RevC.01  3-Jul-2019

 ----------------------------------------------------------------------
 #t hf aug-cc-pvdz iop(5/13=1,5/36=2,99/5=2) pseudo=read geom=check gue
 ss=(read,tcheck) scf=(maxcycle=1)
 ----------------------------------------------------------------------
 -----
 title
 -----
 Structure from the checkpoint file:  "Grambow2020_b97d3_006569_reverse_mol1.chk"
 Charge =  0 Multiplicity = 1

                         Standard orientation:
 ---------------------------------------------------------------------
 Center     Atomic      Atomic             Coordinates (Angstroms)
 Number     Number       Type             X           Y           Z
 ---------------------------------------------------------------------
      1          6           0       -2.580321   -0.142532   -0.119151
      2          8           0       -1.277190    0.262596    0.280672
      3          6           0       -0.268992   -0.663501   -0.083537
      4          6           0        1.070411    0.027921    0.064359
      5          6           0        2.269522   -0.730018   -0.093952
      6          8           0        1.061332    1.338083   -0.226663
      7          1           0       -2.648749   -0.273000   -1.213914
      8          1           0       -2.872156   -1.087494    0.369406
      9          1           0       -3.265884    0.651795    0.196475
     10          1           0       -0.347925   -0.923643   -1.160444
     11          1           0       -0.305644   -1.588409    0.508108
     12          1           0        0.940416    0.161486    1.801471
     13          1           0        3.185579   -0.169566   -0.263693
     14          1           0        2.187382   -1.733138   -0.510664
     15          1           0        1.759655   -0.448037    1.239593
     16          1           0        0.150471    1.653358   -0.004728
 ---------------------------------------------------------------------

 SCF Done:  E(RHF) =  -306.938210227     A.U. after    2 cycles

 The electronic state is 1-A.
 Alpha  occ. eigenvalues --  -20.62364 -20.60658 -11.39787 -11.32637 -11.31030
 Alpha  occ. eigenvalues --  -11.20959  -1.40211  -1.35933  -1.08084  -0.99032
 Alpha  occ. eigenvalues --   -0.90414  -0.80712  -0.76053  -0.72279  -0.69600
 Alpha  occ. eigenvalues --   -0.67069  -0.63116  -0.61930  -0.57949  -0.56171
 Alpha  occ. eigenvalues --   -0.53192  -0.52416  -0.49183  -0.47124  -0.27805
 Alpha virt. eigenvalues --    0.02915   0.04252   0.04636   0.05037   0.06157
 Alpha virt. eigenvalues --    0.06264   0.06761   0.08343   0.08901   0.10030
 Alpha virt. eigenvalues --    0.11152   0.12026   0.13658   0.14331   0.14988

 Mulliken charges:
               1
     1  C    0.662020
     2  O   -0.659511
     3  C    0.841762
     4  C   -0.452899
     5  C    0.462505
     6  O   -0.444383
     7  H   -0.063725
     8  H   -0.049993
     9  H   -0.239731
    10  H    0.023558
    11  H   -0.118300
    12  H   -0.100082
    13  H   -0.218611
    14  H   -0.256873
    15  H    0.399106
    16  H    0.215157
 Sum of Mulliken charges =  -0.00000

 Dipole moment (field-independent basis, Debye):
    X=             -3.3664    Y=             -1.5766    Z=             -1.9970  Tot=              4.2197

 Test job not archived.
 1\1\GINC-SE069\SP\RHF\Aug-CC-pVDZ\C4H10O2\OHZDE\09-Apr-2025\0\\#t hf a
 ug-cc-pvdz iop(5/13=1,5/36=2,99/5=2) pseudo=read geom=check guess=(rea
 d,tcheck) scf=(maxcycle=1)\\title\\0,1\C,0,2.42726793,-0.56565978,-0.5
 3066546\O,0,1.28179271,-0.17965069,0.21834822\C,0,0.13580813,0.0352123
 8,-0.58621374\C,0,-1.07041169,0.08125991,0.32858184\C,0,-2.34291637,0.
 4389909,-0.21008552\O,0,-0.99732073,-0.72946347,1.39567314\H,0,2.25181
 855,-1.501502,-1.09069048\H,0,2.72333175,0.22326956,-1.2425257\H,0,3.2
 3651506,-0.71985904,0.19177027\H,0,-0.03807375,-0.83191992,-1.25813683

 Normal termination of Gaussian 16 at Wed Apr  9 03:06:02 2025.
