 Gaussian 16, Revision C.01,

 ----------------------------------------------------------------------
 #t hf aug-cc-pvdz symm=none int=(grid=ultrafine) guess=(read,tcheck) s
 table=(opt,rrhf)
 ----------------------------------------------------------------------
 -----
 title
 -----
 Symbolic Z-matrix:
 Charge =  0 Multiplicity = 1

 SCF Done:  E(RHF) =  -281.288015604     A.U. after   15 cycles
 Normal termination of Gaussian 16 at Wed Apr  9 03:03:33 2025.
 Gaussian 16:  ES64L-G16RevC.01  3-Jul-2019

 ----------------------------------------------------------------------
 #t hf aug-cc-pvdz iop(5/13=1,5/36=2,99/5=2) pseudo=read geom=check gue
 ss=(read,tcheck) scf=(maxcycle=1)
 ----------------------------------------------------------------------
 -----
 title
 -----
 Structure from the checkpoint file:  "Grambow2020_b97d3_006498_forward_mol2.chk"
 Charge =  0 Multiplicity = 1

                         Standard orientation:
 ---------------------------------------------------------------------
 Center     Atomic      Atomic             Coordinates (Angstroms)
 Number     Number       Type             X           Y           Z
 ---------------------------------------------------------------------
      1          8           0        0.159721    1.723879    0.000076
      2          6           0        0.043554    0.505307   -0.000021
      3          6           0       -1.216348   -0.198375   -0.000169
      4          6           0       -2.282038   -0.790347   -0.000085
      5          6           0        1.228136   -0.374281   -0.000064
      6          7           0        2.186469   -1.048646    0.000068
      7          1           0       -3.222866   -1.304332    0.000949
 ---------------------------------------------------------------------

 SCF Done:  E(RHF) =  -281.372085606     A.U. after    2 cycles

 The electronic state is 1-A.
 Alpha  occ. eigenvalues --  -20.64167 -15.69801 -11.45264 -11.33214 -11.32427
 Alpha  occ. eigenvalues --  -11.30870  -1.41852  -1.22385  -1.10040  -0.99416
 Alpha  occ. eigenvalues --   -0.84306  -0.76266  -0.72831  -0.63081  -0.60076
 Alpha  occ. eigenvalues --   -0.53790  -0.51083  -0.49806  -0.45832  -0.45693
 Alpha virt. eigenvalues --   -0.00025   0.02361   0.06583   0.07448   0.08660
 Alpha virt. eigenvalues --    0.08808   0.09072   0.11535   0.11733   0.13286
 Alpha virt. eigenvalues --    0.13292   0.14041   0.14819   0.14943   0.15976

 Mulliken charges:
               1
     1  O   -0.466087
     2  C    0.580422
     3  C   -0.030006
     4  C    0.594536
     5  C   -0.121688
     6  N   -0.169560
     7  H   -0.387616
 Sum of Mulliken charges =   0.00000

 Dipole moment (field-independent basis, Debye):
    X=             -3.8854    Y=             -1.7799    Z=              0.0007  Tot=              4.2737

 Test job not archived.
 1\1\GINC-SE042\SP\RHF\Aug-CC-pVDZ\C4H1N1O1\OHZDE\09-Apr-2025\0\\#t hf
 aug-cc-pvdz iop(5/13=1,5/36=2,99/5=2) pseudo=read geom=check guess=(re
 ad,tcheck) scf=(maxcycle=1)\\title\\0,1\O,0,-0.90177972,-1.80484559,0.
 20537883\C,0,-0.59386621,-0.62604285,0.08695418\C,0,0.75973879,-0.1398
 934,-0.03109173\C,0,1.90418528,0.26815048,-0.13043119\C,0,-1.62194306,
 0.43173629,0.05420942\N,0,-2.4595617,1.25090768,0.03135279\H,0,2.91322
 656,0.61998738,-0.21637226\\Version=ES64L-G16RevC.01\State=1-A\HF=-281
 .3720856\RMSD=6.836e-03\Dipole=1.6180022,0.4389953,-0.1284565\Quadrupo

 Normal termination of Gaussian 16 at Wed Apr  9 03:03:35 2025.
