 Gaussian 16, Revision C.01,

 ----------------------------------------------------------------------
 #t hf aug-cc-pvdz symm=none int=(grid=ultrafine) guess=(read,tcheck) s
 table=(opt,rrhf)
 ----------------------------------------------------------------------
 -----
 title
 -----
 Symbolic Z-matrix:
 Charge =  0 Multiplicity = 1

 SCF Done:  E(RHF) =  -359.633043796     A.U. after   15 cycles
 Normal termination of Gaussian 16 at Wed Apr  9 14:42:52 2025.
 Gaussian 16:  ES64L-G16RevC.01  3-Jul-2019

 ----------------------------------------------------------------------
 #t hf aug-cc-pvdz iop(5/13=1,5/36=2,99/5=2) pseudo=read geom=check gue
 ss=(read,tcheck) scf=(maxcycle=1)
 ----------------------------------------------------------------------
 -----
 title
 -----
 Structure from the checkpoint file:  "Grambow2020_wb97xd3_006595_forward_mol1.chk"
 Charge =  0 Multiplicity = 1

                         Standard orientation:
 ---------------------------------------------------------------------
 Center     Atomic      Atomic             Coordinates (Angstroms)
 Number     Number       Type             X           Y           Z
 ---------------------------------------------------------------------
      1          6           0       -2.234337   -0.678831   -0.116239
      2          7           0       -0.983889   -0.287428   -0.730747
      3          6           0       -0.333598    0.644177   -0.087299
      4          6           0        1.065874    0.827345   -0.659863
      5          8           0        1.878563   -0.358682   -0.190898
      6          6           0        1.346228   -1.130363    0.619885
      7          8           0       -0.567174    1.217566    0.997677
      8          1           0       -2.956842    0.144374   -0.116253
      9          1           0       -2.664216   -1.515314   -0.668347
     10          1           0       -2.115763   -0.973242    0.937083
     11          1           0        1.598327    1.688025   -0.262955
     12          1           0        1.141154    0.742455   -1.740005
     13          1           0        1.926594   -2.018580    0.862009
     14          1           0        0.401857   -0.900767    1.110560
 ---------------------------------------------------------------------

 SCF Done:  E(RHF) =  -359.746248570     A.U. after    2 cycles

 The electronic state is 1-A.
 Alpha  occ. eigenvalues --  -20.73582 -20.49314 -15.55716 -11.45990 -11.33280
 Alpha  occ. eigenvalues --  -11.30836 -11.21980  -1.51752  -1.29309  -1.12414
 Alpha  occ. eigenvalues --   -1.06851  -0.95532  -0.88074  -0.81799  -0.79075
 Alpha  occ. eigenvalues --   -0.73181  -0.68515  -0.62623  -0.61263  -0.60900
 Alpha  occ. eigenvalues --   -0.57521  -0.55973  -0.50957  -0.49229  -0.41098
 Alpha  occ. eigenvalues --   -0.37185  -0.31759
 Alpha virt. eigenvalues --    0.00440   0.01522   0.04057   0.05134   0.05370
 Alpha virt. eigenvalues --    0.06801   0.07534   0.08304   0.08632   0.10511
 Alpha virt. eigenvalues --    0.11020   0.12645   0.13121   0.13813   0.14933

 Mulliken charges:
               1
     1  C    0.730201
     2  N   -0.652538
     3  C    0.129660
     4  C    0.942332
     5  O   -0.386847
     6  C    0.829999
     7  O   -0.703375
     8  H   -0.094133
     9  H   -0.236581
    10  H   -0.134035
    11  H   -0.139438
    12  H   -0.158108
    13  H   -0.178055
    14  H    0.050919
 Sum of Mulliken charges =  -0.00000

 Dipole moment (field-independent basis, Debye):
    X=              5.7686    Y=             -3.8981    Z=              0.2976  Tot=              6.9686

 Test job not archived.
 1\1\GINC-SE226\SP\RHF\Aug-CC-pVDZ\C4H7N1O2\OHZDE\09-Apr-2025\0\\#t hf
 aug-cc-pvdz iop(5/13=1,5/36=2,99/5=2) pseudo=read geom=check guess=(re
 ad,tcheck) scf=(maxcycle=1)\\title\\0,1\C,0,2.01547511,-0.64125999,-0.
 4307821\N,0,0.99457745,0.22352627,0.12089534\C,0,0.13968723,0.67790117
 ,-0.75517421\C,0,-1.02669449,1.37593603,-0.06800386\O,0,-1.89076005,0.
 2842632,0.52249966\C,0,-1.59635161,-0.88789123,0.24751331\O,0,0.007794
 53,0.45227723,-1.97673181\H,0,2.66725888,-0.1007286,-1.12553729\H,0,2.
 62869776,-1.04092152,0.37764301\H,0,1.59588233,-1.48045891,-1.00516107

 Normal termination of Gaussian 16 at Wed Apr  9 14:42:57 2025.
