 Gaussian 16, Revision C.01,

 ----------------------------------------------------------------------
 #t hf aug-cc-pvdz symm=none int=(grid=ultrafine) guess=(read,tcheck) s
 table=(opt,rrhf)
 ----------------------------------------------------------------------
 -----
 title
 -----
 Symbolic Z-matrix:
 Charge =  0 Multiplicity = 1

 SCF Done:  E(RHF) =  -306.431614730     A.U. after   15 cycles
 Normal termination of Gaussian 16 at Wed Apr  9 16:28:10 2025.
 Gaussian 16:  ES64L-G16RevC.01  3-Jul-2019

 ----------------------------------------------------------------------
 #t hf aug-cc-pvdz iop(5/13=1,5/36=2,99/5=2) pseudo=read geom=check gue
 ss=(read,tcheck) scf=(maxcycle=1)
 ----------------------------------------------------------------------
 -----
 title
 -----
 Structure from the checkpoint file:  "Grambow2020_wb97xd3_008452_reverse_mol1.chk"
 Charge =  0 Multiplicity = 1

                         Standard orientation:
 ---------------------------------------------------------------------
 Center     Atomic      Atomic             Coordinates (Angstroms)
 Number     Number       Type             X           Y           Z
 ---------------------------------------------------------------------
      1          6           0       -1.182665    0.850866   -0.724520
      2          6           0       -1.269995   -0.614328   -0.316523
      3          6           0        0.076193   -1.168404    0.046870
      4          8           0        1.239000   -0.642492   -0.559850
      5          6           0        1.594867    0.545513    0.080474
      6          6           0       -0.334194    1.147810    0.460940
      7          6           0       -0.597360   -0.244925    1.002951
      8          1           0        0.291996    1.064090   -0.558848
      9          1           0       -1.118465    1.278618   -1.719604
     10          1           0       -2.136031   -1.252264   -0.450903
     11          1           0        0.179256   -2.209660    0.331072
     12          1           0        2.250815    1.131586   -0.564689
     13          1           0        1.983997    0.427522    1.094790
     14          1           0       -0.237520    2.073795    1.017346
     15          1           0       -0.847128   -0.472941    2.028492
 ---------------------------------------------------------------------

 SCF Done:  E(RHF) =  -306.523565123     A.U. after    2 cycles

 The electronic state is 1-A.
 Alpha  occ. eigenvalues --  -20.59061 -11.31603 -11.31075 -11.29989 -11.25343
 Alpha  occ. eigenvalues --  -11.24959 -11.20996  -1.37081  -1.19808  -1.03838
 Alpha  occ. eigenvalues --   -0.91395  -0.87342  -0.80801  -0.73683  -0.72160
 Alpha  occ. eigenvalues --   -0.69158  -0.65166  -0.63957  -0.60178  -0.55318
 Alpha  occ. eigenvalues --   -0.52698  -0.50466  -0.46895  -0.43173  -0.39650
 Alpha  occ. eigenvalues --   -0.24213
 Alpha virt. eigenvalues --    0.02912   0.03865   0.04441   0.04801   0.06061
 Alpha virt. eigenvalues --    0.06246   0.06496   0.09455   0.10109   0.10583
 Alpha virt. eigenvalues --    0.12227   0.12836   0.13393   0.13576   0.14198

 Mulliken charges:
               1
     1  C   -0.234092
     2  C    0.397281
     3  C    0.991812
     4  O   -0.799290
     5  C    0.616683
     6  C   -0.144227
     7  C    0.713525
     8  H    0.630104
     9  H   -0.197967
    10  H   -0.385233
    11  H   -0.377444
    12  H   -0.211063
    13  H   -0.253425
    14  H   -0.316683
    15  H   -0.429981
 Sum of Mulliken charges =  -0.00000

 Dipole moment (field-independent basis, Debye):
    X=              1.1378    Y=              0.3851    Z=              2.0805  Tot=              2.4024

 Test job not archived.
 1\1\GINC-SE113\SP\RHF\Aug-CC-pVDZ\C6H8O1\OHZDE\09-Apr-2025\0\\#t hf au
 g-cc-pvdz iop(5/13=1,5/36=2,99/5=2) pseudo=read geom=check guess=(read
 ,tcheck) scf=(maxcycle=1)\\title\\0,1\C,0,1.02478403,1.20969385,-0.129
 0759\C,0,1.46781861,-0.24137949,-0.26687561\C,0,0.44180771,-1.18756155
 ,0.28386901\O,0,-0.39972673,-0.77325675,1.34074332\C,0,-1.44128154,-0.
 00123201,0.82387572\C,0,-0.32019091,0.8675421,-0.66514317\C,0,0.171621
 4,-0.52291553,-1.02220255\H,0,-0.30643163,0.99839387,0.52724038\H,0,1.
 27596791,1.92854709,0.6438675\H,0,2.46481376,-0.56977051,-0.53742841\H

 Normal termination of Gaussian 16 at Wed Apr  9 16:28:15 2025.
