 Gaussian 16, Revision C.01,

 ----------------------------------------------------------------------
 #t hf aug-cc-pvdz symm=none int=(grid=ultrafine) guess=(read,tcheck) s
 table=(opt,rrhf)
 ----------------------------------------------------------------------
 -----
 title
 -----
 Symbolic Z-matrix:
 Charge =  0 Multiplicity = 1

 SCF Done:  E(RHF) =  -344.667938637     A.U. after   17 cycles

 1\1\GINC-SE128\Stability\RHF\Aug-CC-pVDZ\C5H10O2\OHZDE\09-Apr-2025\0\\
 #t hf aug-cc-pvdz symm=none int=(grid=ultrafine) guess=(read,tcheck) s
 table=(opt,rrhf)\\title\\0,1\C,0,2.14482201,0.11860882,-0.09447819\O,0
 ,1.06562075,-0.03590423,0.80236469\C,0,-0.21570076,0.00028611,0.282694
 57\C,0,-0.49834186,0.76558015,-0.87568241\C,0,-1.19139964,-0.10832243,
 1.32973696\C,0,-0.62168789,-1.5914068,-0.10819772\O,0,-1.54773777,-2.0
 1105241,-0.71831643\H,0,2.06925053,-0.56006123,-0.95125512\H,0,3.04274
 053,-0.12363624,0.47040297\H,0,2.22089972,1.14678079,-0.45787586\H,0,0

 Normal termination of Gaussian 16 at Wed Apr  9 03:53:27 2025.
 Gaussian 16:  ES64L-G16RevC.01  3-Jul-2019

 ----------------------------------------------------------------------
 #t hf aug-cc-pvdz iop(5/13=1,5/36=2,99/5=2) pseudo=read geom=check gue
 ss=(read,tcheck) scf=(maxcycle=1)
 ----------------------------------------------------------------------
 -----
 title
 -----
 Structure from the checkpoint file:  "Grambow2020_wb97xd3_008393_forward_mol1.chk"
 Charge =  0 Multiplicity = 1

                         Standard orientation:
 ---------------------------------------------------------------------
 Center     Atomic      Atomic             Coordinates (Angstroms)
 Number     Number       Type             X           Y           Z
 ---------------------------------------------------------------------
      1          6           0       -2.178326   -0.706632    0.056226
      2          8           0       -1.212112    0.008386   -0.684082
      3          6           0       -0.054296    0.392903   -0.032346
      4          6           0       -0.070131    0.662602    1.358485
      5          6           0        0.788676    1.159717   -0.904972
      6          6           0        1.056447   -0.861067   -0.244291
      7          8           0        2.112052   -1.035108    0.266907
      8          1           0       -1.743270   -1.563265    0.582797
      9          1           0       -2.905176   -1.068730   -0.668071
     10          1           0       -2.687554   -0.063363    0.778636
     11          1           0       -0.833703    0.240659    1.997933
     12          1           0       -0.185435    2.412281    0.794238
     13          1           0        0.891109    0.828114    1.828531
     14          1           0        0.096309    2.616617    0.039143
     15          1           0        1.779546    1.419735   -0.562636
     16          1           0        0.613104    1.097357   -1.971565
     17          1           0        0.521335   -1.590768   -0.880220
 ---------------------------------------------------------------------

 SCF Done:  E(RHF) =  -344.780346516     A.U. after    2 cycles

 The electronic state is 1-A.
 Alpha  occ. eigenvalues --  -20.60425 -20.58836 -11.38939 -11.33672 -11.30269
 Alpha  occ. eigenvalues --  -11.27708 -11.25502  -1.39417  -1.37727  -1.10704
 Alpha  occ. eigenvalues --   -0.96893  -0.93616  -0.86435  -0.77211  -0.72054
 Alpha  occ. eigenvalues --   -0.70019  -0.68369  -0.67465  -0.63618  -0.60151
 Alpha  occ. eigenvalues --   -0.58336  -0.57955  -0.55727  -0.54376  -0.52155
 Alpha  occ. eigenvalues --   -0.49837  -0.39866  -0.28111
 Alpha virt. eigenvalues --    0.02930   0.03706   0.04359   0.04714   0.05411
 Alpha virt. eigenvalues --    0.06117   0.06624   0.07018   0.08012   0.09143
 Alpha virt. eigenvalues --    0.09740   0.10396   0.11342   0.12765   0.13103

 Mulliken charges:
               1
     1  C    0.866433
     2  O   -0.694103
     3  C   -0.905047
     4  C    0.980642
     5  C    0.580165
     6  C    0.801060
     7  O   -0.464298
     8  H   -0.048047
     9  H   -0.289528
    10  H   -0.093647
    11  H   -0.272096
    12  H    0.149084
    13  H   -0.202945
    14  H    0.168933
    15  H   -0.172091
    16  H   -0.250977
    17  H   -0.153539
 Sum of Mulliken charges =   0.00000

 Dipole moment (field-independent basis, Debye):
    X=             -2.2349    Y=             -1.0407    Z=             -0.3739  Tot=              2.4935

 Test job not archived.
 1\1\GINC-SE128\SP\RHF\Aug-CC-pVDZ\C5H10O2\OHZDE\09-Apr-2025\0\\#t hf a
 ug-cc-pvdz iop(5/13=1,5/36=2,99/5=2) pseudo=read geom=check guess=(rea
 d,tcheck) scf=(maxcycle=1)\\title\\0,1\C,0,2.14482201,0.11860882,-0.09
 447819\O,0,1.06562075,-0.03590423,0.80236469\C,0,-0.21570076,0.0002861
 1,0.28269457\C,0,-0.49834186,0.76558015,-0.87568241\C,0,-1.19139964,-0
 .10832243,1.32973696\C,0,-0.62168789,-1.5914068,-0.10819772\O,0,-1.547
 73777,-2.01105241,-0.71831643\H,0,2.06925053,-0.56006123,-0.95125512\H
 ,0,3.04274053,-0.12363624,0.47040297\H,0,2.22089972,1.14678079,-0.4578

 Normal termination of Gaussian 16 at Wed Apr  9 03:53:34 2025.
