 Gaussian 16, Revision C.01,

 ----------------------------------------------------------------------
 #t hf aug-cc-pvdz symm=none int=(grid=ultrafine) guess=(read,tcheck) s
 table=(opt,rrhf)
 ----------------------------------------------------------------------
 -----
 title
 -----
 Symbolic Z-matrix:
 Charge =  0 Multiplicity = 1

 SCF Done:  E(RHF) =  -360.904418040     A.U. after   14 cycles
 Normal termination of Gaussian 16 at Wed Apr  9 14:48:53 2025.
 Gaussian 16:  ES64L-G16RevC.01  3-Jul-2019

 ----------------------------------------------------------------------
 #t hf aug-cc-pvdz iop(5/13=1,5/36=2,99/5=2) pseudo=read geom=check gue
 ss=(read,tcheck) scf=(maxcycle=1)
 ----------------------------------------------------------------------
 -----
 title
 -----
 Structure from the checkpoint file:  "Grambow2020_wb97xd3_006617_reverse_mol2.chk"
 Charge =  0 Multiplicity = 1

                         Standard orientation:
 ---------------------------------------------------------------------
 Center     Atomic      Atomic             Coordinates (Angstroms)
 Number     Number       Type             X           Y           Z
 ---------------------------------------------------------------------
      1          6           0       -2.682167    0.446987   -0.453319
      2          6           0       -1.403650    0.065508    0.260457
      3          8           0       -1.451605   -1.322650    0.514284
      4          6           0       -0.178625    0.412800   -0.575291
      5          7           0        1.018453   -0.007148    0.120425
      6          6           0        2.193651   -0.081312   -0.100810
      7          8           0        3.348066   -0.194453   -0.207581
      8          1           0       -2.713089    1.519453   -0.653929
      9          1           0       -3.542433    0.185515    0.161954
     10          1           0       -2.764803   -0.092081   -1.399138
     11          1           0       -1.333626    0.616027    1.209147
     12          1           0       -0.621318   -1.575602    0.927103
     13          1           0       -0.242910   -0.100718   -1.538548
     14          1           0       -0.141078    1.491015   -0.751068
     15          1           0        0.821266    2.188700    1.883823
     16          1           0        0.661871    2.890657    2.077842
 ---------------------------------------------------------------------

 SCF Done:  E(RHF) =  -361.023798970     A.U. after    2 cycles

 The electronic state is 1-A.
 Alpha  occ. eigenvalues --  -20.62837 -20.57683 -15.65904 -11.42109 -11.30727
 Alpha  occ. eigenvalues --  -11.30363 -11.23598  -1.43483  -1.33758  -1.24893
 Alpha  occ. eigenvalues --   -1.06319  -0.97407  -0.83000  -0.75788  -0.73301
 Alpha  occ. eigenvalues --   -0.71648  -0.69271  -0.66784  -0.64353  -0.60662
 Alpha  occ. eigenvalues --   -0.59852  -0.57914  -0.55279  -0.54443  -0.51051
 Alpha  occ. eigenvalues --   -0.47922  -0.44226  -0.43241
 Alpha virt. eigenvalues --    0.03269   0.04274   0.04374   0.05153   0.06684
 Alpha virt. eigenvalues --    0.06786   0.07024   0.07855   0.08334   0.10432
 Alpha virt. eigenvalues --    0.11512   0.12118   0.12854   0.13850   0.14179

 Mulliken charges:
               1
     1  C    0.432850
     2  C    0.236657
     3  O   -0.595870
     4  C    0.840532
     5  N   -0.062770
     6  C   -0.396359
     7  O   -0.206138
     8  H    0.003313
     9  H   -0.029138
    10  H    0.029455
    11  H   -0.183345
    12  H    0.165965
    13  H   -0.127609
    14  H   -0.118765
    15  H    0.002674
    16  H    0.008551
 Sum of Mulliken charges =  -0.00000

 Dipole moment (field-independent basis, Debye):
    X=             -1.7629    Y=              1.8673    Z=             -0.6041  Tot=              2.6380

 Test job not archived.
 1\1\GINC-SE129\SP\RHF\Aug-CC-pVDZ\C4H9N1O2\OHZDE\09-Apr-2025\0\\#t hf
 aug-cc-pvdz iop(5/13=1,5/36=2,99/5=2) pseudo=read geom=check guess=(re
 ad,tcheck) scf=(maxcycle=1)\\title\\0,1\C,0,-1.7555194,-1.280492,-0.17
 568077\C,0,-0.58725325,-0.40435674,-0.57210313\O,0,-0.99039572,0.37337
 627,-1.67949672\C,0,-0.15252818,0.49259729,0.57953067\N,0,0.93459025,1
 .34414144,0.14776914\C,0,1.56156661,2.26991247,0.57833243\O,0,2.231683
 24,3.16765505,0.89751099\H,0,-1.49285925,-1.92622814,0.66421095\H,0,-2
 .04965444,-1.90867952,-1.01583057\H,0,-2.61313358,-0.66612703,0.105477

 Normal termination of Gaussian 16 at Wed Apr  9 14:48:58 2025.
