 Gaussian 16, Revision C.01,

 ----------------------------------------------------------------------
 #t hf aug-cc-pvdz symm=none int=(grid=ultrafine) guess=(read,tcheck) s
 table=(opt,rrhf)
 ----------------------------------------------------------------------
 -----
 title
 -----
 Symbolic Z-matrix:
 Charge =  0 Multiplicity = 1

 SCF Done:  E(RHF) =  -358.440762246     A.U. after   15 cycles
 Normal termination of Gaussian 16 at Wed Apr  9 03:33:08 2025.
 Gaussian 16:  ES64L-G16RevC.01  3-Jul-2019

 ----------------------------------------------------------------------
 #t hf aug-cc-pvdz iop(5/13=1,5/36=2,99/5=2) pseudo=read geom=check gue
 ss=(read,tcheck) scf=(maxcycle=1)
 ----------------------------------------------------------------------
 -----
 title
 -----
 Structure from the checkpoint file:  "Grambow2020_wb97xd3_007083_forward_mol1.chk"
 Charge =  0 Multiplicity = 1

                         Standard orientation:
 ---------------------------------------------------------------------
 Center     Atomic      Atomic             Coordinates (Angstroms)
 Number     Number       Type             X           Y           Z
 ---------------------------------------------------------------------
      1          8           0       -1.821400   -1.082590   -0.134148
      2          6           0       -0.835243   -0.433816   -0.046913
      3          7           0        0.498158   -1.013078   -0.169310
      4          6           0        1.648576   -0.125410   -0.501128
      5          6           0        1.158436   -0.078032    0.864536
      6          8           0       -0.340735    1.877266   -0.399488
      7          6           0       -0.543411    0.998835    0.439626
      8          1           0        0.606939   -2.017987   -0.221312
      9          1           0        1.381637    0.697988   -1.161688
     10          1           0        2.522722   -0.707022   -0.777128
     11          1           0        1.690162   -0.620784    1.641254
     12          1           0       -0.961634    1.212484    1.436407
 ---------------------------------------------------------------------

 SCF Done:  E(RHF) =  -358.548978105     A.U. after    2 cycles

 The electronic state is 1-A.
 Alpha  occ. eigenvalues --  -20.60821 -20.51982 -15.74850 -11.41013 -11.35328
 Alpha  occ. eigenvalues --  -11.32188 -11.28222  -1.42429  -1.33398  -1.30385
 Alpha  occ. eigenvalues --   -1.01886  -0.96146  -0.85294  -0.81023  -0.74572
 Alpha  occ. eigenvalues --   -0.71086  -0.68070  -0.64194  -0.63622  -0.60475
 Alpha  occ. eigenvalues --   -0.54856  -0.52843  -0.52347  -0.49978  -0.40466
 Alpha  occ. eigenvalues --   -0.35850
 Alpha virt. eigenvalues --    0.01674   0.03543   0.03925   0.05204   0.06860
 Alpha virt. eigenvalues --    0.09299   0.09588   0.10328   0.11111   0.12137
 Alpha virt. eigenvalues --    0.12419   0.12791   0.14047   0.14257   0.14907

 Mulliken charges:
               1
     1  O   -0.346006
     2  C    0.384995
     3  N   -0.442105
     4  C    0.885407
     5  C    0.394446
     6  O   -0.683437
     7  C    0.843439
     8  H   -0.107346
     9  H   -0.205824
    10  H   -0.253844
    11  H   -0.339246
    12  H   -0.130478
 Sum of Mulliken charges =  -0.00000

 Dipole moment (field-independent basis, Debye):
    X=              4.2966    Y=             -4.5359    Z=              0.9633  Tot=              6.3217

 Test job not archived.
 1\1\GINC-SE423\SP\RHF\Aug-CC-pVDZ\C4H5N1O2\OHZDE\09-Apr-2025\0\\#t hf
 aug-cc-pvdz iop(5/13=1,5/36=2,99/5=2) pseudo=read geom=check guess=(re
 ad,tcheck) scf=(maxcycle=1)\\title\\0,1\O,0,0.90104664,2.2013402,0.619
 90411\C,0,0.37115957,1.14972936,0.50007893\N,0,0.77182477,0.180512,-0.
 51410431\C,0,0.40218136,-1.25241125,-0.33630601\C,0,-0.65124456,-0.354
 59812,-0.77419224\O,0,-0.86275282,-0.25801413,1.98522781\C,0,-0.933443
 45,0.54599129,1.05495437\H,0,1.45012453,0.44126667,-1.21858828\H,0,0.3
 9387938,-1.56976603,0.70523026\H,0,0.94418157,-1.88412856,-1.03326348\

 Normal termination of Gaussian 16 at Wed Apr  9 03:33:13 2025.
