 Gaussian 16, Revision C.01,

 ----------------------------------------------------------------------
 #t hf aug-cc-pvdz symm=none int=(grid=ultrafine) guess=(read,tcheck) s
 table=(opt,rrhf)
 ----------------------------------------------------------------------
 -----
 title
 -----
 Symbolic Z-matrix:
 Charge =  0 Multiplicity = 1

 SCF Done:  E(RHF) =  -341.162079496     A.U. after   16 cycles
 Normal termination of Gaussian 16 at Wed Apr  9 16:57:03 2025.
 Gaussian 16:  ES64L-G16RevC.01  3-Jul-2019

 ----------------------------------------------------------------------
 #t hf aug-cc-pvdz iop(5/13=1,5/36=2,99/5=2) pseudo=read geom=check gue
 ss=(read,tcheck) scf=(maxcycle=1)
 ----------------------------------------------------------------------
 -----
 title
 -----
 Structure from the checkpoint file:  "Grambow2020_wb97xd3_009086_forward_mol1.chk"
 Charge =  0 Multiplicity = 1

                         Standard orientation:
 ---------------------------------------------------------------------
 Center     Atomic      Atomic             Coordinates (Angstroms)
 Number     Number       Type             X           Y           Z
 ---------------------------------------------------------------------
      1          8           0       -0.392430    1.641408    0.174358
      2          6           0       -0.151348    0.572106   -0.528759
      3          6           0       -1.230949   -0.493467   -0.891235
      4          6           0       -1.139232   -0.940446    0.543316
      5          6           0        0.016803   -0.430943    1.059150
      6          6           0        1.031432   -0.131090   -0.039583
      7          8           0        2.165337   -0.395566   -0.235923
      8          1           0       -2.196875   -0.049658   -1.124459
      9          1           0       -0.927052   -1.174800   -1.683723
     10          1           0       -2.003543   -1.155487    1.163488
     11          1           0       -0.216020    0.956247    1.279882
 ---------------------------------------------------------------------

 SCF Done:  E(RHF) =  -341.262818851     A.U. after    2 cycles

 The electronic state is 1-A.
 Alpha  occ. eigenvalues --  -20.61366 -20.59691 -11.39922 -11.39741 -11.30803
 Alpha  occ. eigenvalues --  -11.30515 -11.29014  -1.41754  -1.38422  -1.18880
 Alpha  occ. eigenvalues --   -1.00676  -0.95882  -0.78721  -0.75660  -0.71506
 Alpha  occ. eigenvalues --   -0.70253  -0.67260  -0.65155  -0.61914  -0.59881
 Alpha  occ. eigenvalues --   -0.57958  -0.53666  -0.46310  -0.40625  -0.35635
 Alpha virt. eigenvalues --    0.02662   0.03448   0.04639   0.05151   0.05695
 Alpha virt. eigenvalues --    0.06517   0.08622   0.08954   0.10361   0.10942
 Alpha virt. eigenvalues --    0.11622   0.11812   0.14186   0.14684   0.14965

 Mulliken charges:
               1
     1  O   -0.794897
     2  C    0.309495
     3  C    0.364565
     4  C    0.812373
     5  C   -0.940596
     6  C    0.277928
     7  O   -0.326227
     8  H   -0.057032
     9  H   -0.093428
    10  H   -0.248499
    11  H    0.696318
 Sum of Mulliken charges =  -0.00000

 Dipole moment (field-independent basis, Debye):
    X=             -3.9879    Y=             -1.7025    Z=             -1.2098  Tot=              4.5017

 Test job not archived.
 1\1\GINC-SE174\SP\RHF\Aug-CC-pVDZ\C5H4O2\OHZDE\09-Apr-2025\0\\#t hf au
 g-cc-pvdz iop(5/13=1,5/36=2,99/5=2) pseudo=read geom=check guess=(read
 ,tcheck) scf=(maxcycle=1)\\title\\0,1\O,0,0.05415827,0.98993802,1.5240
 2865\C,0,-0.11519581,0.91856311,0.2347949\C,0,-1.12889323,-0.04281332,
 -0.45842137\C,0,-0.16319808,-1.14978334,-0.12950161\C,0,1.03691461,-0.
 57277875,0.16864229\C,0,1.16217291,0.80922777,-0.4645766\O,0,1.9606798
 4,1.35931161,-1.13839606\H,0,-2.06391516,-0.13378559,0.09096947\H,0,-1
 .32534487,0.20292474,-1.5003545\H,0,-0.46297814,-2.10724197,0.28437765

 Normal termination of Gaussian 16 at Wed Apr  9 16:57:08 2025.
