 Gaussian 16, Revision C.01,

 ----------------------------------------------------------------------
 #t hf aug-cc-pvdz symm=none int=(grid=ultrafine) guess=(read,tcheck) s
 table=(opt,rrhf)
 ----------------------------------------------------------------------
 -----
 title
 -----
 Symbolic Z-matrix:
 Charge =  0 Multiplicity = 1

 SCF Done:  E(RHF) =  -302.855182841     A.U. after   14 cycles
 Normal termination of Gaussian 16 at Wed Apr  9 03:59:43 2025.
 Gaussian 16:  ES64L-G16RevC.01  3-Jul-2019

 ----------------------------------------------------------------------
 #t hf aug-cc-pvdz iop(5/13=1,5/36=2,99/5=2) pseudo=read geom=check gue
 ss=(read,tcheck) scf=(maxcycle=1)
 ----------------------------------------------------------------------
 -----
 title
 -----
 Structure from the checkpoint file:  "Grambow2020_wb97xd3_008838_reverse_mol2.chk"
 Charge =  0 Multiplicity = 1

                         Standard orientation:
 ---------------------------------------------------------------------
 Center     Atomic      Atomic             Coordinates (Angstroms)
 Number     Number       Type             X           Y           Z
 ---------------------------------------------------------------------
      1          6           0       -1.980649    1.028914   -0.195949
      2          6           0        0.436994   -1.537272   -0.498398
      3          6           0        1.521958   -0.787712    0.279703
      4          6           0        1.558388    0.650389    0.025613
      5          7           0        1.559188    1.774639   -0.206510
      6          6           0       -1.339466   -0.086749    0.611539
      7          7           0       -0.775351   -1.131322   -0.258367
      8          1           0       -2.446325    1.754570    0.471945
      9          1           0       -1.235005    1.546626   -0.798996
     10          1           0       -2.756017    0.637858   -0.858424
     11          1           0        2.493191   -1.199149    0.007720
     12          1           0        1.396510   -0.952647    1.356369
     13          1           0       -2.077586   -0.569935    1.256708
     14          1           0       -0.556313    0.306795    1.255453
     15          1           0       -1.488658   -1.632757   -0.771683
 ---------------------------------------------------------------------

 SCF Done:  E(RHF) =  -302.946895973     A.U. after    2 cycles

 The electronic state is 1-A.
 Alpha  occ. eigenvalues --  -15.68718 -15.63863 -11.29514 -11.29154 -11.28984
 Alpha  occ. eigenvalues --  -11.27896 -11.24296  -1.25188  -1.19853  -1.06170
 Alpha  occ. eigenvalues --   -1.02479  -0.89017  -0.81902  -0.71117  -0.68290
 Alpha  occ. eigenvalues --   -0.65701  -0.62941  -0.59601  -0.58302  -0.54975
 Alpha  occ. eigenvalues --   -0.54829  -0.52173  -0.47202  -0.46559  -0.45101
 Alpha  occ. eigenvalues --   -0.34946
 Alpha virt. eigenvalues --    0.02610   0.03594   0.04267   0.04898   0.06422
 Alpha virt. eigenvalues --    0.07056   0.07721   0.07994   0.09238   0.10551
 Alpha virt. eigenvalues --    0.11733   0.12309   0.12831   0.13059   0.14761

 Mulliken charges:
               1
     1  C    0.341921
     2  C   -0.248973
     3  C    0.319087
     4  C   -0.207557
     5  N   -0.246618
     6  C    0.750189
     7  N   -0.234800
     8  H   -0.040752
     9  H   -0.059593
    10  H   -0.066192
    11  H   -0.032926
    12  H    0.157366
    13  H   -0.166138
    14  H   -0.229181
    15  H   -0.035832
 Sum of Mulliken charges =  -0.00000

 Dipole moment (field-independent basis, Debye):
    X=             -2.7971    Y=             -1.5800    Z=              2.2479  Tot=              3.9209

 Test job not archived.
 1\1\GINC-SE335\SP\RHF\Aug-CC-pVDZ\C5H8N2\OHZDE\09-Apr-2025\0\\#t hf au
 g-cc-pvdz iop(5/13=1,5/36=2,99/5=2) pseudo=read geom=check guess=(read
 ,tcheck) scf=(maxcycle=1)\\title\\0,1\C,0,-1.36068241,0.95451905,1.004
 51945\C,0,0.216714,-0.84612112,-1.60149268\C,0,1.63514991,-0.6415596,-
 1.06240005\C,0,1.87111244,0.67590164,-0.47704442\N,0,2.01845446,1.7240
 8456,-0.03272115\C,0,-0.71653452,-0.39274718,0.7255834\N,0,-0.72227213
 ,-0.71004073,-0.71156151\H,0,-1.40153597,1.13467145,2.0794093\H,0,-0.7
 8825779,1.75900299,0.54320422\H,0,-2.38261406,0.9876792,0.62039742\H,0

 Normal termination of Gaussian 16 at Wed Apr  9 03:59:48 2025.
