 Gaussian 16, Revision C.01,

 ----------------------------------------------------------------------
 #t hf aug-cc-pvdz symm=none int=(grid=ultrafine) guess=(read,tcheck) s
 table=(opt,rrhf)
 ----------------------------------------------------------------------
 -----
 title
 -----
 Symbolic Z-matrix:
 Charge =  0 Multiplicity = 1

 SCF Done:  E(RHF) =  -306.423123785     A.U. after   19 cycles
 Normal termination of Gaussian 16 at Wed Apr  9 16:23:13 2025.
 Gaussian 16:  ES64L-G16RevC.01  3-Jul-2019

 ----------------------------------------------------------------------
 #t hf aug-cc-pvdz iop(5/13=1,5/36=2,99/5=2) pseudo=read geom=check gue
 ss=(read,tcheck) scf=(maxcycle=1)
 ----------------------------------------------------------------------
 -----
 title
 -----
 Structure from the checkpoint file:  "Grambow2020_wb97xd3_008173_forward_mol1.chk"
 Charge =  0 Multiplicity = 1

                         Standard orientation:
 ---------------------------------------------------------------------
 Center     Atomic      Atomic             Coordinates (Angstroms)
 Number     Number       Type             X           Y           Z
 ---------------------------------------------------------------------
      1          6           0       -1.084331   -1.126848   -0.406085
      2          6           0       -0.103725   -0.767870    0.732403
      3          8           0        1.165479   -0.942017    0.085797
      4          6           0        1.712564    0.144428   -0.361374
      5          6           0        0.198495    1.692690    0.016160
      6          6           0       -0.660763    0.704582    0.688486
      7          6           0       -1.136761    0.338011   -0.680324
      8          1           0       -0.729914   -1.838838   -1.155001
      9          1           0       -2.025716   -1.484844    0.027012
     10          1           0       -0.102933   -1.332797    1.660898
     11          1           0        2.366193   -0.167110   -1.205923
     12          1           0        1.075062    2.165396    0.421203
     13          1           0       -0.411307    2.403814   -0.543323
     14          1           0       -1.309843    0.958585    1.535973
     15          1           0       -1.738252    0.921969   -1.362809
 ---------------------------------------------------------------------

 SCF Done:  E(RHF) =  -306.515168074     A.U. after    2 cycles

 The electronic state is 1-A.
 Alpha  occ. eigenvalues --  -20.62386 -11.31066 -11.29870 -11.28072 -11.25506
 Alpha  occ. eigenvalues --  -11.25100 -11.24136  -1.40809  -1.15547  -1.00655
 Alpha  occ. eigenvalues --   -0.92969  -0.83600  -0.81325  -0.73034  -0.71296
 Alpha  occ. eigenvalues --   -0.67861  -0.63596  -0.61388  -0.60049  -0.56284
 Alpha  occ. eigenvalues --   -0.54554  -0.47579  -0.47132  -0.44391  -0.37832
 Alpha  occ. eigenvalues --   -0.24575
 Alpha virt. eigenvalues --    0.03182   0.04214   0.04388   0.04630   0.06013
 Alpha virt. eigenvalues --    0.06138   0.06715   0.07268   0.08133   0.10431
 Alpha virt. eigenvalues --    0.12005   0.12464   0.12772   0.13262   0.13769

 Mulliken charges:
               1
     1  C    0.438599
     2  C    0.693570
     3  O   -0.559630
     4  C    0.297077
     5  C    0.708308
     6  C    0.374088
     7  C    0.185161
     8  H   -0.172513
     9  H   -0.059636
    10  H   -0.338777
    11  H   -0.270435
    12  H   -0.272139
    13  H   -0.209578
    14  H   -0.327643
    15  H   -0.486454
 Sum of Mulliken charges =  -0.00000

 Dipole moment (field-independent basis, Debye):
    X=             -1.1253    Y=             -0.1103    Z=              0.7312  Tot=              1.3465

 Test job not archived.
 1\1\GINC-SE226\SP\RHF\Aug-CC-pVDZ\C6H8O1\OHZDE\09-Apr-2025\0\\#t hf au
 g-cc-pvdz iop(5/13=1,5/36=2,99/5=2) pseudo=read geom=check guess=(read
 ,tcheck) scf=(maxcycle=1)\\title\\0,1\C,0,-1.53174575,0.016891,-0.3625
 5423\C,0,-0.67147979,-0.52010548,0.80285777\O,0,-0.09784012,-1.6987833
 3,0.21893857\C,0,1.10399293,-1.55786614,-0.2451359\C,0,1.52002808,0.58
 579048,0.00725472\C,0,0.22321503,0.77004138,0.67884296\C,0,-0.35808451
 ,0.8749072,-0.69435895\H,0,-1.92119066,-0.72095421,-1.06777359\H,0,-2.
 35837392,0.61222507,0.04266473\H,0,-1.12962764,-0.78791819,1.75134245\

 Normal termination of Gaussian 16 at Wed Apr  9 16:23:19 2025.
