 Gaussian 16, Revision C.01,

 ----------------------------------------------------------------------
 #t hf aug-cc-pvdz symm=none int=(grid=ultrafine) guess=(read,tcheck) s
 table=(opt,rrhf)
 ----------------------------------------------------------------------
 -----
 title
 -----
 Symbolic Z-matrix:
 Charge =  0 Multiplicity = 1

 SCF Done:  E(RHF) =  -354.724677004     A.U. after   15 cycles
 Normal termination of Gaussian 16 at Wed Apr  9 15:42:44 2025.
 Gaussian 16:  ES64L-G16RevC.01  3-Jul-2019

 ----------------------------------------------------------------------
 #t hf aug-cc-pvdz iop(5/13=1,5/36=2,99/5=2) pseudo=read geom=check gue
 ss=(read,tcheck) scf=(maxcycle=1)
 ----------------------------------------------------------------------
 -----
 title
 -----
 Structure from the checkpoint file:  "Grambow2020_wb97xd3_007314_reverse_mol2.chk"
 Charge =  0 Multiplicity = 1

                         Standard orientation:
 ---------------------------------------------------------------------
 Center     Atomic      Atomic             Coordinates (Angstroms)
 Number     Number       Type             X           Y           Z
 ---------------------------------------------------------------------
      1          8           0        3.165751    0.198751   -0.216807
      2          6           0        1.965811    0.243378    0.479920
      3          6           0       -0.259999   -0.586501   -0.058015
      4          7           0        0.885976   -0.339766   -0.289208
      5          7           0       -2.407006    1.132339   -0.034610
      6          6           0       -2.514715   -0.125887   -0.014772
      7          7           0       -1.416978   -0.981006    0.087362
      8          1           0        3.075756    0.712508   -1.022721
      9          1           0        1.679528    1.268330    0.738693
     10          1           0        2.117867   -0.332410    1.393476
     11          1           0       -3.321921    1.566861   -0.106871
     12          1           0       -3.457762   -0.672205   -0.055717
 ---------------------------------------------------------------------

 SCF Done:  E(RHF) =  -354.834107941     A.U. after    2 cycles

 The electronic state is 1-A.
 Alpha  occ. eigenvalues --  -20.59508 -15.66068 -15.64410 -15.62161 -11.38968
 Alpha  occ. eigenvalues --  -11.35983 -11.34544  -1.36396  -1.28857  -1.22941
 Alpha  occ. eigenvalues --   -1.15254  -0.97268  -0.88789  -0.77331  -0.72410
 Alpha  occ. eigenvalues --   -0.71574  -0.67486  -0.67088  -0.59222  -0.58831
 Alpha  occ. eigenvalues --   -0.55319  -0.51035  -0.48585  -0.44319  -0.41348
 Alpha  occ. eigenvalues --   -0.37738
 Alpha virt. eigenvalues --    0.03324   0.03529   0.04613   0.05110   0.06800
 Alpha virt. eigenvalues --    0.08384   0.09220   0.10228   0.11234   0.12320
 Alpha virt. eigenvalues --    0.12906   0.13254   0.14243   0.15066   0.15910

 Mulliken charges:
               1
     1  O   -0.471113
     2  C    1.237473
     3  C   -0.467773
     4  N   -0.262736
     5  N   -0.330023
     6  C    0.955483
     7  N   -0.295730
     8  H    0.138635
     9  H   -0.149706
    10  H   -0.184694
    11  H    0.036831
    12  H   -0.206647
 Sum of Mulliken charges =  -0.00000

 Dipole moment (field-independent basis, Debye):
    X=             -1.3803    Y=              1.1273    Z=              0.2338  Tot=              1.7974

 Test job not archived.
 1\1\GINC-SE120\SP\RHF\Aug-CC-pVDZ\C3H5N3O1\OHZDE\09-Apr-2025\0\\#t hf
 aug-cc-pvdz iop(5/13=1,5/36=2,99/5=2) pseudo=read geom=check guess=(re
 ad,tcheck) scf=(maxcycle=1)\\title\\0,1\O,0,-3.03511621,1.07485902,-0.
 26940801\C,0,-2.03335039,0.11968808,-0.37613272\C,0,0.18679172,-0.0275
 9797,0.6146143\N,0,-0.85024177,0.50968168,0.36266179\N,0,2.39213593,-0
 .32871916,-1.00105308\C,0,2.39612179,-0.55437915,0.24160082\N,0,1.2434
 7105,-0.50644537,1.02632028\H,0,-2.71892615,1.89934345,-0.64596033\H,0
 ,-1.7390166,-0.05160436,-1.41703381\H,0,-2.43975422,-0.80173828,0.0422

 Normal termination of Gaussian 16 at Wed Apr  9 15:42:48 2025.
