 Gaussian 16, Revision C.01,

 ----------------------------------------------------------------------
 #t hf aug-cc-pvdz symm=none int=(grid=ultrafine) guess=(read,tcheck) s
 table=(opt,rrhf)
 ----------------------------------------------------------------------
 -----
 title
 -----
 Symbolic Z-matrix:
 Charge =  0 Multiplicity = 1

 SCF Done:  E(RHF) =  -380.631677825     A.U. after   15 cycles
 Normal termination of Gaussian 16 at Wed Apr  9 16:31:10 2025.
 Gaussian 16:  ES64L-G16RevC.01  3-Jul-2019

 ----------------------------------------------------------------------
 #t hf aug-cc-pvdz iop(5/13=1,5/36=2,99/5=2) pseudo=read geom=check gue
 ss=(read,tcheck) scf=(maxcycle=1)
 ----------------------------------------------------------------------
 -----
 title
 -----
 Structure from the checkpoint file:  "Grambow2020_wb97xd3_008491_reverse_mol1.chk"
 Charge =  0 Multiplicity = 1

                         Standard orientation:
 ---------------------------------------------------------------------
 Center     Atomic      Atomic             Coordinates (Angstroms)
 Number     Number       Type             X           Y           Z
 ---------------------------------------------------------------------
      1          6           0       -2.877847    0.032511    0.129453
      2          8           0       -1.657968   -0.714725    0.025901
      3          6           0       -0.550744   -0.038064   -0.111230
      4          8           0       -0.530266    1.245373   -0.033905
      5          6           0        0.713430   -0.556165   -0.483780
      6          6           0        1.853543   -0.367568    0.484826
      7          8           0        2.946598    0.260231   -0.179893
      8          1           0       -2.907876    0.813345   -0.629429
      9          1           0       -3.678705   -0.686275   -0.021357
     10          1           0       -2.955683    0.483193    1.117718
     11          1           0        0.731479   -1.471402   -1.065085
     12          1           0        0.509270    0.936829   -0.644048
     13          1           0        1.525318    0.245369    1.333802
     14          1           0        2.179235   -1.337681    0.881524
     15          1           0        3.699754    0.265303    0.414442
 ---------------------------------------------------------------------

 SCF Done:  E(RHF) =  -380.755159706     A.U. after    2 cycles

 The electronic state is 1-A.
 Alpha  occ. eigenvalues --  -20.64742 -20.59070 -20.56253 -11.41650 -11.31507
 Alpha  occ. eigenvalues --  -11.29280 -11.20721  -1.45479  -1.35882  -1.31341
 Alpha  occ. eigenvalues --   -1.05073  -0.98970  -0.87849  -0.81314  -0.72926
 Alpha  occ. eigenvalues --   -0.71581  -0.70694  -0.69672  -0.64322  -0.62360
 Alpha  occ. eigenvalues --   -0.58700  -0.57004  -0.55384  -0.53285  -0.51013
 Alpha  occ. eigenvalues --   -0.50236  -0.45256  -0.33412
 Alpha virt. eigenvalues --    0.03157   0.04045   0.04889   0.05556   0.05811
 Alpha virt. eigenvalues --    0.06530   0.06911   0.08485   0.10173   0.12601
 Alpha virt. eigenvalues --    0.12816   0.13081   0.13617   0.14142   0.15135

 Mulliken charges:
               1
     1  C    0.707636
     2  O   -0.543915
     3  C    0.253191
     4  O   -0.675385
     5  C    0.237937
     6  C    0.734520
     7  O   -0.559074
     8  H   -0.040633
     9  H   -0.210351
    10  H   -0.072870
    11  H   -0.307288
    12  H    0.668584
    13  H   -0.197483
    14  H   -0.121658
    15  H    0.126790
 Sum of Mulliken charges =  -0.00000

 Dipole moment (field-independent basis, Debye):
    X=             -1.9995    Y=             -1.1547    Z=              1.7717  Tot=              2.9104

 Test job not archived.
 1\1\GINC-SE125\SP\RHF\Aug-CC-pVDZ\C4H8O3\OHZDE\09-Apr-2025\0\\#t hf au
 g-cc-pvdz iop(5/13=1,5/36=2,99/5=2) pseudo=read geom=check guess=(read
 ,tcheck) scf=(maxcycle=1)\\title\\0,1\C,0,-2.79950845,0.08911411,-0.28
 676937\O,0,-1.60415458,0.48927898,0.39747225\C,0,-0.49779908,-0.125340
 62,0.07991732\O,0,-0.44850009,-0.96801421,-0.89017538\C,0,0.72626753,-
 0.07916475,0.79047114\C,0,1.93717546,0.43562346,0.05404822\O,0,2.99006
 311,-0.52101404,0.13786869\H,0,-2.87062573,-0.99736596,-0.31853326\H,0
 ,-3.62211406,0.51546724,0.28095759\H,0,-2.79693055,0.48286025,-1.30205

 Normal termination of Gaussian 16 at Wed Apr  9 16:31:16 2025.
