 Gaussian 16, Revision C.01,

 ----------------------------------------------------------------------
 #t hf aug-cc-pvdz symm=none int=(grid=ultrafine) guess=(read,tcheck) s
 table=(opt,rrhf)
 ----------------------------------------------------------------------
 -----
 title
 -----
 Symbolic Z-matrix:
 Charge =  0 Multiplicity = 1

 SCF Done:  E(RHF) =  -333.496133269     A.U. after   18 cycles
 Normal termination of Gaussian 16 at Wed Apr  9 15:33:42 2025.
 Gaussian 16:  ES64L-G16RevC.01  3-Jul-2019

 ----------------------------------------------------------------------
 #t hf aug-cc-pvdz iop(5/13=1,5/36=2,99/5=2) pseudo=read geom=check gue
 ss=(read,tcheck) scf=(maxcycle=1)
 ----------------------------------------------------------------------
 -----
 title
 -----
 Structure from the checkpoint file:  "Grambow2020_wb97xd3_006991_reverse_mol1.chk"
 Charge =  0 Multiplicity = 1

                         Standard orientation:
 ---------------------------------------------------------------------
 Center     Atomic      Atomic             Coordinates (Angstroms)
 Number     Number       Type             X           Y           Z
 ---------------------------------------------------------------------
      1          7           0        2.157691   -0.131017   -0.020501
      2          6           0        0.792287   -0.024629    0.001173
      3          6           0       -0.111729   -1.063805    0.354917
      4          7           0       -1.265603   -1.042685   -0.605591
      5          6           0       -1.465778   -0.029603    0.164860
      6          7           0       -1.067283    1.287163    0.036981
      7          7           0        0.232134    1.205522   -0.065041
      8          1           0        2.534677   -0.957012   -0.450188
      9          1           0        2.635315    0.720172   -0.269306
     10          1           0        0.116477   -1.978825    0.894640
     11          1           0       -0.973719   -0.308991    1.278223
 ---------------------------------------------------------------------

 SCF Done:  E(RHF) =  -333.587144807     A.U. after    2 cycles

 The electronic state is 1-A.
 Alpha  occ. eigenvalues --  -15.70848 -15.70737 -15.66750 -15.64706 -11.37208
 Alpha  occ. eigenvalues --  -11.35705 -11.35240  -1.39146  -1.25260  -1.22666
 Alpha  occ. eigenvalues --   -1.05543  -0.95286  -0.85822  -0.79315  -0.74539
 Alpha  occ. eigenvalues --   -0.70707  -0.67250  -0.61199  -0.58294  -0.56053
 Alpha  occ. eigenvalues --   -0.50355  -0.45738  -0.45525  -0.39527  -0.31332
 Alpha virt. eigenvalues --    0.02180   0.02881   0.03770   0.04693   0.07158
 Alpha virt. eigenvalues --    0.07883   0.09505   0.10414   0.11220   0.11634
 Alpha virt. eigenvalues --    0.13273   0.13603   0.14033   0.14987   0.15858

 Mulliken charges:
               1
     1  N   -0.271604
     2  C    0.750532
     3  C    0.309207
     4  N   -0.623905
     5  C    0.390779
     6  N   -0.403424
     7  N   -0.481977
     8  H   -0.000481
     9  H    0.011839
    10  H   -0.196478
    11  H    0.515512
 Sum of Mulliken charges =  -0.00000

 Dipole moment (field-independent basis, Debye):
    X=              3.3775    Y=             -2.0880    Z=              1.2363  Tot=              4.1589

 Test job not archived.
 1\1\GINC-SE173\SP\RHF\Aug-CC-pVDZ\C3H4N4\OHZDE\09-Apr-2025\0\\#t hf au
 g-cc-pvdz iop(5/13=1,5/36=2,99/5=2) pseudo=read geom=check guess=(read
 ,tcheck) scf=(maxcycle=1)\\title\\0,1\N,0,1.72208327,-0.05868593,-0.64
 593953\C,0,0.42309925,-0.18342412,-0.22977022\C,0,-0.2684645,0.7360767
 8,0.60600731\N,0,-1.07067806,-0.03945342,1.61072265\C,0,-1.71832623,-0
 .17322914,0.50498564\N,0,-1.626746,-1.1411426,-0.4767375\N,0,-0.372017
 12,-1.09535527,-0.83606864\H,0,2.3919665,0.20644591,0.05404456\H,0,2.0
 3288455,-0.79502408,-1.25893352\H,0,0.00819882,1.76415146,0.82317378\H

 Normal termination of Gaussian 16 at Wed Apr  9 15:33:47 2025.
