 Gaussian 16, Revision C.01,

 ----------------------------------------------------------------------
 #t hf aug-cc-pvdz symm=none int=(grid=ultrafine) guess=(read,tcheck) s
 table=(opt,rrhf)
 ----------------------------------------------------------------------
 -----
 title
 -----
 Symbolic Z-matrix:
 Charge =  0 Multiplicity = 1

 SCF Done:  E(RHF) =  -247.788877359     A.U. after   14 cycles
 Normal termination of Gaussian 16 at Wed Apr  9 03:21:34 2025.
 Gaussian 16:  ES64L-G16RevC.01  3-Jul-2019

 ----------------------------------------------------------------------
 #t hf aug-cc-pvdz iop(5/13=1,5/36=2,99/5=2) pseudo=read geom=check gue
 ss=(read,tcheck) scf=(maxcycle=1)
 ----------------------------------------------------------------------
 -----
 title
 -----
 Structure from the checkpoint file:  "Grambow2020_wb97xd3_006162_reverse_mol2.chk"
 Charge =  0 Multiplicity = 1

                         Standard orientation:
 ---------------------------------------------------------------------
 Center     Atomic      Atomic             Coordinates (Angstroms)
 Number     Number       Type             X           Y           Z
 ---------------------------------------------------------------------
      1          6           0       -2.476411    0.553654   -0.152406
      2          6           0       -1.562679   -0.274613    0.328798
      3          6           0       -0.314550   -0.689802   -0.391793
      4          6           0        0.933720   -0.354990    0.393648
      5          6           0        1.680432    0.864019    0.192074
      6          7           0        2.228175   -0.109541   -0.362019
      7          1           0       -2.379079    0.993267   -1.139894
      8          1           0        1.836924    1.927439    0.311129
      9          1           0       -3.358836    0.817211    0.417782
     10          1           0       -1.701529   -0.693468    1.323581
     11          1           0       -0.267566   -0.207815   -1.370980
     12          1           0       -0.336650   -1.771628   -0.565540
     13          1           0        1.046434   -0.887834    1.336126
 ---------------------------------------------------------------------

 SCF Done:  E(RHF) =  -247.862665856     A.U. after    2 cycles

 The electronic state is 1-A.
 Alpha  occ. eigenvalues --  -15.65326 -11.30302 -11.28740 -11.24911 -11.24245
 Alpha  occ. eigenvalues --  -11.23572  -1.29107  -1.07575  -0.97049  -0.82504
 Alpha  occ. eigenvalues --   -0.79705  -0.76695  -0.67277  -0.64230  -0.60901
 Alpha  occ. eigenvalues --   -0.59524  -0.53742  -0.53490  -0.49547  -0.42496
 Alpha  occ. eigenvalues --   -0.39546  -0.36907
 Alpha virt. eigenvalues --    0.03271   0.03935   0.04333   0.05052   0.06321
 Alpha virt. eigenvalues --    0.06865   0.07812   0.09317   0.09910   0.11616
 Alpha virt. eigenvalues --    0.12339   0.13481   0.13985   0.14499   0.15187

 Mulliken charges:
               1
     1  C    0.369441
     2  C    0.640887
     3  C    0.042976
     4  C    0.777121
     5  C    0.219324
     6  N   -0.587814
     7  H   -0.289595
     8  H   -0.140742
     9  H   -0.297627
    10  H   -0.389381
    11  H   -0.104393
    12  H    0.087126
    13  H   -0.327322
 Sum of Mulliken charges =  -0.00000

 Dipole moment (field-independent basis, Debye):
    X=             -1.2798    Y=              1.1823    Z=              1.1200  Tot=              2.0712

 Test job not archived.
 1\1\GINC-SE054\SP\RHF\Aug-CC-pVDZ\C5H7N1\OHZDE\09-Apr-2025\0\\#t hf au
 g-cc-pvdz iop(5/13=1,5/36=2,99/5=2) pseudo=read geom=check guess=(read
 ,tcheck) scf=(maxcycle=1)\\title\\0,1\C,0,2.04900187,-0.35423707,-0.56
 895936\C,0,0.78444559,-0.72658693,-0.69037699\C,0,-0.24606883,-0.63608
 704,0.39558264\C,0,-1.43496886,0.20264277,-0.0170231\C,0,-1.54298216,1
 .60933144,0.28916788\N,0,-2.23510684,0.91496211,1.05967073\H,0,2.43486
 031,0.04670066,0.36282781\H,0,-1.29615188,2.65027545,0.13093904\H,0,2.
 74748611,-0.44317538,-1.39203925\H,0,0.44062232,-1.1248603,-1.64299248

 Normal termination of Gaussian 16 at Wed Apr  9 03:21:38 2025.
