 Gaussian 16, Revision C.01,

 ----------------------------------------------------------------------
 #t hf aug-cc-pvdz symm=none int=(grid=ultrafine) guess=(read,tcheck) s
 table=(opt,rrhf)
 ----------------------------------------------------------------------
 -----
 title
 -----
 Symbolic Z-matrix:
 Charge =  0 Multiplicity = 1

 SCF Done:  E(RHF) =  -268.819113373     A.U. after   13 cycles
 Normal termination of Gaussian 16 at Wed Apr  9 03:22:06 2025.
 Gaussian 16:  ES64L-G16RevC.01  3-Jul-2019

 ----------------------------------------------------------------------
 #t hf aug-cc-pvdz iop(5/13=1,5/36=2,99/5=2) pseudo=read geom=check gue
 ss=(read,tcheck) scf=(maxcycle=1)
 ----------------------------------------------------------------------
 -----
 title
 -----
 Structure from the checkpoint file:  "Grambow2020_wb97xd3_006181_forward_mol2.chk"
 Charge =  0 Multiplicity = 1

                         Standard orientation:
 ---------------------------------------------------------------------
 Center     Atomic      Atomic             Coordinates (Angstroms)
 Number     Number       Type             X           Y           Z
 ---------------------------------------------------------------------
      1          8           0       -1.774522   -0.509570   -0.375269
      2          6           0       -0.522601   -0.126983    0.068464
      3          6           0       -0.246755    1.237563    0.605541
      4          6           0        0.465430    0.767509   -0.636281
      5          6           0        1.607458   -0.162594   -0.238907
      6          6           0        0.579963   -1.105625    0.451430
      7          1           0       -2.380316   -0.499746    0.368476
      8          1           0       -1.038536    1.953939    0.423116
      9          1           0        0.300435    1.380354    1.533299
     10          1           0        0.361041    1.291169   -1.576348
     11          1           0        2.098974   -0.633263   -1.089131
     12          1           0        2.366795    0.280988    0.408630
     13          1           0        0.476200   -2.048499   -0.084647
     14          1           0        0.710619   -1.307604    1.517268
 ---------------------------------------------------------------------

 SCF Done:  E(RHF) =  -268.902207954     A.U. after    2 cycles

 The electronic state is 1-A.
 Alpha  occ. eigenvalues --  -20.58025 -11.29249 -11.23542 -11.23397 -11.23344
 Alpha  occ. eigenvalues --  -11.23088  -1.34000  -1.17579  -0.98541  -0.88612
 Alpha  occ. eigenvalues --   -0.81665  -0.74828  -0.71214  -0.64817  -0.62899
 Alpha  occ. eigenvalues --   -0.62278  -0.54847  -0.54042  -0.52494  -0.47675
 Alpha  occ. eigenvalues --   -0.47063  -0.39897  -0.37954
 Alpha virt. eigenvalues --    0.03518   0.04367   0.04715   0.04902   0.06500
 Alpha virt. eigenvalues --    0.06721   0.07213   0.07394   0.10961   0.12177
 Alpha virt. eigenvalues --    0.12796   0.13582   0.14742   0.15269   0.15453

 Mulliken charges:
               1
     1  O   -0.588324
     2  C    0.162206
     3  C    0.792169
     4  C    0.235859
     5  C    0.524550
     6  C    0.412160
     7  H    0.140707
     8  H   -0.308602
     9  H   -0.389743
    10  H   -0.400574
    11  H   -0.166947
    12  H   -0.143090
    13  H   -0.094208
    14  H   -0.176162
 Sum of Mulliken charges =   0.00000

 Dipole moment (field-independent basis, Debye):
    X=              0.2484    Y=              0.3481    Z=              1.3619  Tot=              1.4275

 Test job not archived.
 1\1\GINC-SE143\SP\RHF\Aug-CC-pVDZ\C5H8O1\OHZDE\09-Apr-2025\0\\#t hf au
 g-cc-pvdz iop(5/13=1,5/36=2,99/5=2) pseudo=read geom=check guess=(read
 ,tcheck) scf=(maxcycle=1)\\title\\0,1\O,0,1.19449594,0.73745275,1.5839
 2844\C,0,0.53802167,0.22577241,0.48038628\C,0,0.68256054,0.81733043,-0
 .88185283\C,0,-0.6689876,0.80121579,-0.21601774\C,0,-1.2746116,-0.5932
 5733,-0.3420767\C,0,-0.04723767,-1.17891979,0.41434385\H,0,2.13917247,
 0.62940282,1.45684138\H,0,1.16341735,1.78789842,-0.89469363\H,0,0.8754
 1655,0.19490233,-1.75129539\H,0,-1.20390864,1.71735607,-0.00771465\H,0

 Normal termination of Gaussian 16 at Wed Apr  9 03:22:10 2025.
