 Gaussian 16, Revision C.01,

 ----------------------------------------------------------------------
 #t hf aug-cc-pvdz symm=none int=(grid=ultrafine) guess=(read,tcheck) s
 table=(opt,rrhf)
 ----------------------------------------------------------------------
 -----
 title
 -----
 Symbolic Z-matrix:
 Charge =  0 Multiplicity = 1

 SCF Done:  E(RHF) =  -344.715425060     A.U. after   14 cycles

 1\1\GINC-SE097\Stability\RHF\Aug-CC-pVDZ\C5H10O2\OHZDE\09-Apr-2025\0\\
 #t hf aug-cc-pvdz symm=none int=(grid=ultrafine) guess=(read,tcheck) s
 table=(opt,rrhf)\\title\\0,1\C,0,-1.11965947,-1.03269989,0.70674054\C,
 0,-0.75926119,0.11570769,-0.1991867\C,0,0.70477261,0.25260813,-0.58939
 318\C,0,1.60970651,-0.01380464,0.59889642\O,0,1.63592675,0.8285297,1.6
 1151669\C,0,-1.75489284,0.6669794,-1.11709417\O,0,-1.42442444,1.333977
 69,0.08898138\H,0,-0.78711509,-1.98412488,0.2843421\H,0,-0.652157,-0.9
 0186886,1.68493315\H,0,-2.19853439,-1.07530748,0.85109063\H,0,0.868981

 Normal termination of Gaussian 16 at Wed Apr  9 15:55:11 2025.
 Gaussian 16:  ES64L-G16RevC.01  3-Jul-2019

 ----------------------------------------------------------------------
 #t hf aug-cc-pvdz iop(5/13=1,5/36=2,99/5=2) pseudo=read geom=check gue
 ss=(read,tcheck) scf=(maxcycle=1)
 ----------------------------------------------------------------------
 -----
 title
 -----
 Structure from the checkpoint file:  "Grambow2020_wb97xd3_007588_reverse_mol1.chk"
 Charge =  0 Multiplicity = 1

                         Standard orientation:
 ---------------------------------------------------------------------
 Center     Atomic      Atomic             Coordinates (Angstroms)
 Number     Number       Type             X           Y           Z
 ---------------------------------------------------------------------
      1          6           0        0.711932    1.593917   -0.123045
      2          6           0        0.752391    0.088616   -0.166204
      3          6           0       -0.449353   -0.615952   -0.777590
      4          6           0       -1.744577    0.038264   -0.334522
      5          8           0       -2.132359   -0.047656    0.921606
      6          6           0        2.035928   -0.610279   -0.208842
      7          8           0        1.288836   -0.526941    0.992667
      8          1           0        0.540841    2.009896   -1.118989
      9          1           0       -0.088869    1.930376    0.538807
     10          1           0        1.653448    1.985932    0.259701
     11          1           0       -0.437442   -1.656672   -0.453582
     12          1           0       -0.378384   -0.575180   -1.869378
     13          1           0       -2.667302   -0.738495   -1.105003
     14          1           0       -1.960970    0.975062   -0.879375
     15          1           0       -2.805264   -0.665523   -0.144508
     16          1           0        2.957404   -0.034230   -0.229264
     17          1           0        2.096797   -1.601777   -0.651373
 ---------------------------------------------------------------------

 SCF Done:  E(RHF) =  -344.824606063     A.U. after    2 cycles

 The electronic state is 1-A.
 Alpha  occ. eigenvalues --  -20.58420 -20.51805 -11.37688 -11.31272 -11.29438
 Alpha  occ. eigenvalues --  -11.26089 -11.23934  -1.38908  -1.31509  -1.06712
 Alpha  occ. eigenvalues --   -0.98698  -0.91660  -0.87626  -0.78146  -0.73298
 Alpha  occ. eigenvalues --   -0.69862  -0.66709  -0.65412  -0.60692  -0.59408
 Alpha  occ. eigenvalues --   -0.56889  -0.55823  -0.53060  -0.51987  -0.46230
 Alpha  occ. eigenvalues --   -0.45295  -0.41667  -0.40719
 Alpha virt. eigenvalues --    0.02504   0.03685   0.04050   0.04982   0.05847
 Alpha virt. eigenvalues --    0.05997   0.06861   0.07564   0.08557   0.09652
 Alpha virt. eigenvalues --    0.10501   0.12229   0.12757   0.13424   0.14152

 Mulliken charges:
               1
     1  C    0.371925
     2  C   -0.695868
     3  C    0.237379
     4  C    0.699004
     5  O   -0.846262
     6  C    1.254427
     7  O   -0.743581
     8  H    0.011823
     9  H    0.155779
    10  H   -0.072898
    11  H    0.008105
    12  H    0.056588
    13  H    0.071650
    14  H   -0.103974
    15  H    0.153053
    16  H   -0.276199
    17  H   -0.280952
 Sum of Mulliken charges =  -0.00000

 Dipole moment (field-independent basis, Debye):
    X=              0.7827    Y=              0.1718    Z=             -5.7338  Tot=              5.7896

 Test job not archived.
 1\1\GINC-SE097\SP\RHF\Aug-CC-pVDZ\C5H10O2\OHZDE\09-Apr-2025\0\\#t hf a
 ug-cc-pvdz iop(5/13=1,5/36=2,99/5=2) pseudo=read geom=check guess=(rea
 d,tcheck) scf=(maxcycle=1)\\title\\0,1\C,0,-1.11965947,-1.03269989,0.7
 0674054\C,0,-0.75926119,0.11570769,-0.1991867\C,0,0.70477261,0.2526081
 3,-0.58939318\C,0,1.60970651,-0.01380464,0.59889642\O,0,1.63592675,0.8
 285297,1.61151669\C,0,-1.75489284,0.6669794,-1.11709417\O,0,-1.4244244
 4,1.33397769,0.08898138\H,0,-0.78711509,-1.98412488,0.2843421\H,0,-0.6
 52157,-0.90186886,1.68493315\H,0,-2.19853439,-1.07530748,0.85109063\H,

 Normal termination of Gaussian 16 at Wed Apr  9 15:55:18 2025.
