 Gaussian 16, Revision C.01,

 ----------------------------------------------------------------------
 #t hf aug-cc-pvdz symm=none int=(grid=ultrafine) guess=(read,tcheck) s
 table=(opt,rrhf)
 ----------------------------------------------------------------------
 -----
 title
 -----
 Symbolic Z-matrix:
 Charge =  0 Multiplicity = 1

 SCF Done:  E(RHF) =  -318.747177072     A.U. after   16 cycles
 Normal termination of Gaussian 16 at Wed Apr  9 15:28:00 2025.
 Gaussian 16:  ES64L-G16RevC.01  3-Jul-2019

 ----------------------------------------------------------------------
 #t hf aug-cc-pvdz iop(5/13=1,5/36=2,99/5=2) pseudo=read geom=check gue
 ss=(read,tcheck) scf=(maxcycle=1)
 ----------------------------------------------------------------------
 -----
 title
 -----
 Structure from the checkpoint file:  "Grambow2020_wb97xd3_006918_reverse_mol1.chk"
 Charge =  0 Multiplicity = 1

                         Standard orientation:
 ---------------------------------------------------------------------
 Center     Atomic      Atomic             Coordinates (Angstroms)
 Number     Number       Type             X           Y           Z
 ---------------------------------------------------------------------
      1          7           0       -1.875799   -0.531918    0.679832
      2          6           0       -1.114995   -0.385873   -0.410884
      3          6           0        0.165670   -1.012578   -0.573800
      4          6           0        0.998584   -0.048222   -0.064992
      5          7           0        2.317741   -0.163647    0.295053
      6          6           0        0.188951    1.112790    0.264138
      7          7           0       -0.956540    0.985706   -0.598373
      8          1           0       -1.836769   -1.479025    1.045440
      9          1           0       -0.874789    0.278544    1.264996
     10          1           0        0.341265   -2.076770   -0.617133
     11          1           0        2.869190    0.675304    0.261297
     12          1           0        2.800224   -0.979325   -0.037614
     13          1           0        0.641789    2.094095    0.382459
     14          1           0       -1.767976    1.459487   -0.221799
 ---------------------------------------------------------------------

 SCF Done:  E(RHF) =  -318.839386954     A.U. after    2 cycles

 The electronic state is 1-A.
 Alpha  occ. eigenvalues --  -15.64423 -15.63372 -15.63271 -11.32891 -11.30497
 Alpha  occ. eigenvalues --  -11.27086 -11.22431  -1.29873  -1.19904  -1.11998
 Alpha  occ. eigenvalues --   -1.03369  -0.92205  -0.79155  -0.76748  -0.71245
 Alpha  occ. eigenvalues --   -0.69712  -0.66194  -0.60811  -0.59288  -0.56502
 Alpha  occ. eigenvalues --   -0.54172  -0.49365  -0.45433  -0.42587  -0.32445
 Alpha  occ. eigenvalues --   -0.30389
 Alpha virt. eigenvalues --    0.02818   0.03512   0.04401   0.05681   0.06386
 Alpha virt. eigenvalues --    0.06871   0.08609   0.09053   0.10512   0.10979
 Alpha virt. eigenvalues --    0.12216   0.13385   0.13486   0.14134   0.15096

 Mulliken charges:
               1
     1  N   -0.563666
     2  C    0.349107
     3  C    0.672270
     4  C    0.226759
     5  N   -0.290628
     6  C    0.242527
     7  N   -0.560798
     8  H   -0.001984
     9  H    0.568385
    10  H   -0.313708
    11  H   -0.035687
    12  H   -0.009502
    13  H   -0.364182
    14  H    0.081108
 Sum of Mulliken charges =  -0.00000

 Dipole moment (field-independent basis, Debye):
    X=              2.5577    Y=             -0.6806    Z=              0.3050  Tot=              2.6642

 Test job not archived.
 1\1\GINC-SE226\SP\RHF\Aug-CC-pVDZ\C4H7N3\OHZDE\09-Apr-2025\0\\#t hf au
 g-cc-pvdz iop(5/13=1,5/36=2,99/5=2) pseudo=read geom=check guess=(read
 ,tcheck) scf=(maxcycle=1)\\title\\0,1\N,0,-2.13365704,-0.11573731,0.22
 678806\C,0,-1.1925627,-0.10089088,-0.72396743\C,0,-0.05182559,-0.97159
 258,-0.72385089\C,0,0.86154899,-0.21062384,-0.03880486\N,0,2.05579906,
 -0.60190456,0.5123734\C,0,0.25484738,1.08263748,0.2279687\N,0,-0.73801
 719,1.21369366,-0.80608641\H,0,-2.34226407,-1.05969754,0.53924102\H,0,
 -1.1005379,0.45840016,1.00416661\H,0,-0.08528747,-2.04779747,-0.800533

 Normal termination of Gaussian 16 at Wed Apr  9 15:28:05 2025.
