 Gaussian 16, Revision C.01,

 ----------------------------------------------------------------------
 #t hf aug-cc-pvdz symm=none int=(grid=ultrafine) guess=(read,tcheck) s
 table=(opt,rrhf)
 ----------------------------------------------------------------------
 -----
 title
 -----
 Symbolic Z-matrix:
 Charge =  0 Multiplicity = 1

 SCF Done:  E(RHF) =  -342.323176718     A.U. after   16 cycles
 Normal termination of Gaussian 16 at Wed Apr  9 16:54:11 2025.
 Gaussian 16:  ES64L-G16RevC.01  3-Jul-2019

 ----------------------------------------------------------------------
 #t hf aug-cc-pvdz iop(5/13=1,5/36=2,99/5=2) pseudo=read geom=check gue
 ss=(read,tcheck) scf=(maxcycle=1)
 ----------------------------------------------------------------------
 -----
 title
 -----
 Structure from the checkpoint file:  "Grambow2020_wb97xd3_009062_reverse_mol2.chk"
 Charge =  0 Multiplicity = 1

                         Standard orientation:
 ---------------------------------------------------------------------
 Center     Atomic      Atomic             Coordinates (Angstroms)
 Number     Number       Type             X           Y           Z
 ---------------------------------------------------------------------
      1          8           0       -2.458752    0.305737    0.061471
      2          6           0        1.588992    1.191784   -0.051920
      3          6           0        2.014876   -0.217845    0.117351
      4          6           0        0.847296   -1.200907   -0.098271
      5          6           0       -0.322926   -0.278921   -0.043376
      6          8           0       -1.500924   -0.669429    0.029522
      7          6           0        0.104161    1.142403   -0.070265
      8          1           0        2.309373   -0.174863    1.183032
      9          1           0        2.942982   -0.457005   -0.402524
     10          1           0        0.776893   -2.001372    0.638576
     11          1           0        0.898618   -1.672510   -1.083982
     12          1           0       -0.339821    1.718207    0.754448
     13          1           0       -0.305033    1.677993   -0.938603
 ---------------------------------------------------------------------

 SCF Done:  E(RHF) =  -342.425572161     A.U. after    2 cycles

 The electronic state is 1-A.
 Alpha  occ. eigenvalues --  -20.70424 -20.52653 -11.39389 -11.30334 -11.29417
 Alpha  occ. eigenvalues --  -11.28402 -11.28160  -1.49564  -1.19819  -1.13976
 Alpha  occ. eigenvalues --   -1.03258  -0.97292  -0.82341  -0.78055  -0.73249
 Alpha  occ. eigenvalues --   -0.71532  -0.67858  -0.65097  -0.60025  -0.59656
 Alpha  occ. eigenvalues --   -0.56328  -0.54288  -0.53393  -0.42819  -0.39843
 Alpha  occ. eigenvalues --   -0.38721
 Alpha virt. eigenvalues --    0.02148   0.03534   0.04342   0.04459   0.05019
 Alpha virt. eigenvalues --    0.06246   0.06527   0.07134   0.08548   0.09356
 Alpha virt. eigenvalues --    0.11262   0.13683   0.13773   0.14498   0.14800

 Mulliken charges:
               1
     1  O   -0.586730
     2  C   -0.453152
     3  C    0.376095
     4  C    0.341359
     5  C    0.262035
     6  O   -0.328690
     7  C    0.000843
     8  H    0.119713
     9  H   -0.073010
    10  H   -0.011568
    11  H    0.056927
    12  H    0.151553
    13  H    0.144626
 Sum of Mulliken charges =  -0.00000

 Dipole moment (field-independent basis, Debye):
    X=              5.7338    Y=             -2.2991    Z=             -0.1025  Tot=              6.1784

 Test job not archived.
 1\1\GINC-SE042\SP\RHF\Aug-CC-pVDZ\C5H6O2\OHZDE\09-Apr-2025\0\\#t hf au
 g-cc-pvdz iop(5/13=1,5/36=2,99/5=2) pseudo=read geom=check guess=(read
 ,tcheck) scf=(maxcycle=1)\\title\\0,1\O,0,2.37765625,0.66828191,1.6006
 5657\C,0,0.04863189,-0.82079718,-1.4881061\C,0,-1.23439426,-0.43358079
 ,-0.85486608\C,0,-1.0240587,0.54070323,0.32100583\C,0,0.44296854,0.407
 31885,0.55020329\O,0,1.02624596,0.86866057,1.5464172\C,0,1.09662351,-0
 .35194852,-0.5450293\H,0,-1.54930871,-1.43152711,-0.49544444\H,0,-2.00
 719448,-0.15657929,-1.57243072\H,0,-1.60382339,0.31445411,1.21617494\H

 Normal termination of Gaussian 16 at Wed Apr  9 16:54:15 2025.
