 Gaussian 16, Revision C.01,

 ----------------------------------------------------------------------
 #t hf aug-cc-pvdz symm=none int=(grid=ultrafine) guess=(read,tcheck) s
 table=(opt,rrhf)
 ----------------------------------------------------------------------
 -----
 title
 -----
 Symbolic Z-matrix:
 Charge =  0 Multiplicity = 1

 SCF Done:  E(RHF) =  -338.746456728     A.U. after   14 cycles
 Normal termination of Gaussian 16 at Wed Apr  9 16:27:57 2025.
 Gaussian 16:  ES64L-G16RevC.01  3-Jul-2019

 ----------------------------------------------------------------------
 #t hf aug-cc-pvdz iop(5/13=1,5/36=2,99/5=2) pseudo=read geom=check gue
 ss=(read,tcheck) scf=(maxcycle=1)
 ----------------------------------------------------------------------
 -----
 title
 -----
 Structure from the checkpoint file:  "Grambow2020_wb97xd3_008463_forward_mol2.chk"
 Charge =  0 Multiplicity = 1

                         Standard orientation:
 ---------------------------------------------------------------------
 Center     Atomic      Atomic             Coordinates (Angstroms)
 Number     Number       Type             X           Y           Z
 ---------------------------------------------------------------------
      1          7           0       -1.580970   -1.378618   -0.002789
      2          6           0       -0.410629   -0.597579   -0.000678
      3          6           0       -0.190179    0.755445    0.000739
      4          8           0       -1.199806    1.674750    0.004607
      5          6           0        1.208765    0.979470    0.001288
      6          6           0        1.805054   -0.258088   -0.000569
      7          7           0        0.826659   -1.196894   -0.001185
      8          1           0       -2.159170   -1.185012   -0.808342
      9          1           0       -2.137751   -1.224991    0.826334
     10          1           0       -0.818893    2.552499   -0.033515
     11          1           0        1.718459    1.931016    0.006924
     12          1           0        2.848508   -0.526219    0.001513
     13          1           0        0.949411   -2.192197   -0.006631
 ---------------------------------------------------------------------

 SCF Done:  E(RHF) =  -338.849788510     A.U. after    2 cycles

 The electronic state is 1-A.
 Alpha  occ. eigenvalues --  -20.59127 -15.66198 -15.62000 -11.27746 -11.27616
 Alpha  occ. eigenvalues --  -11.26463 -11.21916  -1.35285  -1.26814  -1.14791
 Alpha  occ. eigenvalues --   -1.02868  -0.95034  -0.80861  -0.79129  -0.73418
 Alpha  occ. eigenvalues --   -0.66921  -0.66273  -0.63516  -0.59585  -0.59489
 Alpha  occ. eigenvalues --   -0.58049  -0.54015  -0.53028  -0.41391  -0.33509
 Alpha  occ. eigenvalues --   -0.28623
 Alpha virt. eigenvalues --    0.03324   0.03695   0.04022   0.06059   0.06309
 Alpha virt. eigenvalues --    0.06784   0.11256   0.11519   0.12424   0.13212
 Alpha virt. eigenvalues --    0.13610   0.14162   0.14771   0.15485   0.15887

 Mulliken charges:
               1
     1  N   -0.247334
     2  C    0.079716
     3  C    0.516828
     4  O   -0.615028
     5  C    0.736066
     6  C    0.478216
     7  N   -0.345015
     8  H    0.025723
     9  H    0.026314
    10  H    0.121233
    11  H   -0.403757
    12  H   -0.281287
    13  H   -0.091676
 Sum of Mulliken charges =  -0.00000

 Dipole moment (field-independent basis, Debye):
    X=              0.8816    Y=             -0.0719    Z=             -0.0303  Tot=              0.8850

 Test job not archived.
 1\1\GINC-SE220\SP\RHF\Aug-CC-pVDZ\C4H6N2O1\OHZDE\09-Apr-2025\0\\#t hf
 aug-cc-pvdz iop(5/13=1,5/36=2,99/5=2) pseudo=read geom=check guess=(re
 ad,tcheck) scf=(maxcycle=1)\\title\\0,1\N,0,1.92183953,0.88296371,-0.0
 4077926\C,0,0.59603136,0.41205992,-0.02640054\C,0,0.05032904,-0.839940
 33,0.09182892\O,0,0.8029552,-1.9700507,0.23635159\C,0,-1.36025889,-0.7
 1846624,0.03967555\C,0,-1.63430989,0.61915969,-0.1112134\N,0,-0.455824
 78,1.28874109,-0.14923593\H,0,2.45724689,0.47209427,-0.79260336\H,0,2.
 4003661,0.68745672,0.8274606\H,0,0.21950984,-2.72895978,0.26166113\H,0

 Normal termination of Gaussian 16 at Wed Apr  9 16:28:01 2025.
