 Gaussian 16, Revision C.01,

 ----------------------------------------------------------------------
 #t hf aug-cc-pvdz symm=none int=(grid=ultrafine) guess=(read,tcheck) s
 table=(opt,rrhf)
 ----------------------------------------------------------------------
 -----
 title
 -----
 Symbolic Z-matrix:
 Charge =  0 Multiplicity = 1

 SCF Done:  E(RHF) =  -302.759816437     A.U. after   15 cycles
 Normal termination of Gaussian 16 at Wed Apr  9 03:59:41 2025.
 Gaussian 16:  ES64L-G16RevC.01  3-Jul-2019

 ----------------------------------------------------------------------
 #t hf aug-cc-pvdz iop(5/13=1,5/36=2,99/5=2) pseudo=read geom=check gue
 ss=(read,tcheck) scf=(maxcycle=1)
 ----------------------------------------------------------------------
 -----
 title
 -----
 Structure from the checkpoint file:  "Grambow2020_wb97xd3_008834_reverse_mol2.chk"
 Charge =  0 Multiplicity = 1

                         Standard orientation:
 ---------------------------------------------------------------------
 Center     Atomic      Atomic             Coordinates (Angstroms)
 Number     Number       Type             X           Y           Z
 ---------------------------------------------------------------------
      1          6           0       -0.556765    1.568245   -0.577192
      2          6           0       -0.764316    0.223604    0.016623
      3          6           0       -1.649789   -0.118318    1.080692
      4          6           0       -1.986942   -0.983171   -0.272928
      5          7           0       -0.760365   -0.933629   -0.740595
      6          6           0        2.594310   -0.646230   -0.197789
      7          7           0        2.306157    0.318742    0.563860
      8          1           0       -1.521279    1.989997   -0.881114
      9          1           0       -0.096701    2.232971    0.152446
     10          1           0        0.081605    1.493750   -1.455509
     11          1           0       -2.333008    0.617564    1.497647
     12          1           0       -1.321191   -0.878531    1.775997
     13          1           0        3.617516   -0.967505   -0.415752
     14          1           0        1.786265   -1.197944   -0.678543
     15          1           0        3.147259    0.749123    0.945534
 ---------------------------------------------------------------------

 SCF Done:  E(RHF) =  -302.848694612     A.U. after    2 cycles

 The electronic state is 1-A.
 Alpha  occ. eigenvalues --  -15.64927 -15.63356 -11.33151 -11.29793 -11.29023
 Alpha  occ. eigenvalues --  -11.26950 -11.24799  -1.31030  -1.18752  -1.02444
 Alpha  occ. eigenvalues --   -0.97885  -0.84066  -0.78394  -0.71343  -0.69013
 Alpha  occ. eigenvalues --   -0.65875  -0.61844  -0.60595  -0.58366  -0.56678
 Alpha  occ. eigenvalues --   -0.52729  -0.48608  -0.45593  -0.43112  -0.42519
 Alpha  occ. eigenvalues --   -0.33197
 Alpha virt. eigenvalues --    0.03020   0.03742   0.04228   0.04868   0.06027
 Alpha virt. eigenvalues --    0.06978   0.07364   0.08068   0.09264   0.09977
 Alpha virt. eigenvalues --    0.11365   0.12243   0.12486   0.12856   0.14048

 Mulliken charges:
               1
     1  C    0.352169
     2  C   -0.016138
     3  C    0.865395
     4  C   -0.237770
     5  N   -0.596532
     6  C    0.627335
     7  N   -0.247335
     8  H    0.075570
     9  H    0.058556
    10  H   -0.014713
    11  H   -0.297428
    12  H   -0.161816
    13  H   -0.190412
    14  H   -0.221862
    15  H    0.004980
 Sum of Mulliken charges =  -0.00000

 Dipole moment (field-independent basis, Debye):
    X=              3.0076    Y=              2.1948    Z=              1.6083  Tot=              4.0558

 Test job not archived.
 1\1\GINC-SE332\SP\RHF\Aug-CC-pVDZ\C5H8N2\OHZDE\09-Apr-2025\0\\#t hf au
 g-cc-pvdz iop(5/13=1,5/36=2,99/5=2) pseudo=read geom=check guess=(read
 ,tcheck) scf=(maxcycle=1)\\title\\0,1\C,0,-0.48379656,1.53811607,-0.35
 732136\C,0,0.68221089,0.62970325,-0.21961009\C,0,1.74275342,0.4452291,
 -1.15472212\C,0,2.31615362,0.93011938,0.30473859\N,0,1.32002638,0.4144
 5727,0.98846526\C,0,-1.16889396,-1.89808954,1.28592213\N,0,-1.47315943
 ,-1.60434526,0.09619516\H,0,-0.13608488,2.55376696,-0.57659785\H,0,-1.
 12565282,1.20303776,-1.17073015\H,0,-1.05233835,1.55873528,0.57049432\

 Normal termination of Gaussian 16 at Wed Apr  9 03:59:45 2025.
