 Gaussian 16, Revision C.01,

 ----------------------------------------------------------------------
 #t hf aug-cc-pvdz symm=none int=(grid=ultrafine) guess=(read,tcheck) s
 table=(opt,rrhf)
 ----------------------------------------------------------------------
 -----
 title
 -----
 Symbolic Z-matrix:
 Charge =  0 Multiplicity = 1

 SCF Done:  E(RHF) =  -337.413736783     A.U. after   16 cycles
 Normal termination of Gaussian 16 at Wed Apr  9 04:04:00 2025.
 Gaussian 16:  ES64L-G16RevC.01  3-Jul-2019

 ----------------------------------------------------------------------
 #t hf aug-cc-pvdz iop(5/13=1,5/36=2,99/5=2) pseudo=read geom=check gue
 ss=(read,tcheck) scf=(maxcycle=1)
 ----------------------------------------------------------------------
 -----
 title
 -----
 Structure from the checkpoint file:  "Grambow2020_wb97xd3_009180_forward_mol1.chk"
 Charge =  0 Multiplicity = 1

                         Standard orientation:
 ---------------------------------------------------------------------
 Center     Atomic      Atomic             Coordinates (Angstroms)
 Number     Number       Type             X           Y           Z
 ---------------------------------------------------------------------
      1          8           0        1.203776   -0.773136    0.863041
      2          6           0        0.817718   -0.438792   -0.308644
      3          6           0        0.840308    0.984465   -0.630090
      4          6           0       -0.251738    1.407709    0.046314
      5          7           0       -1.110144    0.480737    0.664808
      6          6           0       -1.273441   -0.610992   -0.170995
      7          7           0       -0.245980   -1.134371   -0.765592
      8          1           0        1.643700    1.586678   -1.017862
      9          1           0       -0.448638    2.456135    0.232713
     10          1           0        0.123568   -0.270278    1.239996
     11          1           0       -2.253046   -1.066349   -0.273197
 ---------------------------------------------------------------------

 SCF Done:  E(RHF) =  -337.512684911     A.U. after    2 cycles

 The electronic state is 1-A.
 Alpha  occ. eigenvalues --  -20.62154 -15.64719 -15.62819 -11.43269 -11.36016
 Alpha  occ. eigenvalues --  -11.31582 -11.26796  -1.43689  -1.28728  -1.16428
 Alpha  occ. eigenvalues --   -1.07621  -0.89017  -0.86506  -0.76621  -0.73338
 Alpha  occ. eigenvalues --   -0.71484  -0.67919  -0.65181  -0.60517  -0.56076
 Alpha  occ. eigenvalues --   -0.52736  -0.47590  -0.42832  -0.41404  -0.36486
 Alpha virt. eigenvalues --    0.03077   0.03483   0.04288   0.04908   0.06399
 Alpha virt. eigenvalues --    0.08554   0.09391   0.09668   0.10386   0.11239
 Alpha virt. eigenvalues --    0.12522   0.13102   0.14138   0.14494   0.15657

 Mulliken charges:
               1
     1  O   -0.686057
     2  C    0.501861
     3  C    0.545125
     4  C    0.582329
     5  N   -0.915426
     6  C    0.538924
     7  N   -0.493589
     8  H   -0.251942
     9  H   -0.230831
    10  H    0.627258
    11  H   -0.217653
 Sum of Mulliken charges =  -0.00000

 Dipole moment (field-independent basis, Debye):
    X=              0.1799    Y=              1.6763    Z=             -1.2819  Tot=              2.1179

 Test job not archived.
 1\1\GINC-SE051\SP\RHF\Aug-CC-pVDZ\C4H4N2O1\OHZDE\09-Apr-2025\0\\#t hf
 aug-cc-pvdz iop(5/13=1,5/36=2,99/5=2) pseudo=read geom=check guess=(re
 ad,tcheck) scf=(maxcycle=1)\\title\\0,1\O,0,1.00003332,-0.76271226,1.3
 8016542\C,0,1.00041493,-0.64099332,0.10782196\C,0,1.07074369,0.7154964
 9,-0.42555039\C,0,-0.19666401,1.13327758,-0.20564361\N,0,-1.17241666,0
 .23377759,0.26070547\C,0,-1.01489988,-0.97944892,-0.38765692\N,0,0.168
 875,-1.48964216,-0.5343783\H,0,1.93248286,1.32415504,-0.63864032\H,0,-
 0.48343864,2.17557235,-0.26961362\H,0,-0.1625546,-0.3095755,1.31039891

 Normal termination of Gaussian 16 at Wed Apr  9 04:04:04 2025.
