 Gaussian 16, Revision C.01,

 ----------------------------------------------------------------------
 #t hf aug-cc-pvdz symm=none int=(grid=ultrafine) guess=(read,tcheck) s
 table=(opt,rrhf)
 ----------------------------------------------------------------------
 -----
 title
 -----
 Symbolic Z-matrix:
 Charge =  0 Multiplicity = 1

 SCF Done:  E(RHF) =  -343.709101098     A.U. after   13 cycles
 Normal termination of Gaussian 16 at Wed Apr  9 03:34:21 2025.
 Gaussian 16:  ES64L-G16RevC.01  3-Jul-2019

 ----------------------------------------------------------------------
 #t hf aug-cc-pvdz iop(5/13=1,5/36=2,99/5=2) pseudo=read geom=check gue
 ss=(read,tcheck) scf=(maxcycle=1)
 ----------------------------------------------------------------------
 -----
 title
 -----
 Structure from the checkpoint file:  "Grambow2020_wb97xd3_007143_reverse_mol2.chk"
 Charge =  0 Multiplicity = 1

                         Standard orientation:
 ---------------------------------------------------------------------
 Center     Atomic      Atomic             Coordinates (Angstroms)
 Number     Number       Type             X           Y           Z
 ---------------------------------------------------------------------
      1          8           0        1.310562   -0.864278   -1.015056
      2          6           0        1.199653    0.001524    0.019660
      3          6           0       -1.773597    1.206290   -0.400578
      4          6           0       -1.884340   -0.099559   -0.207257
      5          8           0       -1.009265   -0.933026    0.414331
      6          6           0        2.022566    1.030444    0.163799
      7          6           0        0.134681   -0.358669    1.026093
      8          1           0        0.527260   -1.424913   -1.025987
      9          1           0       -2.576442    1.720174   -0.909024
     10          1           0       -0.913908    1.786926   -0.097690
     11          1           0       -2.743664   -0.664183   -0.549760
     12          1           0        1.910404    1.699671    1.005055
     13          1           0        2.820553    1.211338   -0.542798
     14          1           0        0.512387   -1.140759    1.687414
     15          1           0       -0.140745    0.510000    1.628284
 ---------------------------------------------------------------------

 SCF Done:  E(RHF) =  -343.820304167     A.U. after    2 cycles

 The electronic state is 1-A.
 Alpha  occ. eigenvalues --  -20.61847 -20.59981 -11.31533 -11.31466 -11.31277
 Alpha  occ. eigenvalues --  -11.23247 -11.21993  -1.39707  -1.36214  -1.06437
 Alpha  occ. eigenvalues --   -1.03249  -0.95723  -0.81118  -0.79039  -0.73866
 Alpha  occ. eigenvalues --   -0.72753  -0.68432  -0.63593  -0.61414  -0.59962
 Alpha  occ. eigenvalues --   -0.58668  -0.57071  -0.54720  -0.52867  -0.50329
 Alpha  occ. eigenvalues --   -0.36779  -0.34944
 Alpha virt. eigenvalues --    0.03367   0.04236   0.04398   0.05235   0.05961
 Alpha virt. eigenvalues --    0.06584   0.07138   0.07984   0.10655   0.11437
 Alpha virt. eigenvalues --    0.12402   0.13016   0.13877   0.14387   0.15013

 Mulliken charges:
               1
     1  O   -0.569971
     2  C    0.039475
     3  C    0.606203
     4  C    0.678961
     5  O   -0.626066
     6  C    1.029085
     7  C    0.670771
     8  H    0.158579
     9  H   -0.296307
    10  H   -0.298267
    11  H   -0.393483
    12  H   -0.342448
    13  H   -0.345820
    14  H   -0.134566
    15  H   -0.176146
 Sum of Mulliken charges =  -0.00000

 Dipole moment (field-independent basis, Debye):
    X=             -1.3008    Y=              0.3639    Z=              1.1175  Tot=              1.7531

 Test job not archived.
 1\1\GINC-SE329\SP\RHF\Aug-CC-pVDZ\C5H8O2\OHZDE\09-Apr-2025\0\\#t hf au
 g-cc-pvdz iop(5/13=1,5/36=2,99/5=2) pseudo=read geom=check guess=(read
 ,tcheck) scf=(maxcycle=1)\\title\\0,1\O,0,-0.30130181,-0.72203772,-1.8
 4395937\C,0,-0.92280005,-0.24175963,-0.74140596\C,0,1.3964375,-0.44531
 262,1.50536578\C,0,1.81879739,0.37379623,0.55376021\O,0,1.07396619,1.0
 8325845,-0.33431832\C,0,-2.00567671,-0.81855629,-0.24008577\C,0,-0.337
 82414,1.03995209,-0.20119178\H,0,0.54353263,-0.26860831,-1.93696506\H,
 0,2.13231317,-0.92334919,2.1355417\H,0,0.35565668,-0.68159184,1.675341

 Normal termination of Gaussian 16 at Wed Apr  9 03:34:26 2025.
