 Gaussian 16, Revision C.01,

 ----------------------------------------------------------------------
 #t hf aug-cc-pvdz symm=none int=(grid=ultrafine) guess=(read,tcheck) s
 table=(opt,rrhf)
 ----------------------------------------------------------------------
 -----
 title
 -----
 Symbolic Z-matrix:
 Charge =  0 Multiplicity = 1

 SCF Done:  E(RHF) =  -286.838337210     A.U. after   15 cycles
 Normal termination of Gaussian 16 at Wed Apr  9 15:36:01 2025.
 Gaussian 16:  ES64L-G16RevC.01  3-Jul-2019

 ----------------------------------------------------------------------
 #t hf aug-cc-pvdz iop(5/13=1,5/36=2,99/5=2) pseudo=read geom=check gue
 ss=(read,tcheck) scf=(maxcycle=1)
 ----------------------------------------------------------------------
 -----
 title
 -----
 Structure from the checkpoint file:  "Grambow2020_wb97xd3_007191_reverse_mol2.chk"
 Charge =  0 Multiplicity = 1

                         Standard orientation:
 ---------------------------------------------------------------------
 Center     Atomic      Atomic             Coordinates (Angstroms)
 Number     Number       Type             X           Y           Z
 ---------------------------------------------------------------------
      1          6           0       -2.442866   -0.530008    0.170496
      2          6           0       -1.053453   -0.019592    0.001095
      3          6           0       -0.588986    1.304864    0.118479
      4          6           0        0.776172    1.397450   -0.113773
      5          6           0        1.175693   -0.010315   -0.430702
      6          6           0        2.292900   -0.560360    0.443456
      7          7           0       -0.052565   -0.819560   -0.313102
      8          1           0       -2.462177   -1.440547    0.771442
      9          1           0       -3.067860    0.221856    0.647795
     10          1           0       -2.874739   -0.761059   -0.805889
     11          1           0       -1.253349    2.119641    0.380746
     12          1           0        1.480681   -0.021256   -1.485031
     13          1           0        2.540035   -1.592398    0.182492
     14          1           0        3.181475    0.055383    0.317411
     15          1           0        2.000765   -0.523974    1.494346
     16          1           0       -0.133628   -1.812960   -0.445906
 ---------------------------------------------------------------------

 SCF Done:  E(RHF) =  -286.923642864     A.U. after    2 cycles

 The electronic state is 1-A.
 Alpha  occ. eigenvalues --  -15.66519 -11.33066 -11.26919 -11.26747 -11.23061
 Alpha  occ. eigenvalues --  -11.20023 -11.19877  -1.27170  -1.06113  -1.02824
 Alpha  occ. eigenvalues --   -0.98314  -0.87187  -0.78828  -0.74557  -0.69651
 Alpha  occ. eigenvalues --   -0.63962  -0.61417  -0.59611  -0.57835  -0.56233
 Alpha  occ. eigenvalues --   -0.54993  -0.51854  -0.47344  -0.45530  -0.33450
 Alpha  occ. eigenvalues --   -0.31414
 Alpha virt. eigenvalues --    0.02214   0.03492   0.04006   0.04798   0.06175
 Alpha virt. eigenvalues --    0.06531   0.06659   0.07842   0.08298   0.09453
 Alpha virt. eigenvalues --    0.10796   0.12398   0.12828   0.12871   0.13203

 Mulliken charges:
               1
     1  C    0.520795
     2  C   -0.405371
     3  C    1.052778
     4  C   -0.854107
     5  C    0.115189
     6  C    0.647598
     7  N   -0.364536
     8  H   -0.031616
     9  H   -0.009333
    10  H    0.095064
    11  H   -0.412474
    12  H   -0.124934
    13  H   -0.063502
    14  H    0.002542
    15  H   -0.018151
    16  H   -0.149940
 Sum of Mulliken charges =   0.00000

 Dipole moment (field-independent basis, Debye):
    X=             -2.9915    Y=             -5.3854    Z=             -0.2945  Tot=              6.1675

 Test job not archived.
 1\1\GINC-SE454\SP\RHF\Aug-CC-pVDZ\C6H9N1\OHZDE\09-Apr-2025\0\\#t hf au
 g-cc-pvdz iop(5/13=1,5/36=2,99/5=2) pseudo=read geom=check guess=(read
 ,tcheck) scf=(maxcycle=1)\\title\\0,1\C,0,-2.403631,-0.3951998,0.12508
 467\C,0,-1.02137822,0.15001088,0.01641148\C,0,-0.5505327,1.42022325,0.
 40184372\C,0,0.8043152,1.57124733,0.14156027\C,0,1.18860096,0.26961537
 ,-0.49085018\C,0,2.33923023,-0.4498772,0.1970719\N,0,-0.03517103,-0.55
 471776,-0.50435439\H,0,-2.400144,-1.41510771,0.51285705\H,0,-3.0077605
 8,0.22971356,0.77948719\H,0,-2.87479397,-0.4106101,-0.86030555\H,0,-1.

 Normal termination of Gaussian 16 at Wed Apr  9 15:36:06 2025.
