 Gaussian 16, Revision C.01,

 ----------------------------------------------------------------------
 #t hf aug-cc-pvdz symm=none int=(grid=ultrafine) guess=(read,tcheck) s
 table=(opt,rrhf)
 ----------------------------------------------------------------------
 -----
 title
 -----
 Symbolic Z-matrix:
 Charge =  0 Multiplicity = 1

 SCF Done:  E(RHF) =  -358.358878869     A.U. after   17 cycles
 Normal termination of Gaussian 16 at Wed Apr  9 03:33:06 2025.
 Gaussian 16:  ES64L-G16RevC.01  3-Jul-2019

 ----------------------------------------------------------------------
 #t hf aug-cc-pvdz iop(5/13=1,5/36=2,99/5=2) pseudo=read geom=check gue
 ss=(read,tcheck) scf=(maxcycle=1)
 ----------------------------------------------------------------------
 -----
 title
 -----
 Structure from the checkpoint file:  "Grambow2020_wb97xd3_007084_reverse_mol2.chk"
 Charge =  0 Multiplicity = 1

                         Standard orientation:
 ---------------------------------------------------------------------
 Center     Atomic      Atomic             Coordinates (Angstroms)
 Number     Number       Type             X           Y           Z
 ---------------------------------------------------------------------
      1          8           0        2.189033   -0.125033   -0.256061
      2          6           0        0.994181    0.024339   -0.136792
      3          7           0        0.226536    1.046341   -0.558116
      4          6           0       -1.184113    1.144969   -0.239336
      5          6           0       -1.161296   -0.235799    0.248505
      6          8           0       -1.082387   -1.341257   -0.385816
      7          6           0        0.039524   -0.930619    0.590626
      8          1           0        0.493702    1.506317    2.460065
      9          1           0       -1.828106    1.254983   -1.111661
     10          1           0       -1.399993    1.898942    0.517583
     11          1           0       -0.013695    1.340012    2.981348
     12          1           0        0.179400   -1.611664    1.416481
 ---------------------------------------------------------------------

 SCF Done:  E(RHF) =  -358.471105503     A.U. after    2 cycles

 The electronic state is 1-A.
 Alpha  occ. eigenvalues --  -20.71578 -20.52842 -15.61791 -11.44459 -11.38180
 Alpha  occ. eigenvalues --  -11.37067 -11.34471  -1.53078  -1.33972  -1.22478
 Alpha  occ. eigenvalues --   -1.04039  -0.99398  -0.86408  -0.80392  -0.74305
 Alpha  occ. eigenvalues --   -0.71808  -0.70575  -0.66154  -0.62815  -0.61567
 Alpha  occ. eigenvalues --   -0.60885  -0.56323  -0.52581  -0.44576  -0.39616
 Alpha  occ. eigenvalues --   -0.36464
 Alpha virt. eigenvalues --   -0.00116   0.02913   0.03309   0.04505   0.06499
 Alpha virt. eigenvalues --    0.07047   0.07953   0.08806   0.09939   0.10350
 Alpha virt. eigenvalues --    0.12346   0.12818   0.13780   0.13968   0.14205

 Mulliken charges:
               1
     1  O   -0.469600
     2  C    0.298414
     3  N   -0.668487
     4  C    1.040191
     5  C   -0.165377
     6  O   -0.544200
     7  C    0.713176
     8  H    0.032548
     9  H    0.015224
    10  H   -0.041955
    11  H   -0.000155
    12  H   -0.209779
 Sum of Mulliken charges =   0.00000

 Dipole moment (field-independent basis, Debye):
    X=             -6.5166    Y=             -0.6642    Z=              3.3656  Tot=              7.3644

 Test job not archived.
 1\1\GINC-SE403\SP\RHF\Aug-CC-pVDZ\C4H5N1O2\OHZDE\09-Apr-2025\0\\#t hf
 aug-cc-pvdz iop(5/13=1,5/36=2,99/5=2) pseudo=read geom=check guess=(re
 ad,tcheck) scf=(maxcycle=1)\\title\\0,1\O,0,1.11278827,2.21313088,0.66
 48794\C,0,0.63419348,1.10618455,0.56576659\N,0,1.26077362,-0.06787228,
 0.36509604\C,0,0.54228818,-1.30824347,0.1493712\C,0,-0.70017832,-0.649
 26492,0.55809338\O,0,-1.10365038,-0.27531134,1.71048125\C,0,-0.8618129
 2,0.76981516,0.60143962\H,0,0.04092463,0.60506628,-2.36464617\H,0,0.82
 160151,-2.10654204,0.83674664\H,0,0.56830642,-1.64296603,-0.88759077\H

 Normal termination of Gaussian 16 at Wed Apr  9 03:33:11 2025.
