 Gaussian 16, Revision C.01,

 ----------------------------------------------------------------------
 #t hf aug-cc-pvdz symm=none int=(grid=ultrafine) guess=(read,tcheck) s
 table=(opt,rrhf)
 ----------------------------------------------------------------------
 -----
 title
 -----
 Symbolic Z-matrix:
 Charge =  0 Multiplicity = 1

 SCF Done:  E(RHF) =  -269.634796722     A.U. after   14 cycles
 Normal termination of Gaussian 16 at Wed Apr  9 14:37:49 2025.
 Gaussian 16:  ES64L-G16RevC.01  3-Jul-2019

 ----------------------------------------------------------------------
 #t hf aug-cc-pvdz iop(5/13=1,5/36=2,99/5=2) pseudo=read geom=check gue
 ss=(read,tcheck) scf=(maxcycle=1)
 ----------------------------------------------------------------------
 -----
 title
 -----
 Structure from the checkpoint file:  "Grambow2020_wb97xd3_006583_forward_mol2.chk"
 Charge =  0 Multiplicity = 1

                         Standard orientation:
 ---------------------------------------------------------------------
 Center     Atomic      Atomic             Coordinates (Angstroms)
 Number     Number       Type             X           Y           Z
 ---------------------------------------------------------------------
      1          6           0       -0.265081    1.641270    0.182220
      2          6           0       -0.445517    0.218485   -0.349520
      3          6           0        0.518339   -0.780604    0.325149
      4          6           0        1.921284   -0.471201    0.067023
      5          6           0        3.067431   -0.208802   -0.159636
      6          6           0       -1.825713   -0.238318   -0.172454
      7          6           0       -2.951362   -0.611874   -0.005699
      8          1           0       -0.490391    1.681070    1.249695
      9          1           0        0.763167    1.971957    0.031133
     10          1           0       -0.933966    2.331362   -0.331721
     11          1           0       -0.227788    0.215626   -1.422035
     12          1           0        0.336107   -0.781150    1.403360
     13          1           0        0.301747   -1.789802   -0.031210
     14          1           0        4.088432    0.018826   -0.356106
     15          1           0       -3.953593   -0.941623    0.134391
 ---------------------------------------------------------------------

 SCF Done:  E(RHF) =  -269.721428547     A.U. after    2 cycles

 The electronic state is 1-A.
 Alpha  occ. eigenvalues --  -11.27672 -11.26999 -11.24955 -11.24716 -11.23727
 Alpha  occ. eigenvalues --  -11.23689 -11.23402  -1.11736  -1.04063  -0.99970
 Alpha  occ. eigenvalues --   -0.95185  -0.85923  -0.72718  -0.72198  -0.67545
 Alpha  occ. eigenvalues --   -0.64319  -0.61973  -0.58231  -0.54287  -0.51878
 Alpha  occ. eigenvalues --   -0.51601  -0.40921  -0.39451  -0.39390  -0.38519
 Alpha virt. eigenvalues --    0.03389   0.03626   0.04850   0.05087   0.05201
 Alpha virt. eigenvalues --    0.07015   0.07363   0.07634   0.09977   0.10677
 Alpha virt. eigenvalues --    0.11274   0.11786   0.13110   0.13253   0.14095

 Mulliken charges:
               1
     1  C    0.658689
     2  C   -0.898702
     3  C    0.213807
     4  C   -0.262205
     5  C    0.887250
     6  C   -0.228740
     7  C    0.986163
     8  H   -0.011414
     9  H   -0.058407
    10  H   -0.048401
    11  H   -0.055087
    12  H   -0.001386
    13  H   -0.040144
    14  H   -0.564248
    15  H   -0.577176
 Sum of Mulliken charges =  -0.00000

 Dipole moment (field-independent basis, Debye):
    X=              0.0032    Y=              0.2258    Z=              0.0221  Tot=              0.2269

 Test job not archived.
 1\1\GINC-SE113\SP\RHF\Aug-CC-pVDZ\C7H8\OHZDE\09-Apr-2025\0\\#t hf aug-
 cc-pvdz iop(5/13=1,5/36=2,99/5=2) pseudo=read geom=check guess=(read,t
 check) scf=(maxcycle=1)\\title\\0,1\C,0,-0.10187268,-1.51280311,-0.071
 98733\C,0,-0.32255694,-0.11771107,0.51507057\C,0,0.32372185,0.9854858,
 -0.34960123\C,0,1.77471852,0.85368906,-0.4382094\C,0,2.96505348,0.7366
 1969,-0.49546016\C,0,-1.75029989,0.16398013,0.67987657\C,0,-2.92017046
 ,0.39448531,0.79260631\H,0,-0.56830985,-1.59084902,-1.05595704\H,0,0.9
 6519022,-1.71291056,-0.1759603\H,0,-0.53987093,-2.27470397,0.57255515\

 Normal termination of Gaussian 16 at Wed Apr  9 14:37:54 2025.
