 Gaussian 16, Revision C.01,

 ----------------------------------------------------------------------
 #t hf aug-cc-pvdz symm=none int=(grid=ultrafine) guess=(read,tcheck) s
 table=(opt,rrhf)
 ----------------------------------------------------------------------
 -----
 title
 -----
 Symbolic Z-matrix:
 Charge =  0 Multiplicity = 1

 SCF Done:  E(RHF) =  -360.831222114     A.U. after   13 cycles
 Normal termination of Gaussian 16 at Wed Apr  9 16:00:05 2025.
 Gaussian 16:  ES64L-G16RevC.01  3-Jul-2019

 ----------------------------------------------------------------------
 #t hf aug-cc-pvdz iop(5/13=1,5/36=2,99/5=2) pseudo=read geom=check gue
 ss=(read,tcheck) scf=(maxcycle=1)
 ----------------------------------------------------------------------
 -----
 title
 -----
 Structure from the checkpoint file:  "Grambow2020_wb97xd3_007662_reverse_mol2.chk"
 Charge =  0 Multiplicity = 1

                         Standard orientation:
 ---------------------------------------------------------------------
 Center     Atomic      Atomic             Coordinates (Angstroms)
 Number     Number       Type             X           Y           Z
 ---------------------------------------------------------------------
      1          6           0       -2.286924   -0.488966   -0.707056
      2          8           0       -1.796912   -0.111583    0.558349
      3          6           0       -0.450603   -0.443590    0.752025
      4          6           0        0.514724    0.556162    0.160013
      5          7           0        1.862504    0.145494    0.196469
      6          8           0        2.063378   -1.078231   -0.492963
      7          6           0        0.164831    1.777479   -0.224206
      8          1           0       -3.326097   -0.167211   -0.759076
      9          1           0       -1.723736   -0.016110   -1.518875
     10          1           0       -2.243449   -1.577765   -0.835923
     11          1           0       -0.231512   -1.438351    0.345545
     12          1           0       -0.280051   -0.484405    1.831749
     13          1           0        2.497750   -1.636707    0.155691
     14          1           0        0.886888    2.468125   -0.643448
     15          1           0        2.450160    0.826373   -0.268874
     16          1           0       -0.851376    2.119593   -0.089816
 ---------------------------------------------------------------------

 SCF Done:  E(RHF) =  -360.945939025     A.U. after    2 cycles

 The electronic state is 1-A.
 Alpha  occ. eigenvalues --  -20.61613 -20.57235 -15.68630 -11.29057 -11.28080
 Alpha  occ. eigenvalues --  -11.27866 -11.22301  -1.37915  -1.34228  -1.14508
 Alpha  occ. eigenvalues --   -1.00392  -0.95911  -0.89061  -0.76834  -0.72301
 Alpha  occ. eigenvalues --   -0.69470  -0.68117  -0.66670  -0.64330  -0.62172
 Alpha  occ. eigenvalues --   -0.57366  -0.54943  -0.53979  -0.50916  -0.49789
 Alpha  occ. eigenvalues --   -0.45552  -0.43969  -0.33931
 Alpha virt. eigenvalues --    0.03355   0.04040   0.04485   0.05327   0.06217
 Alpha virt. eigenvalues --    0.06576   0.07387   0.08321   0.08990   0.11526
 Alpha virt. eigenvalues --    0.12073   0.13122   0.13633   0.14561   0.15374

 Mulliken charges:
               1
     1  C    0.738189
     2  O   -0.661402
     3  C    0.573603
     4  C    0.021750
     5  N   -0.363926
     6  O   -0.508264
     7  C    1.190829
     8  H   -0.229047
     9  H   -0.064908
    10  H   -0.081556
    11  H    0.030364
    12  H   -0.086506
    13  H    0.204342
    14  H   -0.480833
    15  H    0.067455
    16  H   -0.350092
 Sum of Mulliken charges =   0.00000

 Dipole moment (field-independent basis, Debye):
    X=              1.1651    Y=             -0.6192    Z=             -0.3786  Tot=              1.3726

 Test job not archived.
 1\1\GINC-SE087\SP\RHF\Aug-CC-pVDZ\C4H9N1O2\OHZDE\09-Apr-2025\0\\#t hf
 aug-cc-pvdz iop(5/13=1,5/36=2,99/5=2) pseudo=read geom=check guess=(re
 ad,tcheck) scf=(maxcycle=1)\\title\\0,1\C,0,2.22388906,-0.14186371,0.3
 8819213\O,0,1.18332453,-0.26174077,1.32980448\C,0,0.03137245,0.4507489
 ,0.97533022\C,0,-0.86233266,-0.28117586,0.00197658\N,0,-1.93001326,0.4
 9415265,-0.49341422\O,0,-1.47450278,1.66464141,-1.15344028\C,0,-0.7592
 2176,-1.57861255,-0.25819612\H,0,3.05515113,-0.74649869,0.7480964\H,0,
 1.92060441,-0.50122777,-0.60110028\H,0,2.55352524,0.90084392,0.2982872

 Normal termination of Gaussian 16 at Wed Apr  9 16:00:11 2025.
