 Gaussian 16, Revision C.01,

 ----------------------------------------------------------------------
 #t hf aug-cc-pvdz symm=none int=(grid=ultrafine) guess=(read,tcheck) s
 table=(opt,rrhf)
 ----------------------------------------------------------------------
 -----
 title
 -----
 Symbolic Z-matrix:
 Charge =  0 Multiplicity = 1

 SCF Done:  E(RHF) =  -279.777083907     A.U. after   15 cycles
 Normal termination of Gaussian 16 at Wed Apr  9 03:15:59 2025.
 Gaussian 16:  ES64L-G16RevC.01  3-Jul-2019

 ----------------------------------------------------------------------
 #t hf aug-cc-pvdz iop(5/13=1,5/36=2,99/5=2) pseudo=read geom=check gue
 ss=(read,tcheck) scf=(maxcycle=1)
 ----------------------------------------------------------------------
 -----
 title
 -----
 Structure from the checkpoint file:  "Grambow2020_b97d3_007048_forward_mol1.chk"
 Charge =  0 Multiplicity = 1

                         Standard orientation:
 ---------------------------------------------------------------------
 Center     Atomic      Atomic             Coordinates (Angstroms)
 Number     Number       Type             X           Y           Z
 ---------------------------------------------------------------------
      1          7           0        2.060047    0.018868    0.108216
      2          6           0        0.676440    0.041000   -0.005921
      3          6           0       -0.183189    1.155559   -0.007128
      4          6           0       -1.469708    0.620326    0.017783
      5          7           0       -1.467278   -0.731927   -0.070511
      6          7           0       -0.017666   -1.123879   -0.091499
      7          1           0        2.529599    0.832583   -0.279217
      8          1           0        2.475665   -0.848768   -0.222494
      9          1           0        0.105935    2.202426   -0.021957
     10          1           0       -2.417258    1.150158    0.072608
     11          1           0       -0.860924   -1.379140    0.799217
 ---------------------------------------------------------------------

 SCF Done:  E(RHF) =  -279.855125490     A.U. after    2 cycles

 The electronic state is 1-A.
 Alpha  occ. eigenvalues --  -15.66580 -15.66294 -15.65115 -11.33396 -11.29461
 Alpha  occ. eigenvalues --  -11.24588  -1.30934  -1.19326  -1.05056  -1.01972
 Alpha  occ. eigenvalues --   -0.81545  -0.78306  -0.72105  -0.67790  -0.64068
 Alpha  occ. eigenvalues --   -0.59436  -0.57361  -0.49869  -0.46431  -0.45729
 Alpha  occ. eigenvalues --   -0.38060  -0.33117
 Alpha virt. eigenvalues --    0.02689   0.03564   0.04778   0.05873   0.07093
 Alpha virt. eigenvalues --    0.10007   0.11486   0.11871   0.12505   0.13248
 Alpha virt. eigenvalues --    0.13556   0.14466   0.15075   0.16050   0.16284

 Mulliken charges:
               1
     1  N   -0.325967
     2  C    0.500212
     3  C    0.799045
     4  C    0.409590
     5  N   -0.629916
     6  N   -0.686212
     7  H    0.022942
     8  H    0.005312
     9  H   -0.332098
    10  H   -0.207787
    11  H    0.444880
 Sum of Mulliken charges =  -0.00000

 Dipole moment (field-independent basis, Debye):
    X=              1.7796    Y=              2.4113    Z=              0.2055  Tot=              3.0039

 Test job not archived.
 1\1\GINC-SE109\SP\RHF\Aug-CC-pVDZ\C3H5N3\OHZDE\09-Apr-2025\0\\#t hf au
 g-cc-pvdz iop(5/13=1,5/36=2,99/5=2) pseudo=read geom=check guess=(read
 ,tcheck) scf=(maxcycle=1)\\title\\0,1\N,0,-1.92324784,-0.17344912,0.14
 586634\C,0,-0.5601812,0.02669932,-0.02698171\C,0,0.48724353,-0.8993385
 4,0.1359917\C,0,1.65556764,-0.15148227,0.00199095\N,0,1.40677481,1.137
 90413,-0.33263269\N,0,-0.09003141,1.25794282,-0.35720769\H,0,-2.242447
 2,-1.11529742,-0.06330022\H,0,-2.49361067,0.52934276,-0.31853533\H,0,0
 .39261087,-1.96437496,0.32700286\H,0,2.68412967,-0.4865527,0.10860845\

 Normal termination of Gaussian 16 at Wed Apr  9 03:16:06 2025.
