 Gaussian 16, Revision C.01,

 ----------------------------------------------------------------------
 #t hf aug-cc-pvdz symm=none int=(grid=ultrafine) guess=(read,tcheck) s
 table=(opt,rrhf)
 ----------------------------------------------------------------------
 -----
 title
 -----
 Symbolic Z-matrix:
 Charge =  0 Multiplicity = 1

 SCF Done:  E(RHF) =  -306.534824876     A.U. after   18 cycles
 Normal termination of Gaussian 16 at Wed Apr  9 03:59:21 2025.
 Gaussian 16:  ES64L-G16RevC.01  3-Jul-2019

 ----------------------------------------------------------------------
 #t hf aug-cc-pvdz iop(5/13=1,5/36=2,99/5=2) pseudo=read geom=check gue
 ss=(read,tcheck) scf=(maxcycle=1)
 ----------------------------------------------------------------------
 -----
 title
 -----
 Structure from the checkpoint file:  "Grambow2020_wb97xd3_008783_reverse_mol1.chk"
 Charge =  0 Multiplicity = 1

                         Standard orientation:
 ---------------------------------------------------------------------
 Center     Atomic      Atomic             Coordinates (Angstroms)
 Number     Number       Type             X           Y           Z
 ---------------------------------------------------------------------
      1          8           0        2.365293    0.149582    0.418587
      2          6           0        1.338490   -0.195066   -0.046407
      3          6           0       -0.048135    1.456947   -0.319368
      4          6           0       -1.331629    0.743209   -0.281063
      5          6           0       -1.548207   -0.250219    0.815526
      6          6           0       -0.908971   -1.151800   -0.162683
      7          6           0        0.467023   -1.199213   -0.397926
      8          1           0        0.419088    1.796217    0.599149
      9          1           0        0.309861    1.876754   -1.249338
     10          1           0       -1.165993    2.058015   -0.051207
     11          1           0       -2.011915    0.789003   -1.117974
     12          1           0       -0.991860   -0.036252    1.726542
     13          1           0       -2.587260   -0.471965    1.039137
     14          1           0       -1.549574   -1.800558   -0.746080
     15          1           0        0.843873   -1.831017   -1.197405
 ---------------------------------------------------------------------

 SCF Done:  E(RHF) =  -306.629222772     A.U. after    2 cycles

 The electronic state is 1-A.
 Alpha  occ. eigenvalues --  -20.58372 -11.34734 -11.28801 -11.27504 -11.26448
 Alpha  occ. eigenvalues --  -11.25468 -11.24083  -1.37845  -1.15466  -1.04287
 Alpha  occ. eigenvalues --   -0.99484  -0.83967  -0.80793  -0.72071  -0.69858
 Alpha  occ. eigenvalues --   -0.67009  -0.63364  -0.62649  -0.60346  -0.58375
 Alpha  occ. eigenvalues --   -0.54340  -0.53686  -0.51722  -0.48396  -0.35612
 Alpha  occ. eigenvalues --   -0.25644
 Alpha virt. eigenvalues --    0.02824   0.04060   0.04283   0.04811   0.06308
 Alpha virt. eigenvalues --    0.06443   0.06739   0.07702   0.10153   0.10543
 Alpha virt. eigenvalues --    0.11309   0.13089   0.13536   0.13943   0.14322

 Mulliken charges:
               1
     1  O   -0.352327
     2  C   -0.295438
     3  C    0.218923
     4  C    0.205696
     5  C    0.852870
     6  C    0.402278
     7  C    0.633776
     8  H   -0.148320
     9  H   -0.189581
    10  H    0.144798
    11  H   -0.389309
    12  H   -0.158400
    13  H   -0.219444
    14  H   -0.430721
    15  H   -0.274800
 Sum of Mulliken charges =  -0.00000

 Dipole moment (field-independent basis, Debye):
    X=             -4.0350    Y=              0.7518    Z=             -1.1264  Tot=              4.2562

 Test job not archived.
 1\1\GINC-SE049\SP\RHF\Aug-CC-pVDZ\C6H8O1\OHZDE\09-Apr-2025\0\\#t hf au
 g-cc-pvdz iop(5/13=1,5/36=2,99/5=2) pseudo=read geom=check guess=(read
 ,tcheck) scf=(maxcycle=1)\\title\\0,1\O,0,0.82955024,-2.58096039,-0.82
 799981\C,0,0.83919398,-1.57267276,-0.21759862\C,0,-1.1586985,-0.784955
 87,0.12050033\C,0,-0.86228228,0.64413829,0.28805625\C,0,0.04584697,1.2
 9256234,-0.70751425\C,0,1.07446049,0.81822322,0.23869895\C,0,1.5270324
 ,-0.50162063,0.3030328\H,0,-1.32047125,-1.19985039,-0.86882617\H,0,-1.
 47345741,-1.37537993,0.96995252\H,0,-2.06102283,0.13243149,-0.0438467\

 Normal termination of Gaussian 16 at Wed Apr  9 03:59:26 2025.
