 Gaussian 16, Revision C.01,

 ----------------------------------------------------------------------
 #t hf aug-cc-pvdz symm=none int=(grid=ultrafine) guess=(read,tcheck) s
 table=(opt,rrhf)
 ----------------------------------------------------------------------
 -----
 title
 -----
 Symbolic Z-matrix:
 Charge =  0 Multiplicity = 1

 SCF Done:  E(RHF) =  -271.890971703     A.U. after   15 cycles
 Normal termination of Gaussian 16 at Wed Apr  9 15:53:26 2025.
 Gaussian 16:  ES64L-G16RevC.01  3-Jul-2019

 ----------------------------------------------------------------------
 #t hf aug-cc-pvdz iop(5/13=1,5/36=2,99/5=2) pseudo=read geom=check gue
 ss=(read,tcheck) scf=(maxcycle=1)
 ----------------------------------------------------------------------
 -----
 title
 -----
 Structure from the checkpoint file:  "Grambow2020_wb97xd3_007431_reverse_mol1.chk"
 Charge =  0 Multiplicity = 1

                         Standard orientation:
 ---------------------------------------------------------------------
 Center     Atomic      Atomic             Coordinates (Angstroms)
 Number     Number       Type             X           Y           Z
 ---------------------------------------------------------------------
      1          6           0        2.720903    0.005430   -0.188349
      2          6           0        1.386296   -0.708561   -0.026761
      3          6           0        0.317536    0.216324    0.540150
      4          6           0       -0.055814    1.389826   -0.371854
      5          6           0       -1.969357    0.502395   -0.162429
      6          6           0       -1.762912   -0.939023   -0.486398
      7          6           0       -1.072860   -0.360106    0.701799
      8          1           0        3.472426   -0.642538   -0.642227
      9          1           0        3.109472    0.342657    0.776455
     10          1           0        2.605069    0.883822   -0.828755
     11          1           0        1.054913   -1.080552   -1.000307
     12          1           0        1.496985   -1.581067    0.626146
     13          1           0        0.654110    0.581984    1.516628
     14          1           0       -1.338577    1.119794   -0.933653
     15          1           0       -0.324617    2.243912    0.266397
     16          1           0       -2.898650    0.953422    0.151970
     17          1           0       -2.596111   -1.595168   -0.271341
     18          1           0       -1.199409   -1.190299   -1.376506
     19          1           0       -1.418368   -0.673672    1.678239
 ---------------------------------------------------------------------

 SCF Done:  E(RHF) =  -271.973199857     A.U. after    2 cycles

 The electronic state is 1-A.
 Alpha  occ. eigenvalues --  -11.25893 -11.25498 -11.25449 -11.24737 -11.23799
 Alpha  occ. eigenvalues --  -11.22024 -11.21473  -1.17839  -1.05242  -0.96602
 Alpha  occ. eigenvalues --   -0.88804  -0.82859  -0.80494  -0.71929  -0.69406
 Alpha  occ. eigenvalues --   -0.64449  -0.62045  -0.58238  -0.55402  -0.53732
 Alpha  occ. eigenvalues --   -0.52476  -0.50216  -0.47938  -0.46664  -0.42746
 Alpha  occ. eigenvalues --   -0.41245  -0.32282
 Alpha virt. eigenvalues --    0.03124   0.04201   0.04251   0.04674   0.05916
 Alpha virt. eigenvalues --    0.06350   0.06632   0.07020   0.07392   0.08780
 Alpha virt. eigenvalues --    0.09006   0.09892   0.11459   0.12684   0.13332

 Mulliken charges:
               1
     1  C    0.498230
     2  C    0.271196
     3  C   -0.301299
     4  C   -0.319306
     5  C    0.318325
     6  C    0.919677
     7  C    0.687176
     8  H   -0.072686
     9  H   -0.074006
    10  H   -0.071202
    11  H   -0.124310
    12  H   -0.099348
    13  H   -0.253432
    14  H    0.189116
    15  H   -0.056819
    16  H   -0.424476
    17  H   -0.385070
    18  H   -0.305636
    19  H   -0.396131
 Sum of Mulliken charges =  -0.00000

 Dipole moment (field-independent basis, Debye):
    X=             -1.3497    Y=             -0.9692    Z=              1.7051  Tot=              2.3808

 Test job not archived.
 1\1\GINC-SE226\SP\RHF\Aug-CC-pVDZ\C7H12\OHZDE\09-Apr-2025\0\\#t hf aug
 -cc-pvdz iop(5/13=1,5/36=2,99/5=2) pseudo=read geom=check guess=(read,
 tcheck) scf=(maxcycle=1)\\title\\0,1\C,0,2.48073052,0.29418368,-0.7263
 0311\C,0,1.14530172,-0.43613771,-0.74448575\C,0,0.32962045,-0.15014618
 ,0.5092765\C,0,-0.1067293,1.31067309,0.66372789\C,0,-2.011855,0.382426
 77,0.70725137\C,0,-2.03472758,-0.50616707,-0.49072261\C,0,-1.0453526,-
 0.77812656,0.59108368\H,0,3.04252943,0.13012987,-1.64723836\H,0,3.1033
 7677,-0.03884191,0.1085379\H,0,2.32206848,1.37037017,-0.61786332\H,0,0

 Normal termination of Gaussian 16 at Wed Apr  9 15:53:34 2025.
