 Gaussian 16, Revision C.01,

 ----------------------------------------------------------------------
 #t hf aug-cc-pvdz symm=none int=(grid=ultrafine) guess=(read,tcheck) s
 table=(opt,rrhf)
 ----------------------------------------------------------------------
 -----
 title
 -----
 Symbolic Z-matrix:
 Charge =  0 Multiplicity = 1

 SCF Done:  E(RHF) =  -307.809340993     A.U. after   14 cycles

 1\1\GINC-SE113\Stability\RHF\Aug-CC-pVDZ\C6H10O1\OHZDE\09-Apr-2025\0\\
 #t hf aug-cc-pvdz symm=none int=(grid=ultrafine) guess=(read,tcheck) s
 table=(opt,rrhf)\\title\\0,1\O,0,1.84779998,-0.32549258,-0.69258722\C,
 0,1.10235594,0.00523095,0.3512079\C,0,-0.09987218,-0.83151519,0.631851
 41\C,0,-1.35461552,-0.345349,-0.11024928\C,0,-1.22306078,-0.28259717,-
 1.62624984\C,0,0.66405066,1.48415566,2.15513249\C,0,1.46972473,1.12073
 396,1.07799675\H,0,1.48687381,-1.10051025,-1.13492394\H,0,-0.47816754,
 0.45231218,-1.94003625\H,0,-0.28653002,-0.77139573,1.7026718\H,0,0.121

 Normal termination of Gaussian 16 at Wed Apr  9 16:27:19 2025.
 Gaussian 16:  ES64L-G16RevC.01  3-Jul-2019

 ----------------------------------------------------------------------
 #t hf aug-cc-pvdz iop(5/13=1,5/36=2,99/5=2) pseudo=read geom=check gue
 ss=(read,tcheck) scf=(maxcycle=1)
 ----------------------------------------------------------------------
 -----
 title
 -----
 Structure from the checkpoint file:  "Grambow2020_wb97xd3_008423_reverse_mol2.chk"
 Charge =  0 Multiplicity = 1

                         Standard orientation:
 ---------------------------------------------------------------------
 Center     Atomic      Atomic             Coordinates (Angstroms)
 Number     Number       Type             X           Y           Z
 ---------------------------------------------------------------------
      1          8           0       -0.282963    1.792016    0.041607
      2          6           0       -0.625082    0.523853    0.212756
      3          6           0        0.309700   -0.343401    0.986261
      4          6           0        1.380921   -1.004846    0.105109
      5          6           0        2.252035   -0.037844   -0.685820
      6          6           0       -2.139038   -1.253474   -0.214466
      7          6           0       -1.799755    0.089048   -0.369153
      8          1           0        0.559716    1.976369    0.468793
      9          1           0        1.671958    0.523811   -1.421668
     10          1           0       -0.290236   -1.126095    1.447323
     11          1           0        0.785137    0.260576    1.769106
     12          1           0        0.870575   -1.694118   -0.570343
     13          1           0        2.009062   -1.611540    0.761556
     14          1           0        2.757418    0.678880   -0.029894
     15          1           0        3.027817   -0.575995   -1.231699
     16          1           0       -3.047438   -1.456035   -0.806685
     17          1           0       -2.352989    0.848007   -0.927471
 ---------------------------------------------------------------------

 SCF Done:  E(RHF) =  -307.904555383     A.U. after    2 cycles

 The electronic state is 1-A.
 Alpha  occ. eigenvalues --  -20.65015 -11.36585 -11.25609 -11.24917 -11.24089
 Alpha  occ. eigenvalues --  -11.21929 -11.21482  -1.42646  -1.10279  -1.04677
 Alpha  occ. eigenvalues --   -0.96525  -0.89434  -0.84053  -0.75515  -0.72079
 Alpha  occ. eigenvalues --   -0.67274  -0.65735  -0.61820  -0.60388  -0.57433
 Alpha  occ. eigenvalues --   -0.55318  -0.52874  -0.50695  -0.49884  -0.49415
 Alpha  occ. eigenvalues --   -0.37148  -0.32311
 Alpha virt. eigenvalues --    0.02550   0.04085   0.04211   0.04794   0.06036
 Alpha virt. eigenvalues --    0.06386   0.06727   0.06783   0.07226   0.08270
 Alpha virt. eigenvalues --    0.08902   0.11618   0.13224   0.13372   0.13496

 Mulliken charges:
               1
     1  O   -0.550497
     2  C    0.038031
     3  C    0.373294
     4  C    0.042649
     5  C    0.418490
     6  C   -0.186717
     7  C    0.825494
     8  H    0.177494
     9  H   -0.045393
    10  H    0.048664
    11  H   -0.109433
    12  H   -0.079037
    13  H   -0.065424
    14  H   -0.098407
    15  H   -0.141405
    16  H   -0.228499
    17  H   -0.419303
 Sum of Mulliken charges =  -0.00000

 Dipole moment (field-independent basis, Debye):
    X=              3.4550    Y=              2.2383    Z=              0.7960  Tot=              4.1929

 Test job not archived.
 1\1\GINC-SE113\SP\RHF\Aug-CC-pVDZ\C6H10O1\OHZDE\09-Apr-2025\0\\#t hf a
 ug-cc-pvdz iop(5/13=1,5/36=2,99/5=2) pseudo=read geom=check guess=(rea
 d,tcheck) scf=(maxcycle=1)\\title\\0,1\O,0,1.84779998,-0.32549258,-0.6
 9258722\C,0,1.10235594,0.00523095,0.3512079\C,0,-0.09987218,-0.8315151
 9,0.63185141\C,0,-1.35461552,-0.345349,-0.11024928\C,0,-1.22306078,-0.
 28259717,-1.62624984\C,0,0.66405066,1.48415566,2.15513249\C,0,1.469724
 73,1.12073396,1.07799675\H,0,1.48687381,-1.10051025,-1.13492394\H,0,-0
 .47816754,0.45231218,-1.94003625\H,0,-0.28653002,-0.77139573,1.7026718

 Normal termination of Gaussian 16 at Wed Apr  9 16:27:25 2025.
