 Gaussian 16, Revision C.01,

 ----------------------------------------------------------------------
 #t hf aug-cc-pvdz symm=none int=(grid=ultrafine) guess=(read,tcheck) s
 table=(opt,rrhf)
 ----------------------------------------------------------------------
 -----
 title
 -----
 Symbolic Z-matrix:
 Charge =  0 Multiplicity = 1

 SCF Done:  E(RHF) =  -307.762317179     A.U. after   15 cycles

 1\1\GINC-SE026\Stability\RHF\Aug-CC-pVDZ\C6H10O1\OHZDE\09-Apr-2025\0\\
 #t hf aug-cc-pvdz symm=none int=(grid=ultrafine) guess=(read,tcheck) s
 table=(opt,rrhf)\\title\\0,1\C,0,2.38339437,1.43345927,-0.29419706\C,0
 ,0.56018293,-1.03810312,0.38187335\C,0,-0.53565385,-1.45307266,1.00621
 038\C,0,-1.78634283,-0.7875072,0.50323808\C,0,-1.29225987,0.00647235,-
 0.7206026\C,0,0.23539157,0.03151588,-0.61614499\O,0,0.70479532,1.33241
 158,-0.13197339\H,0,2.47954949,2.40558736,0.22093375\H,0,2.37248182,1.
 7213018,-1.35943133\H,0,1.58064994,-1.33552357,0.57602408\H,0,-0.54760

 Normal termination of Gaussian 16 at Wed Apr  9 16:06:23 2025.
 Gaussian 16:  ES64L-G16RevC.01  3-Jul-2019

 ----------------------------------------------------------------------
 #t hf aug-cc-pvdz iop(5/13=1,5/36=2,99/5=2) pseudo=read geom=check gue
 ss=(read,tcheck) scf=(maxcycle=1)
 ----------------------------------------------------------------------
 -----
 title
 -----
 Structure from the checkpoint file:  "Grambow2020_wb97xd3_007743_reverse_mol2.chk"
 Charge =  0 Multiplicity = 1

                         Standard orientation:
 ---------------------------------------------------------------------
 Center     Atomic      Atomic             Coordinates (Angstroms)
 Number     Number       Type             X           Y           Z
 ---------------------------------------------------------------------
      1          6           0       -2.733210    0.361649    0.028643
      2          6           0        0.288035    1.134067   -0.377856
      3          6           0        1.510140    1.086759    0.138938
      4          6           0        1.997521   -0.316893    0.367852
      5          6           0        0.906975   -1.178577   -0.295861
      6          6           0       -0.282698   -0.243136   -0.530138
      7          8           0       -1.329619   -0.468649    0.469958
      8          1           0       -3.287238    0.129733    0.955415
      9          1           0       -3.098275   -0.407512   -0.673365
     10          1           0       -0.296560    2.013839   -0.605359
     11          1           0        2.106034    1.956932    0.387556
     12          1           0        2.107761   -0.520231    1.437772
     13          1           0        2.980047   -0.485751   -0.077488
     14          1           0        1.257565   -1.543962   -1.261741
     15          1           0        0.615746   -2.049245    0.291588
     16          1           0       -0.803084   -0.415762   -1.469317
     17          1           0       -1.065621    0.007931    1.265806
 ---------------------------------------------------------------------

 SCF Done:  E(RHF) =  -307.856208111     A.U. after    2 cycles

 The electronic state is 1-A.
 Alpha  occ. eigenvalues --  -20.64434 -11.31610 -11.25996 -11.25368 -11.24967
 Alpha  occ. eigenvalues --  -11.24497 -11.21481  -1.39000  -1.14535  -0.99012
 Alpha  occ. eigenvalues --   -0.97645  -0.86316  -0.83115  -0.78005  -0.71723
 Alpha  occ. eigenvalues --   -0.68456  -0.66367  -0.62962  -0.60117  -0.55844
 Alpha  occ. eigenvalues --   -0.52439  -0.51780  -0.51433  -0.50006  -0.48361
 Alpha  occ. eigenvalues --   -0.38196  -0.30394
 Alpha virt. eigenvalues --    0.02864   0.04038   0.04176   0.04848   0.06289
 Alpha virt. eigenvalues --    0.06300   0.06518   0.06904   0.08197   0.09412
 Alpha virt. eigenvalues --    0.11354   0.12028   0.12181   0.12806   0.13961

 Mulliken charges:
               1
     1  C    0.232267
     2  C    0.184804
     3  C    0.230064
     4  C    0.173580
     5  C    0.382504
     6  C    0.575199
     7  O   -0.702898
     8  H   -0.220512
     9  H   -0.215778
    10  H   -0.308107
    11  H   -0.281837
    12  H   -0.029856
    13  H   -0.035985
    14  H   -0.022441
    15  H   -0.077130
    16  H   -0.202024
    17  H    0.318150
 Sum of Mulliken charges =  -0.00000

 Dipole moment (field-independent basis, Debye):
    X=              4.1777    Y=             -1.4598    Z=              0.8860  Tot=              4.5132

 Test job not archived.
 1\1\GINC-SE026\SP\RHF\Aug-CC-pVDZ\C6H10O1\OHZDE\09-Apr-2025\0\\#t hf a
 ug-cc-pvdz iop(5/13=1,5/36=2,99/5=2) pseudo=read geom=check guess=(rea
 d,tcheck) scf=(maxcycle=1)\\title\\0,1\C,0,2.38339437,1.43345927,-0.29
 419706\C,0,0.56018293,-1.03810312,0.38187335\C,0,-0.53565385,-1.453072
 66,1.00621038\C,0,-1.78634283,-0.7875072,0.50323808\C,0,-1.29225987,0.
 00647235,-0.7206026\C,0,0.23539157,0.03151588,-0.61614499\O,0,0.704795
 32,1.33241158,-0.13197339\H,0,2.47954949,2.40558736,0.22093375\H,0,2.3
 7248182,1.7213018,-1.35943133\H,0,1.58064994,-1.33552357,0.57602408\H,

 Normal termination of Gaussian 16 at Wed Apr  9 16:06:29 2025.
