 Gaussian 16, Revision C.01,

 ----------------------------------------------------------------------
 #t hf aug-cc-pvdz symm=none int=(grid=ultrafine) guess=(read,tcheck) s
 table=(opt,rrhf)
 ----------------------------------------------------------------------
 -----
 title
 -----
 Symbolic Z-matrix:
 Charge =  0 Multiplicity = 1

 SCF Done:  E(RHF) =  -286.797322971     A.U. after   15 cycles
 Normal termination of Gaussian 16 at Wed Apr  9 15:36:12 2025.
 Gaussian 16:  ES64L-G16RevC.01  3-Jul-2019

 ----------------------------------------------------------------------
 #t hf aug-cc-pvdz iop(5/13=1,5/36=2,99/5=2) pseudo=read geom=check gue
 ss=(read,tcheck) scf=(maxcycle=1)
 ----------------------------------------------------------------------
 -----
 title
 -----
 Structure from the checkpoint file:  "Grambow2020_wb97xd3_007181_reverse_mol2.chk"
 Charge =  0 Multiplicity = 1

                         Standard orientation:
 ---------------------------------------------------------------------
 Center     Atomic      Atomic             Coordinates (Angstroms)
 Number     Number       Type             X           Y           Z
 ---------------------------------------------------------------------
      1          6           0       -0.381303    1.853732   -0.398815
      2          6           0        1.629739    0.567196    0.291485
      3          6           0        1.734484   -0.724916   -0.095133
      4          6           0        0.453646   -1.407927   -0.244317
      5          6           0       -0.547302   -0.577549    0.047441
      6          6           0       -2.025449   -0.739793    0.088950
      7          7           0        0.082014    0.701972    0.399422
      8          1           0        0.180813    2.729619   -0.086367
      9          1           0       -0.162108    1.641464   -1.443249
     10          1           0       -1.451676    2.009596   -0.261719
     11          1           0        2.684967   -1.206755   -0.279891
     12          1           0        0.315209   -2.438644   -0.545335
     13          1           0       -2.535511   -0.093658   -0.631634
     14          1           0       -2.285598   -1.770016   -0.150661
     15          1           0       -2.435296   -0.516596    1.078701
     16          1           0       -0.067782    0.906723    1.386531
 ---------------------------------------------------------------------

 SCF Done:  E(RHF) =  -286.883179293     A.U. after    2 cycles

 The electronic state is 1-A.
 Alpha  occ. eigenvalues --  -15.72035 -11.29169 -11.27327 -11.25776 -11.24915
 Alpha  occ. eigenvalues --  -11.20940 -11.19718  -1.27940  -1.08065  -1.02254
 Alpha  occ. eigenvalues --   -0.94157  -0.91166  -0.78645  -0.74885  -0.69408
 Alpha  occ. eigenvalues --   -0.65684  -0.60999  -0.60358  -0.58524  -0.58136
 Alpha  occ. eigenvalues --   -0.53897  -0.53062  -0.50328  -0.42453  -0.32871
 Alpha  occ. eigenvalues --   -0.29380
 Alpha virt. eigenvalues --    0.02479   0.03634   0.04135   0.04529   0.06224
 Alpha virt. eigenvalues --    0.06505   0.07028   0.07188   0.09104   0.10482
 Alpha virt. eigenvalues --    0.11191   0.11991   0.12320   0.13259   0.14411

 Mulliken charges:
               1
     1  C    0.911344
     2  C   -0.268728
     3  C    0.433753
     4  C    0.550997
     5  C   -0.383528
     6  C    0.232052
     7  N   -0.450311
     8  H   -0.137656
     9  H   -0.075257
    10  H   -0.227813
    11  H   -0.390592
    12  H   -0.393642
    13  H    0.018286
    14  H   -0.014467
    15  H    0.068049
    16  H    0.127513
 Sum of Mulliken charges =  -0.00000

 Dipole moment (field-independent basis, Debye):
    X=             -5.2597    Y=             -0.3032    Z=             -0.0994  Tot=              5.2694

 Test job not archived.
 1\1\GINC-SE114\SP\RHF\Aug-CC-pVDZ\C6H9N1\OHZDE\09-Apr-2025\0\\#t hf au
 g-cc-pvdz iop(5/13=1,5/36=2,99/5=2) pseudo=read geom=check guess=(read
 ,tcheck) scf=(maxcycle=1)\\title\\0,1\C,0,-1.47903501,-0.96528584,-0.4
 789022\C,0,-1.38994223,0.91152787,1.14763143\C,0,-0.48338404,1.8958756
 2,0.94960881\C,0,0.73824328,1.45572191,0.28387686\C,0,0.67539503,0.150
 07847,0.02331703\C,0,1.62388394,-0.8099742,-0.60248911\N,0,-0.629747,-
 0.29751466,0.52667647\H,0,-2.42903572,-1.20887414,-0.0109917\H,0,-1.64
 955173,-0.25900685,-1.28886627\H,0,-0.99072654,-1.863546,-0.8576761\H,

 Normal termination of Gaussian 16 at Wed Apr  9 15:36:19 2025.
