 Gaussian 16, Revision C.01,

 ----------------------------------------------------------------------
 #t hf aug-cc-pvdz symm=none int=(grid=ultrafine) guess=(read,tcheck) s
 table=(opt,rrhf)
 ----------------------------------------------------------------------
 -----
 title
 -----
 Symbolic Z-matrix:
 Charge =  0 Multiplicity = 1

 SCF Done:  E(RHF) =  -375.737783459     A.U. after   13 cycles
 Normal termination of Gaussian 16 at Wed Apr  9 16:10:58 2025.
 Gaussian 16:  ES64L-G16RevC.01  3-Jul-2019

 ----------------------------------------------------------------------
 #t hf aug-cc-pvdz iop(5/13=1,5/36=2,99/5=2) pseudo=read geom=check gue
 ss=(read,tcheck) scf=(maxcycle=1)
 ----------------------------------------------------------------------
 -----
 title
 -----
 Structure from the checkpoint file:  "Grambow2020_wb97xd3_007905_reverse_mol2.chk"
 Charge =  0 Multiplicity = 1

                         Standard orientation:
 ---------------------------------------------------------------------
 Center     Atomic      Atomic             Coordinates (Angstroms)
 Number     Number       Type             X           Y           Z
 ---------------------------------------------------------------------
      1          6           0       -1.304479   -1.531988    0.019624
      2          8           0       -1.442895   -0.144997   -0.274923
      3          6           0       -0.492060    0.717688    0.088141
      4          7           0       -0.470678    1.935542   -0.186297
      5          7           0        1.739960   -0.422482   -0.878570
      6          6           0        1.621151   -0.244675    0.355634
      7          8           0        0.476991    0.195040    0.922824
      8          1           0       -2.207847   -1.998139   -0.365459
      9          1           0       -1.236101   -1.700912    1.094637
     10          1           0       -0.432788   -1.948111   -0.486423
     11          1           0       -1.262553    2.178655   -0.772480
     12          1           0        2.670008   -0.748882   -1.112996
     13          1           0        2.363862   -0.420518    1.133193
 ---------------------------------------------------------------------

 SCF Done:  E(RHF) =  -375.859009110     A.U. after    2 cycles

 The electronic state is 1-A.
 Alpha  occ. eigenvalues --  -20.63863 -20.62058 -15.62910 -15.60066 -11.41303
 Alpha  occ. eigenvalues --  -11.37688 -11.30480  -1.45647  -1.37875  -1.20106
 Alpha  occ. eigenvalues --   -1.17279  -0.97645  -0.93186  -0.78283  -0.76362
 Alpha  occ. eigenvalues --   -0.73975  -0.70274  -0.68027  -0.64548  -0.61850
 Alpha  occ. eigenvalues --   -0.60150  -0.53939  -0.53761  -0.46201  -0.44725
 Alpha  occ. eigenvalues --   -0.43902  -0.40544
 Alpha virt. eigenvalues --    0.02859   0.03886   0.04583   0.05415   0.06414
 Alpha virt. eigenvalues --    0.07031   0.09844   0.10287   0.11304   0.12478
 Alpha virt. eigenvalues --    0.13539   0.14255   0.15311   0.15724   0.16170

 Mulliken charges:
               1
     1  C    0.803295
     2  O   -0.581120
     3  C    0.904840
     4  N   -0.369596
     5  N   -0.314859
     6  C    0.768042
     7  O   -0.582941
     8  H   -0.247465
     9  H   -0.093053
    10  H   -0.079834
    11  H    0.011929
    12  H    0.023062
    13  H   -0.242299
 Sum of Mulliken charges =  -0.00000

 Dipole moment (field-independent basis, Debye):
    X=              1.0334    Y=             -3.5604    Z=              0.7795  Tot=              3.7884

 Test job not archived.
 1\1\GINC-SE114\SP\RHF\Aug-CC-pVDZ\C3H6N2O2\OHZDE\09-Apr-2025\0\\#t hf
 aug-cc-pvdz iop(5/13=1,5/36=2,99/5=2) pseudo=read geom=check guess=(re
 ad,tcheck) scf=(maxcycle=1)\\title\\0,1\C,0,-1.62748862,0.56377429,-0.
 23552366\O,0,-0.75981161,-0.23673022,-1.03301235\C,0,0.54919138,-0.269
 68391,-0.77697749\N,0,1.38634287,-0.99249568,-1.35634075\N,0,0.6227814
 2,-0.80557602,1.85433981\C,0,1.10634927,0.26850426,1.42830798\O,0,0.98
 373124,0.6650094,0.14304382\H,0,-2.61833548,0.4219599,-0.65951704\H,0,
 -1.3533449,1.61756894,-0.29232269\H,0,-1.62015394,0.22475788,0.8008646

 Normal termination of Gaussian 16 at Wed Apr  9 16:11:03 2025.
