 Gaussian 16, Revision C.01,

 ----------------------------------------------------------------------
 #t hf aug-cc-pvdz symm=none int=(grid=ultrafine) guess=(read,tcheck) s
 table=(opt,rrhf)
 ----------------------------------------------------------------------
 -----
 title
 -----
 Symbolic Z-matrix:
 Charge =  0 Multiplicity = 1

 SCF Done:  E(RHF) =  -344.797198830     A.U. after   13 cycles

 1\1\GINC-SE074\Stability\RHF\Aug-CC-pVDZ\C5H10O2\OHZDE\09-Apr-2025\0\\
 #t hf aug-cc-pvdz symm=none int=(grid=ultrafine) guess=(read,tcheck) s
 table=(opt,rrhf)\\title\\0,1\O,0,1.66833087,0.82658137,0.59837908\C,0,
 1.49750574,-0.4674407,0.04458093\C,0,0.06431932,-0.6469132,-0.37524301
 \C,0,-0.66069946,0.52875424,-0.97749511\C,0,-2.06558695,0.09283353,-1.
 34438872\O,0,-2.29260145,-0.43983628,-0.01871887\C,0,-1.01526923,0.030
 66223,0.39449927\H,0,2.59577479,0.95843892,0.79622777\H,0,1.75391332,-
 1.23869896,0.78236899\H,0,2.15207924,-0.60244035,-0.82611885\H,0,1.233

 Normal termination of Gaussian 16 at Wed Apr  9 03:40:42 2025.
 Gaussian 16:  ES64L-G16RevC.01  3-Jul-2019

 ----------------------------------------------------------------------
 #t hf aug-cc-pvdz iop(5/13=1,5/36=2,99/5=2) pseudo=read geom=check gue
 ss=(read,tcheck) scf=(maxcycle=1)
 ----------------------------------------------------------------------
 -----
 title
 -----
 Structure from the checkpoint file:  "Grambow2020_wb97xd3_007549_reverse_mol2.chk"
 Charge =  0 Multiplicity = 1

                         Standard orientation:
 ---------------------------------------------------------------------
 Center     Atomic      Atomic             Coordinates (Angstroms)
 Number     Number       Type             X           Y           Z
 ---------------------------------------------------------------------
      1          8           0        2.108895   -0.191250   -0.677407
      2          6           0        1.651698   -0.501184    0.628457
      3          6           0        0.160501   -0.315336    0.693849
      4          6           0       -0.665824   -0.708097   -0.503431
      5          6           0       -2.126709   -0.458448   -0.184310
      6          8           0       -1.848387    0.899122    0.230679
      7          6           0       -0.484107    0.737601   -0.138573
      8          1           0        3.045887   -0.380822   -0.730239
      9          1           0        2.127288    0.155255    1.368603
     10          1           0        1.901527   -1.538223    0.887193
     11          1           0        2.638248    2.309486   -0.238699
     12          1           0       -0.256954   -0.480575    1.683867
     13          1           0       -0.267078   -1.260556   -1.340209
     14          1           0       -2.584085   -1.050377    0.614158
     15          1           0       -2.772854   -0.458593   -1.065137
     16          1           0        2.845798    2.963460    0.055351
     17          1           0        0.024805    1.550753   -0.637010
 ---------------------------------------------------------------------

 SCF Done:  E(RHF) =  -344.909188778     A.U. after    2 cycles

 The electronic state is 1-A.
 Alpha  occ. eigenvalues --  -20.58366 -20.56319 -11.29925 -11.28974 -11.28894
 Alpha  occ. eigenvalues --  -11.24472 -11.23760  -1.35773  -1.33684  -1.11608
 Alpha  occ. eigenvalues --   -0.96824  -0.92982  -0.79640  -0.75400  -0.73491
 Alpha  occ. eigenvalues --   -0.69892  -0.64963  -0.64281  -0.64071  -0.58953
 Alpha  occ. eigenvalues --   -0.58243  -0.55415  -0.51945  -0.51875  -0.48337
 Alpha  occ. eigenvalues --   -0.47591  -0.39921  -0.37914
 Alpha virt. eigenvalues --    0.03136   0.04237   0.04463   0.05091   0.06171
 Alpha virt. eigenvalues --    0.06423   0.06710   0.06994   0.08835   0.09464
 Alpha virt. eigenvalues --    0.11642   0.11888   0.13130   0.13629   0.14075

 Mulliken charges:
               1
     1  O   -0.553249
     2  C    0.934100
     3  C    0.052096
     4  C    0.052865
     5  C    1.104940
     6  O   -0.803086
     7  C    0.802402
     8  H    0.168077
     9  H   -0.042267
    10  H   -0.101772
    11  H   -0.029947
    12  H   -0.425849
    13  H   -0.450636
    14  H   -0.173625
    15  H   -0.197134
    16  H    0.029809
    17  H   -0.366726
 Sum of Mulliken charges =  -0.00000

 Dipole moment (field-independent basis, Debye):
    X=              2.3709    Y=             -2.2925    Z=              0.2808  Tot=              3.3099

 Test job not archived.
 1\1\GINC-SE074\SP\RHF\Aug-CC-pVDZ\C5H10O2\OHZDE\09-Apr-2025\0\\#t hf a
 ug-cc-pvdz iop(5/13=1,5/36=2,99/5=2) pseudo=read geom=check guess=(rea
 d,tcheck) scf=(maxcycle=1)\\title\\0,1\O,0,1.66833087,0.82658137,0.598
 37908\C,0,1.49750574,-0.4674407,0.04458093\C,0,0.06431932,-0.6469132,-
 0.37524301\C,0,-0.66069946,0.52875424,-0.97749511\C,0,-2.06558695,0.09
 283353,-1.34438872\O,0,-2.29260145,-0.43983628,-0.01871887\C,0,-1.0152
 6923,0.03066223,0.39449927\H,0,2.59577479,0.95843892,0.79622777\H,0,1.
 75391332,-1.23869896,0.78236899\H,0,2.15207924,-0.60244035,-0.82611885

 Normal termination of Gaussian 16 at Wed Apr  9 03:40:48 2025.
