 Gaussian 16, Revision C.01,

 ----------------------------------------------------------------------
 #t hf aug-cc-pvdz symm=none int=(grid=ultrafine) guess=(read,tcheck) s
 table=(opt,rrhf)
 ----------------------------------------------------------------------
 -----
 title
 -----
 Symbolic Z-matrix:
 Charge =  0 Multiplicity = 1

 SCF Done:  E(RHF) =  -380.619203088     A.U. after   15 cycles
 Normal termination of Gaussian 16 at Wed Apr  9 16:30:05 2025.
 Gaussian 16:  ES64L-G16RevC.01  3-Jul-2019

 ----------------------------------------------------------------------
 #t hf aug-cc-pvdz iop(5/13=1,5/36=2,99/5=2) pseudo=read geom=check gue
 ss=(read,tcheck) scf=(maxcycle=1)
 ----------------------------------------------------------------------
 -----
 title
 -----
 Structure from the checkpoint file:  "Grambow2020_wb97xd3_008482_reverse_mol1.chk"
 Charge =  0 Multiplicity = 1

                         Standard orientation:
 ---------------------------------------------------------------------
 Center     Atomic      Atomic             Coordinates (Angstroms)
 Number     Number       Type             X           Y           Z
 ---------------------------------------------------------------------
      1          6           0        2.676079   -0.498128   -0.253982
      2          8           0        1.773767    0.594831   -0.186267
      3          6           0        0.522930    0.318781    0.240479
      4          8           0        0.250468   -0.845854    0.610020
      5          6           0       -0.415457    1.357294    0.152962
      6          6           0       -1.842032   -0.735889   -0.297147
      7          8           0       -2.934532   -0.072121   -0.106874
      8          1           0        2.257258   -1.320782   -0.836039
      9          1           0        3.572562   -0.113713   -0.736628
     10          1           0        2.919902   -0.867855    0.742832
     11          1           0       -1.107516    1.404212    0.985176
     12          1           0       -0.082200    2.313788   -0.231860
     13          1           0       -1.268760   -0.607145   -1.199320
     14          1           0       -1.771286   -1.633484    0.294945
     15          1           0       -2.886712    0.757772   -0.608012
 ---------------------------------------------------------------------

 SCF Done:  E(RHF) =  -380.744682935     A.U. after    2 cycles

 The electronic state is 1-A.
 Alpha  occ. eigenvalues --  -20.70123 -20.57811 -20.51204 -11.44631 -11.34495
 Alpha  occ. eigenvalues --  -11.27094 -11.16375  -1.47978  -1.37859  -1.27250
 Alpha  occ. eigenvalues --   -0.99628  -0.98450  -0.89874  -0.83605  -0.76289
 Alpha  occ. eigenvalues --   -0.74225  -0.68076  -0.66285  -0.65297  -0.64453
 Alpha  occ. eigenvalues --   -0.61221  -0.55734  -0.53785  -0.50422  -0.50112
 Alpha  occ. eigenvalues --   -0.45347  -0.43218  -0.28409
 Alpha virt. eigenvalues --    0.01921   0.03759   0.04611   0.04833   0.05987
 Alpha virt. eigenvalues --    0.06585   0.06860   0.07381   0.07624   0.10749
 Alpha virt. eigenvalues --    0.11677   0.12011   0.13783   0.14222   0.15202

 Mulliken charges:
               1
     1  C    0.777947
     2  O   -0.554252
     3  C    0.367706
     4  O   -0.666010
     5  C    0.263896
     6  C    1.009648
     7  O   -0.342201
     8  H   -0.093124
     9  H   -0.246841
    10  H   -0.098151
    11  H   -0.182114
    12  H   -0.381247
    13  H    0.008940
    14  H   -0.148584
    15  H    0.284388
 Sum of Mulliken charges =  -0.00000

 Dipole moment (field-independent basis, Debye):
    X=             -3.5741    Y=             -1.7454    Z=             -2.6834  Tot=              4.7980

 Test job not archived.
 1\1\GINC-SE042\SP\RHF\Aug-CC-pVDZ\C4H8O3\OHZDE\09-Apr-2025\0\\#t hf au
 g-cc-pvdz iop(5/13=1,5/36=2,99/5=2) pseudo=read geom=check guess=(read
 ,tcheck) scf=(maxcycle=1)\\title\\0,1\C,0,-2.56656823,-0.11881175,-0.5
 1715356\O,0,-1.63016891,-0.46857721,0.4898877\C,0,-0.42218925,0.130961
 77,0.4247244\O,0,-0.2194237,0.99408542,-0.45905962\C,0,0.55855581,-0.3
 3107678,1.31433075\C,0,1.93199228,0.29491006,-0.76916175\O,0,3.0335434
 6,0.2579398,-0.09420606\H,0,-2.14096832,-0.24639017,-1.513923\H,0,-3.4
 1339359,-0.78867757,-0.38088286\H,0,-2.89066561,0.91704124,-0.40872899

 Normal termination of Gaussian 16 at Wed Apr  9 16:30:10 2025.
