 Gaussian 16, Revision C.01,

 ----------------------------------------------------------------------
 #t hf aug-cc-pvdz symm=none int=(grid=ultrafine) guess=(read,tcheck) s
 table=(opt,rrhf)
 ----------------------------------------------------------------------
 -----
 title
 -----
 Symbolic Z-matrix:
 Charge =  0 Multiplicity = 1

 SCF Done:  E(RHF) =  -323.747740892     A.U. after   15 cycles
 Normal termination of Gaussian 16 at Wed Apr  9 15:34:10 2025.
 Gaussian 16:  ES64L-G16RevC.01  3-Jul-2019

 ----------------------------------------------------------------------
 #t hf aug-cc-pvdz iop(5/13=1,5/36=2,99/5=2) pseudo=read geom=check gue
 ss=(read,tcheck) scf=(maxcycle=1)
 ----------------------------------------------------------------------
 -----
 title
 -----
 Structure from the checkpoint file:  "Grambow2020_wb97xd3_006976_forward_mol1.chk"
 Charge =  0 Multiplicity = 1

                         Standard orientation:
 ---------------------------------------------------------------------
 Center     Atomic      Atomic             Coordinates (Angstroms)
 Number     Number       Type             X           Y           Z
 ---------------------------------------------------------------------
      1          6           0       -2.074770   -1.224447    0.358257
      2          6           0       -0.933531   -1.199262   -0.405393
      3          6           0       -0.218617    0.846188   -0.470248
      4          8           0       -1.148913    1.634907   -0.205918
      5          6           0        0.946612    0.802699    0.522867
      6          6           0        2.002474   -0.134068    0.161585
      7          7           0        2.818922   -0.879573   -0.143947
      8          1           0       -3.045526   -1.348561   -0.106102
      9          1           0       -2.027029   -1.485857    1.409168
     10          1           0       -2.560103    0.249175    0.743312
     11          1           0       -1.030143   -1.305087   -1.477661
     12          1           0       -0.008295   -1.563633    0.020347
     13          1           0        0.031554    0.644391   -1.515444
     14          1           0       -2.179693    0.957105    0.492736
     15          1           0        0.572036    0.574944    1.522415
     16          1           0        1.373045    1.808622    0.563789
 ---------------------------------------------------------------------

 SCF Done:  E(RHF) =  -323.850376117     A.U. after    2 cycles

 The electronic state is 1-A.
 Alpha  occ. eigenvalues --  -20.57943 -15.64855 -11.36372 -11.30455 -11.30017
 Alpha  occ. eigenvalues --  -11.29751 -11.24606  -1.35970  -1.20885  -1.07208
 Alpha  occ. eigenvalues --   -1.05367  -0.87160  -0.81889  -0.73941  -0.70061
 Alpha  occ. eigenvalues --   -0.67814  -0.66162  -0.64197  -0.62226  -0.60407
 Alpha  occ. eigenvalues --   -0.55661  -0.53585  -0.49344  -0.47741  -0.45911
 Alpha  occ. eigenvalues --   -0.44457  -0.36536
 Alpha virt. eigenvalues --    0.02992   0.03927   0.04126   0.04925   0.06130
 Alpha virt. eigenvalues --    0.06571   0.07082   0.07978   0.08551   0.09089
 Alpha virt. eigenvalues --    0.10334   0.11747   0.12778   0.13494   0.13933

 Mulliken charges:
               1
     1  C    0.267166
     2  C    0.586922
     3  C    0.569627
     4  O   -0.695739
     5  C    0.238061
     6  C   -0.028533
     7  N   -0.257335
     8  H   -0.194086
     9  H   -0.169814
    10  H    0.169357
    11  H   -0.241693
    12  H   -0.279307
    13  H   -0.219542
    14  H    0.139923
    15  H    0.051074
    16  H    0.063920
 Sum of Mulliken charges =   0.00000

 Dipole moment (field-independent basis, Debye):
    X=             -2.1210    Y=             -0.3847    Z=              1.0082  Tot=              2.3797

 Test job not archived.
 1\1\GINC-SE129\SP\RHF\Aug-CC-pVDZ\C5H9N1O1\OHZDE\09-Apr-2025\0\\#t hf
 aug-cc-pvdz iop(5/13=1,5/36=2,99/5=2) pseudo=read geom=check guess=(re
 ad,tcheck) scf=(maxcycle=1)\\title\\0,1\C,0,1.93617121,-0.07946102,0.3
 9719645\C,0,0.95134128,0.85335258,0.18227989\C,0,-0.65000516,-0.107852
 33,-0.91815169\O,0,-0.21974615,-1.12196229,-1.50454599\C,0,-1.69014838
 ,-0.34121147,0.18165318\C,0,-2.15629512,0.87804276,0.8289776\N,0,-2.50
 565298,1.85208958,1.32384861\H,0,2.86539086,-0.03718655,-0.15792916\H,
 0,1.97891579,-0.62814856,1.33108227\H,0,1.64430967,-1.43863914,-0.3919

 Normal termination of Gaussian 16 at Wed Apr  9 15:34:15 2025.
