 Gaussian 16, Revision C.01,

 ----------------------------------------------------------------------
 #t hf aug-cc-pvdz symm=none int=(grid=ultrafine) guess=(read,tcheck) s
 table=(opt,rrhf)
 ----------------------------------------------------------------------
 -----
 title
 -----
 Symbolic Z-matrix:
 Charge =  0 Multiplicity = 1

 SCF Done:  E(RHF) =  -283.578955686     A.U. after   15 cycles
 Normal termination of Gaussian 16 at Wed Apr  9 03:20:52 2025.
 Gaussian 16:  ES64L-G16RevC.01  3-Jul-2019

 ----------------------------------------------------------------------
 #t hf aug-cc-pvdz iop(5/13=1,5/36=2,99/5=2) pseudo=read geom=check gue
 ss=(read,tcheck) scf=(maxcycle=1)
 ----------------------------------------------------------------------
 -----
 title
 -----
 Structure from the checkpoint file:  "Grambow2020_wb97xd3_006132_forward_mol1.chk"
 Charge =  0 Multiplicity = 1

                         Standard orientation:
 ---------------------------------------------------------------------
 Center     Atomic      Atomic             Coordinates (Angstroms)
 Number     Number       Type             X           Y           Z
 ---------------------------------------------------------------------
      1          7           0        1.848510    0.532905   -0.241308
      2          6           0        1.830216   -0.629129   -0.021832
      3          6           0        0.257463   -0.085048    0.478397
      4          6           0       -0.687049    1.026320    0.003108
      5          8           0       -1.744582    0.064022   -0.116676
      6          6           0       -0.793274   -1.008480   -0.129370
      7          1           0        0.345851   -0.142799    1.556639
      8          1           0       -0.415699    1.451501   -0.965162
      9          1           0       -0.910032    1.815846    0.720752
     10          1           0       -0.549349   -1.325425   -1.146893
     11          1           0       -1.097823   -1.863615    0.475416
 ---------------------------------------------------------------------

 SCF Done:  E(RHF) =  -283.662874108     A.U. after    2 cycles

 The electronic state is 1-A.
 Alpha  occ. eigenvalues --  -20.59259 -15.68554 -11.33955 -11.32204 -11.32155
 Alpha  occ. eigenvalues --  -11.28707  -1.38218  -1.26072  -1.02791  -0.96791
 Alpha  occ. eigenvalues --   -0.81276  -0.72789  -0.70022  -0.67529  -0.61543
 Alpha  occ. eigenvalues --   -0.59629  -0.58938  -0.52668  -0.51190  -0.48098
 Alpha  occ. eigenvalues --   -0.46403  -0.45300
 Alpha virt. eigenvalues --    0.03317   0.04341   0.04470   0.06076   0.06853
 Alpha virt. eigenvalues --    0.08505   0.09484   0.09824   0.11157   0.12519
 Alpha virt. eigenvalues --    0.13444   0.14075   0.14751   0.15181   0.15930

 Mulliken charges:
               1
     1  N   -0.325713
     2  C    0.090496
     3  C    0.082641
     4  C    0.845337
     5  O   -0.739412
     6  C    0.805047
     7  H   -0.171766
     8  H   -0.140585
     9  H   -0.155563
    10  H   -0.138966
    11  H   -0.151517
 Sum of Mulliken charges =   0.00000

 Dipole moment (field-independent basis, Debye):
    X=             -0.7225    Y=              0.1051    Z=              0.8670  Tot=              1.1334

 Test job not archived.
 1\1\GINC-SE396\SP\RHF\Aug-CC-pVDZ\C4H5N1O1\OHZDE\09-Apr-2025\0\\#t hf
 aug-cc-pvdz iop(5/13=1,5/36=2,99/5=2) pseudo=read geom=check guess=(re
 ad,tcheck) scf=(maxcycle=1)\\title\\0,1\N,0,1.67508251,-1.03823273,0.7
 7841029\C,0,2.07789626,-0.30899729,-0.06110397\C,0,0.36263811,-0.35499
 712,-0.33601767\C,0,-0.85920058,-0.51957836,0.57676011\O,0,-1.43007076
 ,0.66949973,0.01200831\C,0,-0.14600893,1.07568037,-0.47953109\H,0,0.30
 83056,-0.95061767,-1.23936581\H,0,-0.63634338,-0.39624161,1.63840047\H
 ,0,-1.47343348,-1.40505456,0.41324835\H,0,0.34739407,1.77683316,0.1988

 Normal termination of Gaussian 16 at Wed Apr  9 03:20:56 2025.
