 Gaussian 16, Revision C.01,

 ----------------------------------------------------------------------
 #t hf aug-cc-pvdz symm=none int=(grid=ultrafine) guess=(read,tcheck) s
 table=(opt,rrhf)
 ----------------------------------------------------------------------
 -----
 title
 -----
 Symbolic Z-matrix:
 Charge =  0 Multiplicity = 1

 SCF Done:  E(RHF) =  -307.724442183     A.U. after   15 cycles

 1\1\GINC-SE057\Stability\RHF\Aug-CC-pVDZ\C6H10O1\OHZDE\09-Apr-2025\0\\
 #t hf aug-cc-pvdz symm=none int=(grid=ultrafine) guess=(read,tcheck) s
 table=(opt,rrhf)\\title\\0,1\C,0,2.03856349,0.58730438,-0.32138279\C,0
 ,1.08191189,-0.50931982,-0.63618194\C,0,-0.10979749,-0.90645152,1.1521
 5086\C,0,-1.12386454,-0.41316444,0.14602439\O,0,-2.33554406,-1.0885404
 ,0.04583984\C,0,-1.01551069,1.01083358,-0.29296722\C,0,-0.30479707,-0.
 09376487,-1.0520811\H,0,2.91200032,0.24157336,0.23179697\H,0,1.6370081
 2,1.4964866,0.14419484\H,0,2.39330429,0.88272198,-1.31857642\H,0,0.868

 Normal termination of Gaussian 16 at Wed Apr  9 16:35:19 2025.
 Gaussian 16:  ES64L-G16RevC.01  3-Jul-2019

 ----------------------------------------------------------------------
 #t hf aug-cc-pvdz iop(5/13=1,5/36=2,99/5=2) pseudo=read geom=check gue
 ss=(read,tcheck) scf=(maxcycle=1)
 ----------------------------------------------------------------------
 -----
 title
 -----
 Structure from the checkpoint file:  "Grambow2020_wb97xd3_008611_forward_mol1.chk"
 Charge =  0 Multiplicity = 1

                         Standard orientation:
 ---------------------------------------------------------------------
 Center     Atomic      Atomic             Coordinates (Angstroms)
 Number     Number       Type             X           Y           Z
 ---------------------------------------------------------------------
      1          6           0       -2.421105   -0.018719    0.139233
      2          6           0       -1.255967    0.242404   -0.750225
      3          6           0        0.228810    1.372021    0.387940
      4          6           0        0.926962    0.067320    0.080865
      5          8           0        2.250748    0.111848   -0.343333
      6          6           0        0.380689   -1.167997    0.719459
      7          6           0       -0.101859   -0.719911   -0.647242
      8          1           0       -3.086082    0.840420    0.229319
      9          1           0       -2.220323   -0.441732    1.131890
     10          1           0       -2.973598   -0.788271   -0.417587
     11          1           0       -0.701425    1.442374   -0.405683
     12          1           0       -0.076535    1.541878    1.418488
     13          1           0        0.767766    2.229077   -0.017760
     14          1           0        2.819014    0.073570    0.428890
     15          1           0        1.054541   -2.015386    0.722612
     16          1           0       -0.267456   -1.095057    1.584953
     17          1           0        0.132933   -1.332372   -1.508638
 ---------------------------------------------------------------------

 SCF Done:  E(RHF) =  -307.817525067     A.U. after    2 cycles

 The electronic state is 1-A.
 Alpha  occ. eigenvalues --  -20.58489 -11.30456 -11.26174 -11.26005 -11.24009
 Alpha  occ. eigenvalues --  -11.23602 -11.23089  -1.34524  -1.16540  -1.01321
 Alpha  occ. eigenvalues --   -0.97519  -0.86937  -0.81235  -0.72010  -0.71158
 Alpha  occ. eigenvalues --   -0.66077  -0.64348  -0.61724  -0.58409  -0.57554
 Alpha  occ. eigenvalues --   -0.54812  -0.53934  -0.49843  -0.49492  -0.43827
 Alpha  occ. eigenvalues --   -0.40056  -0.30672
 Alpha virt. eigenvalues --    0.03111   0.04276   0.04340   0.04965   0.06126
 Alpha virt. eigenvalues --    0.06473   0.06789   0.07430   0.07685   0.09333
 Alpha virt. eigenvalues --    0.10530   0.11211   0.13205   0.13774   0.14174

 Mulliken charges:
               1
     1  C    0.550142
     2  C   -0.951630
     3  C    0.504586
     4  C    0.054933
     5  O   -0.606823
     6  C    0.907102
     7  C    0.746622
     8  H   -0.054220
     9  H   -0.152628
    10  H    0.023772
    11  H    0.162062
    12  H   -0.146603
    13  H   -0.066932
    14  H    0.137548
    15  H   -0.343959
    16  H   -0.406639
    17  H   -0.357334
 Sum of Mulliken charges =  -0.00000

 Dipole moment (field-independent basis, Debye):
    X=              0.2683    Y=             -0.2555    Z=              3.0140  Tot=              3.0367

 Test job not archived.
 1\1\GINC-SE057\SP\RHF\Aug-CC-pVDZ\C6H10O1\OHZDE\09-Apr-2025\0\\#t hf a
 ug-cc-pvdz iop(5/13=1,5/36=2,99/5=2) pseudo=read geom=check guess=(rea
 d,tcheck) scf=(maxcycle=1)\\title\\0,1\C,0,2.03856349,0.58730438,-0.32
 138279\C,0,1.08191189,-0.50931982,-0.63618194\C,0,-0.10979749,-0.90645
 152,1.15215086\C,0,-1.12386454,-0.41316444,0.14602439\O,0,-2.33554406,
 -1.0885404,0.04583984\C,0,-1.01551069,1.01083358,-0.29296722\C,0,-0.30
 479707,-0.09376487,-1.0520811\H,0,2.91200032,0.24157336,0.23179697\H,0
 ,1.63700812,1.4964866,0.14419484\H,0,2.39330429,0.88272198,-1.31857642

 Normal termination of Gaussian 16 at Wed Apr  9 16:35:26 2025.
