 Gaussian 16, Revision C.01,

 ----------------------------------------------------------------------
 #t hf aug-cc-pvdz symm=none int=(grid=ultrafine) guess=(read,tcheck) s
 table=(opt,rrhf)
 ----------------------------------------------------------------------
 -----
 title
 -----
 Symbolic Z-matrix:
 Charge =  0 Multiplicity = 1

 SCF Done:  E(RHF) =  -359.792617045     A.U. after   14 cycles
 Normal termination of Gaussian 16 at Wed Apr  9 04:05:42 2025.
 Gaussian 16:  ES64L-G16RevC.01  3-Jul-2019

 ----------------------------------------------------------------------
 #t hf aug-cc-pvdz iop(5/13=1,5/36=2,99/5=2) pseudo=read geom=check gue
 ss=(read,tcheck) scf=(maxcycle=1)
 ----------------------------------------------------------------------
 -----
 title
 -----
 Structure from the checkpoint file:  "Grambow2020_wb97xd3_009385_forward_mol2.chk"
 Charge =  0 Multiplicity = 1

                         Standard orientation:
 ---------------------------------------------------------------------
 Center     Atomic      Atomic             Coordinates (Angstroms)
 Number     Number       Type             X           Y           Z
 ---------------------------------------------------------------------
      1          6           0       -0.769698    1.605236   -0.000147
      2          7           0       -0.286937    0.230346    0.000613
      3          6           0       -1.199036   -0.805770    0.000581
      4          8           0       -2.392234   -0.659671   -0.000425
      5          6           0        1.096607    0.038699   -0.000029
      6          8           0        1.827347    0.997697    0.000065
      7          6           0        1.635483   -1.371623   -0.000539
      8          1           0       -1.854971    1.575971   -0.002178
      9          1           0       -0.407574    2.128535    0.883352
     10          1           0       -0.405189    2.127426   -0.883238
     11          1           0       -0.733934   -1.800036    0.001555
     12          1           0        1.319611   -1.921642    0.886921
     13          1           0        2.719427   -1.299558   -0.005598
     14          1           0        1.310146   -1.926582   -0.881420
 ---------------------------------------------------------------------

 SCF Done:  E(RHF) =  -359.908331092     A.U. after    2 cycles

 The electronic state is 1-A.
 Alpha  occ. eigenvalues --  -20.57248 -20.56932 -15.68889 -11.39289 -11.38908
 Alpha  occ. eigenvalues --  -11.27507 -11.27031  -1.39376  -1.37790  -1.23672
 Alpha  occ. eigenvalues --   -1.04114  -0.96411  -0.88951  -0.78503  -0.72906
 Alpha  occ. eigenvalues --   -0.69255  -0.67678  -0.65029  -0.62579  -0.61234
 Alpha  occ. eigenvalues --   -0.59090  -0.56730  -0.55869  -0.53926  -0.48139
 Alpha  occ. eigenvalues --   -0.46379  -0.41961
 Alpha virt. eigenvalues --    0.02746   0.04356   0.04435   0.04790   0.06817
 Alpha virt. eigenvalues --    0.07040   0.07875   0.08847   0.10402   0.11838
 Alpha virt. eigenvalues --    0.11878   0.12826   0.13441   0.13904   0.15077

 Mulliken charges:
               1
     1  C    0.763731
     2  N   -0.390941
     3  C    0.665555
     4  O   -0.441682
     5  C    0.209355
     6  O   -0.471170
     7  C    0.293980
     8  H   -0.210567
     9  H   -0.072952
    10  H   -0.073032
    11  H   -0.307232
    12  H    0.095393
    13  H   -0.154159
    14  H    0.093721
 Sum of Mulliken charges =  -0.00000

 Dipole moment (field-independent basis, Debye):
    X=              1.3807    Y=             -2.2086    Z=              0.0015  Tot=              2.6047

 Test job not archived.
 1\1\GINC-SE345\SP\RHF\Aug-CC-pVDZ\C4H7N1O2\OHZDE\09-Apr-2025\0\\#t hf
 aug-cc-pvdz iop(5/13=1,5/36=2,99/5=2) pseudo=read geom=check guess=(re
 ad,tcheck) scf=(maxcycle=1)\\title\\0,1\C,0,-1.70636426,-0.79305664,-0
 .32325742\N,0,-0.51783054,-0.03214439,0.03975905\C,0,-0.65301422,1.104
 20597,0.81169887\O,0,-1.70186342,1.52694227,1.2194711\C,0,0.71143374,-
 0.50756509,-0.42263437\O,0,0.74486567,-1.5092087,-1.09289659\C,0,1.966
 0136,0.25296562,-0.06623696\H,0,-2.56605711,-0.29434799,0.11365882\H,0
 ,-1.80523846,-0.83663827,-1.40671088\H,0,-1.62764325,-1.81038062,0.056

 Normal termination of Gaussian 16 at Wed Apr  9 04:05:46 2025.
