 Gaussian 16, Revision C.01,

 ----------------------------------------------------------------------
 #t hf aug-cc-pvdz symm=none int=(grid=ultrafine) guess=(read,tcheck) s
 table=(opt,rrhf)
 ----------------------------------------------------------------------
 -----
 title
 -----
 Symbolic Z-matrix:
 Charge =  0 Multiplicity = 1

 SCF Done:  E(RHF) =  -283.673299633     A.U. after   14 cycles
 Normal termination of Gaussian 16 at Wed Apr  9 03:07:42 2025.
 Gaussian 16:  ES64L-G16RevC.01  3-Jul-2019

 ----------------------------------------------------------------------
 #t hf aug-cc-pvdz iop(5/13=1,5/36=2,99/5=2) pseudo=read geom=check gue
 ss=(read,tcheck) scf=(maxcycle=1)
 ----------------------------------------------------------------------
 -----
 title
 -----
 Structure from the checkpoint file:  "Grambow2020_b97d3_006653_forward_mol2.chk"
 Charge =  0 Multiplicity = 1

                         Standard orientation:
 ---------------------------------------------------------------------
 Center     Atomic      Atomic             Coordinates (Angstroms)
 Number     Number       Type             X           Y           Z
 ---------------------------------------------------------------------
      1          7           0       -2.732820    0.515854   -0.099891
      2          6           0       -1.736050   -0.073262    0.066289
      3          6           0       -0.465238   -0.778530    0.249326
      4          6           0        0.678907   -0.070622   -0.472467
      5          6           0        1.537347    0.890874    0.233826
      6          8           0        1.989055   -0.449133   -0.044996
      7          1           0       -0.563823   -1.807815   -0.127811
      8          1           0       -0.233598   -0.845609    1.322109
      9          1           0        0.550936    0.029291   -1.554858
     10          1           0        2.035461    1.684583   -0.329277
     11          1           0        1.338535    1.110878    1.287201
 ---------------------------------------------------------------------

 SCF Done:  E(RHF) =  -283.759481882     A.U. after    2 cycles

 The electronic state is 1-A.
 Alpha  occ. eigenvalues --  -20.61157 -15.65430 -11.33528 -11.32090 -11.31116
 Alpha  occ. eigenvalues --  -11.30422  -1.39846  -1.19641  -1.07114  -0.93897
 Alpha  occ. eigenvalues --   -0.86335  -0.74948  -0.70153  -0.68312  -0.63165
 Alpha  occ. eigenvalues --   -0.59031  -0.56584  -0.55312  -0.49777  -0.47937
 Alpha  occ. eigenvalues --   -0.46181  -0.46051
 Alpha virt. eigenvalues --    0.03154   0.03939   0.04092   0.06137   0.06668
 Alpha virt. eigenvalues --    0.07616   0.09695   0.11198   0.11775   0.12771
 Alpha virt. eigenvalues --    0.13748   0.14167   0.14866   0.15106   0.15651

 Mulliken charges:
               1
     1  N   -0.211798
     2  C   -0.160364
     3  C    0.263990
     4  C    0.492871
     5  C    0.795877
     6  O   -0.701032
     7  H    0.140455
     8  H    0.062954
     9  H   -0.304085
    10  H   -0.176005
    11  H   -0.202863
 Sum of Mulliken charges =  -0.00000

 Dipole moment (field-independent basis, Debye):
    X=              1.9525    Y=             -0.2162    Z=              0.3995  Tot=              2.0047

 Test job not archived.
 1\1\GINC-SE457\SP\RHF\Aug-CC-pVDZ\C4H5N1O1\OHZDE\09-Apr-2025\0\\#t hf
 aug-cc-pvdz iop(5/13=1,5/36=2,99/5=2) pseudo=read geom=check guess=(re
 ad,tcheck) scf=(maxcycle=1)\\title\\0,1\N,0,2.93602161,0.53958457,0.25
 562708\C,0,1.95431165,-0.06582175,0.06081444\C,0,0.70096367,-0.7913652
 9,-0.15958092\C,0,-0.48000385,-0.08649907,0.50349256\C,0,-1.32195448,0
 .85073382,-0.25344707\O,0,-1.76712954,-0.49018436,0.03143838\H,0,0.797
 69262,-1.81244877,0.23968226\H,0,0.51307412,-0.88037677,-1.23930106\H,
 0,-0.39649735,0.03410065,1.58811721\H,0,-1.85224544,1.6473622,0.275090

 Normal termination of Gaussian 16 at Wed Apr  9 03:07:46 2025.
