 Gaussian 16, Revision C.01,

 ----------------------------------------------------------------------
 #t hf aug-cc-pvdz symm=none int=(grid=ultrafine) guess=(read,tcheck) s
 table=(opt,rrhf)
 ----------------------------------------------------------------------
 -----
 title
 -----
 Symbolic Z-matrix:
 Charge =  0 Multiplicity = 1

 SCF Done:  E(RHF) =  -306.518066909     A.U. after   15 cycles
 Normal termination of Gaussian 16 at Wed Apr  9 16:28:07 2025.
 Gaussian 16:  ES64L-G16RevC.01  3-Jul-2019

 ----------------------------------------------------------------------
 #t hf aug-cc-pvdz iop(5/13=1,5/36=2,99/5=2) pseudo=read geom=check gue
 ss=(read,tcheck) scf=(maxcycle=1)
 ----------------------------------------------------------------------
 -----
 title
 -----
 Structure from the checkpoint file:  "Grambow2020_wb97xd3_008450_forward_mol1.chk"
 Charge =  0 Multiplicity = 1

                         Standard orientation:
 ---------------------------------------------------------------------
 Center     Atomic      Atomic             Coordinates (Angstroms)
 Number     Number       Type             X           Y           Z
 ---------------------------------------------------------------------
      1          6           0        1.120602   -0.953882   -0.566084
      2          6           0        1.138403    0.565144   -0.559762
      3          6           0       -0.158052    1.131668   -0.130175
      4          8           0       -1.431810    0.589077   -0.283850
      5          6           0       -1.540116   -0.751758   -0.027823
      6          6           0        0.512520   -0.963589    0.851610
      7          6           0        0.698495    0.509515    0.935311
      8          1           0        0.632075   -1.475014   -1.390774
      9          1           0        2.133245   -1.351619   -0.470453
     10          1           0        1.890444    1.203245   -1.011351
     11          1           0       -0.223685    2.212355   -0.136821
     12          1           0       -1.371984   -1.398495   -0.887777
     13          1           0       -2.496625   -0.957624    0.458543
     14          1           0       -0.733624   -1.243896    0.882279
     15          1           0        0.993529    1.075855    1.808692
 ---------------------------------------------------------------------

 SCF Done:  E(RHF) =  -306.609879599     A.U. after    2 cycles

 The electronic state is 1-A.
 Alpha  occ. eigenvalues --  -20.60303 -11.32593 -11.31270 -11.26002 -11.25195
 Alpha  occ. eigenvalues --  -11.24426 -11.24279  -1.38419  -1.19172  -1.02035
 Alpha  occ. eigenvalues --   -0.92948  -0.88387  -0.81438  -0.74023  -0.70782
 Alpha  occ. eigenvalues --   -0.67893  -0.65937  -0.63826  -0.58811  -0.54452
 Alpha  occ. eigenvalues --   -0.53923  -0.49824  -0.48765  -0.41499  -0.40010
 Alpha  occ. eigenvalues --   -0.31614
 Alpha virt. eigenvalues --    0.03216   0.04223   0.04335   0.04964   0.05859
 Alpha virt. eigenvalues --    0.06616   0.07315   0.07834   0.09693   0.10973
 Alpha virt. eigenvalues --    0.11674   0.12583   0.12888   0.13862   0.14638

 Mulliken charges:
               1
     1  C    0.543201
     2  C    0.447968
     3  C    0.840562
     4  O   -0.706820
     5  C    0.642481
     6  C   -0.658934
     7  C    0.568739
     8  H   -0.162085
     9  H   -0.081616
    10  H   -0.401777
    11  H   -0.403486
    12  H   -0.117642
    13  H   -0.339960
    14  H    0.211753
    15  H   -0.382385
 Sum of Mulliken charges =  -0.00000

 Dipole moment (field-independent basis, Debye):
    X=              0.0819    Y=              0.8178    Z=             -1.2924  Tot=              1.5316

 Test job not archived.
 1\1\GINC-SE232\SP\RHF\Aug-CC-pVDZ\C6H8O1\OHZDE\09-Apr-2025\0\\#t hf au
 g-cc-pvdz iop(5/13=1,5/36=2,99/5=2) pseudo=read geom=check guess=(read
 ,tcheck) scf=(maxcycle=1)\\title\\0,1\C,0,0.75938744,1.20771753,0.1430
 6802\C,0,1.3542679,-0.18442736,0.01718018\C,0,0.318506,-1.23713349,0.0
 8996821\O,0,-0.89626999,-1.20879035,0.77114129\C,0,-1.60082619,-0.0382
 4083,0.67877161\C,0,-0.30587289,0.86032872,-0.91724139\C,0,0.382075,-0
 .43236763,-1.17664842\H,0,0.47180201,1.5742362,1.1296321\H,0,1.4175807
 9,1.95076198,-0.31240114\H,0,2.40461272,-0.44587678,0.08852171\H,0,0.6

 Normal termination of Gaussian 16 at Wed Apr  9 16:28:13 2025.
