 Gaussian 16, Revision C.01,

 ----------------------------------------------------------------------
 #t hf aug-cc-pvdz symm=none int=(grid=ultrafine) guess=(read,tcheck) s
 table=(opt,rrhf)
 ----------------------------------------------------------------------
 -----
 title
 -----
 Symbolic Z-matrix:
 Charge =  0 Multiplicity = 1

 SCF Done:  E(RHF) =  -302.667470396     A.U. after   19 cycles
 Normal termination of Gaussian 16 at Wed Apr  9 03:59:48 2025.
 Gaussian 16:  ES64L-G16RevC.01  3-Jul-2019

 ----------------------------------------------------------------------
 #t hf aug-cc-pvdz iop(5/13=1,5/36=2,99/5=2) pseudo=read geom=check gue
 ss=(read,tcheck) scf=(maxcycle=1)
 ----------------------------------------------------------------------
 -----
 title
 -----
 Structure from the checkpoint file:  "Grambow2020_wb97xd3_008834_forward_mol1.chk"
 Charge =  0 Multiplicity = 1

                         Standard orientation:
 ---------------------------------------------------------------------
 Center     Atomic      Atomic             Coordinates (Angstroms)
 Number     Number       Type             X           Y           Z
 ---------------------------------------------------------------------
      1          6           0        0.090367    1.644827   -0.040136
      2          6           0       -0.078651    0.145189   -0.014013
      3          6           0       -0.884898   -0.404013    1.132302
      4          6           0       -1.899860   -0.415948    0.003290
      5          7           0       -1.317500   -0.275430   -1.057059
      6          6           0        1.218345   -0.775411   -0.494351
      7          7           0        2.150906   -0.311389    0.368061
      8          1           0       -0.885712    2.123136    0.047225
      9          1           0        0.719577    1.975141    0.783339
     10          1           0        0.539539    1.957832   -0.982789
     11          1           0       -1.087044    0.239048    1.984710
     12          1           0       -0.650172   -1.421509    1.429576
     13          1           0        1.304999   -0.577846   -1.570388
     14          1           0        0.884627   -1.803717   -0.323221
     15          1           0        2.668528    0.447784   -0.068022
 ---------------------------------------------------------------------

 SCF Done:  E(RHF) =  -302.753975713     A.U. after    2 cycles

 The electronic state is 1-A.
 Alpha  occ. eigenvalues --  -15.71498 -15.55661 -11.35020 -11.34684 -11.32364
 Alpha  occ. eigenvalues --  -11.28454 -11.25791  -1.31989  -1.13356  -1.05897
 Alpha  occ. eigenvalues --   -1.00028  -0.87776  -0.78253  -0.72209  -0.68697
 Alpha  occ. eigenvalues --   -0.66293  -0.63309  -0.60740  -0.57852  -0.56289
 Alpha  occ. eigenvalues --   -0.54240  -0.51654  -0.49947  -0.49000  -0.37733
 Alpha  occ. eigenvalues --   -0.26594
 Alpha virt. eigenvalues --   -0.00499   0.03259   0.03906   0.04559   0.05516
 Alpha virt. eigenvalues --    0.06339   0.06866   0.07739   0.08157   0.09233
 Alpha virt. eigenvalues --    0.10181   0.11065   0.12376   0.12611   0.13953

 Mulliken charges:
               1
     1  C    0.714824
     2  C   -1.430446
     3  C    0.927879
     4  C   -0.074464
     5  N   -0.252314
     6  C    1.007528
     7  N   -0.535066
     8  H   -0.024784
     9  H    0.125040
    10  H    0.006361
    11  H   -0.224772
    12  H   -0.077107
    13  H   -0.064908
    14  H   -0.119565
    15  H    0.021793
 Sum of Mulliken charges =   0.00000

 Dipole moment (field-independent basis, Debye):
    X=             -2.7620    Y=              1.3623    Z=              0.6162  Tot=              3.1407

 Test job not archived.
 1\1\GINC-SE366\SP\RHF\Aug-CC-pVDZ\C5H8N2\OHZDE\09-Apr-2025\0\\#t hf au
 g-cc-pvdz iop(5/13=1,5/36=2,99/5=2) pseudo=read geom=check guess=(read
 ,tcheck) scf=(maxcycle=1)\\title\\0,1\C,0,-0.73533527,1.26585372,-0.23
 189033\C,0,0.21986038,0.15029802,0.11639319\C,0,1.4140108,0.00312437,-
 0.78806315\C,0,2.01001911,0.74031089,0.39780729\N,0,1.2374828,0.673998
 32,1.33696503\C,0,-0.43820065,-1.26578482,0.68392614\N,0,-1.26785355,-
 1.55246277,-0.34477862\H,0,-0.18141379,2.19860879,-0.34270658\H,0,-1.2
 5378487,1.05111005,-1.1636729\H,0,-1.46817292,1.39782221,0.56425917\H,

 Normal termination of Gaussian 16 at Wed Apr  9 03:59:53 2025.
