 Gaussian 16, Revision C.01,

 ----------------------------------------------------------------------
 #t hf aug-cc-pvdz symm=none int=(grid=ultrafine) guess=(read,tcheck) s
 table=(opt,rrhf)
 ----------------------------------------------------------------------
 -----
 title
 -----
 Symbolic Z-matrix:
 Charge =  0 Multiplicity = 1

 SCF Done:  E(RHF) =  -317.747149173     A.U. after   14 cycles
 Normal termination of Gaussian 16 at Wed Apr  9 16:16:50 2025.
 Gaussian 16:  ES64L-G16RevC.01  3-Jul-2019

 ----------------------------------------------------------------------
 #t hf aug-cc-pvdz iop(5/13=1,5/36=2,99/5=2) pseudo=read geom=check gue
 ss=(read,tcheck) scf=(maxcycle=1)
 ----------------------------------------------------------------------
 -----
 title
 -----
 Structure from the checkpoint file:  "Grambow2020_wb97xd3_008052_forward_mol2.chk"
 Charge =  0 Multiplicity = 1

                         Standard orientation:
 ---------------------------------------------------------------------
 Center     Atomic      Atomic             Coordinates (Angstroms)
 Number     Number       Type             X           Y           Z
 ---------------------------------------------------------------------
      1          7           0        2.593319   -0.043929   -0.604554
      2          6           0        1.606272    0.016427   -0.023053
      3          6           0        0.340502    0.074239    0.727689
      4          6           0       -0.601325    1.211459    0.231654
      5          7           0       -1.604809    0.555325   -0.602633
      6          6           0       -1.469914   -0.689492   -0.419078
      7          7           0       -0.493299   -1.096166    0.478912
      8          1           0        0.585819    0.175248    1.785237
      9          1           0       -1.093124    1.688434    1.082779
     10          1           0       -0.068241    1.979571   -0.326867
     11          1           0       -2.098679   -1.438183   -0.888574
     12          1           0       -0.045465   -1.987473    0.342083
 ---------------------------------------------------------------------

 SCF Done:  E(RHF) =  -317.839680835     A.U. after    2 cycles

 The electronic state is 1-A.
 Alpha  occ. eigenvalues --  -15.67100 -15.65096 -15.62425 -11.34102 -11.33891
 Alpha  occ. eigenvalues --  -11.29472 -11.29251  -1.30907  -1.20747  -1.15144
 Alpha  occ. eigenvalues --   -1.05263  -0.89888  -0.81185  -0.77814  -0.73241
 Alpha  occ. eigenvalues --   -0.63798  -0.60913  -0.59999  -0.57049  -0.55676
 Alpha  occ. eigenvalues --   -0.53061  -0.47976  -0.47780  -0.43333  -0.37439
 Alpha virt. eigenvalues --    0.02608   0.03102   0.04471   0.05373   0.06574
 Alpha virt. eigenvalues --    0.08919   0.09772   0.10131   0.10745   0.12395
 Alpha virt. eigenvalues --    0.13184   0.13551   0.14007   0.14374   0.14933

 Mulliken charges:
               1
     1  N   -0.145695
     2  C   -0.454123
     3  C    0.762527
     4  C    0.801328
     5  N   -0.551217
     6  C    0.766026
     7  N   -0.514754
     8  H   -0.130714
     9  H   -0.085791
    10  H   -0.178651
    11  H   -0.222897
    12  H   -0.046040
 Sum of Mulliken charges =  -0.00000

 Dipole moment (field-independent basis, Debye):
    X=             -1.5807    Y=             -1.6155    Z=              2.4646  Tot=              3.3441

 Test job not archived.
 1\1\GINC-SE125\SP\RHF\Aug-CC-pVDZ\C4H5N3\OHZDE\09-Apr-2025\0\\#t hf au
 g-cc-pvdz iop(5/13=1,5/36=2,99/5=2) pseudo=read geom=check guess=(read
 ,tcheck) scf=(maxcycle=1)\\title\\0,1\N,0,2.38782284,-0.98607625,1.295
 64504\C,0,1.61980782,-0.60912595,0.53137449\C,0,0.64170534,-0.10668076
 ,-0.44841754\C,0,-0.67567679,-0.9377302,-0.46322604\N,0,-1.64649513,-0
 .14958888,0.29167256\C,0,-1.12821508,0.99157685,0.46655823\N,0,0.12885
 54,1.20788547,-0.07982203\H,0,1.12794719,-0.08906355,-1.4241483\H,0,-1
 .02891604,-1.0615205,-1.48971638\H,0,-0.5487189,-1.9270954,-0.02600982

 Normal termination of Gaussian 16 at Wed Apr  9 16:16:55 2025.
