 Gaussian 16, Revision C.01,

 ----------------------------------------------------------------------
 #t hf aug-cc-pvdz symm=none int=(grid=ultrafine) guess=(read,tcheck) s
 table=(opt,rrhf)
 ----------------------------------------------------------------------
 -----
 title
 -----
 Symbolic Z-matrix:
 Charge =  0 Multiplicity = 1

 SCF Done:  E(RHF) =  -360.674924800     A.U. after   16 cycles
 Normal termination of Gaussian 16 at Wed Apr  9 16:00:10 2025.
 Gaussian 16:  ES64L-G16RevC.01  3-Jul-2019

 ----------------------------------------------------------------------
 #t hf aug-cc-pvdz iop(5/13=1,5/36=2,99/5=2) pseudo=read geom=check gue
 ss=(read,tcheck) scf=(maxcycle=1)
 ----------------------------------------------------------------------
 -----
 title
 -----
 Structure from the checkpoint file:  "Grambow2020_wb97xd3_007664_reverse_mol1.chk"
 Charge =  0 Multiplicity = 1

                         Standard orientation:
 ---------------------------------------------------------------------
 Center     Atomic      Atomic             Coordinates (Angstroms)
 Number     Number       Type             X           Y           Z
 ---------------------------------------------------------------------
      1          6           0       -1.867690   -0.534205   -0.891836
      2          8           0       -1.877404    0.075394    0.280950
      3          6           0       -0.898181   -0.130890    1.127523
      4          6           0        0.665863    0.472011   -0.196059
      5          7           0        1.735129   -0.199020    0.018558
      6          8           0        1.463930   -1.569220   -0.084819
      7          6           0        0.789634    1.966934   -0.202213
      8          1           0       -1.489548   -1.550639   -0.928704
      9          1           0       -2.666102   -0.218356   -1.546799
     10          1           0       -0.163482    0.030310   -0.879649
     11          1           0       -0.487585   -1.133100    1.199546
     12          1           0       -0.950329    0.498107    2.005869
     13          1           0        2.321055   -1.970447    0.069834
     14          1           0        1.630178    2.284314    0.414088
     15          1           0       -0.124156    2.436687    0.163959
     16          1           0        0.954097    2.323773   -1.221585
 ---------------------------------------------------------------------

 SCF Done:  E(RHF) =  -360.788460560     A.U. after    2 cycles

 The electronic state is 1-A.
 Alpha  occ. eigenvalues --  -20.68744 -20.59703 -15.65757 -11.32014 -11.30435
 Alpha  occ. eigenvalues --  -11.27791 -11.22982  -1.45969  -1.36526  -1.12821
 Alpha  occ. eigenvalues --   -1.02444  -0.96041  -0.86526  -0.76732  -0.74416
 Alpha  occ. eigenvalues --   -0.71864  -0.71530  -0.67842  -0.62668  -0.59843
 Alpha  occ. eigenvalues --   -0.58787  -0.56093  -0.54909  -0.54059  -0.51516
 Alpha  occ. eigenvalues --   -0.43133  -0.38409  -0.26910
 Alpha virt. eigenvalues --    0.03064   0.03984   0.04491   0.04691   0.05838
 Alpha virt. eigenvalues --    0.06678   0.07116   0.07267   0.07713   0.09580
 Alpha virt. eigenvalues --    0.10942   0.12701   0.13910   0.14292   0.14580

 Mulliken charges:
               1
     1  C    0.635052
     2  O   -0.362023
     3  C    0.812554
     4  C    0.187755
     5  N   -0.356144
     6  O   -0.547363
     7  C    0.388403
     8  H   -0.160459
     9  H   -0.372796
    10  H    0.064225
    11  H   -0.048823
    12  H   -0.342090
    13  H    0.180130
    14  H   -0.011429
    15  H   -0.087577
    16  H    0.020583
 Sum of Mulliken charges =  -0.00000

 Dipole moment (field-independent basis, Debye):
    X=             -1.1033    Y=             -0.1937    Z=              0.6701  Tot=              1.3053

 Test job not archived.
 1\1\GINC-SE131\SP\RHF\Aug-CC-pVDZ\C4H9N1O2\OHZDE\09-Apr-2025\0\\#t hf
 aug-cc-pvdz iop(5/13=1,5/36=2,99/5=2) pseudo=read geom=check guess=(re
 ad,tcheck) scf=(maxcycle=1)\\title\\0,1\C,0,2.07107479,0.00245008,-0.2
 4266246\O,0,1.56515734,-0.48486689,0.87702625\C,0,0.52223172,0.0918798
 7,1.42272332\C,0,-0.7409264,-0.07323921,-0.29155897\N,0,-1.54271755,0.
 92203646,-0.37048367\O,0,-0.81466319,2.11853877,-0.37268736\C,0,-1.347
 84577,-1.44352152,-0.35579864\H,0,2.07634292,1.08048354,-0.36637516\H,
 0,2.86298551,-0.60432259,-0.65606676\H,0,0.33822867,0.02220265,-0.7117

 Normal termination of Gaussian 16 at Wed Apr  9 16:00:16 2025.
