 Gaussian 16, Revision C.01,

 ----------------------------------------------------------------------
 #t hf aug-cc-pvdz symm=none int=(grid=ultrafine) guess=(read,tcheck) s
 table=(opt,rrhf)
 ----------------------------------------------------------------------
 -----
 title
 -----
 Symbolic Z-matrix:
 Charge =  0 Multiplicity = 1

 SCF Done:  E(RHF) =  -306.759702573     A.U. after   14 cycles
 Normal termination of Gaussian 16 at Wed Apr  9 03:59:17 2025.
 Gaussian 16:  ES64L-G16RevC.01  3-Jul-2019

 ----------------------------------------------------------------------
 #t hf aug-cc-pvdz iop(5/13=1,5/36=2,99/5=2) pseudo=read geom=check gue
 ss=(read,tcheck) scf=(maxcycle=1)
 ----------------------------------------------------------------------
 -----
 title
 -----
 Structure from the checkpoint file:  "Grambow2020_wb97xd3_008787_reverse_mol2.chk"
 Charge =  0 Multiplicity = 1

                         Standard orientation:
 ---------------------------------------------------------------------
 Center     Atomic      Atomic             Coordinates (Angstroms)
 Number     Number       Type             X           Y           Z
 ---------------------------------------------------------------------
      1          8           0        0.734694    1.919981    0.079694
      2          6           0        0.069180    0.915685    0.098227
      3          6           0        1.859006   -0.815808   -0.354391
      4          6           0        0.591976   -0.487073    0.421419
      5          6           0       -0.605391   -1.411803    0.161230
      6          6           0       -1.741782   -0.479363   -0.149366
      7          6           0       -1.377324    0.799516   -0.186394
      8          1           0        1.661979   -0.838683   -1.429036
      9          1           0        2.621426   -0.058606   -0.170548
     10          1           0        2.257054   -1.789045   -0.062047
     11          1           0        0.822691   -0.476654    1.491543
     12          1           0       -0.424378   -2.080637   -0.686444
     13          1           0       -0.840661   -2.054166    1.013351
     14          1           0       -2.746652   -0.842148   -0.332400
     15          1           0       -2.002993    1.653175   -0.406325
 ---------------------------------------------------------------------

 SCF Done:  E(RHF) =  -306.853389438     A.U. after    2 cycles

 The electronic state is 1-A.
 Alpha  occ. eigenvalues --  -20.55178 -11.33337 -11.27711 -11.25510 -11.25039
 Alpha  occ. eigenvalues --  -11.24746 -11.23279  -1.34749  -1.14777  -1.03206
 Alpha  occ. eigenvalues --   -0.94889  -0.89273  -0.78606  -0.73153  -0.69250
 Alpha  occ. eigenvalues --   -0.64974  -0.61656  -0.60688  -0.57193  -0.55831
 Alpha  occ. eigenvalues --   -0.54320  -0.53303  -0.49856  -0.48796  -0.41038
 Alpha  occ. eigenvalues --   -0.38772
 Alpha virt. eigenvalues --    0.02901   0.03908   0.04603   0.04745   0.06110
 Alpha virt. eigenvalues --    0.06582   0.06950   0.08102   0.08840   0.10750
 Alpha virt. eigenvalues --    0.11830   0.12566   0.13351   0.14414   0.14786

 Mulliken charges:
               1
     1  O   -0.535407
     2  C    0.003785
     3  C    0.607552
     4  C   -0.606113
     5  C    0.469062
     6  C    0.128118
     7  C    0.614285
     8  H   -0.002310
     9  H   -0.049151
    10  H   -0.045751
    11  H    0.030351
    12  H   -0.025323
    13  H    0.014278
    14  H   -0.297710
    15  H   -0.305665
 Sum of Mulliken charges =  -0.00000

 Dipole moment (field-independent basis, Debye):
    X=             -2.1721    Y=             -3.8460    Z=              0.0595  Tot=              4.4174

 Test job not archived.
 1\1\GINC-SE125\SP\RHF\Aug-CC-pVDZ\C6H8O1\OHZDE\09-Apr-2025\0\\#t hf au
 g-cc-pvdz iop(5/13=1,5/36=2,99/5=2) pseudo=read geom=check guess=(read
 ,tcheck) scf=(maxcycle=1)\\title\\0,1\O,0,0.44892635,-2.06411972,1.207
 36386\C,0,0.55824318,-0.95996529,0.73751891\C,0,-1.63651175,-0.7854779
 2,-0.51108633\C,0,-0.6058026,-0.05055281,0.33320961\C,0,0.06543886,1.1
 5562447,-0.33841901\C,0,1.53748227,0.92205157,-0.14913245\C,0,1.814174
 44,-0.23816839,0.43998841\H,0,-1.20178184,-1.11057583,-1.45951973\H,0,
 -1.99245376,-1.67175766,0.01451085\H,0,-2.49184406,-0.14472546,-0.7323

 Normal termination of Gaussian 16 at Wed Apr  9 03:59:22 2025.
