 Gaussian 16, Revision C.01,

 ----------------------------------------------------------------------
 #t hf aug-cc-pvdz symm=none int=(grid=ultrafine) guess=(read,tcheck) s
 table=(opt,rrhf)
 ----------------------------------------------------------------------
 -----
 title
 -----
 Symbolic Z-matrix:
 Charge =  0 Multiplicity = 1

 SCF Done:  E(RHF) =  -359.607828557     A.U. after   17 cycles
 Normal termination of Gaussian 16 at Wed Apr  9 03:51:39 2025.
 Gaussian 16:  ES64L-G16RevC.01  3-Jul-2019

 ----------------------------------------------------------------------
 #t hf aug-cc-pvdz iop(5/13=1,5/36=2,99/5=2) pseudo=read geom=check gue
 ss=(read,tcheck) scf=(maxcycle=1)
 ----------------------------------------------------------------------
 -----
 title
 -----
 Structure from the checkpoint file:  "Grambow2020_wb97xd3_008269_reverse_mol1.chk"
 Charge =  0 Multiplicity = 1

                         Standard orientation:
 ---------------------------------------------------------------------
 Center     Atomic      Atomic             Coordinates (Angstroms)
 Number     Number       Type             X           Y           Z
 ---------------------------------------------------------------------
      1          6           0       -2.074809   -0.451215    0.719447
      2          6           0       -1.282658   -0.206042   -0.540586
      3          6           0       -0.168659    1.628726    0.131355
      4          7           0        1.102278    1.294214    0.036244
      5          6           0        1.413399   -0.419908   -0.141681
      6          8           0        2.035188   -1.089938    0.541898
      7          8           0       -0.373280   -0.986315   -0.879122
      8          1           0       -1.415366   -0.741559    1.538760
      9          1           0       -2.761677   -1.282064    0.536167
     10          1           0       -2.664718    0.418400    1.011043
     11          1           0       -1.768011    0.392430   -1.323781
     12          1           0       -0.620149    1.569336    1.113786
     13          1           0       -0.622221    2.281638   -0.605376
     14          1           0        1.517290    1.602970   -0.837733
 ---------------------------------------------------------------------

 SCF Done:  E(RHF) =  -359.719989178     A.U. after    2 cycles

 The electronic state is 1-A.
 Alpha  occ. eigenvalues --  -20.62422 -20.58025 -15.68766 -11.36792 -11.33707
 Alpha  occ. eigenvalues --  -11.28506 -11.24771  -1.43807  -1.34761  -1.20749
 Alpha  occ. eigenvalues --   -1.01187  -0.88824  -0.81244  -0.78064  -0.71070
 Alpha  occ. eigenvalues --   -0.68772  -0.67087  -0.65286  -0.62306  -0.61109
 Alpha  occ. eigenvalues --   -0.59642  -0.57639  -0.55882  -0.48656  -0.45320
 Alpha  occ. eigenvalues --   -0.44315  -0.32930
 Alpha virt. eigenvalues --    0.02877   0.03724   0.04315   0.04787   0.06469
 Alpha virt. eigenvalues --    0.06746   0.07477   0.08046   0.10021   0.10565
 Alpha virt. eigenvalues --    0.12172   0.12599   0.12949   0.13742   0.14749

 Mulliken charges:
               1
     1  C    0.172073
     2  C    0.634981
     3  C    0.611706
     4  N   -0.437233
     5  C    0.591367
     6  O   -0.295435
     7  O   -0.601238
     8  H   -0.039517
     9  H   -0.064691
    10  H   -0.041781
    11  H   -0.177330
    12  H   -0.328281
    13  H   -0.158172
    14  H    0.133551
 Sum of Mulliken charges =   0.00000

 Dipole moment (field-independent basis, Debye):
    X=             -2.8588    Y=              3.4165    Z=             -0.5307  Tot=              4.4863

 Test job not archived.
 1\1\GINC-SE174\SP\RHF\Aug-CC-pVDZ\C4H7N1O2\OHZDE\09-Apr-2025\0\\#t hf
 aug-cc-pvdz iop(5/13=1,5/36=2,99/5=2) pseudo=read geom=check guess=(re
 ad,tcheck) scf=(maxcycle=1)\\title\\0,1\C,0,-1.48029205,-1.03300162,0.
 01438503\C,0,-0.33178539,-0.58365755,-0.85412961\C,0,0.08192773,1.3848
 2261,0.15224889\N,0,1.33293676,1.29087925,0.55520734\C,0,2.00251393,-0
 .32721825,0.54546778\O,0,2.4333864,-0.90841638,1.42830356\O,0,0.766548
 13,-1.16811525,-0.80439879\H,0,-1.13747048,-1.24152623,1.02899334\H,0,
 -1.87876228,-1.96364361,-0.39891577\H,0,-2.28786535,-0.3006297,0.04097

 Normal termination of Gaussian 16 at Wed Apr  9 03:51:44 2025.
