 Gaussian 16, Revision C.01,

 ----------------------------------------------------------------------
 #t hf aug-cc-pvdz symm=none int=(grid=ultrafine) guess=(read,tcheck) s
 table=(opt,rrhf)
 ----------------------------------------------------------------------
 -----
 title
 -----
 Symbolic Z-matrix:
 Charge =  0 Multiplicity = 1

 SCF Done:  E(RHF) =  -324.934150004     A.U. after   16 cycles
 Normal termination of Gaussian 16 at Wed Apr  9 16:21:24 2025.
 Gaussian 16:  ES64L-G16RevC.01  3-Jul-2019

 ----------------------------------------------------------------------
 #t hf aug-cc-pvdz iop(5/13=1,5/36=2,99/5=2) pseudo=read geom=check gue
 ss=(read,tcheck) scf=(maxcycle=1)
 ----------------------------------------------------------------------
 -----
 title
 -----
 Structure from the checkpoint file:  "Grambow2020_wb97xd3_008100_forward_mol1.chk"
 Charge =  0 Multiplicity = 1

                         Standard orientation:
 ---------------------------------------------------------------------
 Center     Atomic      Atomic             Coordinates (Angstroms)
 Number     Number       Type             X           Y           Z
 ---------------------------------------------------------------------
      1          6           0       -2.409254   -0.248689   -0.225933
      2          6           0       -1.322031   -0.145777    0.832645
      3          7           0       -0.179539    0.717445    0.563655
      4          6           0       -0.035479    1.268631   -0.654780
      5          6           0        1.073745   -0.316117   -0.281715
      6          8           0        0.674679   -1.434482   -0.515707
      7          6           0        2.342016    0.097845    0.418001
      8          1           0       -3.217829   -0.875852    0.152297
      9          1           0       -2.038347   -0.713045   -1.141882
     10          1           0       -2.840181    0.726044   -0.472481
     11          1           0       -0.922726   -1.151025    1.015550
     12          1           0       -1.752202    0.204177    1.773802
     13          1           0       -0.782540    1.152481   -1.442626
     14          1           0        0.571001    2.172149   -0.725750
     15          1           0        1.002866    0.466203   -1.288782
     16          1           0        2.336450   -0.353370    1.409103
     17          1           0        2.416958    1.177476    0.518951
     18          1           0        3.191904   -0.286857   -0.147416
 ---------------------------------------------------------------------

 SCF Done:  E(RHF) =  -325.035209008     A.U. after    2 cycles

 The electronic state is 1-A.
 Alpha  occ. eigenvalues --  -20.52429 -15.61670 -11.38701 -11.35348 -11.25386
 Alpha  occ. eigenvalues --  -11.24983 -11.22296  -1.34339  -1.21132  -1.03544
 Alpha  occ. eigenvalues --   -0.99547  -0.91993  -0.79850  -0.78731  -0.69300
 Alpha  occ. eigenvalues --   -0.66794  -0.65085  -0.61538  -0.60903  -0.59308
 Alpha  occ. eigenvalues --   -0.56262  -0.55127  -0.53965  -0.50517  -0.47807
 Alpha  occ. eigenvalues --   -0.42932  -0.40292  -0.34581
 Alpha virt. eigenvalues --    0.02676   0.03949   0.04266   0.04836   0.06184
 Alpha virt. eigenvalues --    0.06405   0.06704   0.07375   0.08672   0.09049
 Alpha virt. eigenvalues --    0.09288   0.10454   0.11911   0.13233   0.13662

 Mulliken charges:
               1
     1  C    0.190570
     2  C    0.681233
     3  N   -0.765014
     4  C    0.881912
     5  C   -0.056061
     6  O   -0.599694
     7  C    0.490746
     8  H   -0.153339
     9  H   -0.001141
    10  H   -0.028490
    11  H   -0.061350
    12  H   -0.274247
    13  H   -0.223819
    14  H   -0.276745
    15  H    0.212586
    16  H    0.028120
    17  H   -0.073380
    18  H    0.028112
 Sum of Mulliken charges =   0.00000

 Dipole moment (field-independent basis, Debye):
    X=              0.2695    Y=              3.7323    Z=             -0.8527  Tot=              3.8379

 Test job not archived.
 1\1\GINC-SE105\SP\RHF\Aug-CC-pVDZ\C5H11N1O1\OHZDE\09-Apr-2025\0\\#t hf
  aug-cc-pvdz iop(5/13=1,5/36=2,99/5=2) pseudo=read geom=check guess=(r
 ead,tcheck) scf=(maxcycle=1)\\title\\0,1\C,0,-2.31391548,0.36615346,-0
 .07461857\C,0,-1.30143153,-0.7686077,-0.05403059\N,0,-0.02950912,-0.54
 349747,0.6200141\C,0,0.27942243,0.68878279,1.06181702\C,0,1.11743828,0
 .1386758,-0.63408791\O,0,0.57793503,0.34004991,-1.69857497\C,0,2.37929
 311,-0.6358167,-0.35594928\H,0,-3.2298241,0.01896526,-0.55498986\H,0,-
 1.95008116,1.22159262,-0.64734106\H,0,-2.58012114,0.70136947,0.9320359

 Normal termination of Gaussian 16 at Wed Apr  9 16:21:32 2025.
