 Gaussian 16, Revision C.01,

 ----------------------------------------------------------------------
 #t hf aug-cc-pvdz symm=none int=(grid=ultrafine) guess=(read,tcheck) s
 table=(opt,rrhf)
 ----------------------------------------------------------------------
 -----
 title
 -----
 Symbolic Z-matrix:
 Charge =  0 Multiplicity = 1

 SCF Done:  E(RHF) =  -380.717525692     A.U. after   14 cycles
 Normal termination of Gaussian 16 at Wed Apr  9 16:31:04 2025.
 Gaussian 16:  ES64L-G16RevC.01  3-Jul-2019

 ----------------------------------------------------------------------
 #t hf aug-cc-pvdz iop(5/13=1,5/36=2,99/5=2) pseudo=read geom=check gue
 ss=(read,tcheck) scf=(maxcycle=1)
 ----------------------------------------------------------------------
 -----
 title
 -----
 Structure from the checkpoint file:  "Grambow2020_wb97xd3_008490_reverse_mol2.chk"
 Charge =  0 Multiplicity = 1

                         Standard orientation:
 ---------------------------------------------------------------------
 Center     Atomic      Atomic             Coordinates (Angstroms)
 Number     Number       Type             X           Y           Z
 ---------------------------------------------------------------------
      1          6           0       -3.263307   -0.251573    0.167138
      2          8           0       -2.127883   -1.028734   -0.163371
      3          6           0        0.118877    0.829566    0.014441
      4          8           0       -0.524859    1.732552   -0.317716
      5          6           0        0.877281   -0.161833    0.412074
      6          6           0        2.361040   -0.018980    0.510993
      7          8           0        2.973739   -0.693670   -0.578813
      8          1           0       -3.198110    0.761633   -0.242352
      9          1           0       -4.191638   -0.719776   -0.176063
     10          1           0       -3.295214   -0.181980    1.253723
     11          1           0        0.377162   -1.102352    0.594772
     12          1           0       -2.078653   -1.114430   -1.116458
     13          1           0        2.633996    1.042934    0.513844
     14          1           0        2.698678   -0.450609    1.460371
     15          1           0        3.922457   -0.699693   -0.436515
 ---------------------------------------------------------------------

 SCF Done:  E(RHF) =  -380.842827265     A.U. after    2 cycles

 The electronic state is 1-A.
 Alpha  occ. eigenvalues --  -20.63191 -20.57852 -20.57502 -11.38305 -11.30755
 Alpha  occ. eigenvalues --  -11.28419 -11.23603  -1.43206  -1.32822  -1.32744
 Alpha  occ. eigenvalues --   -1.06724  -0.92949  -0.90945  -0.75538  -0.72022
 Alpha  occ. eigenvalues --   -0.71088  -0.69410  -0.65251  -0.64772  -0.62687
 Alpha  occ. eigenvalues --   -0.61492  -0.60753  -0.57406  -0.52284  -0.51474
 Alpha  occ. eigenvalues --   -0.47042  -0.46726  -0.35475
 Alpha virt. eigenvalues --    0.03296   0.03926   0.05075   0.05417   0.05873
 Alpha virt. eigenvalues --    0.06576   0.06836   0.08455   0.10275   0.11630
 Alpha virt. eigenvalues --    0.12133   0.12527   0.13379   0.14809   0.15421

 Mulliken charges:
               1
     1  C    0.885987
     2  O   -0.551075
     3  C   -0.726985
     4  O   -0.221456
     5  C    1.354626
     6  C    0.568167
     7  O   -0.532881
     8  H   -0.141814
     9  H   -0.193706
    10  H   -0.182007
    11  H   -0.313065
    12  H    0.174766
    13  H   -0.169038
    14  H   -0.071779
    15  H    0.120261
 Sum of Mulliken charges =   0.00000

 Dipole moment (field-independent basis, Debye):
    X=              0.5145    Y=             -0.2981    Z=              0.7720  Tot=              0.9744

 Test job not archived.
 1\1\GINC-SE105\SP\RHF\Aug-CC-pVDZ\C4H8O3\OHZDE\09-Apr-2025\0\\#t hf au
 g-cc-pvdz iop(5/13=1,5/36=2,99/5=2) pseudo=read geom=check guess=(read
 ,tcheck) scf=(maxcycle=1)\\title\\0,1\C,0,-3.0854918,-0.1445715,0.1863
 4851\O,0,-1.91395769,-0.52306583,0.88395501\C,0,0.26790889,0.02951958,
 -0.97801473\O,0,-0.38483945,-0.2043189,-1.90502428\C,0,1.03456557,0.32
 14687,0.04333948\C,0,2.50728115,0.51511066,-0.11586278\O,0,3.18999254,
 -0.62629583,0.38351859\H,0,-3.02986955,-0.40315368,-0.87598832\H,0,-3.
 98275978,-0.59729951,0.62079885\H,0,-3.17088835,0.93790725,0.27281269\

 Normal termination of Gaussian 16 at Wed Apr  9 16:31:09 2025.
