 Gaussian 16, Revision C.01,

 ----------------------------------------------------------------------
 #t hf aug-cc-pvdz symm=none int=(grid=ultrafine) guess=(read,tcheck) s
 table=(opt,rrhf)
 ----------------------------------------------------------------------
 -----
 title
 -----
 Symbolic Z-matrix:
 Charge =  0 Multiplicity = 1

 SCF Done:  E(RHF) =  -305.777490756     A.U. after   13 cycles
 Normal termination of Gaussian 16 at Wed Apr  9 03:04:23 2025.
 Gaussian 16:  ES64L-G16RevC.01  3-Jul-2019

 ----------------------------------------------------------------------
 #t hf aug-cc-pvdz iop(5/13=1,5/36=2,99/5=2) pseudo=read geom=check gue
 ss=(read,tcheck) scf=(maxcycle=1)
 ----------------------------------------------------------------------
 -----
 title
 -----
 Structure from the checkpoint file:  "Grambow2020_b97d3_006520_reverse_mol2.chk"
 Charge =  0 Multiplicity = 1

                         Standard orientation:
 ---------------------------------------------------------------------
 Center     Atomic      Atomic             Coordinates (Angstroms)
 Number     Number       Type             X           Y           Z
 ---------------------------------------------------------------------
      1          8           0       -2.771599   -0.008944   -0.086836
      2          6           0        0.263502    1.184992   -0.010761
      3          6           0        0.745011    0.010142   -0.896080
      4          6           0        1.927887   -0.243113    0.068040
      5          6           0        0.639224   -0.015730    0.890900
      6          8           0       -0.082764   -0.932601   -0.060298
      7          1           0       -1.901506   -0.468739   -0.144723
      8          1           0       -0.806078    1.411992   -0.071285
      9          1           0        0.905807    2.073991    0.040119
     10          1           0        0.684103   -0.121265   -1.981916
     11          1           0        2.320410   -1.265587    0.076626
     12          1           0        2.711125    0.523955    0.125710
     13          1           0       -2.988155   -0.062266    0.860388
     14          1           0        0.455448   -0.177468    1.959563
 ---------------------------------------------------------------------

 SCF Done:  E(RHF) =  -305.871910491     A.U. after    2 cycles

 The electronic state is 1-A.
 Alpha  occ. eigenvalues --  -20.58138 -20.54792 -11.32649 -11.32580 -11.26085
 Alpha  occ. eigenvalues --  -11.25589  -1.36644  -1.27434  -1.08150  -0.93367
 Alpha  occ. eigenvalues --   -0.89277  -0.76397  -0.71754  -0.69317  -0.64107
 Alpha  occ. eigenvalues --   -0.63888  -0.57261  -0.56696  -0.52287  -0.50316
 Alpha  occ. eigenvalues --   -0.49232  -0.49041  -0.47012  -0.44189
 Alpha virt. eigenvalues --    0.03007   0.03904   0.04490   0.04749   0.06515
 Alpha virt. eigenvalues --    0.06543   0.08211   0.09120   0.10065   0.12071
 Alpha virt. eigenvalues --    0.12539   0.12866   0.13658   0.14637   0.15041

 Mulliken charges:
               1
     1  O   -0.365610
     2  C    0.652047
     3  C    0.569670
     4  C    0.471793
     5  C    0.629409
     6  O   -0.890267
     7  H    0.245763
     8  H   -0.273253
     9  H   -0.177852
    10  H   -0.305974
    11  H   -0.196877
    12  H   -0.176033
    13  H    0.156944
    14  H   -0.339760
 Sum of Mulliken charges =  -0.00000

 Dipole moment (field-independent basis, Debye):
    X=              3.5109    Y=              1.3059    Z=              1.5505  Tot=              4.0541

 Test job not archived.
 1\1\GINC-SE220\SP\RHF\Aug-CC-pVDZ\C4H8O2\OHZDE\09-Apr-2025\0\\#t hf au
 g-cc-pvdz iop(5/13=1,5/36=2,99/5=2) pseudo=read geom=check guess=(read
 ,tcheck) scf=(maxcycle=1)\\title\\0,1\O,0,-1.78724116,2.09536635,1.004
 94918\C,0,-0.71067182,-0.55806875,-0.55818447\C,0,0.19691611,-0.897639
 69,0.64883179\C,0,1.39614646,-1.11685823,-0.30335045\C,0,0.64603358,0.
 1701296,-0.71620276\O,0,0.58790297,0.55552236,0.73802892\H,0,-0.920802
 95,1.62827841,1.05914683\H,0,-1.56783758,0.08609724,-0.33567491\H,0,-0
 .93330561,-1.36813478,-1.26507288\H,0,-0.04873689,-1.39412438,1.593911

 Normal termination of Gaussian 16 at Wed Apr  9 03:04:28 2025.
