 Gaussian 16, Revision C.01,

 ----------------------------------------------------------------------
 #t hf aug-cc-pvdz symm=none int=(grid=ultrafine) guess=(read,tcheck) s
 table=(opt,rrhf)
 ----------------------------------------------------------------------
 -----
 title
 -----
 Symbolic Z-matrix:
 Charge =  0 Multiplicity = 1

 SCF Done:  E(RHF) =  -360.791649323     A.U. after   16 cycles
 Normal termination of Gaussian 16 at Wed Apr  9 03:28:27 2025.
 Gaussian 16:  ES64L-G16RevC.01  3-Jul-2019

 ----------------------------------------------------------------------
 #t hf aug-cc-pvdz iop(5/13=1,5/36=2,99/5=2) pseudo=read geom=check gue
 ss=(read,tcheck) scf=(maxcycle=1)
 ----------------------------------------------------------------------
 -----
 title
 -----
 Structure from the checkpoint file:  "Grambow2020_wb97xd3_006760_forward_mol1.chk"
 Charge =  0 Multiplicity = 1

                         Standard orientation:
 ---------------------------------------------------------------------
 Center     Atomic      Atomic             Coordinates (Angstroms)
 Number     Number       Type             X           Y           Z
 ---------------------------------------------------------------------
      1          6           0        2.614931   -0.788529    0.078289
      2          7           0        1.288481   -0.228554    0.042171
      3          6           0        1.049277    1.060813    0.006040
      4          8           0       -0.076131    1.582231   -0.057919
      5          6           0       -2.020913    0.588303   -0.013806
      6          6           0       -2.043609   -0.817548    0.363859
      7          8           0       -1.020233   -1.172302   -0.481536
      8          1           0        2.736353   -1.441335    0.944596
      9          1           0        2.812845   -1.373623   -0.822010
     10          1           0        3.359202    0.007979    0.141796
     11          1           0        1.931850    1.719256    0.040351
     12          1           0       -2.010696    1.415146    0.679943
     13          1           0       -2.221018    0.810651   -1.051878
     14          1           0       -1.839300   -0.968817    1.435964
     15          1           0       -3.016109   -1.295541    0.143724
     16          1           0        0.400304   -0.811504   -0.098332
 ---------------------------------------------------------------------

 SCF Done:  E(RHF) =  -360.905959430     A.U. after    2 cycles

 The electronic state is 1-A.
 Alpha  occ. eigenvalues --  -20.54627 -20.47250 -15.62840 -11.36273 -11.35921
 Alpha  occ. eigenvalues --  -11.27875 -11.27388  -1.34420  -1.23772  -1.19613
 Alpha  occ. eigenvalues --   -0.99935  -0.95014  -0.85392  -0.80634  -0.69953
 Alpha  occ. eigenvalues --   -0.68626  -0.68119  -0.63051  -0.62262  -0.59110
 Alpha  occ. eigenvalues --   -0.57201  -0.56396  -0.55241  -0.50856  -0.46139
 Alpha  occ. eigenvalues --   -0.38908  -0.38527  -0.37134
 Alpha virt. eigenvalues --    0.02946   0.03606   0.04602   0.05000   0.05575
 Alpha virt. eigenvalues --    0.06260   0.06549   0.07232   0.08173   0.10495
 Alpha virt. eigenvalues --    0.10952   0.12259   0.12921   0.13735   0.14180

 Mulliken charges:
               1
     1  C    0.765599
     2  N   -0.202434
     3  C    0.604213
     4  O   -0.472170
     5  C    0.716374
     6  C    0.819908
     7  O   -0.932974
     8  H   -0.123419
     9  H   -0.123737
    10  H   -0.197132
    11  H   -0.358394
    12  H   -0.143326
    13  H   -0.180957
    14  H   -0.193351
    15  H   -0.114118
    16  H    0.135918
 Sum of Mulliken charges =  -0.00000

 Dipole moment (field-independent basis, Debye):
    X=              0.2798    Y=              1.6231    Z=              1.7666  Tot=              2.4153

 Test job not archived.
 1\1\GINC-SE423\SP\RHF\Aug-CC-pVDZ\C4H9N1O2\OHZDE\09-Apr-2025\0\\#t hf
 aug-cc-pvdz iop(5/13=1,5/36=2,99/5=2) pseudo=read geom=check guess=(re
 ad,tcheck) scf=(maxcycle=1)\\title\\0,1\C,0,2.29503002,-0.56124062,-1.
 16848139\N,0,1.09462724,-0.07664865,-0.53717291\C,0,1.04937944,1.01737
 729,0.18535829\O,0,0.0302425,1.48553391,0.71893164\C,0,-1.97939955,0.6
 2999545,0.75646312\C,0,-2.12554635,-0.75030233,0.31716702\O,0,-1.38726
 982,-0.57700501,-0.82858949\H,0,2.51189974,-1.5839617,-0.8548006\H,0,2
 .19218735,-0.55077044,-2.25538348\H,0,3.14480729,0.06848779,-0.8969705

 Normal termination of Gaussian 16 at Wed Apr  9 03:28:32 2025.
