 Gaussian 16, Revision C.01,

 ----------------------------------------------------------------------
 #t hf aug-cc-pvdz symm=none int=(grid=ultrafine) guess=(read,tcheck) s
 table=(opt,rrhf)
 ----------------------------------------------------------------------
 -----
 title
 -----
 Symbolic Z-matrix:
 Charge =  0 Multiplicity = 1

 SCF Done:  E(RHF) =  -283.612906651     A.U. after   16 cycles
 Normal termination of Gaussian 16 at Wed Apr  9 03:09:44 2025.
 Gaussian 16:  ES64L-G16RevC.01  3-Jul-2019

 ----------------------------------------------------------------------
 #t hf aug-cc-pvdz iop(5/13=1,5/36=2,99/5=2) pseudo=read geom=check gue
 ss=(read,tcheck) scf=(maxcycle=1)
 ----------------------------------------------------------------------
 -----
 title
 -----
 Structure from the checkpoint file:  "Grambow2020_b97d3_006730_reverse_mol2.chk"
 Charge =  0 Multiplicity = 1

                         Standard orientation:
 ---------------------------------------------------------------------
 Center     Atomic      Atomic             Coordinates (Angstroms)
 Number     Number       Type             X           Y           Z
 ---------------------------------------------------------------------
      1          6           0        0.626141    0.863077    0.477959
      2          6           0        1.576922   -0.015394   -0.339361
      3          8           0        2.126557   -1.013058    0.083660
      4          6           0       -2.326562   -0.990554   -0.055124
      5          7           0       -1.593143   -0.005013   -0.065298
      6          6           0       -0.723246    0.938571   -0.197533
      7          1           0        0.554021    0.451376    1.492588
      8          1           0        1.048451    1.878692    0.534357
      9          1           0        1.703870    0.322928   -1.397216
     10          1           0       -3.115360   -1.048766    0.709939
     11          1           0       -0.970963    1.761128   -0.867504
 ---------------------------------------------------------------------

 SCF Done:  E(RHF) =  -283.700732632     A.U. after    2 cycles

 The electronic state is 1-A.
 Alpha  occ. eigenvalues --  -20.58526 -15.72435 -11.36016 -11.31822 -11.29214
 Alpha  occ. eigenvalues --  -11.27907  -1.36319  -1.26746  -1.08005  -0.98060
 Alpha  occ. eigenvalues --   -0.81869  -0.75807  -0.69605  -0.67976  -0.65419
 Alpha  occ. eigenvalues --   -0.65054  -0.57370  -0.55441  -0.53483  -0.47811
 Alpha  occ. eigenvalues --   -0.44646  -0.31871
 Alpha virt. eigenvalues --    0.02673   0.03815   0.04436   0.05013   0.06497
 Alpha virt. eigenvalues --    0.07750   0.08820   0.09515   0.10377   0.11733
 Alpha virt. eigenvalues --    0.12493   0.13408   0.13789   0.14883   0.15250

 Mulliken charges:
               1
     1  C   -0.096639
     2  C    0.607167
     3  O   -0.470630
     4  C    0.041333
     5  N   -0.088389
     6  C    0.547900
     7  H   -0.069015
     8  H    0.070340
     9  H   -0.092987
    10  H   -0.199717
    11  H   -0.249363
 Sum of Mulliken charges =   0.00000

 Dipole moment (field-independent basis, Debye):
    X=             -1.3204    Y=              4.4029    Z=              0.2755  Tot=              4.6049

 Test job not archived.
 1\1\GINC-SE024\SP\RHF\Aug-CC-pVDZ\C4H5N1O1\OHZDE\09-Apr-2025\0\\#t hf
 aug-cc-pvdz iop(5/13=1,5/36=2,99/5=2) pseudo=read geom=check guess=(re
 ad,tcheck) scf=(maxcycle=1)\\title\\0,1\C,0,-0.97276311,0.25969328,-0.
 20827327\C,0,-0.72584777,-0.56343436,-1.47523908\O,0,-0.377273,-0.0969
 7774,-2.54167875\C,0,2.35931878,0.39563317,0.93947642\N,0,1.15579674,0
 .15388609,0.9883744\C,0,-0.07594692,-0.22157056,0.90839174\H,0,-0.8053
 2333,1.31900035,-0.44065623\H,0,-2.02145024,0.12351473,0.09948091\H,0,
 -0.86235746,-1.66343122,-1.3303013\H,0,2.74186088,1.26588442,1.4937652

 Normal termination of Gaussian 16 at Wed Apr  9 03:09:47 2025.
