 Gaussian 16, Revision C.01,

 ----------------------------------------------------------------------
 #t hf aug-cc-pvdz symm=none int=(grid=ultrafine) guess=(read,tcheck) s
 table=(opt,rrhf)
 ----------------------------------------------------------------------
 -----
 title
 -----
 Symbolic Z-matrix:
 Charge =  0 Multiplicity = 1

 SCF Done:  E(RHF) =  -322.649722137     A.U. after   13 cycles
 Normal termination of Gaussian 16 at Wed Apr  9 14:50:47 2025.
 Gaussian 16:  ES64L-G16RevC.01  3-Jul-2019

 ----------------------------------------------------------------------
 #t hf aug-cc-pvdz iop(5/13=1,5/36=2,99/5=2) pseudo=read geom=check gue
 ss=(read,tcheck) scf=(maxcycle=1)
 ----------------------------------------------------------------------
 -----
 title
 -----
 Structure from the checkpoint file:  "Grambow2020_wb97xd3_006623_reverse_mol2.chk"
 Charge =  0 Multiplicity = 1

                         Standard orientation:
 ---------------------------------------------------------------------
 Center     Atomic      Atomic             Coordinates (Angstroms)
 Number     Number       Type             X           Y           Z
 ---------------------------------------------------------------------
      1          8           0        2.183753   -0.155138    0.009935
      2          6           0        0.886749   -0.264299   -0.516944
      3          6           0        0.076985    1.006040   -0.385687
      4          6           0       -1.350279    0.645452   -0.214788
      5          6           0       -1.481288   -0.859371   -0.276567
      6          6           0       -0.145102   -0.832198    0.464669
      7          7           0       -0.443978    0.607249    0.961693
      8          1           0        0.988142   -0.742148   -1.493132
      9          1           0        0.404982    2.017885   -0.588602
     10          1           0       -2.135265    1.387224   -0.291309
     11          1           0       -1.524988   -1.358133   -1.247214
     12          1           0       -2.292431   -1.207199    0.362589
     13          1           0        2.129098    0.318895    0.845145
     14          1           0        0.145899   -1.599919    1.177097
 ---------------------------------------------------------------------

 SCF Done:  E(RHF) =  -322.743197905     A.U. after    2 cycles

 The electronic state is 1-A.
 Alpha  occ. eigenvalues --  -20.57796 -15.63264 -11.30245 -11.28263 -11.27815
 Alpha  occ. eigenvalues --  -11.27491 -11.25089  -1.34935  -1.29785  -1.00690
 Alpha  occ. eigenvalues --   -0.97749  -0.91115  -0.79314  -0.75030  -0.72752
 Alpha  occ. eigenvalues --   -0.67089  -0.64515  -0.61993  -0.57137  -0.56229
 Alpha  occ. eigenvalues --   -0.55467  -0.51342  -0.45528  -0.43544  -0.41879
 Alpha  occ. eigenvalues --   -0.38447
 Alpha virt. eigenvalues --    0.03302   0.03949   0.04258   0.04599   0.06472
 Alpha virt. eigenvalues --    0.06875   0.07236   0.09625   0.10467   0.12238
 Alpha virt. eigenvalues --    0.13001   0.13631   0.13943   0.14774   0.14911

 Mulliken charges:
               1
     1  O   -0.598056
     2  C    0.934453
     3  C    0.423279
     4  C    0.372895
     5  C    0.553211
     6  C    0.517288
     7  N   -0.991917
     8  H   -0.168554
     9  H   -0.360359
    10  H   -0.370659
    11  H   -0.097173
    12  H   -0.072092
    13  H    0.131503
    14  H   -0.273819
 Sum of Mulliken charges =   0.00000

 Dipole moment (field-independent basis, Debye):
    X=             -1.7628    Y=             -0.2707    Z=             -1.0438  Tot=              2.0665

 Test job not archived.
 1\1\GINC-SE100\SP\RHF\Aug-CC-pVDZ\C5H7N1O1\OHZDE\09-Apr-2025\0\\#t hf
 aug-cc-pvdz iop(5/13=1,5/36=2,99/5=2) pseudo=read geom=check guess=(re
 ad,tcheck) scf=(maxcycle=1)\\title\\0,1\O,0,0.25641057,1.6536722,1.687
 2683\C,0,0.58471682,0.57500928,0.85034577\C,0,0.41336968,0.88285324,-0
 .62022516\C,0,0.01892769,-0.36020652,-1.32416366\C,0,-0.02688459,-1.49
 145029,-0.32233519\C,0,-0.56614906,-0.40986926,0.61304553\N,0,-1.01575
 87,0.43188592,-0.61074626\H,0,1.53570159,0.18010478,1.21261939\H,0,0.7
 2005657,1.77989565,-1.14352716\H,0,0.02546811,-0.42589895,-2.40487027\

 Normal termination of Gaussian 16 at Wed Apr  9 14:50:51 2025.
