 Gaussian 16, Revision C.01,

 ----------------------------------------------------------------------
 #t hf aug-cc-pvdz symm=none int=(grid=ultrafine) guess=(read,tcheck) s
 table=(opt,rrhf)
 ----------------------------------------------------------------------
 -----
 title
 -----
 Symbolic Z-matrix:
 Charge =  0 Multiplicity = 1

 SCF Done:  E(RHF) =  -323.728521748     A.U. after   15 cycles
 Normal termination of Gaussian 16 at Wed Apr  9 03:52:17 2025.
 Gaussian 16:  ES64L-G16RevC.01  3-Jul-2019

 ----------------------------------------------------------------------
 #t hf aug-cc-pvdz iop(5/13=1,5/36=2,99/5=2) pseudo=read geom=check gue
 ss=(read,tcheck) scf=(maxcycle=1)
 ----------------------------------------------------------------------
 -----
 title
 -----
 Structure from the checkpoint file:  "Grambow2020_wb97xd3_008323_reverse_mol1.chk"
 Charge =  0 Multiplicity = 1

                         Standard orientation:
 ---------------------------------------------------------------------
 Center     Atomic      Atomic             Coordinates (Angstroms)
 Number     Number       Type             X           Y           Z
 ---------------------------------------------------------------------
      1          7           0       -2.385915    0.216111   -0.057059
      2          6           0       -1.122653    0.108875   -0.013473
      3          6           0       -0.251265    1.257664    0.018379
      4          6           0        1.187816    1.126677   -0.030099
      5          6           0        1.686541   -0.240575   -0.399003
      6          6           0        0.814161   -1.274862    0.286758
      7          8           0       -0.548168   -1.145114   -0.062571
      8          1           0       -2.810873   -0.705393   -0.110551
      9          1           0       -0.709260    2.232511   -0.024821
     10          1           0        0.789757    1.259024    1.164940
     11          1           0        1.826776    1.188999    1.319940
     12          1           0        1.748319    1.987685   -0.379500
     13          1           0        1.579973   -0.326362   -1.484489
     14          1           0        2.735993   -0.380285   -0.136731
     15          1           0        0.933601   -1.190100    1.376539
     16          1           0        1.104858   -2.284623   -0.000712
 ---------------------------------------------------------------------

 SCF Done:  E(RHF) =  -323.828410602     A.U. after    2 cycles

 The electronic state is 1-A.
 Alpha  occ. eigenvalues --  -20.59633 -15.56072 -11.35231 -11.33341 -11.31478
 Alpha  occ. eigenvalues --  -11.27629 -11.22139  -1.37731  -1.14833  -1.14650
 Alpha  occ. eigenvalues --   -1.01774  -0.90928  -0.87692  -0.75644  -0.70970
 Alpha  occ. eigenvalues --   -0.69775  -0.67474  -0.65695  -0.61586  -0.59748
 Alpha  occ. eigenvalues --   -0.58584  -0.53634  -0.51475  -0.48928  -0.40719
 Alpha  occ. eigenvalues --   -0.40368  -0.27890
 Alpha virt. eigenvalues --    0.02137   0.03587   0.03806   0.04752   0.06252
 Alpha virt. eigenvalues --    0.06427   0.06748   0.06917   0.08337   0.11271
 Alpha virt. eigenvalues --    0.11507   0.12524   0.12857   0.13494   0.14046

 Mulliken charges:
               1
     1  N   -0.463908
     2  C    0.596336
     3  C    0.204382
     4  C   -0.406799
     5  C    0.435323
     6  C    0.944972
     7  O   -0.703092
     8  H   -0.014473
     9  H   -0.473283
    10  H    0.408250
    11  H    0.110532
    12  H   -0.179649
    13  H   -0.051030
    14  H   -0.052587
    15  H   -0.129817
    16  H   -0.225159
 Sum of Mulliken charges =  -0.00000

 Dipole moment (field-independent basis, Debye):
    X=              6.0879    Y=             -0.1785    Z=              0.3214  Tot=              6.0990

 Test job not archived.
 1\1\GINC-SE094\SP\RHF\Aug-CC-pVDZ\C5H9N1O1\OHZDE\09-Apr-2025\0\\#t hf
 aug-cc-pvdz iop(5/13=1,5/36=2,99/5=2) pseudo=read geom=check guess=(re
 ad,tcheck) scf=(maxcycle=1)\\title\\0,1\N,0,2.67068232,0.7004434,-0.48
 457857\C,0,1.44466276,0.44200339,-0.28630287\C,0,0.95050182,-0.9073256
 3,-0.16315579\C,0,-0.46047639,-1.19553763,-0.03456733\C,0,-1.37155172,
 -0.03750177,-0.32282242\C,0,-0.75735515,1.21894185,0.26469436\O,0,0.53
 255005,1.47719316,-0.24936255\H,0,2.80331726,1.70361102,-0.57776045\H,
 0,1.66062826,-1.71068359,-0.27401637\H,0,0.09935403,-1.18070856,1.1014

 Normal termination of Gaussian 16 at Wed Apr  9 03:52:22 2025.
