 Gaussian 16, Revision C.01,

 ----------------------------------------------------------------------
 #t hf aug-cc-pvdz symm=none int=(grid=ultrafine) guess=(read,tcheck) s
 table=(opt,rrhf)
 ----------------------------------------------------------------------
 -----
 title
 -----
 Symbolic Z-matrix:
 Charge =  0 Multiplicity = 1

 SCF Done:  E(RHF) =  -316.422115915     A.U. after   16 cycles
 Normal termination of Gaussian 16 at Wed Apr  9 15:39:41 2025.
 Gaussian 16:  ES64L-G16RevC.01  3-Jul-2019

 ----------------------------------------------------------------------
 #t hf aug-cc-pvdz iop(5/13=1,5/36=2,99/5=2) pseudo=read geom=check gue
 ss=(read,tcheck) scf=(maxcycle=1)
 ----------------------------------------------------------------------
 -----
 title
 -----
 Structure from the checkpoint file:  "Grambow2020_wb97xd3_007272_forward_mol1.chk"
 Charge =  0 Multiplicity = 1

                         Standard orientation:
 ---------------------------------------------------------------------
 Center     Atomic      Atomic             Coordinates (Angstroms)
 Number     Number       Type             X           Y           Z
 ---------------------------------------------------------------------
      1          7           0        2.872117   -0.017685    0.009979
      2          6           0        1.726441   -0.091940    0.000452
      3          6           0        0.302922   -0.111002   -0.020381
      4          7           0       -0.470068   -1.147946   -0.005837
      5          6           0       -1.758162   -0.675565    0.008885
      6          6           0       -1.914636    0.693356   -0.086782
      7          7           0       -0.450043    1.060967   -0.008860
      8          1           0       -2.574943   -1.380174    0.054682
      9          1           0       -1.112228    1.270794    0.915763
     10          1           0       -0.116267    1.952934   -0.350461
 ---------------------------------------------------------------------

 SCF Done:  E(RHF) =  -316.510900884     A.U. after    2 cycles

 The electronic state is 1-A.
 Alpha  occ. eigenvalues --  -15.77709 -15.69262 -15.67808 -11.38367 -11.32419
 Alpha  occ. eigenvalues --  -11.28936 -11.28777  -1.38061  -1.23048  -1.21565
 Alpha  occ. eigenvalues --   -1.06681  -0.90603  -0.86278  -0.83108  -0.74167
 Alpha  occ. eigenvalues --   -0.66589  -0.61059  -0.58186  -0.54176  -0.51695
 Alpha  occ. eigenvalues --   -0.50188  -0.48406  -0.40793  -0.36115
 Alpha virt. eigenvalues --    0.01976   0.03800   0.04365   0.05420   0.06489
 Alpha virt. eigenvalues --    0.09262   0.09400   0.10339   0.10973   0.11848
 Alpha virt. eigenvalues --    0.12467   0.13364   0.13699   0.14145   0.15430

 Mulliken charges:
               1
     1  N   -0.077011
     2  C   -0.520707
     3  C    0.916812
     4  N   -0.572114
     5  C    0.741739
     6  C   -0.200746
     7  N   -0.476737
     8  H   -0.266219
     9  H    0.433846
    10  H    0.021137
 Sum of Mulliken charges =  -0.00000

 Dipole moment (field-independent basis, Debye):
    X=             -0.8683    Y=              2.2800    Z=              0.5659  Tot=              2.5045

 Test job not archived.
 1\1\GINC-SE138\SP\RHF\Aug-CC-pVDZ\C4H3N3\OHZDE\09-Apr-2025\0\\#t hf au
 g-cc-pvdz iop(5/13=1,5/36=2,99/5=2) pseudo=read geom=check guess=(read
 ,tcheck) scf=(maxcycle=1)\\title\\0,1\N,0,3.13885923,-0.45221771,0.630
 54257\C,0,2.01385782,-0.42699365,0.40270157\C,0,0.62640806,-0.32543155
 ,0.09959445\N,0,-0.2541964,-1.27261211,0.11862317\C,0,-1.4574087,-0.69
 463408,-0.19881729\C,0,-1.4292403,0.64486117,-0.53428456\N,0,0.0293851
 6,0.89154321,-0.22155337\H,0,-2.34683672,-1.30660023,-0.20969646\H,0,-
 0.76140852,1.31650823,0.50748382\H,0,0.52415838,1.67762272,-0.62277789

 Normal termination of Gaussian 16 at Wed Apr  9 15:39:45 2025.
