 Gaussian 16, Revision C.01,

 ----------------------------------------------------------------------
 #t hf aug-cc-pvdz symm=none int=(grid=ultrafine) guess=(read,tcheck) s
 table=(opt,rrhf)
 ----------------------------------------------------------------------
 -----
 title
 -----
 Symbolic Z-matrix:
 Charge =  0 Multiplicity = 1

 SCF Done:  E(RHF) =  -358.356957589     A.U. after   16 cycles
 Normal termination of Gaussian 16 at Wed Apr  9 03:39:14 2025.
 Gaussian 16:  ES64L-G16RevC.01  3-Jul-2019

 ----------------------------------------------------------------------
 #t hf aug-cc-pvdz iop(5/13=1,5/36=2,99/5=2) pseudo=read geom=check gue
 ss=(read,tcheck) scf=(maxcycle=1)
 ----------------------------------------------------------------------
 -----
 title
 -----
 Structure from the checkpoint file:  "Grambow2020_wb97xd3_007457_reverse_mol2.chk"
 Charge =  0 Multiplicity = 1

                         Standard orientation:
 ---------------------------------------------------------------------
 Center     Atomic      Atomic             Coordinates (Angstroms)
 Number     Number       Type             X           Y           Z
 ---------------------------------------------------------------------
      1          8           0        2.326444   -0.715263   -0.000237
      2          6           0        1.531672    0.296801   -0.037711
      3          6           0        0.143801    0.185316   -0.021483
      4          7           0       -0.333540   -1.079472    0.036254
      5          8           0       -1.629233   -0.921595    0.037168
      6          6           0       -1.926580    0.431674   -0.019466
      7          6           0       -0.825170    1.236899   -0.060518
      8          1           0        1.791786   -1.531545    0.040902
      9          1           0        1.509439    3.907307    0.223603
     10          1           0        2.022786    1.263818   -0.084995
     11          1           0       -2.992582    0.601687   -0.020939
     12          1           0        0.883327    3.505765    0.127273
 ---------------------------------------------------------------------

 SCF Done:  E(RHF) =  -358.468860839     A.U. after    2 cycles

 The electronic state is 1-A.
 Alpha  occ. eigenvalues --  -20.71795 -20.69912 -15.73296 -11.44434 -11.29252
 Alpha  occ. eigenvalues --  -11.29004 -11.19033  -1.50442  -1.49410  -1.16575
 Alpha  occ. eigenvalues --   -1.06647  -1.00847  -0.89863  -0.83582  -0.76306
 Alpha  occ. eigenvalues --   -0.74084  -0.70686  -0.69605  -0.67961  -0.62172
 Alpha  occ. eigenvalues --   -0.57893  -0.55223  -0.50793  -0.43811  -0.34264
 Alpha  occ. eigenvalues --   -0.33821
 Alpha virt. eigenvalues --   -0.01468   0.02633   0.04381   0.04796   0.07304
 Alpha virt. eigenvalues --    0.08533   0.08772   0.09269   0.11425   0.12129
 Alpha virt. eigenvalues --    0.12610   0.13037   0.14269   0.15064   0.15449

 Mulliken charges:
               1
     1  O   -0.368166
     2  C    0.800249
     3  C    0.337995
     4  N   -0.338969
     5  O   -0.576825
     6  C    0.782309
     7  C   -0.362606
     8  H    0.239674
     9  H   -0.040067
    10  H   -0.242852
    11  H   -0.315333
    12  H    0.084593
 Sum of Mulliken charges =   0.00000

 Dipole moment (field-independent basis, Debye):
    X=              3.7984    Y=             -2.2613    Z=              0.0510  Tot=              4.4209

 Test job not archived.
 1\1\GINC-SE179\SP\RHF\Aug-CC-pVDZ\C4H5N1O2\OHZDE\09-Apr-2025\0\\#t hf
 aug-cc-pvdz iop(5/13=1,5/36=2,99/5=2) pseudo=read geom=check guess=(re
 ad,tcheck) scf=(maxcycle=1)\\title\\0,1\O,0,-2.19176733,0.82284168,-0.
 88984316\C,0,-1.34152157,0.06979791,-0.28375149\C,0,0.02676295,0.32606
 358,-0.25206762\N,0,0.42147721,1.43923463,-0.91231705\O,0,1.71544841,1
 .45776677,-0.7418975\C,0,2.09399078,0.36079424,0.01725658\C,0,1.052213
 ,-0.44029749,0.38621122\H,0,-1.71273648,1.56904404,-1.29920559\H,0,-1.
 14349353,-2.70733085,2.02987655\H,0,-1.76806814,-0.79732362,0.21092861

 Normal termination of Gaussian 16 at Wed Apr  9 03:39:18 2025.
