 Gaussian 16, Revision C.01,

 ----------------------------------------------------------------------
 #t hf aug-cc-pvdz symm=none int=(grid=ultrafine) guess=(read,tcheck) s
 table=(opt,rrhf)
 ----------------------------------------------------------------------
 -----
 title
 -----
 Symbolic Z-matrix:
 Charge =  0 Multiplicity = 1

 SCF Done:  E(RHF) =  -318.851256547     A.U. after   14 cycles
 Normal termination of Gaussian 16 at Wed Apr  9 15:28:54 2025.
 Gaussian 16:  ES64L-G16RevC.01  3-Jul-2019

 ----------------------------------------------------------------------
 #t hf aug-cc-pvdz iop(5/13=1,5/36=2,99/5=2) pseudo=read geom=check gue
 ss=(read,tcheck) scf=(maxcycle=1)
 ----------------------------------------------------------------------
 -----
 title
 -----
 Structure from the checkpoint file:  "Grambow2020_wb97xd3_006924_reverse_mol2.chk"
 Charge =  0 Multiplicity = 1

                         Standard orientation:
 ---------------------------------------------------------------------
 Center     Atomic      Atomic             Coordinates (Angstroms)
 Number     Number       Type             X           Y           Z
 ---------------------------------------------------------------------
      1          7           0        2.442857   -0.398795    0.009910
      2          6           0        1.002149   -0.099556   -0.006685
      3          6           0       -0.069845   -0.978889   -0.025524
      4          6           0       -1.174810   -0.103173   -0.013198
      5          7           0       -2.533062   -0.501748   -0.081109
      6          6           0       -0.662219    1.190991    0.011707
      7          7           0        0.699917    1.187053    0.010474
      8          1           0        2.738010   -0.908083    0.841975
      9          1           0        2.756146   -0.911441   -0.813214
     10          1           0       -0.074293   -2.058023   -0.072876
     11          1           0       -3.146868    0.297831   -0.033216
     12          1           0       -2.775626   -1.131079    0.670541
     13          1           0       -1.213693    2.121291    0.021204
     14          1           0        2.876701    0.527694    0.012853
 ---------------------------------------------------------------------

 SCF Done:  E(RHF) =  -318.944897104     A.U. after    2 cycles

 The electronic state is 1-A.
 Alpha  occ. eigenvalues --  -15.78162 -15.58704 -15.56959 -11.26672 -11.21727
 Alpha  occ. eigenvalues --  -11.19364 -11.18943  -1.30686  -1.19449  -1.12031
 Alpha  occ. eigenvalues --   -0.96273  -0.91370  -0.79201  -0.78753  -0.76034
 Alpha  occ. eigenvalues --   -0.70338  -0.67112  -0.62340  -0.54887  -0.54612
 Alpha  occ. eigenvalues --   -0.51542  -0.49828  -0.42616  -0.39071  -0.27651
 Alpha  occ. eigenvalues --   -0.24324
 Alpha virt. eigenvalues --    0.00345   0.03457   0.03594   0.04866   0.06157
 Alpha virt. eigenvalues --    0.06660   0.08663   0.10100   0.11977   0.12534
 Alpha virt. eigenvalues --    0.13533   0.13904   0.14585   0.15470   0.16304

 Mulliken charges:
               1
     1  N   -0.278180
     2  C    0.144223
     3  C    0.722132
     4  C    0.056901
     5  N   -0.441185
     6  C    0.747498
     7  N   -0.653220
     8  H    0.170723
     9  H    0.169961
    10  H   -0.429123
    11  H   -0.002640
    12  H   -0.029408
    13  H   -0.366736
    14  H    0.189054
 Sum of Mulliken charges =  -0.00000

 Dipole moment (field-independent basis, Debye):
    X=              6.5959    Y=             -3.1445    Z=              1.1173  Tot=              7.3920

 Test job not archived.
 1\1\GINC-SE129\SP\RHF\Aug-CC-pVDZ\C4H7N3\OHZDE\09-Apr-2025\0\\#t hf au
 g-cc-pvdz iop(5/13=1,5/36=2,99/5=2) pseudo=read geom=check guess=(read
 ,tcheck) scf=(maxcycle=1)\\title\\0,1\N,0,-2.40448353,-0.05427002,-0.0
 6287701\C,0,-0.94358207,0.11308061,-0.00614478\C,0,0.03619578,-0.84829
 179,0.19020419\C,0,1.2204487,-0.08611507,0.12230776\N,0,2.52942306,-0.
 59239473,0.3187467\C,0,0.83743989,1.23302475,-0.10442006\N,0,-0.517436
 89,1.35228282,-0.17871087\H,0,-2.71166465,-0.64530019,-0.83433354\H,0,
 -2.80111694,-0.41739305,0.80275177\H,0,-0.06616073,-1.90637891,0.38195

 Normal termination of Gaussian 16 at Wed Apr  9 15:28:58 2025.
