 Gaussian 16, Revision C.01,

 ----------------------------------------------------------------------
 #t hf aug-cc-pvdz symm=none int=(grid=ultrafine) guess=(read,tcheck) s
 table=(opt,rrhf)
 ----------------------------------------------------------------------
 -----
 title
 -----
 Symbolic Z-matrix:
 Charge =  0 Multiplicity = 1

 SCF Done:  E(RHF) =  -306.552332601     A.U. after   16 cycles
 Normal termination of Gaussian 16 at Wed Apr  9 16:23:09 2025.
 Gaussian 16:  ES64L-G16RevC.01  3-Jul-2019

 ----------------------------------------------------------------------
 #t hf aug-cc-pvdz iop(5/13=1,5/36=2,99/5=2) pseudo=read geom=check gue
 ss=(read,tcheck) scf=(maxcycle=1)
 ----------------------------------------------------------------------
 -----
 title
 -----
 Structure from the checkpoint file:  "Grambow2020_wb97xd3_008176_forward_mol1.chk"
 Charge =  0 Multiplicity = 1

                         Standard orientation:
 ---------------------------------------------------------------------
 Center     Atomic      Atomic             Coordinates (Angstroms)
 Number     Number       Type             X           Y           Z
 ---------------------------------------------------------------------
      1          6           0       -1.494218   -0.602847    0.210011
      2          6           0       -1.007933    0.553106   -0.638223
      3          8           0       -0.228920    1.352294    0.151719
      4          6           0        0.651967    0.421530    0.788942
      5          6           0        1.658620   -0.010498   -0.284714
      6          6           0        0.618106   -0.951424   -0.859256
      7          6           0       -0.065304   -0.942659    0.560575
      8          1           0       -2.160922   -0.307268    1.023560
      9          1           0       -1.948893   -1.387152   -0.395603
     10          1           0       -1.640990    1.130408   -1.309130
     11          1           0        0.947653    0.815493    1.760941
     12          1           0        2.157803    0.732085   -0.907739
     13          1           0        2.402312   -0.659542    0.189012
     14          1           0       -0.259253   -0.174795   -1.463404
     15          1           0        0.166215   -1.770825    1.224601
 ---------------------------------------------------------------------

 SCF Done:  E(RHF) =  -306.641189105     A.U. after    2 cycles

 The electronic state is 1-A.
 Alpha  occ. eigenvalues --  -20.59999 -11.33789 -11.30036 -11.25279 -11.24876
 Alpha  occ. eigenvalues --  -11.24765 -11.23537  -1.39486  -1.14001  -1.05084
 Alpha  occ. eigenvalues --   -0.93509  -0.84812  -0.79622  -0.77196  -0.71802
 Alpha  occ. eigenvalues --   -0.66253  -0.64627  -0.59704  -0.59082  -0.55398
 Alpha  occ. eigenvalues --   -0.53052  -0.50609  -0.47269  -0.45261  -0.42870
 Alpha  occ. eigenvalues --   -0.31712
 Alpha virt. eigenvalues --    0.03168   0.03961   0.04477   0.04932   0.06129
 Alpha virt. eigenvalues --    0.06455   0.06594   0.07994   0.09653   0.11054
 Alpha virt. eigenvalues --    0.12154   0.12541   0.13083   0.13507   0.13942

 Mulliken charges:
               1
     1  C    0.615675
     2  C    0.407529
     3  O   -0.754335
     4  C    0.710188
     5  C    0.703671
     6  C   -0.729526
     7  C    0.213607
     8  H   -0.154993
     9  H   -0.038369
    10  H   -0.305390
    11  H   -0.329592
    12  H   -0.228651
    13  H   -0.073719
    14  H    0.314625
    15  H   -0.350721
 Sum of Mulliken charges =   0.00000

 Dipole moment (field-independent basis, Debye):
    X=             -0.8146    Y=              0.2265    Z=              1.5955  Tot=              1.8057

 Test job not archived.
 1\1\GINC-SE113\SP\RHF\Aug-CC-pVDZ\C6H8O1\OHZDE\09-Apr-2025\0\\#t hf au
 g-cc-pvdz iop(5/13=1,5/36=2,99/5=2) pseudo=read geom=check guess=(read
 ,tcheck) scf=(maxcycle=1)\\title\\0,1\C,0,-1.5250708,-0.1008463,-0.443
 87874\C,0,-0.92246622,-0.58025514,0.85966869\O,0,0.09549874,-1.4416766
 6,0.55755963\C,0,0.84009663,-0.73056795,-0.43654065\C,0,1.59561855,0.3
 7483717,0.31179125\C,0,0.32161917,1.19536694,0.3538163\C,0,-0.16337017
 ,0.36881223,-0.89703928\H,0,-2.01076337,-0.88835318,-1.02496234\H,0,-2
 .20212125,0.74019826,-0.29261594\H,0,-1.5028003,-0.91469218,1.71729227

 Normal termination of Gaussian 16 at Wed Apr  9 16:23:14 2025.
