 Gaussian 16, Revision C.01,

 ----------------------------------------------------------------------
 #t hf aug-cc-pvdz symm=none int=(grid=ultrafine) guess=(read,tcheck) s
 table=(opt,rrhf)
 ----------------------------------------------------------------------
 -----
 title
 -----
 Symbolic Z-matrix:
 Charge =  0 Multiplicity = 1

 SCF Done:  E(RHF) =  -309.060867720     A.U. after   13 cycles

 1\1\GINC-SE113\Stability\RHF\Aug-CC-pVDZ\C6H12O1\OHZDE\09-Apr-2025\0\\
 #t hf aug-cc-pvdz symm=none int=(grid=ultrafine) guess=(read,tcheck) s
 table=(opt,rrhf)\\title\\0,1\C,0,1.76380866,-0.32253521,-1.18890494\C,
 0,1.04837275,0.38614601,-0.06895253\O,0,0.67280409,1.73452118,-0.40190
 648\C,0,-0.60363669,1.56526034,0.22691057\C,0,-0.41419414,0.04020327,0
 .31352056\C,0,-0.60382272,-0.5976009,1.67696338\C,0,-1.1911162,-0.7045
 0707,-0.76058579\H,0,2.70963609,0.18033103,-1.39823824\H,0,1.98513743,
 -1.35483006,-0.90706438\H,0,1.17199978,-0.32680037,-2.10424482\H,0,1.6

 Normal termination of Gaussian 16 at Wed Apr  9 14:31:56 2025.
 Gaussian 16:  ES64L-G16RevC.01  3-Jul-2019

 ----------------------------------------------------------------------
 #t hf aug-cc-pvdz iop(5/13=1,5/36=2,99/5=2) pseudo=read geom=check gue
 ss=(read,tcheck) scf=(maxcycle=1)
 ----------------------------------------------------------------------
 -----
 title
 -----
 Structure from the checkpoint file:  "Grambow2020_wb97xd3_006571_forward_mol2.chk"
 Charge =  0 Multiplicity = 1

                         Standard orientation:
 ---------------------------------------------------------------------
 Center     Atomic      Atomic             Coordinates (Angstroms)
 Number     Number       Type             X           Y           Z
 ---------------------------------------------------------------------
      1          6           0       -1.866720   -0.972327   -0.237022
      2          6           0       -0.805822    0.051147   -0.545837
      3          8           0       -0.996598    1.292521    0.156033
      4          6           0        0.406261    1.385126    0.433109
      5          6           0        0.637135   -0.076099    0.008010
      6          6           0        1.718564   -0.326245   -1.026238
      7          6           0        0.779328   -1.012520    1.197465
      8          1           0       -2.837853   -0.611285   -0.580291
      9          1           0       -1.653111   -1.910900   -0.754231
     10          1           0       -1.936431   -1.168099    0.832985
     11          1           0       -0.783502    0.240278   -1.628523
     12          1           0        0.601631    1.633166    1.480097
     13          1           0        0.896312    2.123226   -0.212910
     14          1           0        1.626243    0.357221   -1.872897
     15          1           0        1.659523   -1.348074   -1.410837
     16          1           0        2.713715   -0.194078   -0.593832
     17          1           0        0.674552   -2.057996    0.896775
     18          1           0        0.033219   -0.803372    1.965789
     19          1           0        1.766006   -0.894749    1.652691
 ---------------------------------------------------------------------

 SCF Done:  E(RHF) =  -309.158800889     A.U. after    2 cycles

 The electronic state is 1-A.
 Alpha  occ. eigenvalues --  -20.55611 -11.28440 -11.27900 -11.24352 -11.22917
 Alpha  occ. eigenvalues --  -11.22743 -11.22350  -1.34172  -1.07517  -1.00575
 Alpha  occ. eigenvalues --   -0.93891  -0.90263  -0.85896  -0.72645  -0.66385
 Alpha  occ. eigenvalues --   -0.65251  -0.64458  -0.59765  -0.58146  -0.56234
 Alpha  occ. eigenvalues --   -0.54906  -0.53664  -0.53063  -0.51949  -0.49054
 Alpha  occ. eigenvalues --   -0.44892  -0.43206  -0.41550
 Alpha virt. eigenvalues --    0.03359   0.04338   0.04572   0.04815   0.06191
 Alpha virt. eigenvalues --    0.06415   0.06540   0.06763   0.07660   0.09123
 Alpha virt. eigenvalues --    0.09396   0.09731   0.11530   0.13007   0.14134

 Mulliken charges:
               1
     1  C    0.351458
     2  C    0.594107
     3  O   -0.835380
     4  C    1.177862
     5  C   -1.892470
     6  C    0.737785
     7  C    0.787154
     8  H   -0.026860
     9  H    0.040410
    10  H    0.031732
    11  H   -0.347090
    12  H   -0.211279
    13  H   -0.240492
    14  H   -0.084188
    15  H    0.017770
    16  H   -0.015791
    17  H   -0.014538
    18  H   -0.032200
    19  H   -0.037991
 Sum of Mulliken charges =   0.00000

 Dipole moment (field-independent basis, Debye):
    X=              1.6344    Y=             -1.4549    Z=             -0.3962  Tot=              2.2237

 Test job not archived.
 1\1\GINC-SE113\SP\RHF\Aug-CC-pVDZ\C6H12O1\OHZDE\09-Apr-2025\0\\#t hf a
 ug-cc-pvdz iop(5/13=1,5/36=2,99/5=2) pseudo=read geom=check guess=(rea
 d,tcheck) scf=(maxcycle=1)\\title\\0,1\C,0,1.76380866,-0.32253521,-1.1
 8890494\C,0,1.04837275,0.38614601,-0.06895253\O,0,0.67280409,1.7345211
 8,-0.40190648\C,0,-0.60363669,1.56526034,0.22691057\C,0,-0.41419414,0.
 04020327,0.31352056\C,0,-0.60382272,-0.5976009,1.67696338\C,0,-1.19111
 62,-0.70450707,-0.76058579\H,0,2.70963609,0.18033103,-1.39823824\H,0,1
 .98513743,-1.35483006,-0.90706438\H,0,1.17199978,-0.32680037,-2.104244

 Normal termination of Gaussian 16 at Wed Apr  9 14:32:03 2025.
