 Gaussian 16, Revision C.01,

 ----------------------------------------------------------------------
 #t hf aug-cc-pvdz symm=none int=(grid=ultrafine) guess=(read,tcheck) s
 table=(opt,rrhf)
 ----------------------------------------------------------------------
 -----
 title
 -----
 Symbolic Z-matrix:
 Charge =  0 Multiplicity = 1

 SCF Done:  E(RHF) =  -342.416803299     A.U. after   16 cycles
 Normal termination of Gaussian 16 at Wed Apr  9 16:50:08 2025.
 Gaussian 16:  ES64L-G16RevC.01  3-Jul-2019

 ----------------------------------------------------------------------
 #t hf aug-cc-pvdz iop(5/13=1,5/36=2,99/5=2) pseudo=read geom=check gue
 ss=(read,tcheck) scf=(maxcycle=1)
 ----------------------------------------------------------------------
 -----
 title
 -----
 Structure from the checkpoint file:  "Grambow2020_wb97xd3_008947_reverse_mol2.chk"
 Charge =  0 Multiplicity = 1

                         Standard orientation:
 ---------------------------------------------------------------------
 Center     Atomic      Atomic             Coordinates (Angstroms)
 Number     Number       Type             X           Y           Z
 ---------------------------------------------------------------------
      1          8           0        2.374531   -0.478136   -0.552907
      2          6           0        1.753696    0.344617    0.061952
      3          6           0       -0.957283    1.481556   -0.451315
      4          6           0       -0.718848    0.299506    0.262045
      5          6           0       -1.250837   -0.700308   -0.762468
      6          8           0       -1.781586   -0.647468    0.517896
      7          6           0        0.585879   -0.020493    0.954030
      8          1           0       -2.040604    1.587800   -0.606885
      9          1           0        1.995674    1.419308   -0.013092
     10          1           0       -1.912810   -0.420751   -1.576395
     11          1           0       -0.528731   -1.483669   -0.983166
     12          1           0        0.632685    0.555361    1.881761
     13          1           0        0.634579   -1.082478    1.192402
 ---------------------------------------------------------------------

 SCF Done:  E(RHF) =  -342.521657073     A.U. after    2 cycles

 The electronic state is 1-A.
 Alpha  occ. eigenvalues --  -20.62685 -20.58279 -11.35296 -11.35222 -11.34115
 Alpha  occ. eigenvalues --  -11.28318 -11.27097  -1.42851  -1.37377  -1.08831
 Alpha  occ. eigenvalues --   -1.00176  -0.92023  -0.83987  -0.77688  -0.71161
 Alpha  occ. eigenvalues --   -0.69828  -0.66937  -0.66337  -0.62582  -0.59189
 Alpha  occ. eigenvalues --   -0.57038  -0.54028  -0.50584  -0.47232  -0.43651
 Alpha  occ. eigenvalues --   -0.38614
 Alpha virt. eigenvalues --    0.03279   0.03578   0.04634   0.05349   0.06440
 Alpha virt. eigenvalues --    0.06845   0.07848   0.09012   0.09366   0.10144
 Alpha virt. eigenvalues --    0.12254   0.12908   0.13388   0.14012   0.14886

 Mulliken charges:
               1
     1  O   -0.503757
     2  C    0.891880
     3  C    0.042799
     4  C   -0.117919
     5  C    0.733385
     6  O   -0.744368
     7  C    0.240258
     8  H   -0.065450
     9  H   -0.110654
    10  H   -0.211722
    11  H   -0.153430
    12  H    0.053751
    13  H   -0.054774
 Sum of Mulliken charges =  -0.00000

 Dipole moment (field-independent basis, Debye):
    X=             -1.7352    Y=              0.4004    Z=              0.8434  Tot=              1.9704

 Test job not archived.
 1\1\GINC-SE118\SP\RHF\Aug-CC-pVDZ\C5H6O2\OHZDE\09-Apr-2025\0\\#t hf au
 g-cc-pvdz iop(5/13=1,5/36=2,99/5=2) pseudo=read geom=check guess=(read
 ,tcheck) scf=(maxcycle=1)\\title\\0,1\O,0,-1.91795391,-1.52925622,0.89
 945952\C,0,-1.74785399,-0.73122828,0.01933054\C,0,0.00869073,1.6795209
 7,-0.07187246\C,0,0.43080416,0.38238216,-0.39160262\C,0,1.32216935,0.1
 2363175,0.82115612\O,0,1.83631514,0.04952281,-0.4649161\C,0,-0.4990370
 5,-0.72241605,-0.8369896\H,0,0.88575588,2.34252841,-0.05600628\H,0,-2.
 49353328,0.05474077,-0.19364975\H,0,1.7070664,0.91670953,1.45496835\H,

 Normal termination of Gaussian 16 at Wed Apr  9 16:50:12 2025.
