 Gaussian 16, Revision C.01,

 ----------------------------------------------------------------------
 #t hf aug-cc-pvdz symm=none int=(grid=ultrafine) guess=(read,tcheck) s
 table=(opt,rrhf)
 ----------------------------------------------------------------------
 -----
 title
 -----
 Symbolic Z-matrix:
 Charge =  0 Multiplicity = 1

 SCF Done:  E(RHF) =  -343.652112533     A.U. after   13 cycles
 Normal termination of Gaussian 16 at Wed Apr  9 17:01:23 2025.
 Gaussian 16:  ES64L-G16RevC.01  3-Jul-2019

 ----------------------------------------------------------------------
 #t hf aug-cc-pvdz iop(5/13=1,5/36=2,99/5=2) pseudo=read geom=check gue
 ss=(read,tcheck) scf=(maxcycle=1)
 ----------------------------------------------------------------------
 -----
 title
 -----
 Structure from the checkpoint file:  "Grambow2020_wb97xd3_009115_reverse_mol2.chk"
 Charge =  0 Multiplicity = 1

                         Standard orientation:
 ---------------------------------------------------------------------
 Center     Atomic      Atomic             Coordinates (Angstroms)
 Number     Number       Type             X           Y           Z
 ---------------------------------------------------------------------
      1          6           0       -2.186510   -0.296513    0.801923
      2          6           0       -1.445669    0.507702   -0.199349
      3          8           0       -0.118189    0.184913   -0.520056
      4          6           0        0.831482    0.828394    0.303563
      5          6           0        2.191480    0.295147   -0.082968
      6          8           0        2.276436   -1.097633    0.113847
      7          6           0       -2.479456   -0.508056   -0.439826
      8          1           0        1.505421   -1.483056   -0.311793
      9          1           0       -2.332640   -0.538022    1.840253
     10          1           0       -1.642017    1.573164   -0.334441
     11          1           0        0.628315    0.605299    1.359585
     12          1           0        0.794114    1.917998    0.164742
     13          1           0        2.396800    0.558097   -1.128939
     14          1           0        2.959905    0.755861    0.540632
     15          1           0       -3.043834   -1.047622   -1.180426
 ---------------------------------------------------------------------

 SCF Done:  E(RHF) =  -343.762700969     A.U. after    2 cycles

 The electronic state is 1-A.
 Alpha  occ. eigenvalues --  -20.57340 -20.56100 -11.31332 -11.28529 -11.28045
 Alpha  occ. eigenvalues --  -11.26586 -11.26371  -1.35240  -1.31303  -1.17036
 Alpha  occ. eigenvalues --   -0.99827  -0.85742  -0.81498  -0.78355  -0.72098
 Alpha  occ. eigenvalues --   -0.70621  -0.67976  -0.65113  -0.62215  -0.58640
 Alpha  occ. eigenvalues --   -0.55326  -0.53064  -0.49394  -0.46336  -0.44910
 Alpha  occ. eigenvalues --   -0.41854  -0.39452
 Alpha virt. eigenvalues --    0.03401   0.03991   0.04257   0.05032   0.05866
 Alpha virt. eigenvalues --    0.06756   0.07305   0.08071   0.09511   0.10318
 Alpha virt. eigenvalues --    0.12227   0.12778   0.13528   0.14159   0.14902

 Mulliken charges:
               1
     1  C    0.074663
     2  C    0.725571
     3  O   -0.711651
     4  C    0.459824
     5  C    0.787997
     6  O   -0.569304
     7  C    0.384619
     8  H    0.178996
     9  H   -0.296973
    10  H   -0.270785
    11  H   -0.115761
    12  H   -0.095617
    13  H   -0.123615
    14  H   -0.119664
    15  H   -0.308301
 Sum of Mulliken charges =  -0.00000

 Dipole moment (field-independent basis, Debye):
    X=             -2.3450    Y=              1.4794    Z=              0.4001  Tot=              2.8014

 Test job not archived.
 1\1\GINC-SE232\SP\RHF\Aug-CC-pVDZ\C5H8O2\OHZDE\09-Apr-2025\0\\#t hf au
 g-cc-pvdz iop(5/13=1,5/36=2,99/5=2) pseudo=read geom=check guess=(read
 ,tcheck) scf=(maxcycle=1)\\title\\0,1\C,0,-2.30886045,0.10393837,0.503
 9382\C,0,-1.38326566,-0.10479852,-0.63529608\O,0,-0.04207555,-0.444494
 62,-0.40063788\C,0,0.80618554,0.67634482,-0.26475692\C,0,2.17799148,0.
 15638268,0.09737541\O,0,2.15681678,-0.55783621,1.3119672\C,0,-2.422516
 35,-1.0147131,-0.1349747\H,0,1.43895677,-1.19370225,1.24460882\H,0,-2.
 62252334,0.74413691,1.30989832\H,0,-1.49906052,0.44255397,-1.57285107\

 Normal termination of Gaussian 16 at Wed Apr  9 17:01:28 2025.
