 Gaussian 16, Revision C.01,

 ----------------------------------------------------------------------
 #t hf aug-cc-pvdz symm=none int=(grid=ultrafine) guess=(read,tcheck) s
 table=(opt,rrhf)
 ----------------------------------------------------------------------
 -----
 title
 -----
 Symbolic Z-matrix:
 Charge =  0 Multiplicity = 1

 SCF Done:  E(RHF) =  -245.764956968     A.U. after   15 cycles
 Normal termination of Gaussian 16 at Wed Apr  9 14:20:01 2025.
 Gaussian 16:  ES64L-G16RevC.01  3-Jul-2019

 ----------------------------------------------------------------------
 #t hf aug-cc-pvdz iop(5/13=1,5/36=2,99/5=2) pseudo=read geom=check gue
 ss=(read,tcheck) scf=(maxcycle=1)
 ----------------------------------------------------------------------
 -----
 title
 -----
 Structure from the checkpoint file:  "Grambow2020_b97d3_007202_reverse_mol2.chk"
 Charge =  0 Multiplicity = 1

                         Standard orientation:
 ---------------------------------------------------------------------
 Center     Atomic      Atomic             Coordinates (Angstroms)
 Number     Number       Type             X           Y           Z
 ---------------------------------------------------------------------
      1          8           0        1.744505   -0.779994   -0.019988
      2          6           0        1.382593    0.380326   -0.106940
      3          6           0       -0.049345    0.820484    0.125916
      4          6           0       -2.275207   -0.369576   -0.136551
      5          7           0       -0.983495   -0.330676    0.111678
      6          1           0        2.095619    1.201125   -0.357738
      7          1           0       -0.089160    1.325033    1.107296
      8          1           0       -2.579654    0.690630   -0.341418
      9          1           0       -0.357235    1.558587   -0.628420
     10          1           0       -0.489393   -1.208098    0.303891
 ---------------------------------------------------------------------

 SCF Done:  E(RHF) =  -245.840246976     A.U. after    2 cycles

 The electronic state is 1-A.
 Alpha  occ. eigenvalues --  -20.60691 -15.68468 -11.38196 -11.31883 -11.26550
 Alpha  occ. eigenvalues --   -1.38608  -1.23083  -1.02962  -0.86038  -0.82162
 Alpha  occ. eigenvalues --   -0.70705  -0.69312  -0.66631  -0.62718  -0.58089
 Alpha  occ. eigenvalues --   -0.55229  -0.48415  -0.45436  -0.35154
 Alpha virt. eigenvalues --    0.02350   0.04096   0.04342   0.05811   0.06986
 Alpha virt. eigenvalues --    0.07884   0.09092   0.10408   0.11511   0.13161
 Alpha virt. eigenvalues --    0.13393   0.14529   0.14599   0.15830   0.16261

 Mulliken charges:
               1
     1  O   -0.477547
     2  C    0.557781
     3  C    0.566011
     4  C   -0.021270
     5  N   -0.260305
     6  H   -0.093979
     7  H    0.000755
     8  H   -0.180345
     9  H   -0.125083
    10  H    0.033982
 Sum of Mulliken charges =  -0.00000

 Dipole moment (field-independent basis, Debye):
    X=              2.0494    Y=              4.5419    Z=              0.2299  Tot=              4.9882

 Test job not archived.
 1\1\GINC-SE036\SP\RHF\Aug-CC-pVDZ\C3H5N1O1\OHZDE\09-Apr-2025\0\\#t hf
 aug-cc-pvdz iop(5/13=1,5/36=2,99/5=2) pseudo=read geom=check guess=(re
 ad,tcheck) scf=(maxcycle=1)\\title\\0,1\O,0,1.48070649,0.28087128,1.61
 651863\C,0,1.39218108,-0.38337751,0.59876656\C,0,0.28444034,-0.1949448
 1,-0.41898087\C,0,-2.09794595,0.657262,-0.22513619\N,0,-0.83241302,0.6
 0924253,0.13231753\H,0,2.13704993,-1.17510182,0.3470531\H,0,0.71891308
 ,0.31629622,-1.29597971\H,0,-2.20025436,-0.05524584,-1.08569415\H,0,-0
 .09359039,-1.1667487,-0.76726853\H,0,-0.5207912,1.17482465,0.92853364\

 Normal termination of Gaussian 16 at Wed Apr  9 14:20:03 2025.
