 Gaussian 16, Revision C.01,

 ----------------------------------------------------------------------
 #t hf aug-cc-pvdz symm=none int=(grid=ultrafine) guess=(read,tcheck) s
 table=(opt,rrhf)
 ----------------------------------------------------------------------
 -----
 title
 -----
 Symbolic Z-matrix:
 Charge =  0 Multiplicity = 1

 SCF Done:  E(RHF) =  -308.890060926     A.U. after   16 cycles

 1\1\GINC-SE220\Stability\RHF\Aug-CC-pVDZ\C6H12O1\OHZDE\09-Apr-2025\0\\
 #t hf aug-cc-pvdz symm=none int=(grid=ultrafine) guess=(read,tcheck) s
 table=(opt,rrhf)\\title\\0,1\C,0,1.94862004,-0.85502055,-0.35676423\C,
 0,0.62390727,-0.12557031,-0.1730331\O,0,0.5759255,0.30074077,1.2742233
 1\C,0,0.40367905,1.11060795,-0.93341645\C,0,-1.2877738,0.94502232,1.05
 760713\C,0,-1.78587119,-0.15132986,0.17714926\C,0,-0.58743174,-1.04324
 692,-0.20888032\H,0,2.78212215,-0.15687755,-0.26041261\H,0,1.98782534,
 -1.28478201,-1.35833109\H,0,2.08253172,-1.65671786,0.37278402\H,0,0.95

 Normal termination of Gaussian 16 at Wed Apr  9 16:36:35 2025.
 Gaussian 16:  ES64L-G16RevC.01  3-Jul-2019

 ----------------------------------------------------------------------
 #t hf aug-cc-pvdz iop(5/13=1,5/36=2,99/5=2) pseudo=read geom=check gue
 ss=(read,tcheck) scf=(maxcycle=1)
 ----------------------------------------------------------------------
 -----
 title
 -----
 Structure from the checkpoint file:  "Grambow2020_wb97xd3_008669_forward_mol1.chk"
 Charge =  0 Multiplicity = 1

                         Standard orientation:
 ---------------------------------------------------------------------
 Center     Atomic      Atomic             Coordinates (Angstroms)
 Number     Number       Type             X           Y           Z
 ---------------------------------------------------------------------
      1          6           0        2.145387    0.282312   -0.274590
      2          6           0        0.688215    0.039402    0.097380
      3          8           0        0.134416   -0.888706   -0.956430
      4          6           0        0.402049   -0.630417    1.371850
      5          6           0       -1.690625   -0.714723   -0.198569
      6          6           0       -1.643662    0.740769    0.124898
      7          6           0       -0.208070    1.246114   -0.129059
      8          1           0        2.725986   -0.633534   -0.149910
      9          1           0        2.566424    1.037073    0.390565
     10          1           0        2.256156    0.624650   -1.305816
     11          1           0        0.281008   -1.762825   -0.570507
     12          1           0        1.149313   -1.354442    1.696059
     13          1           0        0.053955   -0.003697    2.188160
     14          1           0       -2.030578   -1.000057   -1.188189
     15          1           0       -1.934319   -1.408444    0.588622
     16          1           0       -1.901165    0.875578    1.174904
     17          1           0       -2.358305    1.294431   -0.490303
     18          1           0        0.062796    2.073384    0.527980
     19          1           0       -0.106365    1.586797   -1.161585
 ---------------------------------------------------------------------

 SCF Done:  E(RHF) =  -308.984346043     A.U. after    2 cycles

 The electronic state is 1-A.
 Alpha  occ. eigenvalues --  -20.60156 -11.35031 -11.28214 -11.25694 -11.23753
 Alpha  occ. eigenvalues --  -11.21393 -11.13901  -1.34205  -1.09487  -1.02737
 Alpha  occ. eigenvalues --   -0.93012  -0.88481  -0.83110  -0.76308  -0.68990
 Alpha  occ. eigenvalues --   -0.65832  -0.64362  -0.62194  -0.58894  -0.56090
 Alpha  occ. eigenvalues --   -0.55459  -0.52878  -0.50941  -0.49755  -0.48925
 Alpha  occ. eigenvalues --   -0.45974  -0.44743  -0.23295
 Alpha virt. eigenvalues --    0.03065   0.03930   0.04378   0.04824   0.05908
 Alpha virt. eigenvalues --    0.06313   0.06619   0.06838   0.07213   0.08235
 Alpha virt. eigenvalues --    0.09342   0.09570   0.09718   0.12206   0.13055

 Mulliken charges:
               1
     1  C    0.790950
     2  C   -1.695211
     3  O   -0.662280
     4  C    0.697868
     5  C    1.077113
     6  C    0.209809
     7  C    0.678373
     8  H   -0.019604
     9  H    0.065017
    10  H   -0.001489
    11  H    0.338378
    12  H   -0.360998
    13  H   -0.388340
    14  H   -0.247911
    15  H   -0.183237
    16  H   -0.056536
    17  H   -0.073833
    18  H   -0.069233
    19  H   -0.098835
 Sum of Mulliken charges =  -0.00000

 Dipole moment (field-independent basis, Debye):
    X=             -2.7028    Y=              0.6534    Z=             -1.7618  Tot=              3.2918

 Test job not archived.
 1\1\GINC-SE220\SP\RHF\Aug-CC-pVDZ\C6H12O1\OHZDE\09-Apr-2025\0\\#t hf a
 ug-cc-pvdz iop(5/13=1,5/36=2,99/5=2) pseudo=read geom=check guess=(rea
 d,tcheck) scf=(maxcycle=1)\\title\\0,1\C,0,1.94862004,-0.85502055,-0.3
 5676423\C,0,0.62390727,-0.12557031,-0.1730331\O,0,0.5759255,0.30074077
 ,1.27422331\C,0,0.40367905,1.11060795,-0.93341645\C,0,-1.2877738,0.945
 02232,1.05760713\C,0,-1.78587119,-0.15132986,0.17714926\C,0,-0.5874317
 4,-1.04324692,-0.20888032\H,0,2.78212215,-0.15687755,-0.26041261\H,0,1
 .98782534,-1.28478201,-1.35833109\H,0,2.08253172,-1.65671786,0.3727840

 Normal termination of Gaussian 16 at Wed Apr  9 16:36:43 2025.
