 Gaussian 16, Revision C.01,

 ----------------------------------------------------------------------
 #t hf aug-cc-pvdz symm=none int=(grid=ultrafine) guess=(read,tcheck) s
 table=(opt,rrhf)
 ----------------------------------------------------------------------
 -----
 title
 -----
 Symbolic Z-matrix:
 Charge =  0 Multiplicity = 1

 SCF Done:  E(RHF) =  -308.788093134     A.U. after   15 cycles

 1\1\GINC-SE114\Stability\RHF\Aug-CC-pVDZ\C6H12O1\OHZDE\09-Apr-2025\0\\
 #t hf aug-cc-pvdz symm=none int=(grid=ultrafine) guess=(read,tcheck) s
 table=(opt,rrhf)\\title\\0,1\C,0,1.66943419,-0.10405397,-1.21104664\C,
 0,1.27922784,0.60108335,0.07327646\O,0,0.95800703,1.99804325,-0.159760
 61\C,0,-0.45856342,1.7629701,-0.04477017\C,0,-0.08260199,0.53772234,0.
 75668535\C,0,-0.95571138,-1.0166722,1.52054122\C,0,-1.14489136,-0.9394
 0081,-0.28510835\H,0,2.62478595,0.29329598,-1.55788684\H,0,1.79102235,
 -1.17637022,-1.04031935\H,0,0.94118202,0.04494848,-2.00893814\H,0,2.10

 Normal termination of Gaussian 16 at Wed Apr  9 14:31:59 2025.
 Gaussian 16:  ES64L-G16RevC.01  3-Jul-2019

 ----------------------------------------------------------------------
 #t hf aug-cc-pvdz iop(5/13=1,5/36=2,99/5=2) pseudo=read geom=check gue
 ss=(read,tcheck) scf=(maxcycle=1)
 ----------------------------------------------------------------------
 -----
 title
 -----
 Structure from the checkpoint file:  "Grambow2020_wb97xd3_006571_reverse_mol1.chk"
 Charge =  0 Multiplicity = 1

                         Standard orientation:
 ---------------------------------------------------------------------
 Center     Atomic      Atomic             Coordinates (Angstroms)
 Number     Number       Type             X           Y           Z
 ---------------------------------------------------------------------
      1          6           0        1.254784    1.585520    0.105912
      2          6           0        0.925664    0.307139   -0.640002
      3          8           0        1.677721   -0.822555   -0.123097
      4          6           0        0.534234   -1.353188    0.574054
      5          6           0       -0.298803   -0.574392   -0.418133
      6          6           0       -2.161382   -0.109698   -0.695259
      7          6           0       -1.524228    0.516668    0.887090
      8          1           0        2.282328    1.874392   -0.121219
      9          1           0        0.596859    2.397689   -0.212381
     10          1           0        1.175684    1.471873    1.187583
     11          1           0        1.142448    0.454017   -1.705318
     12          1           0        0.542556   -1.053338    1.635163
     13          1           0        0.485662   -2.443329    0.512012
     14          1           0       -1.868908    0.315360   -1.649798
     15          1           0       -3.087135    0.421182   -0.405847
     16          1           0       -2.429680   -1.152885   -0.807599
     17          1           0       -1.789798    1.558821    0.736148
     18          1           0       -0.590830    0.494784    1.431634
     19          1           0       -2.262566    0.009577    1.502420
 ---------------------------------------------------------------------

 SCF Done:  E(RHF) =  -308.885019277     A.U. after    2 cycles

 The electronic state is 1-A.
 Alpha  occ. eigenvalues --  -20.56530 -11.28922 -11.28397 -11.28334 -11.26714
 Alpha  occ. eigenvalues --  -11.24340 -11.22890  -1.34563  -1.04119  -1.00501
 Alpha  occ. eigenvalues --   -0.94242  -0.89550  -0.87337  -0.71764  -0.67858
 Alpha  occ. eigenvalues --   -0.64772  -0.63529  -0.59876  -0.57618  -0.56447
 Alpha  occ. eigenvalues --   -0.55511  -0.54771  -0.53037  -0.52517  -0.46223
 Alpha  occ. eigenvalues --   -0.45234  -0.43464  -0.28257
 Alpha virt. eigenvalues --    0.03050   0.04108   0.04196   0.04646   0.06176
 Alpha virt. eigenvalues --    0.06265   0.06555   0.06969   0.07369   0.09130
 Alpha virt. eigenvalues --    0.09472   0.10086   0.11804   0.12407   0.12728

 Mulliken charges:
               1
     1  C    0.307735
     2  C    0.607932
     3  O   -0.801282
     4  C    0.923705
     5  C   -0.881197
     6  C    0.830140
     7  C    0.739892
     8  H   -0.082459
     9  H    0.026574
    10  H   -0.007606
    11  H   -0.284486
    12  H   -0.136290
    13  H   -0.227721
    14  H   -0.016921
    15  H   -0.308189
    16  H   -0.025493
    17  H   -0.063208
    18  H   -0.551249
    19  H   -0.049876
 Sum of Mulliken charges =  -0.00000

 Dipole moment (field-independent basis, Debye):
    X=             -2.5949    Y=              1.7708    Z=              1.1862  Tot=              3.3581

 Test job not archived.
 1\1\GINC-SE114\SP\RHF\Aug-CC-pVDZ\C6H12O1\OHZDE\09-Apr-2025\0\\#t hf a
 ug-cc-pvdz iop(5/13=1,5/36=2,99/5=2) pseudo=read geom=check guess=(rea
 d,tcheck) scf=(maxcycle=1)\\title\\0,1\C,0,1.66943419,-0.10405397,-1.2
 1104664\C,0,1.27922784,0.60108335,0.07327646\O,0,0.95800703,1.99804325
 ,-0.15976061\C,0,-0.45856342,1.7629701,-0.04477017\C,0,-0.08260199,0.5
 3772234,0.75668535\C,0,-0.95571138,-1.0166722,1.52054122\C,0,-1.144891
 36,-0.93940081,-0.28510835\H,0,2.62478595,0.29329598,-1.55788684\H,0,1
 .79102235,-1.17637022,-1.04031935\H,0,0.94118202,0.04494848,-2.0089381

 Normal termination of Gaussian 16 at Wed Apr  9 14:32:07 2025.
