 Gaussian 16, Revision C.01,

 ----------------------------------------------------------------------
 #t hf aug-cc-pvdz symm=none int=(grid=ultrafine) guess=(read,tcheck) s
 table=(opt,rrhf)
 ----------------------------------------------------------------------
 -----
 title
 -----
 Symbolic Z-matrix:
 Charge =  0 Multiplicity = 1

 SCF Done:  E(RHF) =  -343.735353269     A.U. after   15 cycles
 Normal termination of Gaussian 16 at Wed Apr  9 17:01:25 2025.
 Gaussian 16:  ES64L-G16RevC.01  3-Jul-2019

 ----------------------------------------------------------------------
 #t hf aug-cc-pvdz iop(5/13=1,5/36=2,99/5=2) pseudo=read geom=check gue
 ss=(read,tcheck) scf=(maxcycle=1)
 ----------------------------------------------------------------------
 -----
 title
 -----
 Structure from the checkpoint file:  "Grambow2020_wb97xd3_009116_forward_mol2.chk"
 Charge =  0 Multiplicity = 1

                         Standard orientation:
 ---------------------------------------------------------------------
 Center     Atomic      Atomic             Coordinates (Angstroms)
 Number     Number       Type             X           Y           Z
 ---------------------------------------------------------------------
      1          6           0        1.637010   -1.218780   -0.035282
      2          6           0        0.956683    0.121513    0.020342
      3          8           0        1.592869    1.152516    0.060531
      4          6           0       -0.531674    0.214706   -0.012876
      5          8           0       -0.986381    1.519122   -0.090327
      6          6           0       -1.368686   -0.754038    0.784723
      7          6           0       -1.349156   -0.836947   -0.709059
      8          1           0        2.637328   -1.127311    0.381804
      9          1           0        1.084967   -2.000659    0.484227
     10          1           0        1.728459   -1.514100   -1.083500
     11          1           0       -0.191944    2.067703   -0.019572
     12          1           0       -2.235825   -0.303711    1.247817
     13          1           0       -0.885738   -1.528935    1.364902
     14          1           0       -0.846269   -1.670717   -1.181161
     15          1           0       -2.207942   -0.454098   -1.243245
 ---------------------------------------------------------------------

 SCF Done:  E(RHF) =  -343.843742495     A.U. after    2 cycles

 The electronic state is 1-A.
 Alpha  occ. eigenvalues --  -20.57434 -20.57393 -11.35619 -11.31236 -11.25699
 Alpha  occ. eigenvalues --  -11.25487 -11.25428  -1.38188  -1.33178  -1.14819
 Alpha  occ. eigenvalues --   -1.02046  -0.88649  -0.84846  -0.77972  -0.72506
 Alpha  occ. eigenvalues --   -0.68300  -0.64614  -0.63016  -0.62400  -0.59535
 Alpha  occ. eigenvalues --   -0.58976  -0.55124  -0.53355  -0.52066  -0.48352
 Alpha  occ. eigenvalues --   -0.43289  -0.40199
 Alpha virt. eigenvalues --    0.03099   0.04188   0.04400   0.05287   0.06354
 Alpha virt. eigenvalues --    0.06848   0.07497   0.07929   0.09868   0.11384
 Alpha virt. eigenvalues --    0.11741   0.12950   0.13694   0.14480   0.15079

 Mulliken charges:
               1
     1  C    0.470498
     2  C   -0.084724
     3  O   -0.564413
     4  C    0.558684
     5  O   -0.646384
     6  C    0.635824
     7  C    0.639382
     8  H   -0.120436
     9  H   -0.065442
    10  H    0.148542
    11  H    0.162025
    12  H   -0.229672
    13  H   -0.337986
    14  H   -0.361166
    15  H   -0.204732
 Sum of Mulliken charges =  -0.00000

 Dipole moment (field-independent basis, Debye):
    X=             -0.2362    Y=             -3.7511    Z=              0.0215  Tot=              3.7586

 Test job not archived.
 1\1\GINC-SE173\SP\RHF\Aug-CC-pVDZ\C5H8O2\OHZDE\09-Apr-2025\0\\#t hf au
 g-cc-pvdz iop(5/13=1,5/36=2,99/5=2) pseudo=read geom=check guess=(read
 ,tcheck) scf=(maxcycle=1)\\title\\0,1\C,0,1.52125078,0.2448789,-1.0752
 9558\C,0,1.01514779,-0.54625297,0.09956415\O,0,1.71762238,-1.3544002,0
 .66766609\C,0,-0.36404779,-0.32331489,0.62216679\O,0,-0.61944565,-1.03
 170201,1.78286497\C,0,-1.51591459,-0.14207515,-0.33468925\C,0,-1.02999
 112,1.01634057,0.4780779\H,0,2.33961185,-0.29760703,-1.54322455\H,0,0.
 74745083,0.46185507,-1.81023074\H,0,1.90853017,1.19784815,-0.70623834\

 Normal termination of Gaussian 16 at Wed Apr  9 17:01:30 2025.
