 Gaussian 16, Revision C.01,

 ----------------------------------------------------------------------
 #t hf aug-cc-pvdz symm=none int=(grid=ultrafine) guess=(read,tcheck) s
 table=(opt,rrhf)
 ----------------------------------------------------------------------
 -----
 title
 -----
 Symbolic Z-matrix:
 Charge =  0 Multiplicity = 1

 SCF Done:  E(RHF) =  -379.552137955     A.U. after   13 cycles
 Normal termination of Gaussian 16 at Wed Apr  9 16:31:56 2025.
 Gaussian 16:  ES64L-G16RevC.01  3-Jul-2019

 ----------------------------------------------------------------------
 #t hf aug-cc-pvdz iop(5/13=1,5/36=2,99/5=2) pseudo=read geom=check gue
 ss=(read,tcheck) scf=(maxcycle=1)
 ----------------------------------------------------------------------
 -----
 title
 -----
 Structure from the checkpoint file:  "Grambow2020_wb97xd3_008537_forward_mol2.chk"
 Charge =  0 Multiplicity = 1

                         Standard orientation:
 ---------------------------------------------------------------------
 Center     Atomic      Atomic             Coordinates (Angstroms)
 Number     Number       Type             X           Y           Z
 ---------------------------------------------------------------------
      1          8           0        0.641421    1.522875    0.001027
      2          6           0        0.058874    0.271122   -0.000675
      3          6           0       -1.064221   -0.001696   -1.024190
      4          8           0       -1.907247   -0.539725    0.000671
      5          6           0       -1.060752   -0.007581    1.025915
      6          6           0        1.102921   -0.813660   -0.004155
      7          8           0        2.277971   -0.563030    0.000579
      8          1           0        1.599438    1.387768    0.006834
      9          1           0       -0.877172   -0.718393   -1.827773
     10          1           0       -1.450513    0.935171   -1.436377
     11          1           0       -1.445149    0.927375    1.443883
     12          1           0       -0.871613   -0.728361    1.825279
     13          1           0        0.726911   -1.853643   -0.011435
 ---------------------------------------------------------------------

 SCF Done:  E(RHF) =  -379.671054852     A.U. after    2 cycles

 The electronic state is 1-A.
 Alpha  occ. eigenvalues --  -20.60533 -20.59405 -20.58825 -11.36878 -11.32607
 Alpha  occ. eigenvalues --  -11.31150 -11.31147  -1.40706  -1.37732  -1.34521
 Alpha  occ. eigenvalues --   -1.04117  -0.96376  -0.88594  -0.79075  -0.76371
 Alpha  occ. eigenvalues --   -0.72698  -0.69723  -0.67055  -0.66235  -0.60339
 Alpha  occ. eigenvalues --   -0.58649  -0.58139  -0.55691  -0.53103  -0.48130
 Alpha  occ. eigenvalues --   -0.45492  -0.43939
 Alpha virt. eigenvalues --    0.03393   0.04380   0.04554   0.05547   0.06614
 Alpha virt. eigenvalues --    0.06775   0.08901   0.09863   0.10406   0.10771
 Alpha virt. eigenvalues --    0.13710   0.13758   0.14610   0.14987   0.15093

 Mulliken charges:
               1
     1  O   -0.612163
     2  C   -0.235799
     3  C    0.869405
     4  O   -0.718119
     5  C    0.870431
     6  C    0.831321
     7  O   -0.461683
     8  H    0.173527
     9  H   -0.159387
    10  H   -0.134887
    11  H   -0.135594
    12  H   -0.159981
    13  H   -0.127069
 Sum of Mulliken charges =  -0.00000

 Dipole moment (field-independent basis, Debye):
    X=             -0.5880    Y=             -0.7560    Z=             -0.0022  Tot=              0.9578

 Test job not archived.
 1\1\GINC-SE173\SP\RHF\Aug-CC-pVDZ\C4H6O3\OHZDE\09-Apr-2025\0\\#t hf au
 g-cc-pvdz iop(5/13=1,5/36=2,99/5=2) pseudo=read geom=check guess=(read
 ,tcheck) scf=(maxcycle=1)\\title\\0,1\O,0,1.02192014,0.54230623,-1.299
 73988\C,0,0.27074888,0.09262306,-0.23213682\C,0,-0.91393159,-0.8516769
 3,-0.52909564\O,0,-1.78803724,-0.05673,0.27991998\C,0,-0.84085366,1.01
 692075,0.31112871\C,0,1.15252788,-0.43510308,0.86821263\O,0,2.35051242
 ,-0.43412419,0.77648836\H,0,1.95135215,0.40946888,-1.06608579\H,0,-0.8
 5641644,-1.88750949,-0.18539346\H,0,-1.17969881,-0.82019849,-1.5898585

 Normal termination of Gaussian 16 at Wed Apr  9 16:32:01 2025.
