 Gaussian 16, Revision C.01,

 ----------------------------------------------------------------------
 #t hf aug-cc-pvdz symm=none int=(grid=ultrafine) guess=(read,tcheck) s
 table=(opt,rrhf)
 ----------------------------------------------------------------------
 -----
 title
 -----
 Symbolic Z-matrix:
 Charge =  0 Multiplicity = 1

 SCF Done:  E(RHF) =  -283.680539411     A.U. after   16 cycles
 Normal termination of Gaussian 16 at Wed Apr  9 14:25:09 2025.
 Gaussian 16:  ES64L-G16RevC.01  3-Jul-2019

 ----------------------------------------------------------------------
 #t hf aug-cc-pvdz iop(5/13=1,5/36=2,99/5=2) pseudo=read geom=check gue
 ss=(read,tcheck) scf=(maxcycle=1)
 ----------------------------------------------------------------------
 -----
 title
 -----
 Structure from the checkpoint file:  "Grambow2020_wb97xd3_006231_reverse_mol2.chk"
 Charge =  0 Multiplicity = 1

                         Standard orientation:
 ---------------------------------------------------------------------
 Center     Atomic      Atomic             Coordinates (Angstroms)
 Number     Number       Type             X           Y           Z
 ---------------------------------------------------------------------
      1          8           0        2.159671   -0.782765   -0.226602
      2          6           0        1.426977    0.083797    0.006506
      3          6           0        0.598124    1.062515    0.292376
      4          6           0       -0.808500    1.112930   -0.132973
      5          6           0       -1.640365    0.069031   -0.180714
      6          7           0       -1.327341   -1.243805    0.130456
      7          1           0        1.046289    1.891132    0.827968
      8          1           0       -0.542051   -1.368301    0.751639
      9          1           0       -1.187212    2.080043   -0.434882
     10          1           0       -2.651368    0.217919   -0.541778
     11          1           0       -2.109047   -1.821676    0.385510
 ---------------------------------------------------------------------

 SCF Done:  E(RHF) =  -283.770260648     A.U. after    2 cycles

 The electronic state is 1-A.
 Alpha  occ. eigenvalues --  -20.63904 -15.63585 -11.38765 -11.28441 -11.25292
 Alpha  occ. eigenvalues --  -11.23849  -1.43726  -1.19276  -1.07861  -0.97815
 Alpha  occ. eigenvalues --   -0.81098  -0.75510  -0.72663  -0.67858  -0.66166
 Alpha  occ. eigenvalues --   -0.65310  -0.60217  -0.57885  -0.53505  -0.50521
 Alpha  occ. eigenvalues --   -0.39713  -0.29595
 Alpha virt. eigenvalues --    0.03089   0.03874   0.04391   0.06280   0.07301
 Alpha virt. eigenvalues --    0.08071   0.11054   0.11806   0.12663   0.12919
 Alpha virt. eigenvalues --    0.13554   0.14348   0.14845   0.14982   0.15754

 Mulliken charges:
               1
     1  O   -0.250397
     2  C   -0.460327
     3  C    0.873993
     4  C    0.523668
     5  C    0.637286
     6  N   -0.270314
     7  H   -0.275047
     8  H   -0.021624
     9  H   -0.401038
    10  H   -0.356337
    11  H    0.000135
 Sum of Mulliken charges =  -0.00000

 Dipole moment (field-independent basis, Debye):
    X=             -2.1404    Y=              0.7305    Z=              1.3600  Tot=              2.6391

 Test job not archived.
 1\1\GINC-SE009\SP\RHF\Aug-CC-pVDZ\C4H5N1O1\OHZDE\09-Apr-2025\0\\#t hf
 aug-cc-pvdz iop(5/13=1,5/36=2,99/5=2) pseudo=read geom=check guess=(re
 ad,tcheck) scf=(maxcycle=1)\\title\\0,1\O,0,-1.83680108,1.88301662,-0.
 89761786\C,0,-1.51104064,0.77551339,-0.80052473\C,0,-1.15401562,-0.482
 54954,-0.67239196\C,0,0.22707571,-0.93771976,-0.4545371\C,0,1.13004372
 ,-0.3278921,0.31796566\N,0,0.94342781,0.84806455,1.02553098\H,0,-1.959
 47813,-1.19554608,-0.80347614\H,0,-0.01394359,1.0724785,1.25164388\H,0
 ,0.52575428,-1.83899692,-0.97258167\H,0,2.13168857,-0.73717661,0.38006

 Normal termination of Gaussian 16 at Wed Apr  9 14:25:13 2025.
