 Gaussian 16, Revision C.01,

 ----------------------------------------------------------------------
 #t hf aug-cc-pvdz symm=none int=(grid=ultrafine) guess=(read,tcheck) s
 table=(opt,rrhf)
 ----------------------------------------------------------------------
 -----
 title
 -----
 Symbolic Z-matrix:
 Charge =  0 Multiplicity = 1

 SCF Done:  E(RHF) =  -232.815036901     A.U. after   18 cycles
 Normal termination of Gaussian 16 at Wed Apr  9 14:17:29 2025.
 Gaussian 16:  ES64L-G16RevC.01  3-Jul-2019

 ----------------------------------------------------------------------
 #t hf aug-cc-pvdz iop(5/13=1,5/36=2,99/5=2) pseudo=read geom=check gue
 ss=(read,tcheck) scf=(maxcycle=1)
 ----------------------------------------------------------------------
 -----
 title
 -----
 Structure from the checkpoint file:  "Grambow2020_b97d3_006952_forward_mol1.chk"
 Charge =  0 Multiplicity = 1

                         Standard orientation:
 ---------------------------------------------------------------------
 Center     Atomic      Atomic             Coordinates (Angstroms)
 Number     Number       Type             X           Y           Z
 ---------------------------------------------------------------------
      1          6           0       -2.105447    0.310723    0.282068
      2          6           0       -0.782232   -0.005002   -0.430649
      3          6           0       -0.034502   -1.279858    0.098512
      4          6           0        1.410511   -0.860966    0.059561
      5          6           0        1.509962    0.522413   -0.022727
      6          6           0        0.259706    1.069582   -0.241611
      7          1           0       -2.579074    1.208949   -0.137195
      8          1           0       -1.935953    0.478256    1.354996
      9          1           0       -2.806764   -0.528400    0.173373
     10          1           0       -0.991741   -0.152523   -1.507017
     11          1           0       -0.390723   -1.525012    1.117470
     12          1           0       -0.210806   -2.177310   -0.514227
     13          1           0        2.241421   -1.563768    0.013969
     14          1           0        2.371800    1.254244    0.276439
     15          1           0        2.719804    2.329529    0.937489
     16          1           0        0.034050    2.134687   -0.186223
 ---------------------------------------------------------------------

 SCF Done:  E(RHF) =  -232.885408934     A.U. after    2 cycles

 The electronic state is 1-A.
 Alpha  occ. eigenvalues --  -11.33604 -11.32882 -11.29809 -11.29057 -11.26814
 Alpha  occ. eigenvalues --  -11.24959  -1.19095  -1.05154  -1.00714  -0.92634
 Alpha  occ. eigenvalues --   -0.81741  -0.77635  -0.71853  -0.66882  -0.61226
 Alpha  occ. eigenvalues --   -0.60177  -0.58950  -0.56710  -0.54155  -0.52485
 Alpha  occ. eigenvalues --   -0.51484  -0.42131  -0.22094
 Alpha virt. eigenvalues --   -0.01927   0.01906   0.03128   0.03539   0.04262
 Alpha virt. eigenvalues --    0.05528   0.05873   0.06655   0.07537   0.09172
 Alpha virt. eigenvalues --    0.10060   0.11285   0.11928   0.12812   0.13117

 Mulliken charges:
               1
     1  C    0.554582
     2  C   -0.568963
     3  C    0.309245
     4  C    0.193597
     5  C    0.134651
     6  C    0.631006
     7  H   -0.068479
     8  H    0.008800
     9  H   -0.036112
    10  H    0.009224
    11  H    0.016000
    12  H    0.002669
    13  H   -0.233954
    14  H   -0.048620
    15  H   -0.573224
    16  H   -0.330421
 Sum of Mulliken charges =  -0.00000

 Dipole moment (field-independent basis, Debye):
    X=             -6.4604    Y=             -6.3791    Z=             -2.8223  Tot=              9.5076

 Test job not archived.
 1\1\GINC-SE049\SP\RHF\Aug-CC-pVDZ\C6H10\OHZDE\09-Apr-2025\0\\#t hf aug
 -cc-pvdz iop(5/13=1,5/36=2,99/5=2) pseudo=read geom=check guess=(read,
 tcheck) scf=(maxcycle=1)\\title\\0,1\C,0,2.02402769,-0.31057096,-0.035
 33705\C,0,0.57283937,-0.47883487,0.4382484\C,0,-0.39060785,-1.14395203
 ,-0.60758207\C,0,-1.66746333,-0.36785646,-0.42768055\C,0,-1.4176147,0.
 82418784,0.24090438\C,0,-0.11589862,0.83658569,0.70547446\H,0,2.645110
 8,0.1550534,0.74207273\H,0,2.06626324,0.31957974,-0.93483432\H,0,2.460
 48797,-1.28857676,-0.2819017\H,0,0.57344529,-1.10498292,1.350478\H,0,0

 Normal termination of Gaussian 16 at Wed Apr  9 14:17:34 2025.
