 Gaussian 16, Revision C.01,

 ----------------------------------------------------------------------
 #t hf aug-cc-pvdz symm=none int=(grid=ultrafine) guess=(read,tcheck) s
 table=(opt,rrhf)
 ----------------------------------------------------------------------
 -----
 title
 -----
 Symbolic Z-matrix:
 Charge =  0 Multiplicity = 1

 SCF Done:  E(RHF) =  -302.744303477     A.U. after   15 cycles
 Normal termination of Gaussian 16 at Wed Apr  9 16:46:13 2025.
 Gaussian 16:  ES64L-G16RevC.01  3-Jul-2019

 ----------------------------------------------------------------------
 #t hf aug-cc-pvdz iop(5/13=1,5/36=2,99/5=2) pseudo=read geom=check gue
 ss=(read,tcheck) scf=(maxcycle=1)
 ----------------------------------------------------------------------
 -----
 title
 -----
 Structure from the checkpoint file:  "Grambow2020_wb97xd3_008870_reverse_mol1.chk"
 Charge =  0 Multiplicity = 1

                         Standard orientation:
 ---------------------------------------------------------------------
 Center     Atomic      Atomic             Coordinates (Angstroms)
 Number     Number       Type             X           Y           Z
 ---------------------------------------------------------------------
      1          6           0       -2.593482   -0.508735    0.285039
      2          7           0       -1.081222   -0.108572   -0.292492
      3          6           0       -0.664987    1.213090   -0.116326
      4          6           0        0.663794    1.231914    0.076307
      5          6           0        1.138473   -0.136918    0.007759
      6          7           0        2.458480   -0.499967    0.222003
      7          6           0        0.065750   -0.929425   -0.220400
      8          1           0       -1.895281   -0.190391   -1.005370
      9          1           0       -2.478932   -1.589569    0.388963
     10          1           0       -2.613499   -0.051995    1.275521
     11          1           0       -1.399131    2.002625   -0.138625
     12          1           0        1.274502    2.105595    0.246896
     13          1           0        3.134677    0.186219   -0.067826
     14          1           0        2.704799   -1.423885   -0.090359
     15          1           0       -0.025227   -1.998375   -0.310049
 ---------------------------------------------------------------------

 SCF Done:  E(RHF) =  -302.836262835     A.U. after    2 cycles

 The electronic state is 1-A.
 Alpha  occ. eigenvalues --  -15.69371 -15.64370 -11.29766 -11.29159 -11.26317
 Alpha  occ. eigenvalues --  -11.25226 -11.21756  -1.28849  -1.19496  -1.06177
 Alpha  occ. eigenvalues --   -0.99409  -0.87903  -0.79365  -0.78849  -0.74339
 Alpha  occ. eigenvalues --   -0.69276  -0.65667  -0.61757  -0.59709  -0.57400
 Alpha  occ. eigenvalues --   -0.55057  -0.51571  -0.49834  -0.37627  -0.31320
 Alpha  occ. eigenvalues --   -0.30444
 Alpha virt. eigenvalues --    0.02558   0.03363   0.04336   0.05570   0.05931
 Alpha virt. eigenvalues --    0.06466   0.08621   0.08789   0.10339   0.10861
 Alpha virt. eigenvalues --    0.11653   0.12644   0.13471   0.13854   0.14539

 Mulliken charges:
               1
     1  C    0.307186
     2  N   -0.722419
     3  C    0.289877
     4  C    0.910401
     5  C   -0.268975
     6  N   -0.334067
     7  C    1.158426
     8  H    0.455513
     9  H   -0.307166
    10  H   -0.249548
    11  H   -0.363421
    12  H   -0.416885
    13  H   -0.042148
    14  H   -0.018634
    15  H   -0.398141
 Sum of Mulliken charges =   0.00000

 Dipole moment (field-independent basis, Debye):
    X=              4.2635    Y=              0.3706    Z=             -1.1513  Tot=              4.4318

 Test job not archived.
 1\1\GINC-SE219\SP\RHF\Aug-CC-pVDZ\C5H8N2\OHZDE\09-Apr-2025\0\\#t hf au
 g-cc-pvdz iop(5/13=1,5/36=2,99/5=2) pseudo=read geom=check guess=(read
 ,tcheck) scf=(maxcycle=1)\\title\\0,1\C,0,2.53672504,0.25936209,0.1770
 6275\N,0,0.98472601,-0.11561006,-0.30387129\C,0,0.44228885,-1.30850248
 ,0.17970477\C,0,-0.87914906,-1.14873692,0.35689968\C,0,-1.21708076,0.2
 038548,-0.04312348\N,0,-2.49175421,0.73672844,0.06353732\C,0,-0.074427
 91,0.80815081,-0.44316001\H,0,1.79327328,-0.28823081,-1.00674638\H,0,2
 .53096731,1.33945946,0.01743338\H,0,2.52475036,0.0537523,1.24834545\H,

 Normal termination of Gaussian 16 at Wed Apr  9 16:46:18 2025.
