 Gaussian 16, Revision C.01,

 ----------------------------------------------------------------------
 #t hf aug-cc-pvdz symm=none int=(grid=ultrafine) guess=(read,tcheck) s
 table=(opt,rrhf)
 ----------------------------------------------------------------------
 -----
 title
 -----
 Symbolic Z-matrix:
 Charge =  0 Multiplicity = 1

 SCF Done:  E(RHF) =  -306.549327002     A.U. after   15 cycles
 Normal termination of Gaussian 16 at Wed Apr  9 16:23:08 2025.
 Gaussian 16:  ES64L-G16RevC.01  3-Jul-2019

 ----------------------------------------------------------------------
 #t hf aug-cc-pvdz iop(5/13=1,5/36=2,99/5=2) pseudo=read geom=check gue
 ss=(read,tcheck) scf=(maxcycle=1)
 ----------------------------------------------------------------------
 -----
 title
 -----
 Structure from the checkpoint file:  "Grambow2020_wb97xd3_008166_forward_mol1.chk"
 Charge =  0 Multiplicity = 1

                         Standard orientation:
 ---------------------------------------------------------------------
 Center     Atomic      Atomic             Coordinates (Angstroms)
 Number     Number       Type             X           Y           Z
 ---------------------------------------------------------------------
      1          8           0        2.164012   -0.277331   -0.014585
      2          6           0        0.821157   -0.026965   -0.170451
      3          6           0        0.158135    1.345960   -0.245633
      4          6           0       -1.053771    0.717648    0.461104
      5          6           0       -1.702462   -0.297954   -0.491001
      6          6           0       -0.596411   -1.344634   -0.235320
      7          6           0       -0.138774   -0.466316    0.912578
      8          1           0        2.600322   -0.263144   -0.869239
      9          1           0        0.022871    1.823309   -1.218866
     10          1           0        0.688591    2.015386    0.432433
     11          1           0       -1.666862    1.345803    1.103871
     12          1           0       -2.584081   -0.747366   -0.024904
     13          1           0       -1.956519   -0.005704   -1.512857
     14          1           0        0.436348   -0.739440   -1.067210
     15          1           0        0.219990   -0.776634    1.885789
 ---------------------------------------------------------------------

 SCF Done:  E(RHF) =  -306.638155709     A.U. after    2 cycles

 The electronic state is 1-A.
 Alpha  occ. eigenvalues --  -20.60388 -11.33113 -11.25844 -11.25084 -11.24996
 Alpha  occ. eigenvalues --  -11.24505 -11.23891  -1.36618  -1.21193  -0.99770
 Alpha  occ. eigenvalues --   -0.96015  -0.86630  -0.79573  -0.75031  -0.69565
 Alpha  occ. eigenvalues --   -0.67185  -0.64909  -0.61322  -0.57628  -0.56060
 Alpha  occ. eigenvalues --   -0.52244  -0.49638  -0.46454  -0.43716  -0.41629
 Alpha  occ. eigenvalues --   -0.33478
 Alpha virt. eigenvalues --    0.02983   0.03673   0.04457   0.04954   0.06034
 Alpha virt. eigenvalues --    0.06715   0.06872   0.08065   0.10041   0.11711
 Alpha virt. eigenvalues --    0.12043   0.12800   0.13512   0.14392   0.14752

 Mulliken charges:
               1
     1  O   -0.562024
     2  C    0.097958
     3  C    0.647623
     4  C    0.276248
     5  C    0.619400
     6  C   -0.698785
     7  C    0.445016
     8  H    0.143511
     9  H   -0.181276
    10  H   -0.067455
    11  H   -0.367619
    12  H   -0.098363
    13  H   -0.236436
    14  H    0.299145
    15  H   -0.316944
 Sum of Mulliken charges =  -0.00000

 Dipole moment (field-independent basis, Debye):
    X=             -0.1364    Y=              2.9284    Z=             -0.7799  Tot=              3.0335

 Test job not archived.
 1\1\GINC-SE097\SP\RHF\Aug-CC-pVDZ\C6H8O1\OHZDE\09-Apr-2025\0\\#t hf au
 g-cc-pvdz iop(5/13=1,5/36=2,99/5=2) pseudo=read geom=check guess=(read
 ,tcheck) scf=(maxcycle=1)\\title\\0,1\O,0,2.08628165,0.93580296,-0.669
 95315\C,0,0.91452368,0.42172768,-0.16701632\C,0,0.69735192,-0.99636117
 ,0.35455417\C,0,-0.73878572,-0.89544339,-0.18423506\C,0,-1.4979197,0.1
 5389646,0.64120552\C,0,-0.79582274,1.32555609,-0.07888634\C,0,-0.28723
 843,0.30474797,-1.07780403\H,0,2.63498181,1.26053353,0.04731923\H,0,0.
 85862758,-1.20839178,1.41397588\H,0,1.28707435,-1.67701473,-0.26044727

 Normal termination of Gaussian 16 at Wed Apr  9 16:23:13 2025.
