 Gaussian 16, Revision C.01,

 ----------------------------------------------------------------------
 #t hf aug-cc-pvdz symm=none int=(grid=ultrafine) guess=(read,tcheck) s
 table=(opt,rrhf)
 ----------------------------------------------------------------------
 -----
 title
 -----
 Symbolic Z-matrix:
 Charge =  0 Multiplicity = 1

 SCF Done:  E(RHF) =  -186.833380831     A.U. after   15 cycles
 Normal termination of Gaussian 16 at Wed Apr  9 03:06:34 2025.
 Gaussian 16:  ES64L-G16RevC.01  3-Jul-2019

 ----------------------------------------------------------------------
 #t hf aug-cc-pvdz iop(5/13=1,5/36=2,99/5=2) pseudo=read geom=check gue
 ss=(read,tcheck) scf=(maxcycle=1)
 ----------------------------------------------------------------------
 -----
 title
 -----
 Structure from the checkpoint file:  "Grambow2020_b97d3_006606_reverse_mol1.chk"
 Charge =  0 Multiplicity = 1

                         Standard orientation:
 ---------------------------------------------------------------------
 Center     Atomic      Atomic             Coordinates (Angstroms)
 Number     Number       Type             X           Y           Z
 ---------------------------------------------------------------------
      1          7           0        1.572648   -0.411498    0.010161
      2          6           0        0.408026    0.702999   -0.110846
      3          6           0       -0.885358    0.154062    0.011225
      4          7           0       -1.958563   -0.336599    0.026482
      5          1           0        2.097586   -0.451792    0.892264
      6          1           0        1.233041   -1.324510   -0.292865
      7          1           0        1.561540    0.376096   -0.849321
      8          1           0        0.673231    1.494512    0.591148
 ---------------------------------------------------------------------

 SCF Done:  E(RHF) =  -186.889184635     A.U. after    2 cycles

 The electronic state is 1-A.
 Alpha  occ. eigenvalues --  -15.71821 -15.62240 -11.28416 -11.27912  -1.22831
 Alpha  occ. eigenvalues --   -1.15756  -0.95740  -0.77734  -0.75061  -0.62570
 Alpha  occ. eigenvalues --   -0.56435  -0.52832  -0.47781  -0.43446  -0.33155
 Alpha virt. eigenvalues --    0.01774   0.03805   0.04396   0.05785   0.09729
 Alpha virt. eigenvalues --    0.11092   0.11831   0.12591   0.13355   0.14058
 Alpha virt. eigenvalues --    0.16098   0.17169   0.18203   0.18721   0.19614

 Mulliken charges:
               1
     1  N   -0.469896
     2  C    0.535552
     3  C   -0.227855
     4  N   -0.260762
     5  H    0.092233
     6  H    0.103411
     7  H    0.443288
     8  H   -0.215972
 Sum of Mulliken charges =   0.00000

 Dipole moment (field-independent basis, Debye):
    X=              6.1231    Y=             -0.6938    Z=              1.0548  Tot=              6.2519

 Test job not archived.
 1\1\GINC-SE070\SP\RHF\Aug-CC-pVDZ\C2H4N2\OHZDE\09-Apr-2025\0\\#t hf au
 g-cc-pvdz iop(5/13=1,5/36=2,99/5=2) pseudo=read geom=check guess=(read
 ,tcheck) scf=(maxcycle=1)\\title\\0,1\N,0,-1.00456428,-0.35128891,0.26
 766448\C,0,0.1881459,0.66451009,-0.13068889\C,0,1.45186607,0.03868015,
 -0.15129759\N,0,2.50831389,-0.48186359,-0.07579327\H,0,-1.61529855,-0.
 68213186,-0.48919432\H,0,-0.65464748,-1.1076711,0.85604599\H,0,-0.8924
 7177,0.69397557,0.77164214\H,0,-0.12982377,1.15813667,-1.04984653\\Ver
 sion=ES64L-G16RevC.01\State=1-A\HF=-186.8891846\RMSD=3.136e-03\Dipole=

 Normal termination of Gaussian 16 at Wed Apr  9 03:06:36 2025.
