 Gaussian 16, Revision C.01,

 ----------------------------------------------------------------------
 #t hf aug-cc-pvdz symm=none int=(grid=ultrafine) guess=(read,tcheck) s
 table=(opt,rrhf)
 ----------------------------------------------------------------------
 -----
 title
 -----
 Symbolic Z-matrix:
 Charge =  0 Multiplicity = 1

 SCF Done:  E(RHF) =  -268.803913917     A.U. after   14 cycles
 Normal termination of Gaussian 16 at Wed Apr  9 14:21:21 2025.
 Gaussian 16:  ES64L-G16RevC.01  3-Jul-2019

 ----------------------------------------------------------------------
 #t hf aug-cc-pvdz iop(5/13=1,5/36=2,99/5=2) pseudo=read geom=check gue
 ss=(read,tcheck) scf=(maxcycle=1)
 ----------------------------------------------------------------------
 -----
 title
 -----
 Structure from the checkpoint file:  "Grambow2020_wb97xd3_006047_reverse_mol2.chk"
 Charge =  0 Multiplicity = 1

                         Standard orientation:
 ---------------------------------------------------------------------
 Center     Atomic      Atomic             Coordinates (Angstroms)
 Number     Number       Type             X           Y           Z
 ---------------------------------------------------------------------
      1          6           0        1.672471   -1.039926   -0.032831
      2          8           0        2.560699   -0.239339    0.027674
      3          6           0       -0.035786    1.977234   -0.214827
      4          6           0       -0.730793    0.950514    0.174878
      5          6           0       -1.414731   -0.087404    0.565284
      6          6           0       -2.043495   -1.091564   -0.358697
      7          1           0        1.127120   -1.241036   -0.974018
      8          1           0        1.352426   -1.627821    0.848033
      9          1           0       -1.548049   -0.234503    1.634334
     10          1           0       -0.508538    2.933257   -0.407605
     11          1           0        1.038241    1.899159   -0.349544
     12          1           0       -3.124947   -1.129473   -0.209825
     13          1           0       -1.849700   -0.841926   -1.401506
     14          1           0       -1.658132   -2.096072   -0.164105
 ---------------------------------------------------------------------

 SCF Done:  E(RHF) =  -268.893012934     A.U. after    2 cycles

 The electronic state is 1-A.
 Alpha  occ. eigenvalues --  -20.58390 -11.34890 -11.26524 -11.25667 -11.24793
 Alpha  occ. eigenvalues --  -11.24470  -1.37063  -1.08799  -1.00261  -0.89940
 Alpha  occ. eigenvalues --   -0.86144  -0.70987  -0.69814  -0.66319  -0.64735
 Alpha  occ. eigenvalues --   -0.61538  -0.58610  -0.58075  -0.54776  -0.53967
 Alpha  occ. eigenvalues --   -0.44768  -0.38055  -0.37085
 Alpha virt. eigenvalues --    0.03035   0.04256   0.04433   0.04708   0.06383
 Alpha virt. eigenvalues --    0.07002   0.07210   0.07566   0.10610   0.10839
 Alpha virt. eigenvalues --    0.11740   0.11979   0.12587   0.13252   0.13616

 Mulliken charges:
               1
     1  C    0.703714
     2  O   -0.415508
     3  C    1.068849
     4  C   -0.903835
     5  C    0.608156
     6  C    0.225645
     7  H   -0.142753
     8  H   -0.126978
     9  H   -0.358998
    10  H   -0.254932
    11  H   -0.217402
    12  H   -0.031617
    13  H   -0.139750
    14  H   -0.014590
 Sum of Mulliken charges =  -0.00000

 Dipole moment (field-independent basis, Debye):
    X=             -2.5403    Y=             -1.9999    Z=             -0.2132  Tot=              3.2400

 Test job not archived.
 1\1\GINC-SE087\SP\RHF\Aug-CC-pVDZ\C5H8O1\OHZDE\09-Apr-2025\0\\#t hf au
 g-cc-pvdz iop(5/13=1,5/36=2,99/5=2) pseudo=read geom=check guess=(read
 ,tcheck) scf=(maxcycle=1)\\title\\0,1\C,0,-2.0737914,0.81203557,-0.428
 26831\O,0,-2.88308732,0.02399661,-0.82523629\C,0,-0.10389559,-1.931386
 95,-1.23304426\C,0,0.40983626,-1.0881339,-0.38802217\C,0,0.91163134,-0
 .23478841,0.45901198\C,0,1.6160226,1.03537156,0.07437223\H,0,-1.376968
 36,1.33214505,-1.11208835\H,0,-1.9826479,1.06863183,0.64402881\H,0,0.8
 2275891,-0.45988392,1.51906492\H,0,0.47937996,-2.75563832,-1.62678994\

 Normal termination of Gaussian 16 at Wed Apr  9 14:21:25 2025.
