 Gaussian 16, Revision C.01,

 ----------------------------------------------------------------------
 #t hf aug-cc-pvdz symm=none int=(grid=ultrafine) guess=(read,tcheck) s
 table=(opt,rrhf)
 ----------------------------------------------------------------------
 -----
 title
 -----
 Symbolic Z-matrix:
 Charge =  0 Multiplicity = 1

 SCF Done:  E(RHF) =  -344.773605215     A.U. after   15 cycles

 1\1\GINC-SE120\Stability\RHF\Aug-CC-pVDZ\C5H10O2\OHZDE\09-Apr-2025\0\\
 #t hf aug-cc-pvdz symm=none int=(grid=ultrafine) guess=(read,tcheck) s
 table=(opt,rrhf)\\title\\0,1\C,0,2.09476349,0.41051326,-0.63897488\C,0
 ,1.01237271,-0.55212816,-0.18937605\C,0,0.37308959,-0.13421514,1.13906
 491\O,0,-0.82172312,-0.91120336,1.19006525\C,0,-1.58265587,-0.77830871
 ,0.08620231\C,0,-2.27377547,0.53275708,-0.07355304\O,0,-0.0155323,-0.5
 6351685,-1.15365268\H,0,2.53388326,0.07245384,-1.57665558\H,0,2.888296
 93,0.47929191,0.10819739\H,0,1.67231693,1.40472394,-0.79569439\H,0,1.4

 Normal termination of Gaussian 16 at Wed Apr  9 03:34:03 2025.
 Gaussian 16:  ES64L-G16RevC.01  3-Jul-2019

 ----------------------------------------------------------------------
 #t hf aug-cc-pvdz iop(5/13=1,5/36=2,99/5=2) pseudo=read geom=check gue
 ss=(read,tcheck) scf=(maxcycle=1)
 ----------------------------------------------------------------------
 -----
 title
 -----
 Structure from the checkpoint file:  "Grambow2020_wb97xd3_007112_reverse_mol1.chk"
 Charge =  0 Multiplicity = 1

                         Standard orientation:
 ---------------------------------------------------------------------
 Center     Atomic      Atomic             Coordinates (Angstroms)
 Number     Number       Type             X           Y           Z
 ---------------------------------------------------------------------
      1          6           0       -2.338011   -0.391134    0.466240
      2          6           0       -1.157108    0.085172   -0.357767
      3          6           0       -0.304299    1.118771    0.385522
      4          8           0        0.908151    1.148354   -0.364798
      5          6           0        1.451589   -0.072828   -0.533863
      6          6           0        2.053150   -0.691158    0.681807
      7          8           0       -0.320684   -1.015452   -0.632666
      8          1           0       -2.926453   -1.111775   -0.100124
      9          1           0       -2.985458    0.445616    0.737078
     10          1           0       -1.988162   -0.875039    1.379979
     11          1           0       -1.508645    0.537929   -1.293377
     12          1           0       -0.137102    0.815294    1.423799
     13          1           0       -0.725855    2.122412    0.362595
     14          1           0        0.584781   -0.753478   -1.288746
     15          1           0        1.601126   -0.400626    1.633337
     16          1           0        2.056145   -1.775165    0.585860
     17          1           0        3.097970   -0.361329    0.687689
 ---------------------------------------------------------------------

 SCF Done:  E(RHF) =  -344.882200849     A.U. after    2 cycles

 The electronic state is 1-A.
 Alpha  occ. eigenvalues --  -20.60405 -20.56789 -11.33039 -11.30418 -11.29395
 Alpha  occ. eigenvalues --  -11.23887 -11.23246  -1.39706  -1.29833  -1.05944
 Alpha  occ. eigenvalues --   -1.00281  -0.94656  -0.82392  -0.80747  -0.73999
 Alpha  occ. eigenvalues --   -0.68488  -0.65206  -0.62826  -0.59321  -0.57779
 Alpha  occ. eigenvalues --   -0.57133  -0.55630  -0.54801  -0.53266  -0.50156
 Alpha  occ. eigenvalues --   -0.48793  -0.44769  -0.34893
 Alpha virt. eigenvalues --    0.03400   0.04293   0.04803   0.04942   0.06165
 Alpha virt. eigenvalues --    0.06464   0.06917   0.07411   0.07994   0.09692
 Alpha virt. eigenvalues --    0.09897   0.11958   0.12924   0.13566   0.13851

 Mulliken charges:
               1
     1  C    0.428563
     2  C    0.044164
     3  C    0.890618
     4  O   -0.672297
     5  C   -0.104846
     6  C    0.487803
     7  O   -0.844583
     8  H   -0.049924
     9  H    0.016478
    10  H   -0.001057
    11  H   -0.175073
    12  H   -0.151417
    13  H   -0.183378
    14  H    0.428577
    15  H   -0.115449
    16  H    0.002246
    17  H   -0.000426
 Sum of Mulliken charges =  -0.00000

 Dipole moment (field-independent basis, Debye):
    X=             -0.7613    Y=              0.9596    Z=              2.0180  Tot=              2.3606

 Test job not archived.
 1\1\GINC-SE120\SP\RHF\Aug-CC-pVDZ\C5H10O2\OHZDE\09-Apr-2025\0\\#t hf a
 ug-cc-pvdz iop(5/13=1,5/36=2,99/5=2) pseudo=read geom=check guess=(rea
 d,tcheck) scf=(maxcycle=1)\\title\\0,1\C,0,2.09476349,0.41051326,-0.63
 897488\C,0,1.01237271,-0.55212816,-0.18937605\C,0,0.37308959,-0.134215
 14,1.13906491\O,0,-0.82172312,-0.91120336,1.19006525\C,0,-1.58265587,-
 0.77830871,0.08620231\C,0,-2.27377547,0.53275708,-0.07355304\O,0,-0.01
 55323,-0.56351685,-1.15365268\H,0,2.53388326,0.07245384,-1.57665558\H,
 0,2.88829693,0.47929191,0.10819739\H,0,1.67231693,1.40472394,-0.795694

 Normal termination of Gaussian 16 at Wed Apr  9 03:34:09 2025.
