 Gaussian 16, Revision C.01,

 ----------------------------------------------------------------------
 #t hf aug-cc-pvdz symm=none int=(grid=ultrafine) guess=(read,tcheck) s
 table=(opt,rrhf)
 ----------------------------------------------------------------------
 -----
 title
 -----
 Symbolic Z-matrix:
 Charge =  0 Multiplicity = 1

 SCF Done:  E(RHF) =  -304.502099441     A.U. after   14 cycles
 Normal termination of Gaussian 16 at Wed Apr  9 14:17:05 2025.
 Gaussian 16:  ES64L-G16RevC.01  3-Jul-2019

 ----------------------------------------------------------------------
 #t hf aug-cc-pvdz iop(5/13=1,5/36=2,99/5=2) pseudo=read geom=check gue
 ss=(read,tcheck) scf=(maxcycle=1)
 ----------------------------------------------------------------------
 -----
 title
 -----
 Structure from the checkpoint file:  "Grambow2020_b97d3_006928_forward_mol1.chk"
 Charge =  0 Multiplicity = 1

                         Standard orientation:
 ---------------------------------------------------------------------
 Center     Atomic      Atomic             Coordinates (Angstroms)
 Number     Number       Type             X           Y           Z
 ---------------------------------------------------------------------
      1          8           0       -1.799069   -0.644336   -0.225201
      2          6           0       -0.519112   -0.317235   -0.129526
      3          6           0       -0.343500    1.309048    0.547686
      4          6           0        0.463637    0.688774   -0.630571
      5          8           0        1.589101   -0.051460   -0.141222
      6          6           0        0.697525   -1.083292    0.384887
      7          1           0       -1.528223    0.400915    0.530397
      8          1           0       -0.987576    2.104300    0.157398
      9          1           0        0.201621    1.513269    1.469514
     10          1           0        0.595157    1.238316   -1.563323
     11          1           0        0.789033   -1.243876    1.466374
     12          1           0        0.818433   -2.030321   -0.163833
 ---------------------------------------------------------------------

 SCF Done:  E(RHF) =  -304.594511522     A.U. after    2 cycles

 The electronic state is 1-A.
 Alpha  occ. eigenvalues --  -20.59994 -20.54532 -11.38569 -11.33541 -11.32387
 Alpha  occ. eigenvalues --  -11.26910  -1.38796  -1.32364  -1.08879  -0.98112
 Alpha  occ. eigenvalues --   -0.87379  -0.77398  -0.71339  -0.68911  -0.67953
 Alpha  occ. eigenvalues --   -0.63198  -0.59222  -0.57833  -0.56157  -0.53951
 Alpha  occ. eigenvalues --   -0.48219  -0.40838  -0.37462
 Alpha virt. eigenvalues --    0.03313   0.04162   0.04465   0.05562   0.06369
 Alpha virt. eigenvalues --    0.06959   0.09418   0.10304   0.11625   0.12812
 Alpha virt. eigenvalues --    0.13180   0.14076   0.14385   0.14972   0.15693

 Mulliken charges:
               1
     1  O   -0.818908
     2  C   -0.228340
     3  C    0.137286
     4  C    1.061695
     5  O   -0.778788
     6  C    0.902127
     7  H    0.463741
     8  H   -0.149923
     9  H   -0.248353
    10  H   -0.219031
    11  H   -0.079503
    12  H   -0.042004
 Sum of Mulliken charges =   0.00000

 Dipole moment (field-independent basis, Debye):
    X=              1.1980    Y=              1.5147    Z=              0.9035  Tot=              2.1320

 Test job not archived.
 1\1\GINC-SE026\SP\RHF\Aug-CC-pVDZ\C4H6O2\OHZDE\09-Apr-2025\0\\#t hf au
 g-cc-pvdz iop(5/13=1,5/36=2,99/5=2) pseudo=read geom=check guess=(read
 ,tcheck) scf=(maxcycle=1)\\title\\0,1\O,0,0.24196495,-1.53293889,-1.25
 521391\C,0,0.28472309,-0.40754036,-0.55801214\C,0,-1.14777147,-0.26119
 591,0.47193753\C,0,-0.46869209,0.86609785,-0.36026426\O,0,0.59734083,1
 .47282936,0.38103687\C,0,1.4028284,0.26157537,0.2381001\H,0,-0.6003494
 8,-1.45070843,-0.24497537\H,0,-2.12562659,-0.48681474,0.03321232\H,0,-
 1.09314904,-0.17816933,1.55764063\H,0,-1.06315878,1.51667453,-1.002667

 Normal termination of Gaussian 16 at Wed Apr  9 14:17:09 2025.
