 Gaussian 16, Revision C.01,

 ----------------------------------------------------------------------
 #t hf aug-cc-pvdz symm=none int=(grid=ultrafine) guess=(read,tcheck) s
 table=(opt,rrhf)
 ----------------------------------------------------------------------
 -----
 title
 -----
 Symbolic Z-matrix:
 Charge =  0 Multiplicity = 1

 SCF Done:  E(RHF) =  -306.635653071     A.U. after   13 cycles
 Normal termination of Gaussian 16 at Wed Apr  9 16:23:04 2025.
 Gaussian 16:  ES64L-G16RevC.01  3-Jul-2019

 ----------------------------------------------------------------------
 #t hf aug-cc-pvdz iop(5/13=1,5/36=2,99/5=2) pseudo=read geom=check gue
 ss=(read,tcheck) scf=(maxcycle=1)
 ----------------------------------------------------------------------
 -----
 title
 -----
 Structure from the checkpoint file:  "Grambow2020_wb97xd3_008165_reverse_mol2.chk"
 Charge =  0 Multiplicity = 1

                         Standard orientation:
 ---------------------------------------------------------------------
 Center     Atomic      Atomic             Coordinates (Angstroms)
 Number     Number       Type             X           Y           Z
 ---------------------------------------------------------------------
      1          8           0        2.049943   -0.768579   -0.073143
      2          6           0        0.806116   -0.089316   -0.003735
      3          6           0       -0.328168   -1.097812   -0.023419
      4          6           0       -1.766999   -0.667872    0.000477
      5          6           0       -2.314187    0.539399    0.004912
      6          6           0        0.784315    1.234549    0.658067
      7          6           0        0.794942    1.236822   -0.636625
      8          1           0        2.078360   -1.432528    0.619700
      9          1           0       -0.187099   -1.777663    0.828656
     10          1           0       -0.182538   -1.729082   -0.907550
     11          1           0       -2.447595   -1.517289    0.012021
     12          1           0       -1.740285    1.454235   -0.006967
     13          1           0       -3.392942    0.639539    0.020666
     14          1           0        0.794413    1.788346    1.581356
     15          1           0        0.822018    1.788447   -1.560797
 ---------------------------------------------------------------------

 SCF Done:  E(RHF) =  -306.731759071     A.U. after    2 cycles

 The electronic state is 1-A.
 Alpha  occ. eigenvalues --  -20.56429 -11.31342 -11.25510 -11.25305 -11.24666
 Alpha  occ. eigenvalues --  -11.24236 -11.22733  -1.32638  -1.16178  -1.06071
 Alpha  occ. eigenvalues --   -0.95817  -0.81120  -0.78055  -0.75653  -0.70682
 Alpha  occ. eigenvalues --   -0.65861  -0.64379  -0.61028  -0.56889  -0.56320
 Alpha  occ. eigenvalues --   -0.54509  -0.49641  -0.47086  -0.40722  -0.38116
 Alpha  occ. eigenvalues --   -0.36466
 Alpha virt. eigenvalues --    0.03286   0.04024   0.04242   0.04617   0.05905
 Alpha virt. eigenvalues --    0.06503   0.07428   0.08288   0.09559   0.10410
 Alpha virt. eigenvalues --    0.12564   0.12999   0.13664   0.13887   0.14589

 Mulliken charges:
               1
     1  O   -0.678817
     2  C    0.521410
     3  C   -0.212859
     4  C    0.550160
     5  C    0.618741
     6  C    0.394980
     7  C    0.311605
     8  H    0.127155
     9  H    0.040057
    10  H    0.094166
    11  H   -0.418146
    12  H   -0.319408
    13  H   -0.329087
    14  H   -0.356450
    15  H   -0.343507
 Sum of Mulliken charges =  -0.00000

 Dipole moment (field-independent basis, Debye):
    X=             -1.1265    Y=             -0.0234    Z=              1.0944  Tot=              1.5707

 Test job not archived.
 1\1\GINC-SE087\SP\RHF\Aug-CC-pVDZ\C6H8O1\OHZDE\09-Apr-2025\0\\#t hf au
 g-cc-pvdz iop(5/13=1,5/36=2,99/5=2) pseudo=read geom=check guess=(read
 ,tcheck) scf=(maxcycle=1)\\title\\0,1\O,0,2.28059933,0.4951756,-0.7399
 673\C,0,0.89889437,0.44875381,-0.42050035\C,0,0.58508551,-0.84912688,0
 .30135923\C,0,-0.81162832,-1.19515388,0.73160449\C,0,-1.95733428,-0.54
 881931,0.56866977\C,0,0.19283568,1.73762827,-0.2434204\C,0,0.02396519,
 1.13846147,-1.37868535\H,0,2.78795144,0.33657408,0.0594748\H,0,1.21324
 77,-0.89197217,1.20230701\H,0,0.95228379,-1.66600522,-0.33052126\H,0,-

 Normal termination of Gaussian 16 at Wed Apr  9 16:23:10 2025.
