 Gaussian 16, Revision C.01,

 ----------------------------------------------------------------------
 #t hf aug-cc-pvdz symm=none int=(grid=ultrafine) guess=(read,tcheck) s
 table=(opt,rrhf)
 ----------------------------------------------------------------------
 -----
 title
 -----
 Symbolic Z-matrix:
 Charge =  0 Multiplicity = 1

 SCF Done:  E(RHF) =  -323.924449954     A.U. after   13 cycles
 Normal termination of Gaussian 16 at Wed Apr  9 15:39:03 2025.
 Gaussian 16:  ES64L-G16RevC.01  3-Jul-2019

 ----------------------------------------------------------------------
 #t hf aug-cc-pvdz iop(5/13=1,5/36=2,99/5=2) pseudo=read geom=check gue
 ss=(read,tcheck) scf=(maxcycle=1)
 ----------------------------------------------------------------------
 -----
 title
 -----
 Structure from the checkpoint file:  "Grambow2020_wb97xd3_007248_reverse_mol2.chk"
 Charge =  0 Multiplicity = 1

                         Standard orientation:
 ---------------------------------------------------------------------
 Center     Atomic      Atomic             Coordinates (Angstroms)
 Number     Number       Type             X           Y           Z
 ---------------------------------------------------------------------
      1          6           0        2.446036   -0.616854    0.161765
      2          6           0        1.039471   -0.169534   -0.029592
      3          6           0       -2.244429   -0.667623    0.415667
      4          6           0        0.605899    1.266973    0.114255
      5          8           0       -0.786556    1.197263   -0.045709
      6          6           0       -1.121511   -0.136797   -0.446255
      7          7           0        0.082188   -0.934045   -0.341790
      8          1           0        2.521730   -1.692357    0.017636
      9          1           0        2.793812   -0.361059    1.165373
     10          1           0        3.106601   -0.111420   -0.547008
     11          1           0       -1.923403   -0.716709    1.457292
     12          1           0       -3.109922   -0.008768    0.343758
     13          1           0       -2.529545   -1.667135    0.086450
     14          1           0        0.862950    1.683127    1.094848
     15          1           0        1.071572    1.900256   -0.654518
     16          1           0       -1.429462   -0.122713   -1.500669
 ---------------------------------------------------------------------

 SCF Done:  E(RHF) =  -324.024933112     A.U. after    2 cycles

 The electronic state is 1-A.
 Alpha  occ. eigenvalues --  -20.57130 -15.61887 -11.31372 -11.29751 -11.29447
 Alpha  occ. eigenvalues --  -11.24736 -11.22094  -1.36448  -1.19539  -1.05630
 Alpha  occ. eigenvalues --   -0.97971  -0.92873  -0.82370  -0.75668  -0.70121
 Alpha  occ. eigenvalues --   -0.67239  -0.62031  -0.60468  -0.58778  -0.58055
 Alpha  occ. eigenvalues --   -0.54507  -0.53709  -0.51613  -0.50587  -0.46343
 Alpha  occ. eigenvalues --   -0.42517  -0.39046
 Alpha virt. eigenvalues --    0.03202   0.04293   0.04353   0.04842   0.06418
 Alpha virt. eigenvalues --    0.06722   0.07249   0.07556   0.07778   0.10704
 Alpha virt. eigenvalues --    0.11697   0.12481   0.13608   0.14127   0.14410

 Mulliken charges:
               1
     1  C    0.719939
     2  C   -0.872294
     3  C    0.418115
     4  C    0.803537
     5  O   -0.731716
     6  C    0.741145
     7  N   -0.596785
     8  H   -0.121354
     9  H    0.054081
    10  H    0.061171
    11  H   -0.069512
    12  H   -0.002134
    13  H    0.003859
    14  H   -0.088268
    15  H   -0.042460
    16  H   -0.277324
 Sum of Mulliken charges =  -0.00000

 Dipole moment (field-independent basis, Debye):
    X=              1.8895    Y=              0.4808    Z=              0.2873  Tot=              1.9707

 Test job not archived.
 1\1\GINC-SE168\SP\RHF\Aug-CC-pVDZ\C5H9N1O1\OHZDE\09-Apr-2025\0\\#t hf
 aug-cc-pvdz iop(5/13=1,5/36=2,99/5=2) pseudo=read geom=check guess=(re
 ad,tcheck) scf=(maxcycle=1)\\title\\0,1\C,0,1.0023594,1.64870233,1.463
 99823\C,0,0.21955005,0.69682963,0.62956176\C,0,0.01158653,-1.32616923,
 -2.0340027\C,0,-0.68098372,-0.3614903,1.21370759\O,0,-1.1148685,-1.070
 48104,0.08301972\C,0,-0.66596574,-0.36727435,-1.08159854\N,0,0.2183465
 ,0.68802052,-0.63465968\H,0,1.58547059,2.31310207,0.83015026\H,0,1.673
 85557,1.1054496,2.13301168\H,0,0.3344603,2.24416964,2.0912929\H,0,0.89

 Normal termination of Gaussian 16 at Wed Apr  9 15:39:08 2025.
