 Gaussian 16, Revision C.01,

 ----------------------------------------------------------------------
 #t hf aug-cc-pvdz symm=none int=(grid=ultrafine) guess=(read,tcheck) s
 table=(opt,rrhf)
 ----------------------------------------------------------------------
 -----
 title
 -----
 Symbolic Z-matrix:
 Charge =  0 Multiplicity = 1

 SCF Done:  E(RHF) =  -299.510524368     A.U. after   18 cycles
 Normal termination of Gaussian 16 at Wed Apr  9 03:20:52 2025.
 Gaussian 16:  ES64L-G16RevC.01  3-Jul-2019

 ----------------------------------------------------------------------
 #t hf aug-cc-pvdz iop(5/13=1,5/36=2,99/5=2) pseudo=read geom=check gue
 ss=(read,tcheck) scf=(maxcycle=1)
 ----------------------------------------------------------------------
 -----
 title
 -----
 Structure from the checkpoint file:  "Grambow2020_wb97xd3_006148_forward_mol1.chk"
 Charge =  0 Multiplicity = 1

                         Standard orientation:
 ---------------------------------------------------------------------
 Center     Atomic      Atomic             Coordinates (Angstroms)
 Number     Number       Type             X           Y           Z
 ---------------------------------------------------------------------
      1          7           0       -1.613840   -0.813937    0.172305
      2          6           0       -1.025780    0.328989   -0.068075
      3          6           0       -0.369894    1.330678   -0.480413
      4          6           0        0.678727    0.869281    0.470732
      5          7           0        1.428749   -0.250645    0.310306
      6          8           0        1.046722   -1.107104   -0.501278
      7          1           0       -0.994306   -1.608050    0.007644
      8          1           0       -2.273437   -0.880130    0.930179
      9          1           0       -0.440188    2.153893   -1.174571
     10          1           0        0.931481    1.469498    1.335235
 ---------------------------------------------------------------------

 SCF Done:  E(RHF) =  -299.600773914     A.U. after    2 cycles

 The electronic state is 1-A.
 Alpha  occ. eigenvalues --  -20.55626 -15.72096 -15.69996 -11.36789 -11.30450
 Alpha  occ. eigenvalues --  -11.26437  -1.39067  -1.26015  -1.14424  -1.00910
 Alpha  occ. eigenvalues --   -0.82403  -0.77638  -0.74839  -0.73424  -0.66255
 Alpha  occ. eigenvalues --   -0.64671  -0.58430  -0.55137  -0.50727  -0.42552
 Alpha  occ. eigenvalues --   -0.37396  -0.32276
 Alpha virt. eigenvalues --    0.02255   0.03335   0.04609   0.06047   0.07836
 Alpha virt. eigenvalues --    0.09591   0.09870   0.11501   0.11650   0.13232
 Alpha virt. eigenvalues --    0.13338   0.14151   0.15090   0.16035   0.16505

 Mulliken charges:
               1
     1  N   -0.164154
     2  C   -0.347366
     3  C    1.095969
     4  C    0.375900
     5  N   -0.127332
     6  O   -0.650736
     7  H    0.137304
     8  H    0.072713
     9  H   -0.138836
    10  H   -0.253462
 Sum of Mulliken charges =   0.00000

 Dipole moment (field-independent basis, Debye):
    X=             -4.7766    Y=              2.1568    Z=              1.2488  Tot=              5.3876

 Test job not archived.
 1\1\GINC-SE362\SP\RHF\Aug-CC-pVDZ\C3H4N2O1\OHZDE\09-Apr-2025\0\\#t hf
 aug-cc-pvdz iop(5/13=1,5/36=2,99/5=2) pseudo=read geom=check guess=(re
 ad,tcheck) scf=(maxcycle=1)\\title\\0,1\N,0,1.6270515,-0.09877066,-0.3
 1695763\C,0,0.46753066,0.49641008,-0.4225453\C,0,-0.6285048,1.11990347
 ,-0.30612862\C,0,-1.22052041,-0.22878535,-0.08766314\N,0,-1.02172723,-
 0.99002143,1.01845822\O,0,-0.07534063,-0.7075466,1.76858937\H,0,1.7090
 3464,-0.63163525,0.54957824\H,0,2.06831068,-0.47041874,-1.14217956\H,0
 ,-1.0330032,2.12014508,-0.32553779\H,0,-1.9087352,-0.6448866,-0.812045

 Normal termination of Gaussian 16 at Wed Apr  9 03:20:55 2025.
