 Gaussian 16, Revision C.01,

 ----------------------------------------------------------------------
 #t hf aug-cc-pvdz symm=none int=(grid=ultrafine) guess=(read,tcheck) s
 table=(opt,rrhf)
 ----------------------------------------------------------------------
 -----
 title
 -----
 Symbolic Z-matrix:
 Charge =  0 Multiplicity = 1

 SCF Done:  E(RHF) =  -308.852198685     A.U. after   17 cycles

 1\1\GINC-SE174\Stability\RHF\Aug-CC-pVDZ\C6H12O1\OHZDE\09-Apr-2025\0\\
 #t hf aug-cc-pvdz symm=none int=(grid=ultrafine) guess=(read,tcheck) s
 table=(opt,rrhf)\\title\\0,1\C,0,2.14434202,0.36564629,-0.59405876\C,0
 ,0.90013304,-0.74914886,0.42385992\O,0,1.22892785,-1.03251539,1.695334
 49\C,0,0.47635502,0.55013489,0.02346037\C,0,-0.66078423,0.82265776,-0.
 95322819\C,0,-1.73087398,0.59229903,0.01487059\C,0,-2.08148546,-0.8065
 8402,0.30667962\H,0,2.27594781,1.43280835,-0.78310591\H,0,2.1488411,-0
 .16696262,-1.54055572\H,0,2.97466738,0.03643112,0.03457601\H,0,0.94587

 Normal termination of Gaussian 16 at Wed Apr  9 15:54:32 2025.
 Gaussian 16:  ES64L-G16RevC.01  3-Jul-2019

 ----------------------------------------------------------------------
 #t hf aug-cc-pvdz iop(5/13=1,5/36=2,99/5=2) pseudo=read geom=check gue
 ss=(read,tcheck) scf=(maxcycle=1)
 ----------------------------------------------------------------------
 -----
 title
 -----
 Structure from the checkpoint file:  "Grambow2020_wb97xd3_007570_reverse_mol1.chk"
 Charge =  0 Multiplicity = 1

                         Standard orientation:
 ---------------------------------------------------------------------
 Center     Atomic      Atomic             Coordinates (Angstroms)
 Number     Number       Type             X           Y           Z
 ---------------------------------------------------------------------
      1          6           0        1.989508   -1.004348    0.221767
      2          6           0        0.873117    0.597119    0.348090
      3          8           0        1.311070    1.701835   -0.278687
      4          6           0        0.368946   -0.527801   -0.364942
      5          6           0       -0.850803   -1.338284    0.055298
      6          6           0       -1.832163   -0.376157   -0.441307
      7          6           0       -2.104019    0.799577    0.400535
      8          1           0        2.064176   -1.864902   -0.445889
      9          1           0        1.940825   -1.353661    1.248977
     10          1           0        2.878634   -0.388785    0.068329
     11          1           0        0.899388    0.657995    1.425402
     12          1           0        0.886472    1.753100   -1.143530
     13          1           0        0.510241   -0.496653   -1.439032
     14          1           0       -0.866389   -1.506321    1.137954
     15          1           0       -0.840422   -2.307772   -0.444598
     16          1           0       -2.173090   -0.433788   -1.465049
     17          1           0       -2.739324    1.537011   -0.092715
     18          1           0       -1.152711    1.328632    0.692353
     19          1           0       -2.563870    0.559822    1.370651
 ---------------------------------------------------------------------

 SCF Done:  E(RHF) =  -308.949813595     A.U. after    2 cycles

 The electronic state is 1-A.
 Alpha  occ. eigenvalues --  -20.64452 -11.37860 -11.29188 -11.29075 -11.23567
 Alpha  occ. eigenvalues --  -11.19624 -11.14665  -1.41350  -1.12510  -1.01587
 Alpha  occ. eigenvalues --   -0.92569  -0.92353  -0.85758  -0.75371  -0.73385
 Alpha  occ. eigenvalues --   -0.69324  -0.66295  -0.61924  -0.60459  -0.59372
 Alpha  occ. eigenvalues --   -0.56618  -0.54734  -0.53084  -0.50806  -0.47623
 Alpha  occ. eigenvalues --   -0.45787  -0.43919  -0.18511
 Alpha virt. eigenvalues --    0.02693   0.03646   0.04087   0.04831   0.06120
 Alpha virt. eigenvalues --    0.06322   0.06605   0.06767   0.06913   0.08948
 Alpha virt. eigenvalues --    0.09186   0.09744   0.11099   0.12389   0.13100

 Mulliken charges:
               1
     1  C    0.507419
     2  C    0.950999
     3  O   -0.522449
     4  C   -0.238786
     5  C    0.578698
     6  C    0.411939
     7  C    0.292987
     8  H   -0.095377
     9  H   -0.135465
    10  H   -0.036836
    11  H   -0.328047
    12  H    0.185956
    13  H   -0.391411
    14  H   -0.145663
    15  H   -0.181802
    16  H   -0.506595
    17  H   -0.131425
    18  H   -0.208208
    19  H   -0.005935
 Sum of Mulliken charges =  -0.00000

 Dipole moment (field-independent basis, Debye):
    X=              4.9612    Y=             -0.4799    Z=             -0.0268  Tot=              4.9844

 Test job not archived.
 1\1\GINC-SE174\SP\RHF\Aug-CC-pVDZ\C6H12O1\OHZDE\09-Apr-2025\0\\#t hf a
 ug-cc-pvdz iop(5/13=1,5/36=2,99/5=2) pseudo=read geom=check guess=(rea
 d,tcheck) scf=(maxcycle=1)\\title\\0,1\C,0,2.14434202,0.36564629,-0.59
 405876\C,0,0.90013304,-0.74914886,0.42385992\O,0,1.22892785,-1.0325153
 9,1.69533449\C,0,0.47635502,0.55013489,0.02346037\C,0,-0.66078423,0.82
 265776,-0.95322819\C,0,-1.73087398,0.59229903,0.01487059\C,0,-2.081485
 46,-0.80658402,0.30667962\H,0,2.27594781,1.43280835,-0.78310591\H,0,2.
 1488411,-0.16696262,-1.54055572\H,0,2.97466738,0.03643112,0.03457601\H

 Normal termination of Gaussian 16 at Wed Apr  9 15:54:40 2025.
