 Gaussian 16, Revision C.01,

 ----------------------------------------------------------------------
 #t hf aug-cc-pvdz symm=none int=(grid=ultrafine) guess=(read,tcheck) s
 table=(opt,rrhf)
 ----------------------------------------------------------------------
 -----
 title
 -----
 Symbolic Z-matrix:
 Charge =  0 Multiplicity = 1

 SCF Done:  E(RHF) =  -304.667809688     A.U. after   12 cycles
 Normal termination of Gaussian 16 at Wed Apr  9 03:20:25 2025.
 Gaussian 16:  ES64L-G16RevC.01  3-Jul-2019

 ----------------------------------------------------------------------
 #t hf aug-cc-pvdz iop(5/13=1,5/36=2,99/5=2) pseudo=read geom=check gue
 ss=(read,tcheck) scf=(maxcycle=1)
 ----------------------------------------------------------------------
 -----
 title
 -----
 Structure from the checkpoint file:  "Grambow2020_wb97xd3_006103_forward_mol2.chk"
 Charge =  0 Multiplicity = 1

                         Standard orientation:
 ---------------------------------------------------------------------
 Center     Atomic      Atomic             Coordinates (Angstroms)
 Number     Number       Type             X           Y           Z
 ---------------------------------------------------------------------
      1          6           0       -0.664063    1.162000    0.108761
      2          8           0       -1.345385    0.000228   -0.332499
      3          6           0       -0.664687   -1.161765    0.108724
      4          6           0        0.752574   -0.727011    0.368890
      5          8           0        1.316959   -0.000591   -0.712417
      6          6           0        0.753283    0.727203    0.368083
      7          1           0       -0.748784    1.917555   -0.674649
      8          1           0       -1.101400    1.557333    1.035854
      9          1           0       -1.102753   -1.557127    1.035484
     10          1           0       -0.747892   -1.917414   -0.674800
     11          1           0        1.432330   -1.334729    0.955739
     12          1           0        1.433275    1.334718    0.954950
 ---------------------------------------------------------------------

 SCF Done:  E(RHF) =  -304.764180179     A.U. after    2 cycles

 The electronic state is 1-A.
 Alpha  occ. eigenvalues --  -20.59043 -20.57548 -11.30301 -11.30189 -11.29575
 Alpha  occ. eigenvalues --  -11.29548  -1.40698  -1.33414  -1.01409  -0.98926
 Alpha  occ. eigenvalues --   -0.83101  -0.82765  -0.74838  -0.68291  -0.64873
 Alpha  occ. eigenvalues --   -0.64625  -0.58762  -0.55813  -0.54148  -0.53480
 Alpha  occ. eigenvalues --   -0.48314  -0.44275  -0.42819
 Alpha virt. eigenvalues --    0.03170   0.04213   0.04783   0.05269   0.06284
 Alpha virt. eigenvalues --    0.06697   0.10234   0.11094   0.11693   0.12381
 Alpha virt. eigenvalues --    0.13778   0.14340   0.14778   0.15231   0.15484

 Mulliken charges:
               1
     1  C    0.935961
     2  O   -0.658982
     3  C    0.936423
     4  C    0.154227
     5  O   -0.779579
     6  C    0.156145
     7  H   -0.092935
     8  H   -0.088582
     9  H   -0.088705
    10  H   -0.092049
    11  H   -0.191173
    12  H   -0.190752
 Sum of Mulliken charges =  -0.00000

 Dipole moment (field-independent basis, Debye):
    X=              0.3388    Y=              0.0009    Z=              2.9507  Tot=              2.9701

 Test job not archived.
 1\1\GINC-SE165\SP\RHF\Aug-CC-pVDZ\C4H6O2\OHZDE\09-Apr-2025\0\\#t hf au
 g-cc-pvdz iop(5/13=1,5/36=2,99/5=2) pseudo=read geom=check guess=(read
 ,tcheck) scf=(maxcycle=1)\\title\\0,1\C,0,-1.28975074,-0.25513956,-0.0
 2252954\O,0,-0.84824234,1.0383037,-0.39762846\C,0,0.55700365,1.0401469
 7,-0.58075454\C,0,1.07071974,-0.13074102,0.21324965\O,0,0.57739763,-0.
 15725049,1.54417852\C,0,-0.08498114,-0.94097948,0.56340404\H,0,-2.1089
 4724,-0.13588041,0.68913496\H,0,-1.64972861,-0.82488849,-0.89020182\H,
 0,0.82504907,0.91161903,-1.63845418\H,0,0.93986844,2.00078355,-0.23085

 Normal termination of Gaussian 16 at Wed Apr  9 03:20:30 2025.
