 Gaussian 16, Revision C.01,

 ----------------------------------------------------------------------
 #t hf aug-cc-pvdz symm=none int=(grid=ultrafine) guess=(read,tcheck) s
 table=(opt,rrhf)
 ----------------------------------------------------------------------
 -----
 title
 -----
 Symbolic Z-matrix:
 Charge =  0 Multiplicity = 1

 SCF Done:  E(RHF) =  -323.819068986     A.U. after   16 cycles
 Normal termination of Gaussian 16 at Wed Apr  9 16:50:23 2025.
 Gaussian 16:  ES64L-G16RevC.01  3-Jul-2019

 ----------------------------------------------------------------------
 #t hf aug-cc-pvdz iop(5/13=1,5/36=2,99/5=2) pseudo=read geom=check gue
 ss=(read,tcheck) scf=(maxcycle=1)
 ----------------------------------------------------------------------
 -----
 title
 -----
 Structure from the checkpoint file:  "Grambow2020_wb97xd3_008936_reverse_mol2.chk"
 Charge =  0 Multiplicity = 1

                         Standard orientation:
 ---------------------------------------------------------------------
 Center     Atomic      Atomic             Coordinates (Angstroms)
 Number     Number       Type             X           Y           Z
 ---------------------------------------------------------------------
      1          6           0       -2.449776    0.408052    0.426073
      2          6           0       -1.453573    0.168476   -0.627703
      3          6           0        1.087136    1.599774   -0.124141
      4          7           0        0.953331    0.169947    0.005643
      5          6           0        2.130103   -0.617057    0.290062
      6          6           0       -0.230088   -0.424869   -0.198805
      7          8           0       -0.468580   -1.638716   -0.161636
      8          1           0       -2.312147   -0.158561    1.352462
      9          1           0       -3.477022    0.334106    0.069996
     10          1           0       -2.287780    1.475543    0.657938
     11          1           0        0.161744    2.017737   -0.523635
     12          1           0        1.892523    1.844415   -0.821623
     13          1           0        1.303386    2.072566    0.838338
     14          1           0        1.844687   -1.666171    0.330506
     15          1           0        2.881493   -0.480161   -0.492697
     16          1           0        2.565630   -0.325635    1.249379
 ---------------------------------------------------------------------

 SCF Done:  E(RHF) =  -323.920623437     A.U. after    2 cycles

 The electronic state is 1-A.
 Alpha  occ. eigenvalues --  -20.53766 -15.66551 -11.36061 -11.29194 -11.28584
 Alpha  occ. eigenvalues --  -11.27666 -11.25315  -1.35308  -1.23472  -1.05281
 Alpha  occ. eigenvalues --   -0.98951  -0.95472  -0.86089  -0.74006  -0.67445
 Alpha  occ. eigenvalues --   -0.67107  -0.65000  -0.60570  -0.58724  -0.57961
 Alpha  occ. eigenvalues --   -0.57753  -0.57392  -0.54934  -0.53041  -0.44606
 Alpha  occ. eigenvalues --   -0.39344  -0.35634
 Alpha virt. eigenvalues --    0.02717   0.03772   0.04230   0.04880   0.06529
 Alpha virt. eigenvalues --    0.06674   0.06957   0.07719   0.08269   0.09084
 Alpha virt. eigenvalues --    0.09852   0.12553   0.12618   0.13175   0.13940

 Mulliken charges:
               1
     1  C    0.488508
     2  C   -0.542897
     3  C    0.707038
     4  N   -0.273651
     5  C    0.720487
     6  C    0.446087
     7  O   -0.578422
     8  H   -0.069714
     9  H   -0.072538
    10  H    0.058332
    11  H   -0.219713
    12  H   -0.121545
    13  H   -0.103252
    14  H   -0.237165
    15  H   -0.103346
    16  H   -0.098210
 Sum of Mulliken charges =  -0.00000

 Dipole moment (field-independent basis, Debye):
    X=              2.0179    Y=              4.0566    Z=              2.0213  Tot=              4.9612

 Test job not archived.
 1\1\GINC-SE037\SP\RHF\Aug-CC-pVDZ\C5H9N1O1\OHZDE\09-Apr-2025\0\\#t hf
 aug-cc-pvdz iop(5/13=1,5/36=2,99/5=2) pseudo=read geom=check guess=(re
 ad,tcheck) scf=(maxcycle=1)\\title\\0,1\C,0,2.47324064,-0.10429788,0.7
 6706362\C,0,1.45933324,0.91005004,0.44557728\C,0,-0.47338468,-0.032181
 27,-1.58769354\N,0,-0.81709329,0.13633007,-0.19750546\C,0,-2.18853447,
 -0.05927576,0.20986452\C,0,0.10656044,0.53136374,0.68956628\O,0,-0.066
 85846,0.75380079,1.89461124\H,0,2.15220267,-0.90507812,1.44076519\H,0,
 3.42119593,0.32447363,1.09114598\H,0,2.66940852,-0.55547483,-0.2216209

 Normal termination of Gaussian 16 at Wed Apr  9 16:50:28 2025.
