 Gaussian 16, Revision C.01,

 ----------------------------------------------------------------------
 #t hf aug-cc-pvdz symm=none int=(grid=ultrafine) guess=(read,tcheck) s
 table=(opt,rrhf)
 ----------------------------------------------------------------------
 -----
 title
 -----
 Symbolic Z-matrix:
 Charge =  0 Multiplicity = 1

 SCF Done:  E(RHF) =  -307.765813155     A.U. after   16 cycles

 1\1\GINC-SE057\Stability\RHF\Aug-CC-pVDZ\C6H10O1\OHZDE\09-Apr-2025\0\\
 #t hf aug-cc-pvdz symm=none int=(grid=ultrafine) guess=(read,tcheck) s
 table=(opt,rrhf)\\title\\0,1\C,0,2.24691615,0.0927672,0.32584355\C,0,0
 .78045818,-0.07778807,0.03999113\C,0,0.06224356,-1.12080004,0.45867872
 \C,0,-1.38561383,-1.19136314,0.06738259\C,0,-1.77178615,0.16421646,-0.
 48265112\C,0,0.19666461,0.95401112,-0.83010252\O,0,0.16159611,2.212332
 57,-0.3436495\H,0,2.4485726,1.04415981,0.82431372\H,0,2.81897898,0.095
 68019,-0.60420434\H,0,2.61170403,-0.7113089,0.96386496\H,0,0.52249153,

 Normal termination of Gaussian 16 at Wed Apr  9 16:06:21 2025.
 Gaussian 16:  ES64L-G16RevC.01  3-Jul-2019

 ----------------------------------------------------------------------
 #t hf aug-cc-pvdz iop(5/13=1,5/36=2,99/5=2) pseudo=read geom=check gue
 ss=(read,tcheck) scf=(maxcycle=1)
 ----------------------------------------------------------------------
 -----
 title
 -----
 Structure from the checkpoint file:  "Grambow2020_wb97xd3_007746_forward_mol1.chk"
 Charge =  0 Multiplicity = 1

                         Standard orientation:
 ---------------------------------------------------------------------
 Center     Atomic      Atomic             Coordinates (Angstroms)
 Number     Number       Type             X           Y           Z
 ---------------------------------------------------------------------
      1          6           0       -2.033922   -0.972254    0.051792
      2          6           0       -0.598861   -0.524429    0.088563
      3          6           0        0.432823   -1.326745   -0.177751
      4          6           0        1.820252   -0.764367   -0.063059
      5          6           0        1.691353    0.739730    0.038624
      6          6           0       -0.395346    0.860549    0.539012
      7          8           0       -0.890340    1.836689   -0.250526
      8          1           0       -2.627935   -0.353962   -0.625814
      9          1           0       -2.487069   -0.882111    1.041128
     10          1           0       -2.106598   -2.007819   -0.278364
     11          1           0        0.288466   -2.381763   -0.387152
     12          1           0        2.450539   -1.068839   -0.905890
     13          1           0        2.311971   -1.153371    0.835754
     14          1           0        2.481424    1.233569    0.608620
     15          1           0        1.547432    1.249333   -0.911620
     16          1           0        0.759478    1.063503    0.928548
     17          1           0       -0.992786    1.533039   -1.164087
 ---------------------------------------------------------------------

 SCF Done:  E(RHF) =  -307.860156287     A.U. after    2 cycles

 The electronic state is 1-A.
 Alpha  occ. eigenvalues --  -20.60239 -11.29722 -11.26246 -11.24688 -11.24540
 Alpha  occ. eigenvalues --  -11.23565 -11.23187  -1.36384  -1.11690  -1.02532
 Alpha  occ. eigenvalues --   -0.93790  -0.91385  -0.82194  -0.76552  -0.67871
 Alpha  occ. eigenvalues --   -0.65820  -0.64138  -0.60598  -0.60284  -0.57026
 Alpha  occ. eigenvalues --   -0.55096  -0.53231  -0.52538  -0.49939  -0.48189
 Alpha  occ. eigenvalues --   -0.37871  -0.28295
 Alpha virt. eigenvalues --    0.03225   0.04007   0.04518   0.04884   0.06243
 Alpha virt. eigenvalues --    0.06365   0.06623   0.07410   0.08788   0.09239
 Alpha virt. eigenvalues --    0.10800   0.11433   0.12466   0.13658   0.14335

 Mulliken charges:
               1
     1  C    0.462705
     2  C   -0.159146
     3  C    0.092628
     4  C    0.174024
     5  C    0.305603
     6  C   -0.137866
     7  O   -0.502383
     8  H    0.006211
     9  H    0.074023
    10  H   -0.134013
    11  H   -0.455112
    12  H    0.003913
    13  H    0.025777
    14  H   -0.148617
    15  H   -0.096610
    16  H    0.301465
    17  H    0.187398
 Sum of Mulliken charges =  -0.00000

 Dipole moment (field-independent basis, Debye):
    X=              1.2308    Y=             -1.5299    Z=             -1.7885  Tot=              2.6559

 Test job not archived.
 1\1\GINC-SE057\SP\RHF\Aug-CC-pVDZ\C6H10O1\OHZDE\09-Apr-2025\0\\#t hf a
 ug-cc-pvdz iop(5/13=1,5/36=2,99/5=2) pseudo=read geom=check guess=(rea
 d,tcheck) scf=(maxcycle=1)\\title\\0,1\C,0,2.24691615,0.0927672,0.3258
 4355\C,0,0.78045818,-0.07778807,0.03999113\C,0,0.06224356,-1.12080004,
 0.45867872\C,0,-1.38561383,-1.19136314,0.06738259\C,0,-1.77178615,0.16
 421646,-0.48265112\C,0,0.19666461,0.95401112,-0.83010252\O,0,0.1615961
 1,2.21233257,-0.3436495\H,0,2.4485726,1.04415981,0.82431372\H,0,2.8189
 7898,0.09568019,-0.60420434\H,0,2.61170403,-0.7113089,0.96386496\H,0,0

 Normal termination of Gaussian 16 at Wed Apr  9 16:06:29 2025.
