 Gaussian 16, Revision C.01,

 ----------------------------------------------------------------------
 #t hf aug-cc-pvdz symm=none int=(grid=ultrafine) guess=(read,tcheck) s
 table=(opt,rrhf)
 ----------------------------------------------------------------------
 -----
 title
 -----
 Symbolic Z-matrix:
 Charge =  0 Multiplicity = 1

 SCF Done:  E(RHF) =  -339.761213224     A.U. after   15 cycles
 Normal termination of Gaussian 16 at Wed Apr  9 14:27:47 2025.
 Gaussian 16:  ES64L-G16RevC.01  3-Jul-2019

 ----------------------------------------------------------------------
 #t hf aug-cc-pvdz iop(5/13=1,5/36=2,99/5=2) pseudo=read geom=check gue
 ss=(read,tcheck) scf=(maxcycle=1)
 ----------------------------------------------------------------------
 -----
 title
 -----
 Structure from the checkpoint file:  "Grambow2020_wb97xd3_006545_forward_mol1.chk"
 Charge =  0 Multiplicity = 1

                         Standard orientation:
 ---------------------------------------------------------------------
 Center     Atomic      Atomic             Coordinates (Angstroms)
 Number     Number       Type             X           Y           Z
 ---------------------------------------------------------------------
      1          6           0       -1.342238    2.030775   -0.289490
      2          7           0       -0.272587    1.069069    0.450310
      3          6           0        0.030185   -0.146959   -0.273577
      4          6           0        1.380740   -0.747503    0.137573
      5          8           0        2.441057    0.100557   -0.205762
      6          6           0       -1.046937   -1.133331   -0.095801
      7          7           0       -1.855992   -1.924916    0.087137
      8          1           0       -2.043889    1.370833   -0.802878
      9          1           0       -1.848270    2.535002    0.534012
     10          1           0        0.091833    1.987090   -0.032573
     11          1           0       -0.384867    0.955383    1.450414
     12          1           0        0.073609    0.130844   -1.332045
     13          1           0        1.527946   -1.682783   -0.402741
     14          1           0        1.366895   -0.981388    1.209673
     15          1           0        2.457838    0.853602    0.387867
 ---------------------------------------------------------------------

 SCF Done:  E(RHF) =  -339.865082703     A.U. after    2 cycles

 The electronic state is 1-A.
 Alpha  occ. eigenvalues --  -20.61231 -15.70850 -15.66230 -11.35299 -11.33585
 Alpha  occ. eigenvalues --  -11.30537 -11.22862  -1.37158  -1.26740  -1.21269
 Alpha  occ. eigenvalues --   -1.06309  -0.92473  -0.88104  -0.79493  -0.75425
 Alpha  occ. eigenvalues --   -0.71676  -0.69995  -0.64549  -0.63004  -0.57128
 Alpha  occ. eigenvalues --   -0.56268  -0.53288  -0.52183  -0.50057  -0.48922
 Alpha  occ. eigenvalues --   -0.47012  -0.31506
 Alpha virt. eigenvalues --    0.01950   0.03775   0.04189   0.04623   0.06513
 Alpha virt. eigenvalues --    0.06753   0.07829   0.08621   0.09819   0.10986
 Alpha virt. eigenvalues --    0.11824   0.12682   0.13241   0.13623   0.14597

 Mulliken charges:
               1
     1  C    0.276619
     2  N   -0.743054
     3  C    0.716346
     4  C    1.034525
     5  O   -0.521250
     6  C   -0.423628
     7  N   -0.148695
     8  H   -0.279659
     9  H   -0.289423
    10  H    0.526531
    11  H    0.020467
    12  H   -0.133444
    13  H   -0.117857
    14  H   -0.081847
    15  H    0.164369
 Sum of Mulliken charges =  -0.00000

 Dipole moment (field-independent basis, Debye):
    X=              2.9194    Y=              0.3206    Z=              2.8468  Tot=              4.0902

 Test job not archived.
 1\1\GINC-SE226\SP\RHF\Aug-CC-pVDZ\C4H8N2O1\OHZDE\09-Apr-2025\0\\#t hf
 aug-cc-pvdz iop(5/13=1,5/36=2,99/5=2) pseudo=read geom=check guess=(re
 ad,tcheck) scf=(maxcycle=1)\\title\\0,1\C,0,-1.98976823,0.83053166,0.6
 3614005\N,0,-0.51379952,0.18951165,0.80029542\C,0,0.13368962,-0.134669
 91,-0.45272911\C,0,1.65955186,-0.21518447,-0.31504723\O,0,2.20777757,1
 .0307255,0.01436598\C,0,-0.40075619,-1.39245919,-0.99776139\N,0,-0.773
 26041,-2.40091898,-1.39637448\H,0,-2.43569742,0.35307495,-0.23826606\H
 ,0,-2.51250487,0.50804092,1.53681595\H,0,-0.64198634,1.26667449,0.9792

 Normal termination of Gaussian 16 at Wed Apr  9 14:27:52 2025.
