 Gaussian 16, Revision C.01,

 ----------------------------------------------------------------------
 #t hf aug-cc-pvdz symm=none int=(grid=ultrafine) guess=(read,tcheck) s
 table=(opt,rrhf)
 ----------------------------------------------------------------------
 -----
 title
 -----
 Symbolic Z-matrix:
 Charge =  0 Multiplicity = 1

 SCF Done:  E(RHF) =  -309.067901943     A.U. after   13 cycles

 1\1\GINC-SE042\Stability\RHF\Aug-CC-pVDZ\C6H12O1\OHZDE\09-Apr-2025\0\\
 #t hf aug-cc-pvdz symm=none int=(grid=ultrafine) guess=(read,tcheck) s
 table=(opt,rrhf)\\title\\0,1\C,0,-1.69276069,-1.0734368,-0.5679996\C,0
 ,-0.62640579,-0.04025385,-0.21405988\C,0,-1.24065218,1.08225415,0.6212
 8432\C,0,0.54074377,-0.70142958,0.52762964\O,0,0.97620042,-1.90373575,
 -0.10300361\C,0,1.75915644,0.15966759,0.75524896\C,0,2.06948167,1.2813
 8858,0.12335477\H,0,-2.52390227,-0.59893254,-1.09376769\H,0,-1.2936411
 4,-1.86785006,-1.19630511\H,0,-2.09402342,-1.53749191,0.33776433\H,0,-

 Normal termination of Gaussian 16 at Wed Apr  9 16:02:20 2025.
 Gaussian 16:  ES64L-G16RevC.01  3-Jul-2019

 ----------------------------------------------------------------------
 #t hf aug-cc-pvdz iop(5/13=1,5/36=2,99/5=2) pseudo=read geom=check gue
 ss=(read,tcheck) scf=(maxcycle=1)
 ----------------------------------------------------------------------
 -----
 title
 -----
 Structure from the checkpoint file:  "Grambow2020_wb97xd3_007708_reverse_mol2.chk"
 Charge =  0 Multiplicity = 1

                         Standard orientation:
 ---------------------------------------------------------------------
 Center     Atomic      Atomic             Coordinates (Angstroms)
 Number     Number       Type             X           Y           Z
 ---------------------------------------------------------------------
      1          6           0        2.150930    0.386976   -0.296071
      2          6           0        0.797570   -0.318760   -0.281741
      3          6           0        0.930527   -1.694654    0.369690
      4          6           0       -0.248421    0.534275    0.444709
      5          8           0       -0.224165    1.897769    0.028587
      6          6           0       -1.677260    0.056683    0.354418
      7          6           0       -2.175292   -0.800261   -0.523911
      8          1           0        2.894381   -0.224321   -0.811803
      9          1           0        2.096704    1.355999   -0.789236
     10          1           0        2.508109    0.554158    0.724341
     11          1           0        0.471738   -0.447313   -1.321842
     12          1           0        1.274074   -1.592611    1.403323
     13          1           0        1.666907   -2.301834   -0.160246
     14          1           0       -0.010889   -2.243226    0.386176
     15          1           0        0.035620    0.572839    1.502828
     16          1           0       -2.351243    0.548687    1.050787
     17          1           0       -1.556317   -1.317626   -1.248083
     18          1           0       -0.669130    1.951233   -0.820928
     19          1           0       -3.234960   -1.023695   -0.546566
 ---------------------------------------------------------------------

 SCF Done:  E(RHF) =  -309.165800320     A.U. after    2 cycles

 The electronic state is 1-A.
 Alpha  occ. eigenvalues --  -20.56939 -11.29170 -11.24633 -11.24088 -11.23586
 Alpha  occ. eigenvalues --  -11.22223 -11.21618  -1.32478  -1.08622  -1.03765
 Alpha  occ. eigenvalues --   -0.92429  -0.91880  -0.80905  -0.76530  -0.68260
 Alpha  occ. eigenvalues --   -0.65826  -0.63601  -0.61565  -0.59852  -0.55090
 Alpha  occ. eigenvalues --   -0.54868  -0.53508  -0.51855  -0.50337  -0.47662
 Alpha  occ. eigenvalues --   -0.46601  -0.43808  -0.38044
 Alpha virt. eigenvalues --    0.03380   0.04162   0.04454   0.04744   0.06192
 Alpha virt. eigenvalues --    0.06294   0.06648   0.07280   0.07475   0.08812
 Alpha virt. eigenvalues --    0.09095   0.09525   0.11231   0.13214   0.14142

 Mulliken charges:
               1
     1  C    0.936849
     2  C   -1.534246
     3  C    0.827103
     4  C    0.605146
     5  O   -0.630640
     6  C    0.571710
     7  C    0.666933
     8  H   -0.013936
     9  H   -0.027842
    10  H    0.004957
    11  H   -0.114796
    12  H   -0.011106
    13  H   -0.057566
    14  H   -0.138087
    15  H   -0.180252
    16  H   -0.370913
    17  H   -0.354969
    18  H    0.160674
    19  H   -0.339020
 Sum of Mulliken charges =  -0.00000

 Dipole moment (field-independent basis, Debye):
    X=             -0.6306    Y=             -1.3859    Z=             -0.8504  Tot=              1.7440

 Test job not archived.
 1\1\GINC-SE042\SP\RHF\Aug-CC-pVDZ\C6H12O1\OHZDE\09-Apr-2025\0\\#t hf a
 ug-cc-pvdz iop(5/13=1,5/36=2,99/5=2) pseudo=read geom=check guess=(rea
 d,tcheck) scf=(maxcycle=1)\\title\\0,1\C,0,-1.69276069,-1.0734368,-0.5
 679996\C,0,-0.62640579,-0.04025385,-0.21405988\C,0,-1.24065218,1.08225
 415,0.62128432\C,0,0.54074377,-0.70142958,0.52762964\O,0,0.97620042,-1
 .90373575,-0.10300361\C,0,1.75915644,0.15966759,0.75524896\C,0,2.06948
 167,1.28138858,0.12335477\H,0,-2.52390227,-0.59893254,-1.09376769\H,0,
 -1.29364114,-1.86785006,-1.19630511\H,0,-2.09402342,-1.53749191,0.3377

 Normal termination of Gaussian 16 at Wed Apr  9 16:02:28 2025.
