 Gaussian 16, Revision C.01,

 ----------------------------------------------------------------------
 #t hf aug-cc-pvdz symm=none int=(grid=ultrafine) guess=(read,tcheck) s
 table=(opt,rrhf)
 ----------------------------------------------------------------------
 -----
 title
 -----
 Symbolic Z-matrix:
 Charge =  0 Multiplicity = 1

 SCF Done:  E(RHF) =  -324.944753258     A.U. after   16 cycles
 Normal termination of Gaussian 16 at Wed Apr  9 16:21:24 2025.
 Gaussian 16:  ES64L-G16RevC.01  3-Jul-2019

 ----------------------------------------------------------------------
 #t hf aug-cc-pvdz iop(5/13=1,5/36=2,99/5=2) pseudo=read geom=check gue
 ss=(read,tcheck) scf=(maxcycle=1)
 ----------------------------------------------------------------------
 -----
 title
 -----
 Structure from the checkpoint file:  "Grambow2020_wb97xd3_008111_reverse_mol1.chk"
 Charge =  0 Multiplicity = 1

                         Standard orientation:
 ---------------------------------------------------------------------
 Center     Atomic      Atomic             Coordinates (Angstroms)
 Number     Number       Type             X           Y           Z
 ---------------------------------------------------------------------
      1          6           0       -2.141014   -0.179715   -0.634454
      2          7           0       -1.613804    0.883418   -0.014967
      3          6           0       -0.360970   -0.393641    0.300184
      4          8           0       -0.393441   -0.866121    1.404863
      5          6           0        0.853251    0.174561   -0.442562
      6          6           0        1.458434    1.318770    0.362950
      7          6           0        1.854531   -0.960988   -0.639414
      8          1           0       -0.914393   -1.094838   -0.622256
      9          1           0       -2.366247   -0.198641   -1.703424
     10          1           0       -2.703332   -0.879840   -0.020306
     11          1           0       -1.265849    1.555688   -0.689625
     12          1           0        0.529123    0.533824   -1.422758
     13          1           0        1.767587    0.962104    1.346146
     14          1           0        0.746887    2.131074    0.512609
     15          1           0        2.335888    1.715380   -0.151123
     16          1           0        2.743208   -0.591552   -1.153983
     17          1           0        2.158418   -1.371323    0.324591
     18          1           0        1.427471   -1.770747   -1.234229
 ---------------------------------------------------------------------

 SCF Done:  E(RHF) =  -325.044752590     A.U. after    2 cycles

 The electronic state is 1-A.
 Alpha  occ. eigenvalues --  -20.52101 -15.62210 -11.38237 -11.35768 -11.26841
 Alpha  occ. eigenvalues --  -11.23355 -11.22942  -1.34181  -1.20524  -1.08318
 Alpha  occ. eigenvalues --   -0.94075  -0.89746  -0.88042  -0.75793  -0.70641
 Alpha  occ. eigenvalues --   -0.67704  -0.63300  -0.62774  -0.61003  -0.59570
 Alpha  occ. eigenvalues --   -0.55451  -0.53831  -0.53294  -0.49653  -0.49532
 Alpha  occ. eigenvalues --   -0.44341  -0.40560  -0.36022
 Alpha virt. eigenvalues --    0.02328   0.03583   0.04122   0.04901   0.06251
 Alpha virt. eigenvalues --    0.06394   0.06668   0.07720   0.08145   0.08832
 Alpha virt. eigenvalues --    0.09494   0.10368   0.12048   0.13321   0.13900

 Mulliken charges:
               1
     1  C    0.756663
     2  N   -0.584007
     3  C    0.252224
     4  O   -0.578948
     5  C   -1.182861
     6  C    0.869053
     7  C    0.744607
     8  H    0.256221
     9  H   -0.180946
    10  H   -0.127076
    11  H    0.060510
    12  H   -0.170772
    13  H    0.038893
    14  H   -0.090868
    15  H   -0.039029
    16  H   -0.033450
    17  H    0.052261
    18  H   -0.042477
 Sum of Mulliken charges =  -0.00000

 Dipole moment (field-independent basis, Debye):
    X=             -0.2416    Y=              0.7481    Z=             -5.3399  Tot=              5.3974

 Test job not archived.
 1\1\GINC-SE041\SP\RHF\Aug-CC-pVDZ\C5H11N1O1\OHZDE\09-Apr-2025\0\\#t hf
  aug-cc-pvdz iop(5/13=1,5/36=2,99/5=2) pseudo=read geom=check guess=(r
 ead,tcheck) scf=(maxcycle=1)\\title\\0,1\C,0,2.36390478,0.27404789,-0.
 36890387\N,0,1.75022583,-0.91100396,-0.47385933\C,0,0.64652292,-0.0161
 2201,0.65787449\O,0,0.76319537,-0.31820868,1.81534539\C,0,-0.64315554,
 0.06307424,-0.16633027\C,0,-1.33669654,-1.29461179,-0.16603311\C,0,-1.
 52790471,1.14263721,0.452174\H,0,1.23917006,1.0659724,0.30193681\H,0,2
 .55522818,0.92669191,-1.22402679\H,0,3.01493525,0.41799093,0.49074346\

 Normal termination of Gaussian 16 at Wed Apr  9 16:21:32 2025.
