 Gaussian 16, Revision C.01,

 ----------------------------------------------------------------------
 #t hf aug-cc-pvdz symm=none int=(grid=ultrafine) guess=(read,tcheck) s
 table=(opt,rrhf)
 ----------------------------------------------------------------------
 -----
 title
 -----
 Symbolic Z-matrix:
 Charge =  0 Multiplicity = 1

 SCF Done:  E(RHF) =  -302.919325565     A.U. after   14 cycles
 Normal termination of Gaussian 16 at Wed Apr  9 15:39:01 2025.
 Gaussian 16:  ES64L-G16RevC.01  3-Jul-2019

 ----------------------------------------------------------------------
 #t hf aug-cc-pvdz iop(5/13=1,5/36=2,99/5=2) pseudo=read geom=check gue
 ss=(read,tcheck) scf=(maxcycle=1)
 ----------------------------------------------------------------------
 -----
 title
 -----
 Structure from the checkpoint file:  "Grambow2020_wb97xd3_007234_reverse_mol2.chk"
 Charge =  0 Multiplicity = 1

                         Standard orientation:
 ---------------------------------------------------------------------
 Center     Atomic      Atomic             Coordinates (Angstroms)
 Number     Number       Type             X           Y           Z
 ---------------------------------------------------------------------
      1          6           0       -2.211953   -0.626494    0.450115
      2          7           0       -0.758296    1.276032   -0.106327
      3          6           0       -1.104386   -0.096209   -0.446026
      4          7           0        0.096004   -0.908214   -0.368212
      5          6           0        1.035965   -0.116013   -0.027659
      6          6           0        2.458496   -0.506314    0.170231
      7          6           0        0.489307    1.252353    0.136377
      8          1           0       -3.097884    0.000483    0.356336
      9          1           0       -2.460268   -1.649270    0.169888
     10          1           0       -1.885720   -0.616863    1.491284
     11          1           0       -1.443520   -0.098866   -1.488802
     12          1           0        2.595088   -1.561140   -0.057556
     13          1           0        3.109850    0.089113   -0.473536
     14          1           0        2.765491   -0.319939    1.202068
     15          1           0        1.048429    2.137815    0.423862
 ---------------------------------------------------------------------

 SCF Done:  E(RHF) =  -303.008289380     A.U. after    2 cycles

 The electronic state is 1-A.
 Alpha  occ. eigenvalues --  -15.63599 -15.62556 -11.29696 -11.29247 -11.29119
 Alpha  occ. eigenvalues --  -11.24975 -11.22989  -1.29323  -1.14088  -1.04910
 Alpha  occ. eigenvalues --   -0.98079  -0.88451  -0.78987  -0.75574  -0.68770
 Alpha  occ. eigenvalues --   -0.63849  -0.60278  -0.59261  -0.57620  -0.55229
 Alpha  occ. eigenvalues --   -0.53599  -0.50872  -0.44586  -0.44351  -0.42466
 Alpha  occ. eigenvalues --   -0.39586
 Alpha virt. eigenvalues --    0.03036   0.04154   0.04227   0.04289   0.06710
 Alpha virt. eigenvalues --    0.06809   0.07200   0.07642   0.09052   0.10741
 Alpha virt. eigenvalues --    0.11785   0.12143   0.12644   0.13623   0.14428

 Mulliken charges:
               1
     1  C    0.589044
     2  N   -0.580714
     3  C    0.282928
     4  N   -0.609689
     5  C   -0.372489
     6  C    0.627089
     7  C    0.636981
     8  H    0.002873
     9  H   -0.006900
    10  H   -0.039364
    11  H   -0.216525
    12  H   -0.112440
    13  H    0.055498
    14  H    0.060381
    15  H   -0.316672
 Sum of Mulliken charges =  -0.00000

 Dipole moment (field-independent basis, Debye):
    X=              1.8129    Y=              0.2891    Z=              0.4937  Tot=              1.9010

 Test job not archived.
 1\1\GINC-SE009\SP\RHF\Aug-CC-pVDZ\C5H8N2\OHZDE\09-Apr-2025\0\\#t hf au
 g-cc-pvdz iop(5/13=1,5/36=2,99/5=2) pseudo=read geom=check guess=(read
 ,tcheck) scf=(maxcycle=1)\\title\\0,1\C,0,-2.24355691,0.18351237,0.634
 13091\N,0,-0.85753553,-0.42538627,-1.30249983\C,0,-1.0827693,-0.651162
 71,0.11754056\N,0,0.14986695,-0.37189218,0.8309535\C,0,0.9996253,-0.02
 647517,-0.05543342\C,0,2.41478739,0.34898171,0.21185041\C,0,0.35714053
 ,-0.06113171,-1.39116473\H,0,-3.15117463,-0.06148258,0.08369859\H,0,-2
 .39904924,-0.01058698,1.69451152\H,0,-2.02872407,1.24471589,0.49904798

 Normal termination of Gaussian 16 at Wed Apr  9 15:39:06 2025.
