 Gaussian 16, Revision C.01,

 ----------------------------------------------------------------------
 #t hf aug-cc-pvdz symm=none int=(grid=ultrafine) guess=(read,tcheck) s
 table=(opt,rrhf)
 ----------------------------------------------------------------------
 -----
 title
 -----
 Symbolic Z-matrix:
 Charge =  0 Multiplicity = 1

 SCF Done:  E(RHF) =  -343.736449803     A.U. after   13 cycles
 Normal termination of Gaussian 16 at Wed Apr  9 15:37:04 2025.
 Gaussian 16:  ES64L-G16RevC.01  3-Jul-2019

 ----------------------------------------------------------------------
 #t hf aug-cc-pvdz iop(5/13=1,5/36=2,99/5=2) pseudo=read geom=check gue
 ss=(read,tcheck) scf=(maxcycle=1)
 ----------------------------------------------------------------------
 -----
 title
 -----
 Structure from the checkpoint file:  "Grambow2020_wb97xd3_007210_forward_mol2.chk"
 Charge =  0 Multiplicity = 1

                         Standard orientation:
 ---------------------------------------------------------------------
 Center     Atomic      Atomic             Coordinates (Angstroms)
 Number     Number       Type             X           Y           Z
 ---------------------------------------------------------------------
      1          8           0       -2.562263    0.125991   -0.095385
      2          6           0       -1.396047   -0.600518    0.244178
      3          6           0       -0.221304    0.068120   -0.422844
      4          6           0        0.286222    1.438171    0.095872
      5          6           0        1.742975    0.907172    0.116821
      6          6           0        1.167032   -0.486052   -0.103991
      7          8           0        1.593049   -1.592782    0.035056
      8          1           0       -3.315280   -0.274443    0.341175
      9          1           0       -1.457798   -1.641466   -0.094512
     10          1           0       -1.243185   -0.612333    1.332087
     11          1           0       -0.374870    0.083301   -1.506463
     12          1           0        0.092873    2.291607   -0.549121
     13          1           0       -0.092441    1.658957    1.093924
     14          1           0        2.332167    1.036606    1.024352
     15          1           0        2.338980    1.230738   -0.739016
 ---------------------------------------------------------------------

 SCF Done:  E(RHF) =  -343.842807651     A.U. after    2 cycles

 The electronic state is 1-A.
 Alpha  occ. eigenvalues --  -20.58193 -20.57075 -11.34278 -11.29812 -11.25036
 Alpha  occ. eigenvalues --  -11.24898 -11.24709  -1.36502  -1.33468  -1.13857
 Alpha  occ. eigenvalues --   -0.99194  -0.87675  -0.85680  -0.74511  -0.71149
 Alpha  occ. eigenvalues --   -0.68273  -0.66292  -0.63987  -0.62772  -0.58565
 Alpha  occ. eigenvalues --   -0.55399  -0.53619  -0.50902  -0.49312  -0.48317
 Alpha  occ. eigenvalues --   -0.45840  -0.41043
 Alpha virt. eigenvalues --    0.03224   0.03968   0.04459   0.05148   0.06217
 Alpha virt. eigenvalues --    0.06545   0.06808   0.07666   0.10104   0.12071
 Alpha virt. eigenvalues --    0.12716   0.13362   0.13542   0.14535   0.14563

 Mulliken charges:
               1
     1  O   -0.559641
     2  C    1.016117
     3  C   -0.549047
     4  C    0.557517
     5  C    0.368133
     6  C    0.171929
     7  O   -0.465127
     8  H    0.141456
     9  H   -0.067257
    10  H   -0.079430
    11  H   -0.055541
    12  H   -0.144926
    13  H   -0.166960
    14  H   -0.131767
    15  H   -0.035457
 Sum of Mulliken charges =  -0.00000

 Dipole moment (field-independent basis, Debye):
    X=             -1.3825    Y=              1.9203    Z=              0.6399  Tot=              2.4512

 Test job not archived.
 1\1\GINC-SE174\SP\RHF\Aug-CC-pVDZ\C5H8O2\OHZDE\09-Apr-2025\0\\#t hf au
 g-cc-pvdz iop(5/13=1,5/36=2,99/5=2) pseudo=read geom=check guess=(read
 ,tcheck) scf=(maxcycle=1)\\title\\0,1\O,0,2.41414114,0.4323088,0.34229
 429\C,0,1.48916582,-0.52650905,-0.13548106\C,0,0.12188757,-0.1467521,0
 .37280035\C,0,-0.6074404,1.08776876,-0.21688381\C,0,-1.89638468,0.2492
 0212,-0.41677931\C,0,-1.05863247,-0.98688976,-0.11381145\O,0,-1.208540
 15,-2.15730979,-0.29634902\H,0,3.28546408,0.21652998,0.00732905\H,0,1.
 73695906,-1.53477554,0.21678747\H,0,1.47949391,-0.55002658,-1.23384677

 Normal termination of Gaussian 16 at Wed Apr  9 15:37:09 2025.
