 Gaussian 16, Revision C.01,

 ----------------------------------------------------------------------
 #t hf aug-cc-pvdz symm=none int=(grid=ultrafine) guess=(read,tcheck) s
 table=(opt,rrhf)
 ----------------------------------------------------------------------
 -----
 title
 -----
 Symbolic Z-matrix:
 Charge =  0 Multiplicity = 1

 SCF Done:  E(RHF) =  -323.932038930     A.U. after   14 cycles
 Normal termination of Gaussian 16 at Wed Apr  9 15:34:07 2025.
 Gaussian 16:  ES64L-G16RevC.01  3-Jul-2019

 ----------------------------------------------------------------------
 #t hf aug-cc-pvdz iop(5/13=1,5/36=2,99/5=2) pseudo=read geom=check gue
 ss=(read,tcheck) scf=(maxcycle=1)
 ----------------------------------------------------------------------
 -----
 title
 -----
 Structure from the checkpoint file:  "Grambow2020_wb97xd3_006970_forward_mol2.chk"
 Charge =  0 Multiplicity = 1

                         Standard orientation:
 ---------------------------------------------------------------------
 Center     Atomic      Atomic             Coordinates (Angstroms)
 Number     Number       Type             X           Y           Z
 ---------------------------------------------------------------------
      1          6           0       -2.247520   -1.187438   -0.121518
      2          6           0       -0.878857   -0.775618    0.404169
      3          6           0       -0.327878    0.472032   -0.274726
      4          8           0       -1.131889    1.614288   -0.045656
      5          6           0        1.051571    0.866391    0.255486
      6          6           0        2.062011   -0.153202   -0.002199
      7          7           0        2.843247   -0.965251   -0.216583
      8          1           0       -2.224647   -1.350029   -1.202190
      9          1           0       -2.580414   -2.115337    0.344104
     10          1           0       -3.010814   -0.435520    0.095376
     11          1           0       -0.167761   -1.592388    0.252352
     12          1           0       -0.930386   -0.588256    1.481313
     13          1           0       -0.241848    0.284359   -1.354588
     14          1           0       -2.002351    1.461215   -0.417062
     15          1           0        0.990302    1.046424    1.331247
     16          1           0        1.364340    1.799001   -0.216500
 ---------------------------------------------------------------------

 SCF Done:  E(RHF) =  -324.032349939     A.U. after    2 cycles

 The electronic state is 1-A.
 Alpha  occ. eigenvalues --  -20.59229 -15.63722 -11.31871 -11.28894 -11.28729
 Alpha  occ. eigenvalues --  -11.24714 -11.24404  -1.35056  -1.19848  -1.09040
 Alpha  occ. eigenvalues --   -1.03270  -0.91056  -0.83050  -0.75437  -0.67763
 Alpha  occ. eigenvalues --   -0.66113  -0.64580  -0.61986  -0.59713  -0.56501
 Alpha  occ. eigenvalues --   -0.54500  -0.53516  -0.51456  -0.50956  -0.47139
 Alpha  occ. eigenvalues --   -0.45927  -0.45353
 Alpha virt. eigenvalues --    0.02943   0.04043   0.04200   0.04968   0.06166
 Alpha virt. eigenvalues --    0.06391   0.06916   0.08085   0.08969   0.10021
 Alpha virt. eigenvalues --    0.11625   0.12190   0.13678   0.14395   0.14703

 Mulliken charges:
               1
     1  C    0.458418
     2  C    0.115473
     3  C    0.261316
     4  O   -0.600218
     5  C    0.485336
     6  C   -0.106784
     7  N   -0.235566
     8  H   -0.054546
     9  H   -0.066211
    10  H   -0.093962
    11  H   -0.127340
    12  H   -0.093074
    13  H   -0.257975
    14  H    0.157993
    15  H    0.066078
    16  H    0.091060
 Sum of Mulliken charges =  -0.00000

 Dipole moment (field-independent basis, Debye):
    X=             -3.6843    Y=              0.9740    Z=             -0.0476  Tot=              3.8112

 Test job not archived.
 1\1\GINC-SE041\SP\RHF\Aug-CC-pVDZ\C5H9N1O1\OHZDE\09-Apr-2025\0\\#t hf
 aug-cc-pvdz iop(5/13=1,5/36=2,99/5=2) pseudo=read geom=check guess=(re
 ad,tcheck) scf=(maxcycle=1)\\title\\0,1\C,0,2.09207392,-0.02652269,0.0
 3583648\C,0,0.66954468,0.13649475,0.55450447\C,0,-0.38916717,-0.238916
 7,-0.47471969\O,0,-0.323366,-1.60269651,-0.84812175\C,0,-1.81213491,-0
 .05918154,0.05667793\C,0,-2.11457094,1.32886302,0.38656355\N,0,-2.3346
 782,2.42628008,0.63744419\H,0,2.2528717,0.56093452,-0.87182398\H,0,2.8
 1769589,0.30812571,0.77752502\H,0,2.32812037,-1.07061916,-0.18594432\H

 Normal termination of Gaussian 16 at Wed Apr  9 15:34:12 2025.
