 Gaussian 16, Revision C.01,

 ----------------------------------------------------------------------
 #t hf aug-cc-pvdz symm=none int=(grid=ultrafine) guess=(read,tcheck) s
 table=(opt,rrhf)
 ----------------------------------------------------------------------
 -----
 title
 -----
 Symbolic Z-matrix:
 Charge =  0 Multiplicity = 1

 SCF Done:  E(RHF) =  -268.830714407     A.U. after   14 cycles
 Normal termination of Gaussian 16 at Wed Apr  9 03:15:00 2025.
 Gaussian 16:  ES64L-G16RevC.01  3-Jul-2019

 ----------------------------------------------------------------------
 #t hf aug-cc-pvdz iop(5/13=1,5/36=2,99/5=2) pseudo=read geom=check gue
 ss=(read,tcheck) scf=(maxcycle=1)
 ----------------------------------------------------------------------
 -----
 title
 -----
 Structure from the checkpoint file:  "Grambow2020_b97d3_007031_forward_mol2.chk"
 Charge =  0 Multiplicity = 1

                         Standard orientation:
 ---------------------------------------------------------------------
 Center     Atomic      Atomic             Coordinates (Angstroms)
 Number     Number       Type             X           Y           Z
 ---------------------------------------------------------------------
      1          6           0        2.935492    0.366415    0.081998
      2          6           0        1.569663   -0.148115   -0.016639
      3          6           0        0.446933   -0.617383   -0.108156
      4          6           0       -0.941080   -1.078721   -0.195109
      5          6           0       -1.913949   -0.037842    0.408801
      6          8           0       -1.835306    1.217107   -0.246466
      7          1           0        2.943199    1.434196    0.348384
      8          1           0        3.508159   -0.172439    0.851788
      9          1           0        3.471075    0.256867   -0.873042
     10          1           0       -1.211564   -1.248332   -1.249340
     11          1           0       -1.060968   -2.040430    0.330467
     12          1           0       -2.946233   -0.388541    0.278015
     13          1           0       -1.713204    0.047166    1.493039
     14          1           0       -0.890371    1.468531   -0.232951
 ---------------------------------------------------------------------

 SCF Done:  E(RHF) =  -268.916091938     A.U. after    2 cycles

 The electronic state is 1-A.
 Alpha  occ. eigenvalues --  -20.57079 -11.29499 -11.26628 -11.26538 -11.24776
 Alpha  occ. eigenvalues --  -11.24212  -1.31835  -1.06996  -1.02261  -0.94398
 Alpha  occ. eigenvalues --   -0.86161  -0.69910  -0.67424  -0.64126  -0.62649
 Alpha  occ. eigenvalues --   -0.59383  -0.59164  -0.57400  -0.56390  -0.50686
 Alpha  occ. eigenvalues --   -0.46156  -0.37632  -0.37345
 Alpha virt. eigenvalues --    0.03143   0.03858   0.04946   0.05239   0.06315
 Alpha virt. eigenvalues --    0.06589   0.06791   0.08014   0.10324   0.12122
 Alpha virt. eigenvalues --    0.12420   0.13421   0.14049   0.14801   0.15497

 Mulliken charges:
               1
     1  C    0.078655
     2  C   -0.718471
     3  C   -0.136069
     4  C   -0.187384
     5  C    0.817383
     6  O   -0.570534
     7  H    0.131271
     8  H    0.146462
     9  H    0.150286
    10  H    0.142177
    11  H    0.168905
    12  H   -0.123060
    13  H   -0.087397
    14  H    0.187778
 Sum of Mulliken charges =  -0.00000

 Dipole moment (field-independent basis, Debye):
    X=              1.7091    Y=             -1.0467    Z=              0.7182  Tot=              2.1290

 Test job not archived.
 1\1\GINC-SE071\SP\RHF\Aug-CC-pVDZ\C5H8O1\OHZDE\09-Apr-2025\0\\#t hf au
 g-cc-pvdz iop(5/13=1,5/36=2,99/5=2) pseudo=read geom=check guess=(read
 ,tcheck) scf=(maxcycle=1)\\title\\0,1\C,0,2.78034687,0.30781395,-0.136
 01273\C,0,1.37014445,-0.03967665,-0.31076266\C,0,0.20548896,-0.3573299
 5,-0.48904723\C,0,-1.22044118,-0.66759426,-0.62107803\C,0,-2.01998499,
 -0.14673083,0.59713434\O,0,-1.89791018,1.25625535,0.7620146\H,0,2.9164
 4086,1.03092425,0.68238064\H,0,3.38187192,-0.58205681,0.10312321\H,0,3
 .19490718,0.75734694,-1.05089653\H,0,-1.62004389,-0.19993465,-1.534832

 Normal termination of Gaussian 16 at Wed Apr  9 03:15:04 2025.
