 Gaussian 16, Revision C.01,

 ----------------------------------------------------------------------
 #t hf aug-cc-pvdz symm=none int=(grid=ultrafine) guess=(read,tcheck) s
 table=(opt,rrhf)
 ----------------------------------------------------------------------
 -----
 title
 -----
 Symbolic Z-matrix:
 Charge =  0 Multiplicity = 1

 SCF Done:  E(RHF) =  -380.654899683     A.U. after   14 cycles
 Normal termination of Gaussian 16 at Wed Apr  9 03:40:05 2025.
 Gaussian 16:  ES64L-G16RevC.01  3-Jul-2019

 ----------------------------------------------------------------------
 #t hf aug-cc-pvdz iop(5/13=1,5/36=2,99/5=2) pseudo=read geom=check gue
 ss=(read,tcheck) scf=(maxcycle=1)
 ----------------------------------------------------------------------
 -----
 title
 -----
 Structure from the checkpoint file:  "Grambow2020_wb97xd3_007510_forward_mol1.chk"
 Charge =  0 Multiplicity = 1

                         Standard orientation:
 ---------------------------------------------------------------------
 Center     Atomic      Atomic             Coordinates (Angstroms)
 Number     Number       Type             X           Y           Z
 ---------------------------------------------------------------------
      1          8           0       -0.809651   -0.683956   -0.890655
      2          6           0       -1.973033    0.051517   -0.423493
      3          6           0       -1.219320    0.869420    0.619590
      4          6           0        0.063867    0.080157    0.318425
      5          8           0        0.275856   -1.044000    0.970632
      6          6           0        1.288661    0.814776   -0.159370
      7          8           0        2.348096   -0.054544   -0.405716
      8          1           0       -0.463079   -1.416966   -0.005723
      9          1           0       -2.738148   -0.626876   -0.046107
     10          1           0       -2.378051    0.633392   -1.249033
     11          1           0       -1.534399    0.741878    1.652716
     12          1           0       -1.143301    1.930126    0.380313
     13          1           0        1.062359    1.383209   -1.063912
     14          1           0        1.523895    1.538801    0.639301
     15          1           0        2.195268   -0.818773    0.167443
 ---------------------------------------------------------------------

 SCF Done:  E(RHF) =  -380.773086898     A.U. after    2 cycles

 The electronic state is 1-A.
 Alpha  occ. eigenvalues --  -20.60615 -20.57006 -20.54504 -11.38602 -11.31856
 Alpha  occ. eigenvalues --  -11.30266 -11.26363  -1.40897  -1.33301  -1.28262
 Alpha  occ. eigenvalues --   -1.06163  -0.98521  -0.88925  -0.78596  -0.75013
 Alpha  occ. eigenvalues --   -0.71437  -0.69589  -0.67086  -0.63610  -0.62832
 Alpha  occ. eigenvalues --   -0.58519  -0.57180  -0.55398  -0.52351  -0.50319
 Alpha  occ. eigenvalues --   -0.46668  -0.45846  -0.44060
 Alpha virt. eigenvalues --    0.02908   0.04150   0.04471   0.05129   0.06561
 Alpha virt. eigenvalues --    0.06625   0.06842   0.07737   0.10741   0.11469
 Alpha virt. eigenvalues --    0.12822   0.13595   0.14241   0.14427   0.15021

 Mulliken charges:
               1
     1  O   -0.901097
     2  C    0.972630
     3  C    0.533685
     4  C    0.044545
     5  O   -0.987813
     6  C    0.800161
     7  O   -0.546783
     8  H    0.454732
     9  H   -0.190748
    10  H   -0.234286
    11  H   -0.056236
    12  H   -0.153941
    13  H    0.011798
    14  H    0.071610
    15  H    0.181743
 Sum of Mulliken charges =  -0.00000

 Dipole moment (field-independent basis, Debye):
    X=             -3.5933    Y=              2.6580    Z=              0.4896  Tot=              4.4963

 Test job not archived.
 1\1\GINC-SE186\SP\RHF\Aug-CC-pVDZ\C4H8O3\OHZDE\09-Apr-2025\0\\#t hf au
 g-cc-pvdz iop(5/13=1,5/36=2,99/5=2) pseudo=read geom=check guess=(read
 ,tcheck) scf=(maxcycle=1)\\title\\0,1\O,0,-0.45359481,1.14809114,-0.38
 396568\C,0,-1.67743691,0.37745044,-0.23925672\C,0,-1.00735855,-0.84619
 255,0.37618005\C,0,0.37183867,-0.20313821,0.16522833\O,0,0.97885838,-0
 .38634148,-0.98889753\C,0,1.26186044,0.04430551,1.35464223\O,0,2.45875
 32,0.65255527,0.98547282\H,0,0.2156116,0.61373848,-1.22488819\H,0,-2.1
 6217875,0.22967877,-1.20425861\H,0,-2.3522789,0.90837133,0.42920798\H,

 Normal termination of Gaussian 16 at Wed Apr  9 03:40:11 2025.
