 Gaussian 16, Revision C.01,

 ----------------------------------------------------------------------
 #t hf aug-cc-pvdz symm=none int=(grid=ultrafine) guess=(read,tcheck) s
 table=(opt,rrhf)
 ----------------------------------------------------------------------
 -----
 title
 -----
 Symbolic Z-matrix:
 Charge =  0 Multiplicity = 1

 SCF Done:  E(RHF) =  -359.555896586     A.U. after   16 cycles
 Normal termination of Gaussian 16 at Wed Apr  9 16:11:03 2025.
 Gaussian 16:  ES64L-G16RevC.01  3-Jul-2019

 ----------------------------------------------------------------------
 #t hf aug-cc-pvdz iop(5/13=1,5/36=2,99/5=2) pseudo=read geom=check gue
 ss=(read,tcheck) scf=(maxcycle=1)
 ----------------------------------------------------------------------
 -----
 title
 -----
 Structure from the checkpoint file:  "Grambow2020_wb97xd3_007900_reverse_mol2.chk"
 Charge =  0 Multiplicity = 1

                         Standard orientation:
 ---------------------------------------------------------------------
 Center     Atomic      Atomic             Coordinates (Angstroms)
 Number     Number       Type             X           Y           Z
 ---------------------------------------------------------------------
      1          6           0       -0.887701    1.563750    0.107760
      2          6           0       -0.348645    0.167739    0.172562
      3          7           0       -1.045175   -0.883319    0.027463
      4          8           0       -2.373982   -0.590286   -0.199357
      5          6           0        1.097458   -0.040609    0.490799
      6          6           0        1.859213   -1.210702    0.013317
      7          8           0        2.014114    0.526484   -0.499168
      8          1           0       -1.631305    1.721043    0.891533
      9          1           0       -0.088124    2.294839    0.223878
     10          1           0       -1.392369    1.735223   -0.844219
     11          1           0       -2.772735   -1.457470   -0.299892
     12          1           0        1.354188    0.444394    1.436689
     13          1           0        2.751840   -1.265375    0.655362
     14          1           0        1.651723    0.339933   -1.374012
 ---------------------------------------------------------------------

 SCF Done:  E(RHF) =  -359.663575515     A.U. after    2 cycles

 The electronic state is 1-A.
 Alpha  occ. eigenvalues --  -20.64095 -20.62147 -15.69671 -11.32258 -11.29634
 Alpha  occ. eigenvalues --  -11.26454 -11.25060  -1.40168  -1.39129  -1.16581
 Alpha  occ. eigenvalues --   -1.00677  -0.99005  -0.85886  -0.78532  -0.71918
 Alpha  occ. eigenvalues --   -0.70937  -0.68060  -0.64361  -0.62682  -0.58861
 Alpha  occ. eigenvalues --   -0.57791  -0.56843  -0.54956  -0.49189  -0.44595
 Alpha  occ. eigenvalues --   -0.40088  -0.35785
 Alpha virt. eigenvalues --    0.03199   0.03975   0.04349   0.04872   0.06654
 Alpha virt. eigenvalues --    0.06996   0.07238   0.09069   0.11721   0.12383
 Alpha virt. eigenvalues --    0.12778   0.13194   0.13612   0.14564   0.15138

 Mulliken charges:
               1
     1  C    0.547345
     2  C   -0.387641
     3  N   -0.266687
     4  O   -0.502356
     5  C    1.231534
     6  C    0.032622
     7  O   -0.700698
     8  H    0.071554
     9  H   -0.155778
    10  H    0.051593
    11  H    0.179371
    12  H   -0.287292
    13  H   -0.076503
    14  H    0.262935
 Sum of Mulliken charges =  -0.00000

 Dipole moment (field-independent basis, Debye):
    X=             -1.1682    Y=              1.8427    Z=              0.7853  Tot=              2.3188

 Test job not archived.
 1\1\GINC-SE232\SP\RHF\Aug-CC-pVDZ\C4H7N1O2\OHZDE\09-Apr-2025\0\\#t hf
 aug-cc-pvdz iop(5/13=1,5/36=2,99/5=2) pseudo=read geom=check guess=(re
 ad,tcheck) scf=(maxcycle=1)\\title\\0,1\C,0,-1.17168671,-1.1198191,-0.
 09861983\C,0,-0.3482951,0.12881795,-0.01764076\N,0,-0.75190804,1.23045
 205,0.46653967\O,0,-2.05356029,1.14661871,0.91566875\C,0,1.03087263,0.
 13057857,-0.5953883\C,0,2.10914336,0.99866856,-0.08437915\O,0,1.949944
 47,-0.80708441,0.05112463\H,0,-2.05445957,-0.95365167,-0.71917562\H,0,
 -0.59150422,-1.94138667,-0.51779966\H,0,-1.53153345,-1.40568926,0.8908

 Normal termination of Gaussian 16 at Wed Apr  9 16:11:07 2025.
