 Gaussian 16, Revision C.01,

 ----------------------------------------------------------------------
 #t hf aug-cc-pvdz symm=none int=(grid=ultrafine) guess=(read,tcheck) s
 table=(opt,rrhf)
 ----------------------------------------------------------------------
 -----
 title
 -----
 Symbolic Z-matrix:
 Charge =  0 Multiplicity = 1

 SCF Done:  E(RHF) =  -263.771533401     A.U. after   15 cycles
 Normal termination of Gaussian 16 at Wed Apr  9 14:15:04 2025.
 Gaussian 16:  ES64L-G16RevC.01  3-Jul-2019

 ----------------------------------------------------------------------
 #t hf aug-cc-pvdz iop(5/13=1,5/36=2,99/5=2) pseudo=read geom=check gue
 ss=(read,tcheck) scf=(maxcycle=1)
 ----------------------------------------------------------------------
 -----
 title
 -----
 Structure from the checkpoint file:  "Grambow2020_b97d3_006862_reverse_mol2.chk"
 Charge =  0 Multiplicity = 1

                         Standard orientation:
 ---------------------------------------------------------------------
 Center     Atomic      Atomic             Coordinates (Angstroms)
 Number     Number       Type             X           Y           Z
 ---------------------------------------------------------------------
      1          6           0       -2.547666    0.513128   -0.312600
      2          6           0       -0.344544   -0.611892    0.082040
      3          6           0       -1.529264   -0.242372    0.510994
      4          7           0        1.867748    1.087205    0.036625
      5          7           0        2.061895   -0.157340   -0.001003
      6          6           0        0.892542   -0.943853   -0.255473
      7          1           0       -3.481568   -0.063122   -0.397229
      8          1           0       -2.792922    1.468801    0.174555
      9          1           0       -2.168082    0.722105   -1.319127
     10          1           0       -1.817040   -0.498077    1.537378
     11          1           0        2.796773    1.494814    0.280153
     12          1           0        1.128933   -1.923632   -0.674850
 ---------------------------------------------------------------------

 SCF Done:  E(RHF) =  -263.849425769     A.U. after    2 cycles

 The electronic state is 1-A.
 Alpha  occ. eigenvalues --  -15.70647 -15.68850 -11.28182 -11.27573 -11.27146
 Alpha  occ. eigenvalues --  -11.25011  -1.30752  -1.08975  -1.02675  -0.92842
 Alpha  occ. eigenvalues --   -0.84894  -0.72568  -0.67667  -0.63307  -0.60939
 Alpha  occ. eigenvalues --   -0.58102  -0.57703  -0.54048  -0.51659  -0.40370
 Alpha  occ. eigenvalues --   -0.37681  -0.36093
 Alpha virt. eigenvalues --    0.03334   0.04351   0.04527   0.04976   0.06310
 Alpha virt. eigenvalues --    0.07052   0.08189   0.09878   0.10535   0.11988
 Alpha virt. eigenvalues --    0.12466   0.13199   0.14546   0.15294   0.15967

 Mulliken charges:
               1
     1  C    0.108858
     2  C   -0.463355
     3  C    0.381879
     4  N   -0.171637
     5  N   -0.550855
     6  C    1.159831
     7  H    0.029406
     8  H    0.043285
     9  H   -0.123388
    10  H   -0.289389
    11  H    0.090285
    12  H   -0.214919
 Sum of Mulliken charges =  -0.00000

 Dipole moment (field-independent basis, Debye):
    X=             -1.2086    Y=              0.1130    Z=              0.2974  Tot=              1.2498

 Test job not archived.
 1\1\GINC-SE087\SP\RHF\Aug-CC-pVDZ\C4H6N2\OHZDE\09-Apr-2025\0\\#t hf au
 g-cc-pvdz iop(5/13=1,5/36=2,99/5=2) pseudo=read geom=check guess=(read
 ,tcheck) scf=(maxcycle=1)\\title\\0,1\C,0,-1.86565454,-1.00640836,0.00
 05623\C,0,-0.01116795,0.65917004,-0.24820746\C,0,-0.91004254,-0.134863
 5,-0.782664\N,0,2.48642697,-0.22303757,0.6275525\N,0,2.32969978,1.0043
 1596,0.38871918\C,0,0.96927681,1.41780552,0.2183709\H,0,-2.90878893,-0
 .74631773,-0.23528319\H,0,-1.72021549,-2.06316458,-0.26942919\H,0,-1.7
 0882409,-0.8974078,1.07962463\H,0,-0.98869754,-0.17522686,-1.87529785\

 Normal termination of Gaussian 16 at Wed Apr  9 14:15:08 2025.
