 Gaussian 16, Revision C.01,

 ----------------------------------------------------------------------
 #t hf aug-cc-pvdz symm=none int=(grid=ultrafine) guess=(read,tcheck) s
 table=(opt,rrhf)
 ----------------------------------------------------------------------
 -----
 title
 -----
 Symbolic Z-matrix:
 Charge =  0 Multiplicity = 1

 SCF Done:  E(RHF) =  -320.168999845     A.U. after   17 cycles
 Normal termination of Gaussian 16 at Wed Apr  9 04:05:26 2025.
 Gaussian 16:  ES64L-G16RevC.01  3-Jul-2019

 ----------------------------------------------------------------------
 #t hf aug-cc-pvdz iop(5/13=1,5/36=2,99/5=2) pseudo=read geom=check gue
 ss=(read,tcheck) scf=(maxcycle=1)
 ----------------------------------------------------------------------
 -----
 title
 -----
 Structure from the checkpoint file:  "Grambow2020_wb97xd3_009365_reverse_mol2.chk"
 Charge =  0 Multiplicity = 1

                         Standard orientation:
 ---------------------------------------------------------------------
 Center     Atomic      Atomic             Coordinates (Angstroms)
 Number     Number       Type             X           Y           Z
 ---------------------------------------------------------------------
      1          6           0        1.491583    0.692519    0.315577
      2          6           0        0.385107    1.324824   -0.035515
      3          6           0       -0.834599    1.273111   -0.377738
      4          6           0       -1.584427    0.233274    0.015463
      5          8           0       -0.994390   -0.915308    0.383208
      6          7           0        0.224125   -1.384786   -0.277150
      7          6           0        1.287113   -0.694316   -0.132351
      8          1           0        2.446432    1.080090    0.631231
      9          1           0       -2.664586    0.173495    0.108944
     10          1           0        2.135741   -1.214085   -0.578411
 ---------------------------------------------------------------------

 SCF Done:  E(RHF) =  -320.265096691     A.U. after    2 cycles

 The electronic state is 1-A.
 Alpha  occ. eigenvalues --  -20.64772 -15.70599 -11.38033 -11.33249 -11.32405
 Alpha  occ. eigenvalues --  -11.27742 -11.24534  -1.41451  -1.19813  -1.13736
 Alpha  occ. eigenvalues --   -1.01197  -0.93198  -0.79919  -0.76425  -0.72856
 Alpha  occ. eigenvalues --   -0.67951  -0.66812  -0.63541  -0.55099  -0.51458
 Alpha  occ. eigenvalues --   -0.48196  -0.44532  -0.39954  -0.32805
 Alpha virt. eigenvalues --    0.02927   0.03409   0.03932   0.04731   0.05979
 Alpha virt. eigenvalues --    0.07827   0.09504   0.10876   0.11075   0.11845
 Alpha virt. eigenvalues --    0.12284   0.12887   0.13914   0.14583   0.15205

 Mulliken charges:
               1
     1  C    0.809348
     2  C   -0.278546
     3  C   -0.465095
     4  C    0.942476
     5  O   -0.604980
     6  N   -0.179971
     7  C    0.555640
     8  H   -0.293106
     9  H   -0.265538
    10  H   -0.220227
 Sum of Mulliken charges =  -0.00000

 Dipole moment (field-independent basis, Debye):
    X=              1.4180    Y=              1.0045    Z=              0.5193  Tot=              1.8136

 Test job not archived.
 1\1\GINC-SE423\SP\RHF\Aug-CC-pVDZ\C5H3N1O1\OHZDE\09-Apr-2025\0\\#t hf
 aug-cc-pvdz iop(5/13=1,5/36=2,99/5=2) pseudo=read geom=check guess=(re
 ad,tcheck) scf=(maxcycle=1)\\title\\0,1\C,0,1.36301986,-0.49811867,0.2
 4066048\C,0,1.02089553,0.75063141,-0.02567942\C,0,0.11475085,1.5960706
 6,-0.29327897\C,0,-1.14049885,1.36748385,0.11928221\O,0,-1.52793899,0.
 11793289,0.42116525\N,0,-1.01760495,-1.03303979,-0.32454362\C,0,0.2251
 4835,-1.30500492,-0.22831935\H,0,2.31940206,-0.91796515,0.50645913\H,0
 ,-1.94261994,2.08203646,0.27762194\H,0,0.44440207,-2.24349873,-0.73866

 Normal termination of Gaussian 16 at Wed Apr  9 04:05:30 2025.
