 Gaussian 16, Revision C.01,

 ----------------------------------------------------------------------
 #t hf aug-cc-pvdz symm=none int=(grid=ultrafine) guess=(read,tcheck) s
 table=(opt,rrhf)
 ----------------------------------------------------------------------
 -----
 title
 -----
 Symbolic Z-matrix:
 Charge =  0 Multiplicity = 1

 SCF Done:  E(RHF) =  -284.831855239     A.U. after   15 cycles
 Normal termination of Gaussian 16 at Wed Apr  9 03:05:26 2025.
 Gaussian 16:  ES64L-G16RevC.01  3-Jul-2019

 ----------------------------------------------------------------------
 #t hf aug-cc-pvdz iop(5/13=1,5/36=2,99/5=2) pseudo=read geom=check gue
 ss=(read,tcheck) scf=(maxcycle=1)
 ----------------------------------------------------------------------
 -----
 title
 -----
 Structure from the checkpoint file:  "Grambow2020_b97d3_006536_reverse_mol2.chk"
 Charge =  0 Multiplicity = 1

                         Standard orientation:
 ---------------------------------------------------------------------
 Center     Atomic      Atomic             Coordinates (Angstroms)
 Number     Number       Type             X           Y           Z
 ---------------------------------------------------------------------
      1          6           0        1.917446    0.708533   -0.459250
      2          6           0       -1.245094    1.236797    0.275269
      3          8           0       -1.611238   -0.046810   -0.262276
      4          6           0       -0.739721   -1.086625   -0.181887
      5          7           0        0.478616   -1.170844    0.174628
      6          6           0        1.425014   -0.184701    0.425822
      7          1           0       -0.519555    1.745308   -0.370617
      8          1           0        2.759952    1.341844   -0.188117
      9          1           0       -0.811021    1.129344    1.277116
     10          1           0       -2.181066    1.802946    0.329539
     11          1           0       -1.275391   -1.995839   -0.468298
     12          1           0        1.530827    0.780136   -1.475862
     13          1           0        1.889977   -0.277378    1.412319
 ---------------------------------------------------------------------

 SCF Done:  E(RHF) =  -284.922393326     A.U. after    2 cycles

 The electronic state is 1-A.
 Alpha  occ. eigenvalues --  -20.61950 -15.62630 -11.36827 -11.30318 -11.28711
 Alpha  occ. eigenvalues --  -11.22938  -1.38564  -1.19987  -1.02888  -0.97062
 Alpha  occ. eigenvalues --   -0.86056  -0.76796  -0.71972  -0.68378  -0.66784
 Alpha  occ. eigenvalues --   -0.62520  -0.59113  -0.54543  -0.53899  -0.52338
 Alpha  occ. eigenvalues --   -0.47249  -0.41292  -0.33107
 Alpha virt. eigenvalues --    0.03329   0.04263   0.04609   0.04977   0.06750
 Alpha virt. eigenvalues --    0.07029   0.07429   0.09912   0.10429   0.12068
 Alpha virt. eigenvalues --    0.12810   0.13386   0.14297   0.15220   0.15936

 Mulliken charges:
               1
     1  C    0.394941
     2  C    0.807504
     3  O   -0.497980
     4  C    0.547120
     5  N   -0.384623
     6  C    0.764682
     7  H   -0.090870
     8  H   -0.268814
     9  H   -0.060067
    10  H   -0.257438
    11  H   -0.326949
    12  H   -0.362154
    13  H   -0.265353
 Sum of Mulliken charges =   0.00000

 Dipole moment (field-independent basis, Debye):
    X=             -0.7192    Y=              1.6622    Z=              0.5573  Tot=              1.8949

 Test job not archived.
 1\1\GINC-SE114\SP\RHF\Aug-CC-pVDZ\C4H7N1O1\OHZDE\09-Apr-2025\0\\#t hf
 aug-cc-pvdz iop(5/13=1,5/36=2,99/5=2) pseudo=read geom=check guess=(re
 ad,tcheck) scf=(maxcycle=1)\\title\\0,1\C,0,1.82585122,-0.10233337,0.3
 8781983\C,0,-1.3204246,-1.04088299,0.18703137\O,0,-1.7616558,0.3244966
 4,0.29527627\C,0,-0.99562122,1.32465996,-0.21470971\N,0,0.18150718,1.3
 5534256,-0.6963407\C,0,1.19272965,0.40210412,-0.69310997\H,0,-0.507601
 62,-1.25242446,0.8918221\H,0,2.70057478,-0.73790117,0.26402694\H,0,-0.
 97057377,-1.25699804,-0.83010214\H,0,-2.20290048,-1.64699234,0.4180721

 Normal termination of Gaussian 16 at Wed Apr  9 03:05:30 2025.
