 Gaussian 16, Revision C.01,

 ----------------------------------------------------------------------
 #t hf aug-cc-pvdz symm=none int=(grid=ultrafine) guess=(read,tcheck) s
 table=(opt,rrhf)
 ----------------------------------------------------------------------
 -----
 title
 -----
 Symbolic Z-matrix:
 Charge =  0 Multiplicity = 1

 SCF Done:  E(RHF) =  -268.682774604     A.U. after   16 cycles
 Normal termination of Gaussian 16 at Wed Apr  9 03:15:34 2025.
 Gaussian 16:  ES64L-G16RevC.01  3-Jul-2019

 ----------------------------------------------------------------------
 #t hf aug-cc-pvdz iop(5/13=1,5/36=2,99/5=2) pseudo=read geom=check gue
 ss=(read,tcheck) scf=(maxcycle=1)
 ----------------------------------------------------------------------
 -----
 title
 -----
 Structure from the checkpoint file:  "Grambow2020_b97d3_007037_forward_mol1.chk"
 Charge =  0 Multiplicity = 1

                         Standard orientation:
 ---------------------------------------------------------------------
 Center     Atomic      Atomic             Coordinates (Angstroms)
 Number     Number       Type             X           Y           Z
 ---------------------------------------------------------------------
      1          6           0        2.263201   -0.232162   -0.008677
      2          6           0        0.762573   -0.206105   -0.002704
      3          6           0       -0.123773   -1.192574    0.000720
      4          6           0       -1.635841   -0.800657    0.034436
      5          6           0       -1.679499    0.662622   -0.033496
      6          8           0        0.244552    1.211280   -0.082855
      7          1           0        2.688226    0.262260    0.882192
      8          1           0        2.607586   -1.271019   -0.015727
      9          1           0        2.669896    0.281576   -0.893035
     10          1           0       -2.137250   -1.263792   -0.826779
     11          1           0       -2.087087   -1.196167    0.954972
     12          1           0       -1.835543    1.167457   -0.984258
     13          1           0       -1.879367    1.262848    0.854545
     14          1           0        0.497159    1.679858    0.749265
 ---------------------------------------------------------------------

 SCF Done:  E(RHF) =  -268.762507035     A.U. after    2 cycles

 The electronic state is 1-A.
 Alpha  occ. eigenvalues --  -20.62308 -11.37523 -11.25596 -11.25413 -11.22133
 Alpha  occ. eigenvalues --  -11.17525  -1.33806  -1.08162  -1.00437  -0.90825
 Alpha  occ. eigenvalues --   -0.85100  -0.73083  -0.69434  -0.66365  -0.62638
 Alpha  occ. eigenvalues --   -0.59250  -0.56389  -0.55217  -0.53830  -0.50579
 Alpha  occ. eigenvalues --   -0.49680  -0.31353  -0.28266
 Alpha virt. eigenvalues --    0.02177   0.03304   0.04364   0.04877   0.05827
 Alpha virt. eigenvalues --    0.06629   0.07138   0.07351   0.08565   0.10503
 Alpha virt. eigenvalues --    0.11680   0.12344   0.13665   0.14752   0.15476

 Mulliken charges:
               1
     1  C    0.360650
     2  C    0.292980
     3  C   -0.899060
     4  C    0.144464
     5  C    0.887479
     6  O   -0.740295
     7  H    0.000821
     8  H   -0.000335
     9  H    0.021618
    10  H    0.053614
    11  H    0.027040
    12  H   -0.171282
    13  H   -0.191356
    14  H    0.213662
 Sum of Mulliken charges =  -0.00000

 Dipole moment (field-independent basis, Debye):
    X=             -3.1532    Y=              4.7670    Z=              1.2093  Tot=              5.8420

 Test job not archived.
 1\1\GINC-SE036\SP\RHF\Aug-CC-pVDZ\C5H8O1\OHZDE\09-Apr-2025\0\\#t hf au
 g-cc-pvdz iop(5/13=1,5/36=2,99/5=2) pseudo=read geom=check guess=(read
 ,tcheck) scf=(maxcycle=1)\\title\\0,1\C,0,2.18131908,0.59247028,-0.041
 41837\C,0,0.76032078,0.1160635,-0.12142104\C,0,0.21245319,-0.87087248,
 -0.81751013\C,0,-1.32120663,-1.11082477,-0.64031492\C,0,-1.79921317,-0
 .05172165,0.25272284\O,0,-0.15344679,0.99533252,0.70056644\H,0,2.58443
 472,0.5185086,0.98365392\H,0,2.80698071,-0.0220765,-0.69621076\H,0,2.2
 6990537,1.64451303,-0.35250676\H,0,-1.80054794,-1.05850221,-1.62778124

 Normal termination of Gaussian 16 at Wed Apr  9 03:15:40 2025.
