 Gaussian 16, Revision C.01,

 ----------------------------------------------------------------------
 #t hf aug-cc-pvdz symm=none int=(grid=ultrafine) guess=(read,tcheck) s
 table=(opt,rrhf)
 ----------------------------------------------------------------------
 -----
 title
 -----
 Symbolic Z-matrix:
 Charge =  0 Multiplicity = 1

 SCF Done:  E(RHF) =  -289.048925133     A.U. after   15 cycles

 1\1\GINC-SE114\Stability\RHF\Aug-CC-pVDZ\C6H13N1\OHZDE\09-Apr-2025\0\\
 #t hf aug-cc-pvdz symm=none int=(grid=ultrafine) guess=(read,tcheck) s
 table=(opt,rrhf)\\title\\0,1\C,0,-1.29993105,1.74912399,0.54711996\C,0
 ,-0.75262992,0.33988134,0.52396809\N,0,-1.18709919,-0.43030684,-0.5722
 0941\C,0,-1.05662568,-1.79316199,-0.3849982\C,0,0.70398334,0.1872359,0
 .09844147\C,0,1.37049533,-1.00819047,0.53749071\C,0,1.24549444,0.86743
 267,-1.13717662\H,0,-2.35446743,1.72058787,0.82511139\H,0,-0.76435712,
 2.37175364,1.26792947\H,0,-1.235524,2.20622253,-0.44035105\H,0,-0.8871

 Normal termination of Gaussian 16 at Wed Apr  9 17:03:00 2025.
 Gaussian 16:  ES64L-G16RevC.01  3-Jul-2019

 ----------------------------------------------------------------------
 #t hf aug-cc-pvdz iop(5/13=1,5/36=2,99/5=2) pseudo=read geom=check gue
 ss=(read,tcheck) scf=(maxcycle=1)
 ----------------------------------------------------------------------
 -----
 title
 -----
 Structure from the checkpoint file:  "Grambow2020_wb97xd3_009130_forward_mol1.chk"
 Charge =  0 Multiplicity = 1

                         Standard orientation:
 ---------------------------------------------------------------------
 Center     Atomic      Atomic             Coordinates (Angstroms)
 Number     Number       Type             X           Y           Z
 ---------------------------------------------------------------------
      1          6           0       -2.179688   -0.190596    0.305612
      2          6           0       -0.693816   -0.436676    0.438533
      3          7           0       -0.111473   -1.070168   -0.676422
      4          6           0        1.102245   -1.673050   -0.406484
      5          6           0        0.210974    0.778691    0.264362
      6          6           0        1.515040    0.688771    0.862169
      7          6           0        0.046182    1.731154   -0.896806
      8          1           0       -2.711427   -1.137583    0.408612
      9          1           0       -2.538838    0.498222    1.074126
     10          1           0       -2.419344    0.212309   -0.678471
     11          1           0       -0.477833   -0.906752    1.416315
     12          1           0        1.520906   -2.166152   -1.284610
     13          1           0        1.885755   -0.857223   -0.087656
     14          1           0        1.123776   -2.354380    0.461993
     15          1           0        0.399744    1.426554    1.301407
     16          1           0        1.651619    0.127007    1.777871
     17          1           0        2.321126    1.329593    0.525328
     18          1           0       -0.969925    1.706551   -1.283344
     19          1           0        0.719560    1.468604   -1.713164
     20          1           0        0.269572    2.754661   -0.587772
 ---------------------------------------------------------------------

 SCF Done:  E(RHF) =  -289.137421067     A.U. after    2 cycles

 The electronic state is 1-A.
 Alpha  occ. eigenvalues --  -15.54856 -11.31313 -11.29620 -11.26496 -11.24162
 Alpha  occ. eigenvalues --  -11.23318 -11.21382  -1.18720  -1.09116  -0.99743
 Alpha  occ. eigenvalues --   -0.96168  -0.87893  -0.79424  -0.74670  -0.67462
 Alpha  occ. eigenvalues --   -0.66081  -0.63011  -0.59809  -0.57567  -0.55437
 Alpha  occ. eigenvalues --   -0.55399  -0.54028  -0.50715  -0.50143  -0.47454
 Alpha  occ. eigenvalues --   -0.44389  -0.35242  -0.25999
 Alpha virt. eigenvalues --    0.02606   0.03971   0.04048   0.04902   0.06053
 Alpha virt. eigenvalues --    0.06381   0.06423   0.06714   0.06912   0.08525
 Alpha virt. eigenvalues --    0.08941   0.09364   0.10067   0.10271   0.12929

 Mulliken charges:
               1
     1  C    0.465389
     2  C    0.288099
     3  N   -0.892895
     4  C    0.730600
     5  C   -0.777285
     6  C    0.540464
     7  C    0.759977
     8  H    0.018240
     9  H    0.020219
    10  H    0.018783
    11  H   -0.273933
    12  H   -0.258818
    13  H   -0.056195
    14  H   -0.066781
    15  H    0.204158
    16  H   -0.329842
    17  H   -0.364583
    18  H   -0.146256
    19  H    0.091811
    20  H    0.028849
 Sum of Mulliken charges =   0.00000

 Dipole moment (field-independent basis, Debye):
    X=              1.5536    Y=              3.1121    Z=              2.7082  Tot=              4.4083

 Test job not archived.
 1\1\GINC-SE114\SP\RHF\Aug-CC-pVDZ\C6H13N1\OHZDE\09-Apr-2025\0\\#t hf a
 ug-cc-pvdz iop(5/13=1,5/36=2,99/5=2) pseudo=read geom=check guess=(rea
 d,tcheck) scf=(maxcycle=1)\\title\\0,1\C,0,-1.29993105,1.74912399,0.54
 711996\C,0,-0.75262992,0.33988134,0.52396809\N,0,-1.18709919,-0.430306
 84,-0.57220941\C,0,-1.05662568,-1.79316199,-0.3849982\C,0,0.70398334,0
 .1872359,0.09844147\C,0,1.37049533,-1.00819047,0.53749071\C,0,1.245494
 44,0.86743267,-1.13717662\H,0,-2.35446743,1.72058787,0.82511139\H,0,-0
 .76435712,2.37175364,1.26792947\H,0,-1.235524,2.20622253,-0.44035105\H

 Normal termination of Gaussian 16 at Wed Apr  9 17:03:08 2025.
