 Gaussian 16, Revision C.01,

 ----------------------------------------------------------------------
 #t hf aug-cc-pvdz symm=none int=(grid=ultrafine) guess=(read,tcheck) s
 table=(opt,rrhf)
 ----------------------------------------------------------------------
 -----
 title
 -----
 Symbolic Z-matrix:
 Charge =  0 Multiplicity = 1

 SCF Done:  E(RHF) =  -283.566523545     A.U. after   15 cycles
 Normal termination of Gaussian 16 at Wed Apr  9 03:09:42 2025.
 Gaussian 16:  ES64L-G16RevC.01  3-Jul-2019

 ----------------------------------------------------------------------
 #t hf aug-cc-pvdz iop(5/13=1,5/36=2,99/5=2) pseudo=read geom=check gue
 ss=(read,tcheck) scf=(maxcycle=1)
 ----------------------------------------------------------------------
 -----
 title
 -----
 Structure from the checkpoint file:  "Grambow2020_b97d3_006731_reverse_mol2.chk"
 Charge =  0 Multiplicity = 1

                         Standard orientation:
 ---------------------------------------------------------------------
 Center     Atomic      Atomic             Coordinates (Angstroms)
 Number     Number       Type             X           Y           Z
 ---------------------------------------------------------------------
      1          6           0        1.639335   -0.207729   -0.712893
      2          6           0        0.346830    1.033506    0.285889
      3          8           0       -1.014626    0.951519   -0.130822
      4          6           0       -1.332924   -0.389356   -0.186320
      5          7           0       -0.458562   -1.260336    0.118535
      6          6           0        0.781659   -0.557659    0.400194
      7          1           0        0.899561    1.648884   -0.444105
      8          1           0        2.569884    0.199102   -0.245122
      9          1           0        0.438640    1.465361    1.289856
     10          1           0       -2.353561   -0.578459   -0.509445
     11          1           0        1.163007   -0.797261    1.404426
 ---------------------------------------------------------------------

 SCF Done:  E(RHF) =  -283.649846011     A.U. after    2 cycles

 The electronic state is 1-A.
 Alpha  occ. eigenvalues --  -20.63120 -15.63126 -11.36449 -11.34436 -11.30713
 Alpha  occ. eigenvalues --  -11.27969  -1.41273  -1.20557  -1.08338  -0.91911
 Alpha  occ. eigenvalues --   -0.85352  -0.77786  -0.72994  -0.69119  -0.64284
 Alpha  occ. eigenvalues --   -0.62055  -0.57925  -0.55040  -0.50563  -0.45160
 Alpha  occ. eigenvalues --   -0.40346  -0.37142
 Alpha virt. eigenvalues --    0.02887   0.04030   0.04682   0.04956   0.07034
 Alpha virt. eigenvalues --    0.08426   0.09798   0.10117   0.11172   0.12042
 Alpha virt. eigenvalues --    0.13293   0.13371   0.13754   0.14948   0.16023

 Mulliken charges:
               1
     1  C   -0.271638
     2  C    0.442872
     3  O   -0.609174
     4  C    0.733012
     5  N   -0.658844
     6  C    1.006832
     7  H   -0.131867
     8  H   -0.026641
     9  H   -0.119681
    10  H   -0.182203
    11  H   -0.182668
 Sum of Mulliken charges =  -0.00000

 Dipole moment (field-independent basis, Debye):
    X=              0.4033    Y=              1.6952    Z=              2.3771  Tot=              2.9474

 Test job not archived.
 1\1\GINC-SE023\SP\RHF\Aug-CC-pVDZ\C4H5N1O1\OHZDE\09-Apr-2025\0\\#t hf
 aug-cc-pvdz iop(5/13=1,5/36=2,99/5=2) pseudo=read geom=check guess=(re
 ad,tcheck) scf=(maxcycle=1)\\title\\0,1\C,0,-1.34683179,0.74484363,0.5
 7640196\C,0,-0.27142611,-0.2650016,-0.84926127\O,0,1.035527,0.24864144
 ,-1.09820906\C,0,1.62867842,0.43856044,0.13241764\N,0,0.99096811,0.149
 59819,1.19349239\C,0,-0.34286007,-0.27392083,0.80263691\H,0,-1.0032952
 2,0.37123872,-1.37524481\H,0,-2.30001884,0.18229919,0.41758784\H,0,-0.
 36851452,-1.30573328,-1.18141899\H,0,2.6349781,0.84505812,0.0692578\H,

 Normal termination of Gaussian 16 at Wed Apr  9 03:09:46 2025.
