 Gaussian 16, Revision C.01,

 ----------------------------------------------------------------------
 #t hf aug-cc-pvdz symm=none int=(grid=ultrafine) guess=(read,tcheck) s
 table=(opt,rrhf)
 ----------------------------------------------------------------------
 -----
 title
 -----
 Symbolic Z-matrix:
 Charge =  0 Multiplicity = 1

 SCF Done:  E(RHF) =  -320.256229935     A.U. after   18 cycles
 Normal termination of Gaussian 16 at Wed Apr  9 15:58:42 2025.
 Gaussian 16:  ES64L-G16RevC.01  3-Jul-2019

 ----------------------------------------------------------------------
 #t hf aug-cc-pvdz iop(5/13=1,5/36=2,99/5=2) pseudo=read geom=check gue
 ss=(read,tcheck) scf=(maxcycle=1)
 ----------------------------------------------------------------------
 -----
 title
 -----
 Structure from the checkpoint file:  "Grambow2020_wb97xd3_007650_forward_mol1.chk"
 Charge =  0 Multiplicity = 1

                         Standard orientation:
 ---------------------------------------------------------------------
 Center     Atomic      Atomic             Coordinates (Angstroms)
 Number     Number       Type             X           Y           Z
 ---------------------------------------------------------------------
      1          7           0       -2.311107    0.123064   -0.670700
      2          6           0       -1.366921    0.025318   -0.010726
      3          6           0       -0.041120    0.785461    0.889752
      4          6           0       -0.136304   -0.632397    0.692172
      5          8           0        0.867724   -1.123868   -0.147236
      6          6           0        1.527433   -0.028499   -0.545521
      7          6           0        1.021213    1.116431   -0.031282
      8          1           0       -0.504241   -1.370956    1.394024
      9          1           0        2.343110   -0.208843   -1.231390
     10          1           0        1.371287    2.111413   -0.256212
 ---------------------------------------------------------------------

 SCF Done:  E(RHF) =  -320.351700925     A.U. after    2 cycles

 The electronic state is 1-A.
 Alpha  occ. eigenvalues --  -20.67588 -15.66252 -11.37906 -11.36702 -11.32148
 Alpha  occ. eigenvalues --  -11.28688 -11.26760  -1.46971  -1.22017  -1.13919
 Alpha  occ. eigenvalues --   -1.07223  -0.87553  -0.83471  -0.77065  -0.74272
 Alpha  occ. eigenvalues --   -0.66486  -0.62102  -0.61254  -0.57889  -0.53831
 Alpha  occ. eigenvalues --   -0.50889  -0.49356  -0.40710  -0.37343
 Alpha virt. eigenvalues --    0.02607   0.03295   0.04004   0.04578   0.07388
 Alpha virt. eigenvalues --    0.08771   0.09128   0.10514   0.10913   0.12128
 Alpha virt. eigenvalues --    0.13047   0.13821   0.13993   0.14255   0.15075

 Mulliken charges:
               1
     1  N   -0.245062
     2  C   -0.086627
     3  C   -0.571696
     4  C    0.961097
     5  O   -0.565934
     6  C    0.456038
     7  C    0.791590
     8  H   -0.167772
     9  H   -0.274713
    10  H   -0.296921
 Sum of Mulliken charges =   0.00000

 Dipole moment (field-independent basis, Debye):
    X=              4.1067    Y=             -1.2597    Z=             -0.0220  Tot=              4.2957

 Test job not archived.
 1\1\GINC-SE100\SP\RHF\Aug-CC-pVDZ\C5H3N1O1\OHZDE\09-Apr-2025\0\\#t hf
 aug-cc-pvdz iop(5/13=1,5/36=2,99/5=2) pseudo=read geom=check guess=(re
 ad,tcheck) scf=(maxcycle=1)\\title\\0,1\N,0,2.34417995,0.56225472,-1.1
 6043994\C,0,1.5679278,0.37488918,-0.32441741\C,0,0.61641656,-0.7543907
 8,0.65832299\C,0,0.43580459,0.66791468,0.71168468\O,0,-0.79582417,1.07
 054666,0.1870891\C,0,-1.34277401,-0.0624466,-0.27209927\C,0,-0.5572012
 2,-1.14859057,-0.0857371\H,0,0.82734953,1.35317203,1.45367997\H,0,-2.3
 0901997,0.05297537,-0.74254141\H,0,-0.78392706,-2.14893269,-0.41897362

 Normal termination of Gaussian 16 at Wed Apr  9 15:58:46 2025.
