 Gaussian 16, Revision C.01,

 ----------------------------------------------------------------------
 #t hf aug-cc-pvdz symm=none int=(grid=ultrafine) guess=(read,tcheck) s
 table=(opt,rrhf)
 ----------------------------------------------------------------------
 -----
 title
 -----
 Symbolic Z-matrix:
 Charge =  0 Multiplicity = 1

 SCF Done:  E(RHF) =  -305.784981083     A.U. after   13 cycles
 Normal termination of Gaussian 16 at Wed Apr  9 14:24:21 2025.
 Gaussian 16:  ES64L-G16RevC.01  3-Jul-2019

 ----------------------------------------------------------------------
 #t hf aug-cc-pvdz iop(5/13=1,5/36=2,99/5=2) pseudo=read geom=check gue
 ss=(read,tcheck) scf=(maxcycle=1)
 ----------------------------------------------------------------------
 -----
 title
 -----
 Structure from the checkpoint file:  "Grambow2020_wb97xd3_006221_reverse_mol2.chk"
 Charge =  0 Multiplicity = 1

                         Standard orientation:
 ---------------------------------------------------------------------
 Center     Atomic      Atomic             Coordinates (Angstroms)
 Number     Number       Type             X           Y           Z
 ---------------------------------------------------------------------
      1          6           0       -1.429273   -1.563329    0.161364
      2          8           0       -0.328286   -0.751070   -0.170453
      3          6           0       -0.690097    0.572070   -0.498090
      4          6           0       -0.731090    1.613119    0.553437
      5          6           0        0.293230    1.629820   -0.236572
      6          8           0        2.532004   -0.674885    0.040459
      7          1           0       -2.154757   -1.601888   -0.659602
      8          1           0       -1.934996   -1.196259    1.062211
      9          1           0       -1.052634   -2.567880    0.347661
     10          1           0       -1.355144    0.595243   -1.363082
     11          1           0        2.632103   -0.535980    0.982788
     12          1           0       -1.254521    2.027595    1.397257
     13          1           0        1.242456    2.042264   -0.529650
     14          1           0        1.591136   -0.865535   -0.078466
 ---------------------------------------------------------------------

 SCF Done:  E(RHF) =  -305.886055689     A.U. after    2 cycles

 The electronic state is 1-A.
 Alpha  occ. eigenvalues --  -20.58049 -20.54606 -11.31433 -11.28970 -11.26580
 Alpha  occ. eigenvalues --  -11.26348  -1.35267  -1.28129  -1.17176  -0.94498
 Alpha  occ. eigenvalues --   -0.82096  -0.78491  -0.71826  -0.70409  -0.68733
 Alpha  occ. eigenvalues --   -0.64371  -0.62436  -0.57074  -0.53495  -0.51844
 Alpha  occ. eigenvalues --   -0.49754  -0.47005  -0.42155  -0.39484
 Alpha virt. eigenvalues --    0.03081   0.04220   0.04585   0.04830   0.06546
 Alpha virt. eigenvalues --    0.06789   0.07149   0.09025   0.09692   0.11794
 Alpha virt. eigenvalues --    0.12437   0.13552   0.14108   0.14589   0.15522

 Mulliken charges:
               1
     1  C    0.655275
     2  O   -0.702228
     3  C    0.806763
     4  C    0.066929
     5  C    0.387513
     6  O   -0.316131
     7  H   -0.053966
     8  H   -0.057581
     9  H   -0.258764
    10  H   -0.273163
    11  H    0.134114
    12  H   -0.291082
    13  H   -0.315864
    14  H    0.218183
 Sum of Mulliken charges =  -0.00000

 Dipole moment (field-independent basis, Debye):
    X=             -3.1477    Y=              1.0045    Z=              1.6177  Tot=              3.6788

 Test job not archived.
 1\1\GINC-SE226\SP\RHF\Aug-CC-pVDZ\C4H8O2\OHZDE\09-Apr-2025\0\\#t hf au
 g-cc-pvdz iop(5/13=1,5/36=2,99/5=2) pseudo=read geom=check guess=(read
 ,tcheck) scf=(maxcycle=1)\\title\\0,1\C,0,1.61078563,-0.53758651,-0.90
 121053\O,0,0.40047013,0.10947286,-0.58737605\C,0,-0.61547467,-0.777516
 95,-0.17499686\C,0,-0.78638455,-1.09560655,1.26054579\C,0,-1.63333767,
 -0.26247667,0.74850052\O,0,-0.65137004,2.7149642,-0.00721209\H,0,1.467
 85282,-1.28320849,-1.69204344\H,0,2.03432843,-1.03426811,-0.02033606\H
 ,0,2.30797568,0.22134424,-1.25282983\H,0,-0.85174512,-1.49742845,-0.96

 Normal termination of Gaussian 16 at Wed Apr  9 14:24:25 2025.
