 Gaussian 16, Revision C.01,

 ----------------------------------------------------------------------
 #t hf aug-cc-pvdz symm=none int=(grid=ultrafine) guess=(read,tcheck) s
 table=(opt,rrhf)
 ----------------------------------------------------------------------
 -----
 title
 -----
 Symbolic Z-matrix:
 Charge =  0 Multiplicity = 1

 SCF Done:  E(RHF) =  -317.586286576     A.U. after   17 cycles
 Normal termination of Gaussian 16 at Wed Apr  9 16:17:50 2025.
 Gaussian 16:  ES64L-G16RevC.01  3-Jul-2019

 ----------------------------------------------------------------------
 #t hf aug-cc-pvdz iop(5/13=1,5/36=2,99/5=2) pseudo=read geom=check gue
 ss=(read,tcheck) scf=(maxcycle=1)
 ----------------------------------------------------------------------
 -----
 title
 -----
 Structure from the checkpoint file:  "Grambow2020_wb97xd3_008066_forward_mol1.chk"
 Charge =  0 Multiplicity = 1

                         Standard orientation:
 ---------------------------------------------------------------------
 Center     Atomic      Atomic             Coordinates (Angstroms)
 Number     Number       Type             X           Y           Z
 ---------------------------------------------------------------------
      1          7           0       -2.551700   -0.475982   -0.658992
      2          6           0       -1.690495   -0.033196   -0.038076
      3          6           0       -0.611335    0.555750    0.720301
      4          6           0        0.782539   -1.403360    0.393972
      5          7           0        1.622794   -0.615573   -0.223671
      6          6           0        1.915922    0.485000   -0.574303
      7          7           0        0.117384    1.534866    0.265191
      8          1           0       -0.604607    0.344883    1.783248
      9          1           0        0.999390   -1.631022    1.429692
     10          1           0        0.244775   -2.129477   -0.202345
     11          1           0        2.805425    0.912731   -1.012371
     12          1           0       -0.144111    1.774540   -0.687290
 ---------------------------------------------------------------------

 SCF Done:  E(RHF) =  -317.681715448     A.U. after    2 cycles

 The electronic state is 1-A.
 Alpha  occ. eigenvalues --  -15.72399 -15.64930 -15.63431 -11.33541 -11.31609
 Alpha  occ. eigenvalues --  -11.30889 -11.28508  -1.29185  -1.20698  -1.17134
 Alpha  occ. eigenvalues --   -1.03673  -0.90749  -0.78878  -0.74568  -0.71455
 Alpha  occ. eigenvalues --   -0.67602  -0.63941  -0.62514  -0.55011  -0.50364
 Alpha  occ. eigenvalues --   -0.49821  -0.47020  -0.44731  -0.40448  -0.31585
 Alpha virt. eigenvalues --    0.02702   0.03181   0.04745   0.05027   0.06496
 Alpha virt. eigenvalues --    0.08396   0.09150   0.09245   0.09537   0.10796
 Alpha virt. eigenvalues --    0.11643   0.12877   0.12910   0.14122   0.14881

 Mulliken charges:
               1
     1  N   -0.176890
     2  C   -0.491105
     3  C    1.084972
     4  C    0.717239
     5  N    0.060829
     6  C    0.167549
     7  N   -0.449063
     8  H   -0.243927
     9  H   -0.235700
    10  H   -0.298158
    11  H   -0.195691
    12  H    0.059946
 Sum of Mulliken charges =  -0.00000

 Dipole moment (field-independent basis, Debye):
    X=              4.4243    Y=             -0.3503    Z=              0.5191  Tot=              4.4684

 Test job not archived.
 1\1\GINC-SE125\SP\RHF\Aug-CC-pVDZ\C4H5N3\OHZDE\09-Apr-2025\0\\#t hf au
 g-cc-pvdz iop(5/13=1,5/36=2,99/5=2) pseudo=read geom=check guess=(read
 ,tcheck) scf=(maxcycle=1)\\title\\0,1\N,0,2.55074352,-1.10963715,0.912
 69495\C,0,1.86238657,-0.49614519,0.22490007\C,0,1.00864676,0.30677846,
 -0.61950711\C,0,-0.87901511,-1.16869918,-0.23586199\N,0,-1.48712231,-0
 .13832831,0.29012441\C,0,-1.47588595,1.02327547,0.55597637\N,0,0.56493
 03,1.47828064,-0.26240472\H,0,0.9740328,0.02769285,-1.66606286\H,0,-1.
 12094324,-1.40463059,-1.26415001\H,0,-0.57874285,-1.9676879,0.43008421

 Normal termination of Gaussian 16 at Wed Apr  9 16:17:55 2025.
