 Gaussian 16, Revision C.01,

 ----------------------------------------------------------------------
 #t hf aug-cc-pvdz symm=none int=(grid=ultrafine) guess=(read,tcheck) s
 table=(opt,rrhf)
 ----------------------------------------------------------------------
 -----
 title
 -----
 Symbolic Z-matrix:
 Charge =  0 Multiplicity = 1

 SCF Done:  E(RHF) =  -302.804154457     A.U. after   16 cycles
 Normal termination of Gaussian 16 at Wed Apr  9 15:39:04 2025.
 Gaussian 16:  ES64L-G16RevC.01  3-Jul-2019

 ----------------------------------------------------------------------
 #t hf aug-cc-pvdz iop(5/13=1,5/36=2,99/5=2) pseudo=read geom=check gue
 ss=(read,tcheck) scf=(maxcycle=1)
 ----------------------------------------------------------------------
 -----
 title
 -----
 Structure from the checkpoint file:  "Grambow2020_wb97xd3_007238_forward_mol1.chk"
 Charge =  0 Multiplicity = 1

                         Standard orientation:
 ---------------------------------------------------------------------
 Center     Atomic      Atomic             Coordinates (Angstroms)
 Number     Number       Type             X           Y           Z
 ---------------------------------------------------------------------
      1          6           0       -1.522978   -1.150972    0.604530
      2          7           0       -1.293668    0.242742   -0.621257
      3          6           0       -0.807024    1.307944    0.037694
      4          7           0        0.485679    1.233461    0.352913
      5          6           0        0.906906    0.036696   -0.085356
      6          6           0        2.301681   -0.456170    0.103476
      7          6           0       -0.174505   -0.620749   -0.670067
      8          1           0       -1.074627   -0.783115    1.520533
      9          1           0       -2.593835   -0.992812    0.567421
     10          1           0       -1.301848   -2.200677    0.428246
     11          1           0       -1.431788    2.152032    0.290956
     12          1           0        2.474067   -0.764979    1.137546
     13          1           0        2.507403   -1.310277   -0.542999
     14          1           0        3.017557    0.333197   -0.125852
     15          1           0       -0.165484   -1.467288   -1.339107
 ---------------------------------------------------------------------

 SCF Done:  E(RHF) =  -302.893495646     A.U. after    2 cycles

 The electronic state is 1-A.
 Alpha  occ. eigenvalues --  -15.65019 -15.61712 -11.32317 -11.27956 -11.27436
 Alpha  occ. eigenvalues --  -11.25877 -11.23321  -1.29959  -1.12685  -1.02852
 Alpha  occ. eigenvalues --   -0.95770  -0.92453  -0.78774  -0.75545  -0.68689
 Alpha  occ. eigenvalues --   -0.63152  -0.62400  -0.58721  -0.57199  -0.56255
 Alpha  occ. eigenvalues --   -0.54383  -0.53646  -0.45812  -0.42119  -0.40041
 Alpha  occ. eigenvalues --   -0.30183
 Alpha virt. eigenvalues --    0.02626   0.03558   0.04357   0.04732   0.06394
 Alpha virt. eigenvalues --    0.06961   0.07072   0.07499   0.09923   0.10958
 Alpha virt. eigenvalues --    0.11467   0.12043   0.13523   0.13620   0.13888

 Mulliken charges:
               1
     1  C    0.678268
     2  N   -0.732921
     3  C    0.671716
     4  N   -0.680295
     5  C   -0.449377
     6  C    0.492755
     7  C    0.804457
     8  H   -0.108281
     9  H   -0.067673
    10  H   -0.055232
    11  H   -0.326140
    12  H    0.087173
    13  H   -0.020508
    14  H   -0.012401
    15  H   -0.281541
 Sum of Mulliken charges =   0.00000

 Dipole moment (field-independent basis, Debye):
    X=             -0.8648    Y=             -3.3358    Z=              0.6577  Tot=              3.5083

 Test job not archived.
 1\1\GINC-SE037\SP\RHF\Aug-CC-pVDZ\C5H8N2\OHZDE\09-Apr-2025\0\\#t hf au
 g-cc-pvdz iop(5/13=1,5/36=2,99/5=2) pseudo=read geom=check guess=(read
 ,tcheck) scf=(maxcycle=1)\\title\\0,1\C,0,-1.78379203,-0.26649131,-0.5
 9669854\N,0,-1.19196988,0.47456661,1.01518076\C,0,-0.50275261,-0.46563
 737,1.68352955\N,0,0.7246656,-0.70054922,1.22065317\C,0,0.87941,0.0998
 639,0.15427952\C,0,2.11586161,0.11781881,-0.67928904\C,0,-0.29836911,0
 .82418598,-0.02393858\H,0,-1.30160065,-1.23643348,-0.64255459\H,0,-2.7
 8781974,-0.31463986,-0.19329015\H,0,-1.80096158,0.23298906,-1.56214105

 Normal termination of Gaussian 16 at Wed Apr  9 15:39:09 2025.
