 Gaussian 16, Revision C.01,

 ----------------------------------------------------------------------
 #t hf aug-cc-pvdz symm=none int=(grid=ultrafine) guess=(read,tcheck) s
 table=(opt,rrhf)
 ----------------------------------------------------------------------
 -----
 title
 -----
 Symbolic Z-matrix:
 Charge =  0 Multiplicity = 1

 SCF Done:  E(RHF) =  -307.890898046     A.U. after   15 cycles

 1\1\GINC-SE252\Stability\RHF\Aug-CC-pVDZ\C6H10O1\OHZDE\09-Apr-2025\0\\
 #t hf aug-cc-pvdz symm=none int=(grid=ultrafine) guess=(read,tcheck) s
 table=(opt,rrhf)\\title\\0,1\O,0,1.91053293,-1.2122752,0.12460967\C,0,
 0.84943552,-0.64864588,-0.02177645\C,0,-0.45984418,-1.40525107,-0.0926
 6589\C,0,-1.62206777,-0.59201489,0.46660499\C,0,-1.7269313,0.76285512,
 -0.22469608\C,0,-0.39837528,1.45091234,-0.30850649\C,0,0.7681768,0.818
 61698,-0.18956199\H,0,4.79670527,0.42043287,0.34909872\H,0,4.15951197,
 0.03172334,0.31671843\H,0,-0.33337944,-2.35902718,0.41934664\H,0,-0.63

 Normal termination of Gaussian 16 at Wed Apr  9 03:53:47 2025.
 Gaussian 16:  ES64L-G16RevC.01  3-Jul-2019

 ----------------------------------------------------------------------
 #t hf aug-cc-pvdz iop(5/13=1,5/36=2,99/5=2) pseudo=read geom=check gue
 ss=(read,tcheck) scf=(maxcycle=1)
 ----------------------------------------------------------------------
 -----
 title
 -----
 Structure from the checkpoint file:  "Grambow2020_wb97xd3_008422_reverse_mol2.chk"
 Charge =  0 Multiplicity = 1

                         Standard orientation:
 ---------------------------------------------------------------------
 Center     Atomic      Atomic             Coordinates (Angstroms)
 Number     Number       Type             X           Y           Z
 ---------------------------------------------------------------------
      1          8           0        2.097164   -0.655512   -0.006887
      2          6           0        0.935101   -0.323808   -0.074835
      3          6           0       -0.179389   -1.331792   -0.258057
      4          6           0       -1.474727   -0.880477    0.407762
      5          6           0       -1.891509    0.501655   -0.082718
      6          6           0       -0.747612    1.469432   -0.062348
      7          6           0        0.531520    1.098450   -0.031017
      8          1           0        4.563510    1.522963    0.459489
      9          1           0        4.025638    1.012325    0.369483
     10          1           0        0.166079   -2.296763    0.112512
     11          1           0       -0.331423   -1.436694   -1.339396
     12          1           0       -1.324789   -0.840769    1.491159
     13          1           0       -2.269828   -1.606048    0.226058
     14          1           0       -2.280599    0.443289   -1.107410
     15          1           0       -2.711474    0.894710    0.523183
     16          1           0       -0.991866    2.527887   -0.076484
     17          1           0        1.337130    1.822434    0.003779
 ---------------------------------------------------------------------

 SCF Done:  E(RHF) =  -307.988838852     A.U. after    2 cycles

 The electronic state is 1-A.
 Alpha  occ. eigenvalues --  -20.55451 -11.33714 -11.27491 -11.25714 -11.25064
 Alpha  occ. eigenvalues --  -11.24594 -11.24565  -1.34905  -1.13159  -1.03290
 Alpha  occ. eigenvalues --   -0.99008  -0.85745  -0.82466  -0.71391  -0.69174
 Alpha  occ. eigenvalues --   -0.64675  -0.64267  -0.60229  -0.59155  -0.58081
 Alpha  occ. eigenvalues --   -0.56451  -0.54702  -0.51569  -0.49389  -0.48948
 Alpha  occ. eigenvalues --   -0.41716  -0.38448
 Alpha virt. eigenvalues --    0.02830   0.03825   0.04331   0.04839   0.06212
 Alpha virt. eigenvalues --    0.06355   0.06912   0.07507   0.08290   0.08763
 Alpha virt. eigenvalues --    0.10358   0.11849   0.13095   0.13502   0.13913

 Mulliken charges:
               1
     1  O   -0.496158
     2  C   -0.228289
     3  C    0.309109
     4  C    0.423618
     5  C    0.270217
     6  C    0.023523
     7  C    0.694279
     8  H    0.002300
     9  H    0.000156
    10  H   -0.046775
    11  H    0.033453
    12  H   -0.151341
    13  H   -0.021813
    14  H    0.039947
    15  H    0.001521
    16  H   -0.408084
    17  H   -0.445663
 Sum of Mulliken charges =  -0.00000

 Dipole moment (field-independent basis, Debye):
    X=             -4.7086    Y=              1.0259    Z=             -0.2696  Tot=              4.8266

 Test job not archived.
 1\1\GINC-SE252\SP\RHF\Aug-CC-pVDZ\C6H10O1\OHZDE\09-Apr-2025\0\\#t hf a
 ug-cc-pvdz iop(5/13=1,5/36=2,99/5=2) pseudo=read geom=check guess=(rea
 d,tcheck) scf=(maxcycle=1)\\title\\0,1\O,0,1.91053293,-1.2122752,0.124
 60967\C,0,0.84943552,-0.64864588,-0.02177645\C,0,-0.45984418,-1.405251
 07,-0.09266589\C,0,-1.62206777,-0.59201489,0.46660499\C,0,-1.7269313,0
 .76285512,-0.22469608\C,0,-0.39837528,1.45091234,-0.30850649\C,0,0.768
 1768,0.81861698,-0.18956199\H,0,4.79670527,0.42043287,0.34909872\H,0,4
 .15951197,0.03172334,0.31671843\H,0,-0.33337944,-2.35902718,0.41934664

 Normal termination of Gaussian 16 at Wed Apr  9 03:53:52 2025.
