 Gaussian 16, Revision C.01,

 ----------------------------------------------------------------------
 #t hf aug-cc-pvdz symm=none int=(grid=ultrafine) guess=(read,tcheck) s
 table=(opt,rrhf)
 ----------------------------------------------------------------------
 -----
 title
 -----
 Symbolic Z-matrix:
 Charge =  0 Multiplicity = 1

 SCF Done:  E(RHF) =  -306.480143598     A.U. after   17 cycles
 Normal termination of Gaussian 16 at Wed Apr  9 16:52:22 2025.
 Gaussian 16:  ES64L-G16RevC.01  3-Jul-2019

 ----------------------------------------------------------------------
 #t hf aug-cc-pvdz iop(5/13=1,5/36=2,99/5=2) pseudo=read geom=check gue
 ss=(read,tcheck) scf=(maxcycle=1)
 ----------------------------------------------------------------------
 -----
 title
 -----
 Structure from the checkpoint file:  "Grambow2020_wb97xd3_009025_reverse_mol1.chk"
 Charge =  0 Multiplicity = 1

                         Standard orientation:
 ---------------------------------------------------------------------
 Center     Atomic      Atomic             Coordinates (Angstroms)
 Number     Number       Type             X           Y           Z
 ---------------------------------------------------------------------
      1          6           0       -2.131567    0.099830   -0.265373
      2          6           0       -0.916549   -0.213682    0.544339
      3          8           0        0.049047   -1.149261   -0.426174
      4          6           0        1.282497   -0.394275   -0.516453
      5          6           0        0.915364    1.081240   -0.623082
      6          6           0        0.145130    0.820360    0.712669
      7          6           0        0.976699   -0.401362    0.913740
      8          1           0       -2.739122   -0.791419   -0.425973
      9          1           0       -2.741663    0.809629    0.300662
     10          1           0       -1.903108    0.545637   -1.247595
     11          1           0        2.050605   -0.929277   -1.061693
     12          1           0        1.793924    1.709593   -0.470041
     13          1           0        0.354559    1.399148   -1.500606
     14          1           0       -0.014896    1.565987    1.483166
     15          1           0        1.177887   -1.067872    1.736436
 ---------------------------------------------------------------------

 SCF Done:  E(RHF) =  -306.570479608     A.U. after    2 cycles

 The electronic state is 1-A.
 Alpha  occ. eigenvalues --  -20.59467 -11.36399 -11.32176 -11.26087 -11.25309
 Alpha  occ. eigenvalues --  -11.22596 -11.20297  -1.37110  -1.12559  -1.00848
 Alpha  occ. eigenvalues --   -0.94626  -0.89788  -0.78169  -0.74923  -0.71862
 Alpha  occ. eigenvalues --   -0.64939  -0.62288  -0.58378  -0.55478  -0.54278
 Alpha  occ. eigenvalues --   -0.53372  -0.51149  -0.49112  -0.46850  -0.42111
 Alpha  occ. eigenvalues --   -0.26548
 Alpha virt. eigenvalues --    0.02601   0.03924   0.04118   0.05032   0.05938
 Alpha virt. eigenvalues --    0.06478   0.07332   0.07592   0.08944   0.11030
 Alpha virt. eigenvalues --    0.11914   0.12306   0.12487   0.13162   0.13702

 Mulliken charges:
               1
     1  C    0.481300
     2  C   -0.766366
     3  O   -0.822030
     4  C    0.673726
     5  C    0.672366
     6  C    0.465255
     7  C    0.583479
     8  H   -0.048352
     9  H   -0.001728
    10  H   -0.056847
    11  H   -0.259893
    12  H   -0.129043
    13  H   -0.122904
    14  H   -0.253628
    15  H   -0.415333
 Sum of Mulliken charges =  -0.00000

 Dipole moment (field-independent basis, Debye):
    X=              4.0561    Y=              2.1868    Z=              0.2445  Tot=              4.6146

 Test job not archived.
 1\1\GINC-SE168\SP\RHF\Aug-CC-pVDZ\C6H8O1\OHZDE\09-Apr-2025\0\\#t hf au
 g-cc-pvdz iop(5/13=1,5/36=2,99/5=2) pseudo=read geom=check guess=(read
 ,tcheck) scf=(maxcycle=1)\\title\\0,1\C,0,1.95415655,-0.00361381,-0.56
 281638\C,0,0.93796583,0.17475641,0.5168752\O,0,-0.04799297,1.41001788,
 0.01528689\C,0,-1.36479386,0.80660974,-0.02326449\C,0,-1.20929906,-0.6
 0979724,-0.56448049\C,0,-0.2035383,-0.77964662,0.62090798\C,0,-0.82992
 186,0.40423019,1.27712573\H,0,2.63463138,0.8473421,-0.60829713\H,0,2.5
 5440155,-0.88529531,-0.32038903\H,0,1.51313896,-0.14905282,-1.5628405\

 Normal termination of Gaussian 16 at Wed Apr  9 16:52:28 2025.
