 Gaussian 16, Revision C.01,

 ----------------------------------------------------------------------
 #t hf aug-cc-pvdz symm=none int=(grid=ultrafine) guess=(read,tcheck) s
 table=(opt,rrhf)
 ----------------------------------------------------------------------
 -----
 title
 -----
 Symbolic Z-matrix:
 Charge =  0 Multiplicity = 1

 SCF Done:  E(RHF) =  -306.472037518     A.U. after   16 cycles
 Normal termination of Gaussian 16 at Wed Apr  9 16:23:10 2025.
 Gaussian 16:  ES64L-G16RevC.01  3-Jul-2019

 ----------------------------------------------------------------------
 #t hf aug-cc-pvdz iop(5/13=1,5/36=2,99/5=2) pseudo=read geom=check gue
 ss=(read,tcheck) scf=(maxcycle=1)
 ----------------------------------------------------------------------
 -----
 title
 -----
 Structure from the checkpoint file:  "Grambow2020_wb97xd3_008175_forward_mol1.chk"
 Charge =  0 Multiplicity = 1

                         Standard orientation:
 ---------------------------------------------------------------------
 Center     Atomic      Atomic             Coordinates (Angstroms)
 Number     Number       Type             X           Y           Z
 ---------------------------------------------------------------------
      1          6           0        1.595408   -0.210928    0.304739
      2          6           0        0.273869    1.374221   -0.100012
      3          8           0        0.526661    0.138917   -1.107927
      4          6           0       -0.369512   -0.878604   -0.564116
      5          6           0       -1.625911   -0.173610   -0.092143
      6          6           0       -0.621692    0.574802    0.818574
      7          6           0        0.277846   -0.710687    0.821637
      8          1           0        2.192539   -0.922657   -0.265471
      9          1           0        2.192879    0.477353    0.884345
     10          1           0       -0.260165    2.114675   -0.703848
     11          1           0       -0.339743   -1.777245   -1.176371
     12          1           0       -2.202657    0.402560   -0.817627
     13          1           0       -2.264850   -0.869936    0.453197
     14          1           0       -0.927253    1.062367    1.740774
     15          1           0        0.215908   -1.449613    1.616353
 ---------------------------------------------------------------------

 SCF Done:  E(RHF) =  -306.560081411     A.U. after    2 cycles

 The electronic state is 1-A.
 Alpha  occ. eigenvalues --  -20.59760 -11.35280 -11.30105 -11.25817 -11.23754
 Alpha  occ. eigenvalues --  -11.23203 -11.20707  -1.35829  -1.11451  -1.01308
 Alpha  occ. eigenvalues --   -0.94897  -0.85854  -0.76926  -0.73938  -0.71069
 Alpha  occ. eigenvalues --   -0.66593  -0.64900  -0.63303  -0.54288  -0.52161
 Alpha  occ. eigenvalues --   -0.51763  -0.49596  -0.47163  -0.44743  -0.42912
 Alpha  occ. eigenvalues --   -0.26871
 Alpha virt. eigenvalues --    0.02733   0.03942   0.04135   0.04883   0.06286
 Alpha virt. eigenvalues --    0.06417   0.06518   0.07401   0.08830   0.11520
 Alpha virt. eigenvalues --    0.12259   0.12454   0.12912   0.13577   0.14049

 Mulliken charges:
               1
     1  C    1.141601
     2  C    0.236280
     3  O   -0.857304
     4  C    0.730702
     5  C    0.535064
     6  C    0.395182
     7  C    0.065779
     8  H   -0.231975
     9  H   -0.216357
    10  H   -0.351405
    11  H   -0.358161
    12  H   -0.150433
    13  H   -0.218613
    14  H   -0.364792
    15  H   -0.355568
 Sum of Mulliken charges =   0.00000

 Dipole moment (field-independent basis, Debye):
    X=             -0.1323    Y=             -3.3767    Z=              1.8747  Tot=              3.8645

 Test job not archived.
 1\1\GINC-SE232\SP\RHF\Aug-CC-pVDZ\C6H8O1\OHZDE\09-Apr-2025\0\\#t hf au
 g-cc-pvdz iop(5/13=1,5/36=2,99/5=2) pseudo=read geom=check guess=(read
 ,tcheck) scf=(maxcycle=1)\\title\\0,1\C,0,-1.5689953,-0.30206514,-0.57
 550502\C,0,-0.66823293,-0.19016763,1.32162155\O,0,-0.32602498,-1.33217
 508,0.23328037\C,0,0.65273189,-0.65434976,-0.6133561\C,0,1.51877078,0.
 20299392,0.28845005\C,0,0.1603454,0.86542451,0.62586135\C,0,-0.3310528
 6,0.51035203,-0.82124427\H,0,-1.79509884,-1.07358813,-1.31163831\H,0,-
 2.4520484,0.1493479,-0.14761566\H,0,-0.22477358,-0.55798869,2.25228516

 Normal termination of Gaussian 16 at Wed Apr  9 16:23:15 2025.
