 Gaussian 16, Revision C.01,

 ----------------------------------------------------------------------
 #t hf aug-cc-pvdz symm=none int=(grid=ultrafine) guess=(read,tcheck) s
 table=(opt,rrhf)
 ----------------------------------------------------------------------
 -----
 title
 -----
 Symbolic Z-matrix:
 Charge =  0 Multiplicity = 1

 SCF Done:  E(RHF) =  -268.685955865     A.U. after   16 cycles
 Normal termination of Gaussian 16 at Wed Apr  9 14:18:19 2025.
 Gaussian 16:  ES64L-G16RevC.01  3-Jul-2019

 ----------------------------------------------------------------------
 #t hf aug-cc-pvdz iop(5/13=1,5/36=2,99/5=2) pseudo=read geom=check gue
 ss=(read,tcheck) scf=(maxcycle=1)
 ----------------------------------------------------------------------
 -----
 title
 -----
 Structure from the checkpoint file:  "Grambow2020_b97d3_007089_reverse_mol1.chk"
 Charge =  0 Multiplicity = 1

                         Standard orientation:
 ---------------------------------------------------------------------
 Center     Atomic      Atomic             Coordinates (Angstroms)
 Number     Number       Type             X           Y           Z
 ---------------------------------------------------------------------
      1          6           0       -1.820868   -0.674683   -0.247968
      2          6           0       -0.653920   -1.296128    0.252695
      3          6           0        1.017475    0.002971    0.458844
      4          8           0        1.969624   -0.489439   -0.421319
      5          6           0        0.406334    1.233333    0.258451
      6          6           0       -0.725020    1.721181   -0.100952
      7          1           0       -1.493592    0.710169   -0.289227
      8          1           0       -2.692085   -0.609455    0.409899
      9          1           0       -2.072253   -0.824350   -1.301965
     10          1           0       -0.060463   -1.923109   -0.413113
     11          1           0       -0.660144   -1.630005    1.291584
     12          1           0        1.283591   -0.305319    1.470611
     13          1           0        1.755685   -0.128970   -1.304563
     14          1           0       -1.161737    2.706514   -0.219097
 ---------------------------------------------------------------------

 SCF Done:  E(RHF) =  -268.770011123     A.U. after    2 cycles

 The electronic state is 1-A.
 Alpha  occ. eigenvalues --  -20.60425 -11.33641 -11.25553 -11.25431 -11.24812
 Alpha  occ. eigenvalues --  -11.24286  -1.35602  -1.07031  -1.00993  -0.93130
 Alpha  occ. eigenvalues --   -0.80989  -0.78074  -0.66873  -0.65981  -0.63329
 Alpha  occ. eigenvalues --   -0.61958  -0.59057  -0.56124  -0.55654  -0.50644
 Alpha  occ. eigenvalues --   -0.39013  -0.36042  -0.32609
 Alpha virt. eigenvalues --    0.03330   0.04393   0.04618   0.05183   0.06239
 Alpha virt. eigenvalues --    0.06426   0.07449   0.08086   0.09624   0.10685
 Alpha virt. eigenvalues --    0.11761   0.13178   0.13847   0.14249   0.14879

 Mulliken charges:
               1
     1  C    0.068217
     2  C    0.356667
     3  C    0.544329
     4  O   -0.494279
     5  C   -0.380512
     6  C    0.484980
     7  H    0.143773
     8  H   -0.071776
     9  H   -0.040632
    10  H   -0.123673
    11  H   -0.140213
    12  H   -0.148489
    13  H    0.166924
    14  H   -0.365317
 Sum of Mulliken charges =  -0.00000

 Dipole moment (field-independent basis, Debye):
    X=             -1.5004    Y=             -0.2066    Z=             -0.5378  Tot=              1.6072

 Test job not archived.
 1\1\GINC-SE056\SP\RHF\Aug-CC-pVDZ\C5H8O1\OHZDE\09-Apr-2025\0\\#t hf au
 g-cc-pvdz iop(5/13=1,5/36=2,99/5=2) pseudo=read geom=check guess=(read
 ,tcheck) scf=(maxcycle=1)\\title\\0,1\C,0,-1.17150746,0.64907585,-0.96
 472743\C,0,-1.20157598,-0.21828287,0.15125129\C,0,0.70983061,-0.674590
 53,0.96489997\O,0,0.86444168,-2.04077602,0.78221304\C,0,1.49819073,0.2
 4553367,0.28718306\C,0,1.41216921,1.09652261,-0.66965901\H,0,0.1884952
 ,1.05970935,-1.05638878\H,0,-1.62631523,1.63818256,-0.86042116\H,0,-1.
 28736618,0.21133276,-1.96044948\H,0,-1.36616702,-1.28383127,-0.0103459

 Normal termination of Gaussian 16 at Wed Apr  9 14:18:23 2025.
