 Gaussian 16, Revision C.01,

 ----------------------------------------------------------------------
 #t hf aug-cc-pvdz symm=none int=(grid=ultrafine) guess=(read,tcheck) s
 table=(opt,rrhf)
 ----------------------------------------------------------------------
 -----
 title
 -----
 Symbolic Z-matrix:
 Charge =  0 Multiplicity = 1

 SCF Done:  E(RHF) =  -335.378171417     A.U. after   17 cycles
 Normal termination of Gaussian 16 at Wed Apr  9 13:52:01 2025.
 Gaussian 16:  ES64L-G16RevC.01  3-Jul-2019

 ----------------------------------------------------------------------
 #t hf aug-cc-pvdz iop(5/13=1,5/36=2,99/5=2) pseudo=read geom=check gue
 ss=(read,tcheck) scf=(maxcycle=1)
 ----------------------------------------------------------------------
 -----
 title
 -----
 Structure from the checkpoint file:  "Grambow2020_b97d3_006737_forward_mol1.chk"
 Charge =  0 Multiplicity = 1

                         Standard orientation:
 ---------------------------------------------------------------------
 Center     Atomic      Atomic             Coordinates (Angstroms)
 Number     Number       Type             X           Y           Z
 ---------------------------------------------------------------------
      1          8           0        2.144004   -0.436417    0.016536
      2          6           0        1.183315    0.255774    0.000484
      3          7           0        0.350473    1.185011   -0.066407
      4          6           0       -1.587249    0.714531    0.042658
      5          7           0       -1.523372   -0.508771    0.008560
      6          8           0       -0.596808   -1.336747   -0.013446
      7          1           0        0.576412    2.133949    0.203947
      8          1           0       -2.320090    1.495851   -0.082598
 ---------------------------------------------------------------------

 SCF Done:  E(RHF) =  -335.481572352     A.U. after    2 cycles

 The electronic state is 1-A.
 Alpha  occ. eigenvalues --  -20.65355 -20.57561 -15.75816 -15.69919 -11.47196
 Alpha  occ. eigenvalues --  -11.35451  -1.44205  -1.41036  -1.25334  -1.14171
 Alpha  occ. eigenvalues --   -0.84457  -0.80653  -0.75558  -0.72514  -0.67636
 Alpha  occ. eigenvalues --   -0.67445  -0.62372  -0.62111  -0.53424  -0.48321
 Alpha  occ. eigenvalues --   -0.39036  -0.37843
 Alpha virt. eigenvalues --    0.01516   0.03419   0.07107   0.07211   0.08245
 Alpha virt. eigenvalues --    0.10320   0.10896   0.11142   0.11746   0.13966
 Alpha virt. eigenvalues --    0.14708   0.15479   0.16700   0.17923   0.18483

 Mulliken charges:
               1
     1  O   -0.187458
     2  C    0.155657
     3  N   -0.027866
     4  C    0.630873
     5  N    0.195864
     6  O   -0.698973
     7  H    0.040851
     8  H   -0.108947
 Sum of Mulliken charges =  -0.00000

 Dipole moment (field-independent basis, Debye):
    X=             -1.3088    Y=              6.5796    Z=              0.2718  Tot=              6.7140

 Test job not archived.
 1\1\GINC-SE054\SP\RHF\Aug-CC-pVDZ\C2H2N2O2\OHZDE\09-Apr-2025\0\\#t hf
 aug-cc-pvdz iop(5/13=1,5/36=2,99/5=2) pseudo=read geom=check guess=(re
 ad,tcheck) scf=(maxcycle=1)\\title\\0,1\O,0,2.4859068,0.03702953,0.221
 8974\C,0,1.34224981,0.32775207,0.12269863\N,0,0.23404809,0.86046407,-0
 .10021037\C,0,-1.41101678,-0.18940672,0.32351442\N,0,-0.91789508,-1.27
 558381,0.60415938\O,0,0.24188566,-1.71047445,0.70577991\H,0,0.10963703
 ,1.8649608,-0.11165828\H,0,-2.37341254,0.22809951,0.07313792\\Version=
 ES64L-G16RevC.01\State=1-A\HF=-335.4815724\RMSD=2.714e-03\Dipole=-1.39

 Normal termination of Gaussian 16 at Wed Apr  9 13:52:04 2025.
