 Gaussian 16, Revision C.01,

 ----------------------------------------------------------------------
 #t hf aug-cc-pvdz symm=none int=(grid=ultrafine) guess=(read,tcheck) s
 table=(opt,rrhf)
 ----------------------------------------------------------------------
 -----
 title
 -----
 Symbolic Z-matrix:
 Charge =  0 Multiplicity = 1

 SCF Done:  E(RHF) =  -266.607012805     A.U. after   15 cycles
 Normal termination of Gaussian 16 at Wed Apr  9 03:08:40 2025.
 Gaussian 16:  ES64L-G16RevC.01  3-Jul-2019

 ----------------------------------------------------------------------
 #t hf aug-cc-pvdz iop(5/13=1,5/36=2,99/5=2) pseudo=read geom=check gue
 ss=(read,tcheck) scf=(maxcycle=1)
 ----------------------------------------------------------------------
 -----
 title
 -----
 Structure from the checkpoint file:  "Grambow2020_b97d3_006692_reverse_mol1.chk"
 Charge =  0 Multiplicity = 1

                         Standard orientation:
 ---------------------------------------------------------------------
 Center     Atomic      Atomic             Coordinates (Angstroms)
 Number     Number       Type             X           Y           Z
 ---------------------------------------------------------------------
      1          6           0       -0.943400   -0.685132    0.104839
      2          6           0       -0.842057    0.735919   -0.097347
      3          8           0        0.394085    1.199064   -0.002083
      4          6           0        1.234206   -0.074848    0.180823
      5          8           0        0.500814   -1.098266   -0.336438
      6          1           0       -2.072869   -0.874095   -0.266941
      7          1           0       -1.016025   -1.100011    1.113287
      8          1           0       -1.557886    1.394071   -0.570747
      9          1           0       -2.774186   -0.071511    0.418104
     10          1           0        2.154076    0.098719   -0.387410
     11          1           0        1.415204   -0.109197    1.271983
 ---------------------------------------------------------------------

 SCF Done:  E(RHF) =  -266.692290036     A.U. after    2 cycles

 The electronic state is 1-A.
 Alpha  occ. eigenvalues --  -20.66277 -20.59947 -11.40170 -11.38702 -11.32965
 Alpha  occ. eigenvalues --   -1.44937  -1.33556  -1.06508  -0.93186  -0.85524
 Alpha  occ. eigenvalues --   -0.76974  -0.74469  -0.67597  -0.64406  -0.63285
 Alpha  occ. eigenvalues --   -0.57482  -0.57143  -0.53817  -0.47131  -0.30069
 Alpha virt. eigenvalues --    0.02649   0.03853   0.04497   0.05073   0.06285
 Alpha virt. eigenvalues --    0.07125   0.08631   0.09161   0.11585   0.12523
 Alpha virt. eigenvalues --    0.13576   0.14195   0.15643   0.15858   0.16175

 Mulliken charges:
               1
     1  C    0.412065
     2  C    0.602025
     3  O   -0.616865
     4  C    0.985987
     5  O   -0.738000
     6  H    0.251737
     7  H   -0.050885
     8  H   -0.251617
     9  H   -0.281556
    10  H   -0.197272
    11  H   -0.115619
 Sum of Mulliken charges =  -0.00000

 Dipole moment (field-independent basis, Debye):
    X=              2.4053    Y=              0.9166    Z=              0.2573  Tot=              2.5869

 Test job not archived.
 1\1\GINC-SE227\SP\RHF\Aug-CC-pVDZ\C3H6O2\OHZDE\09-Apr-2025\0\\#t hf au
 g-cc-pvdz iop(5/13=1,5/36=2,99/5=2) pseudo=read geom=check guess=(read
 ,tcheck) scf=(maxcycle=1)\\title\\0,1\C,0,0.47074017,0.70662287,0.2854
 4201\C,0,0.69828397,-0.51359,-0.44245932\O,0,-0.40388633,-1.21056112,-
 0.66845827\C,0,-1.51452064,-0.30040822,-0.12053248\O,0,-1.01589779,0.9
 6610867,-0.13137185\H,0,1.53891736,1.24342618,0.1423797\H,0,0.41846609
 ,0.70198328,1.37705238\H,0,1.55757051,-0.78099453,-1.04229632\H,0,2.38
 276599,0.39251767,0.55365631\H,0,-2.3545782,-0.41645103,-0.81336155\H,

 Normal termination of Gaussian 16 at Wed Apr  9 03:08:43 2025.
