 Gaussian 16, Revision C.01,

 ----------------------------------------------------------------------
 #t hf aug-cc-pvdz symm=none int=(grid=ultrafine) guess=(read,tcheck) s
 table=(opt,rrhf)
 ----------------------------------------------------------------------
 -----
 title
 -----
 Symbolic Z-matrix:
 Charge =  0 Multiplicity = 1

 SCF Done:  E(RHF) =  -345.917449248     A.U. after   14 cycles

 1\1\GINC-SE129\Stability\RHF\Aug-CC-pVDZ\C5H12O2\OHZDE\09-Apr-2025\0\\
 #t hf aug-cc-pvdz symm=none int=(grid=ultrafine) guess=(read,tcheck) s
 table=(opt,rrhf)\\title\\0,1\C,0,-1.34637691,-0.45556489,1.5838473\O,0
 ,-0.09885349,-0.27238137,0.95827753\C,0,-0.15128837,0.4250047,-0.28394
 486\C,0,-0.69089328,1.8425373,-0.12313785\C,0,1.24055045,0.42539671,-0
 .85563077\C,0,1.69522944,-1.72307864,-0.95578852\O,0,0.49438392,-2.317
 94737,-0.92036846\H,0,-1.73655263,0.47239804,2.0131823\H,0,-1.19715104
 ,-1.17226702,2.39102425\H,0,-2.09067274,-0.85691616,0.88290015\H,0,-0.

 Normal termination of Gaussian 16 at Wed Apr  9 16:15:23 2025.
 Gaussian 16:  ES64L-G16RevC.01  3-Jul-2019

 ----------------------------------------------------------------------
 #t hf aug-cc-pvdz iop(5/13=1,5/36=2,99/5=2) pseudo=read geom=check gue
 ss=(read,tcheck) scf=(maxcycle=1)
 ----------------------------------------------------------------------
 -----
 title
 -----
 Structure from the checkpoint file:  "Grambow2020_wb97xd3_008013_reverse_mol1.chk"
 Charge =  0 Multiplicity = 1

                         Standard orientation:
 ---------------------------------------------------------------------
 Center     Atomic      Atomic             Coordinates (Angstroms)
 Number     Number       Type             X           Y           Z
 ---------------------------------------------------------------------
      1          6           0        1.362890    1.721733    0.108400
      2          8           0        0.530749    0.680806    0.561413
      3          6           0        0.545726   -0.490907   -0.250424
      4          6           0        1.929680   -1.129307   -0.309985
      5          6           0       -0.476285   -1.439624    0.314793
      6          6           0       -2.309434   -0.227792    0.253655
      7          8           0       -2.041442    0.733617   -0.641345
      8          1           0        2.423532    1.507352    0.271981
      9          1           0        1.099816    2.612463    0.678363
     10          1           0        1.207204    1.922552   -0.960159
     11          1           0        0.242879   -0.202352   -1.269806
     12          1           0        2.273802   -1.385886    0.693986
     13          1           0        2.663695   -0.467786   -0.772281
     14          1           0        1.891816   -2.042423   -0.905401
     15          1           0       -0.370650   -1.580619    1.388302
     16          1           0       -0.432445   -2.405010   -0.195848
     17          1           0       -1.773499   -1.314696    0.010361
     18          1           0       -2.043219    0.066142    1.274952
     19          1           0       -1.412843    1.370257   -0.273627
 ---------------------------------------------------------------------

 SCF Done:  E(RHF) =  -346.029172069     A.U. after    2 cycles

 The electronic state is 1-A.
 Alpha  occ. eigenvalues --  -20.59354 -20.58432 -11.30319 -11.29403 -11.28971
 Alpha  occ. eigenvalues --  -11.25192 -11.23666  -1.36127  -1.34712  -1.06571
 Alpha  occ. eigenvalues --   -0.96170  -0.93706  -0.86729  -0.80579  -0.73014
 Alpha  occ. eigenvalues --   -0.70153  -0.67191  -0.65661  -0.63141  -0.58780
 Alpha  occ. eigenvalues --   -0.58160  -0.56831  -0.55509  -0.54091  -0.51895
 Alpha  occ. eigenvalues --   -0.49151  -0.47713  -0.44977  -0.30685
 Alpha virt. eigenvalues --    0.03131   0.04095   0.04525   0.04839   0.06075
 Alpha virt. eigenvalues --    0.06286   0.06677   0.07322   0.07503   0.09087
 Alpha virt. eigenvalues --    0.09318   0.10031   0.12556   0.12839   0.13733

 Mulliken charges:
               1
     1  C    0.793153
     2  O   -0.804641
     3  C   -0.052924
     4  C    0.544997
     5  C    0.232735
     6  C    0.238129
     7  O   -0.401447
     8  H   -0.164682
     9  H   -0.251243
    10  H   -0.049630
    11  H   -0.156902
    12  H    0.050623
    13  H   -0.101537
    14  H   -0.003208
    15  H   -0.168162
    16  H   -0.154823
    17  H    0.283252
    18  H   -0.038148
    19  H    0.204459
 Sum of Mulliken charges =  -0.00000

 Dipole moment (field-independent basis, Debye):
    X=              3.8474    Y=              0.3925    Z=              0.1924  Tot=              3.8721

 Test job not archived.
 1\1\GINC-SE129\SP\RHF\Aug-CC-pVDZ\C5H12O2\OHZDE\09-Apr-2025\0\\#t hf a
 ug-cc-pvdz iop(5/13=1,5/36=2,99/5=2) pseudo=read geom=check guess=(rea
 d,tcheck) scf=(maxcycle=1)\\title\\0,1\C,0,-1.34637691,-0.45556489,1.5
 838473\O,0,-0.09885349,-0.27238137,0.95827753\C,0,-0.15128837,0.425004
 7,-0.28394486\C,0,-0.69089328,1.8425373,-0.12313785\C,0,1.24055045,0.4
 2539671,-0.85563077\C,0,1.69522944,-1.72307864,-0.95578852\O,0,0.49438
 392,-2.31794737,-0.92036846\H,0,-1.73655263,0.47239804,2.0131823\H,0,-
 1.19715104,-1.17226702,2.39102425\H,0,-2.09067274,-0.85691616,0.882900

 Normal termination of Gaussian 16 at Wed Apr  9 16:15:33 2025.
