 Gaussian 16, Revision C.01,

 ----------------------------------------------------------------------
 #t hf aug-cc-pvdz symm=none int=(grid=ultrafine) guess=(read,tcheck) s
 table=(opt,rrhf)
 ----------------------------------------------------------------------
 -----
 title
 -----
 Symbolic Z-matrix:
 Charge =  0 Multiplicity = 1

 SCF Done:  E(RHF) =  -343.598683142     A.U. after   15 cycles
 Normal termination of Gaussian 16 at Wed Apr  9 15:06:02 2025.
 Gaussian 16:  ES64L-G16RevC.01  3-Jul-2019

 ----------------------------------------------------------------------
 #t hf aug-cc-pvdz iop(5/13=1,5/36=2,99/5=2) pseudo=read geom=check gue
 ss=(read,tcheck) scf=(maxcycle=1)
 ----------------------------------------------------------------------
 -----
 title
 -----
 Structure from the checkpoint file:  "Grambow2020_wb97xd3_006672_forward_mol1.chk"
 Charge =  0 Multiplicity = 1

                         Standard orientation:
 ---------------------------------------------------------------------
 Center     Atomic      Atomic             Coordinates (Angstroms)
 Number     Number       Type             X           Y           Z
 ---------------------------------------------------------------------
      1          6           0        1.714620   -0.293230   -0.924177
      2          6           0        0.497315    0.139110   -0.381861
      3          8           0        1.112319   -0.099776    1.445049
      4          6           0       -0.160008    1.500892   -0.271437
      5          6           0       -1.497002    0.833797    0.147361
      6          6           0       -0.852161   -0.523735   -0.136854
      7          8           0       -1.236777   -1.648652   -0.207700
      8          1           0        1.892349   -0.338391    0.426136
      9          1           0        1.755548   -1.306443   -1.309365
     10          1           0        2.344315    0.440814   -1.412387
     11          1           0        0.813133   -0.915488    1.865499
     12          1           0        0.298502    2.178939    0.442201
     13          1           0       -0.205929    1.978467   -1.251989
     14          1           0       -1.744351    0.953281    1.201580
     15          1           0       -2.374495    1.055246   -0.458667
 ---------------------------------------------------------------------

 SCF Done:  E(RHF) =  -343.703271856     A.U. after    2 cycles

 The electronic state is 1-A.
 Alpha  occ. eigenvalues --  -20.59443 -20.54511 -11.36855 -11.34967 -11.27066
 Alpha  occ. eigenvalues --  -11.26681 -11.22145  -1.38856  -1.26368  -1.15848
 Alpha  occ. eigenvalues --   -1.02910  -0.90065  -0.86999  -0.72575  -0.70791
 Alpha  occ. eigenvalues --   -0.67833  -0.67029  -0.64355  -0.60507  -0.57807
 Alpha  occ. eigenvalues --   -0.55756  -0.54196  -0.53140  -0.51226  -0.47961
 Alpha  occ. eigenvalues --   -0.43821  -0.36832
 Alpha virt. eigenvalues --    0.03170   0.04032   0.04356   0.04981   0.05809
 Alpha virt. eigenvalues --    0.06449   0.06756   0.07130   0.08740   0.10060
 Alpha virt. eigenvalues --    0.10631   0.12614   0.13057   0.13461   0.14531

 Mulliken charges:
               1
     1  C    0.243395
     2  C   -0.188050
     3  O   -0.725344
     4  C    0.367038
     5  C    0.498279
     6  C   -0.052464
     7  O   -0.424608
     8  H    0.642562
     9  H   -0.164661
    10  H   -0.176445
    11  H    0.153159
    12  H   -0.040148
    13  H   -0.029424
    14  H   -0.007329
    15  H   -0.095959
 Sum of Mulliken charges =  -0.00000

 Dipole moment (field-independent basis, Debye):
    X=             -0.5727    Y=              2.6912    Z=             -1.3163  Tot=              3.0501

 Test job not archived.
 1\1\GINC-SE100\SP\RHF\Aug-CC-pVDZ\C5H8O2\OHZDE\09-Apr-2025\0\\#t hf au
 g-cc-pvdz iop(5/13=1,5/36=2,99/5=2) pseudo=read geom=check guess=(read
 ,tcheck) scf=(maxcycle=1)\\title\\0,1\C,0,-1.76072187,-0.61280812,-0.1
 1341299\C,0,-0.40608457,-0.26741672,-0.02112729\O,0,-0.77649008,1.6319
 8339,-0.18839451\C,0,0.58097051,-0.25148602,1.12960563\C,0,1.75523723,
 -0.05634314,0.13412735\C,0,0.75478389,-0.24579506,-1.00722852\O,0,0.82
 928045,-0.38640382,-2.1875109\H,0,-1.73685823,0.74815322,-0.17811386\H
 ,0,-2.11273878,-0.99510896,-1.06555598\H,0,-2.25256164,-0.98842592,0.7

 Normal termination of Gaussian 16 at Wed Apr  9 15:06:07 2025.
