 Gaussian 16, Revision C.01,

 ----------------------------------------------------------------------
 #t hf aug-cc-pvdz symm=none int=(grid=ultrafine) guess=(read,tcheck) s
 table=(opt,rrhf)
 ----------------------------------------------------------------------
 -----
 title
 -----
 Symbolic Z-matrix:
 Charge =  0 Multiplicity = 1

 SCF Done:  E(RHF) =  -306.806710105     A.U. after   16 cycles

 1\1\GINC-SE138\Stability\RHF\Aug-CC-pVDZ\C4H10O2\OHZDE\09-Apr-2025\0\\
 #t hf aug-cc-pvdz symm=none int=(grid=ultrafine) guess=(read,tcheck) s
 table=(opt,rrhf)\\title\\0,1\C,0,2.05393413,0.79378929,-0.68985289\O,0
 ,0.71015153,0.37550718,-0.88268141\C,0,0.41555943,-0.88054653,-0.25208
 206\C,0,-1.08566271,-1.00719671,-0.19722571\C,0,-1.48566279,0.39754163
 ,1.32893224\O,0,-1.86245884,0.60887072,-0.2329845\H,0,2.76554488,0.075
 58151,-1.13345452\H,0,2.16021823,1.76129011,-1.19427656\H,0,2.28779347
 ,0.9108363,0.38215699\H,0,0.84176586,-0.9157701,0.75790059\H,0,0.83407

 Normal termination of Gaussian 16 at Wed Apr  9 14:05:17 2025.
 Gaussian 16:  ES64L-G16RevC.01  3-Jul-2019

 ----------------------------------------------------------------------
 #t hf aug-cc-pvdz iop(5/13=1,5/36=2,99/5=2) pseudo=read geom=check gue
 ss=(read,tcheck) scf=(maxcycle=1)
 ----------------------------------------------------------------------
 -----
 title
 -----
 Structure from the checkpoint file:  "Grambow2020_b97d3_006774_reverse_mol1.chk"
 Charge =  0 Multiplicity = 1

                         Standard orientation:
 ---------------------------------------------------------------------
 Center     Atomic      Atomic             Coordinates (Angstroms)
 Number     Number       Type             X           Y           Z
 ---------------------------------------------------------------------
      1          6           0       -2.336270   -0.543362    0.110296
      2          8           0       -1.100484   -0.093789   -0.426928
      3          6           0       -0.489681    0.942753    0.357045
      4          6           0        0.947925    1.043788   -0.085446
      5          6           0        1.695815   -0.724051    0.796513
      6          8           0        1.504949   -0.504972   -0.797787
      7          1           0       -3.081071    0.271116    0.140173
      8          1           0       -2.699972   -1.337186   -0.552549
      9          1           0       -2.207851   -0.946073    1.129574
     10          1           0       -0.547310    0.704196    1.426029
     11          1           0       -1.010761    1.901388    0.146207
     12          1           0        1.016222    1.510001   -1.085814
     13          1           0        1.589324    1.575511    0.613850
     14          1           0        2.788374   -0.620081    0.879176
     15          1           0        1.441519   -1.785862    0.967643
     16          1           0        0.569077   -0.797692   -0.937016
 ---------------------------------------------------------------------

 SCF Done:  E(RHF) =  -306.903723830     A.U. after    2 cycles

 The electronic state is 1-A.
 Alpha  occ. eigenvalues --  -20.59905 -20.59666 -11.35009 -11.31509 -11.30255
 Alpha  occ. eigenvalues --  -11.20559  -1.35829  -1.30276  -1.04462  -0.93382
 Alpha  occ. eigenvalues --   -0.84726  -0.84157  -0.71290  -0.69567  -0.67828
 Alpha  occ. eigenvalues --   -0.63052  -0.61787  -0.59007  -0.55780  -0.54948
 Alpha  occ. eigenvalues --   -0.52594  -0.50952  -0.47785  -0.45765  -0.27407
 Alpha virt. eigenvalues --    0.03047   0.04084   0.04827   0.05006   0.06224
 Alpha virt. eigenvalues --    0.06473   0.06603   0.07593   0.08895   0.09194
 Alpha virt. eigenvalues --    0.11239   0.11673   0.13006   0.14350   0.14890

 Mulliken charges:
               1
     1  C    0.683340
     2  O   -0.706313
     3  C    0.863124
     4  C    0.473412
     5  C    0.422099
     6  O   -0.646868
     7  H   -0.061093
     8  H   -0.236761
     9  H   -0.081147
    10  H   -0.144824
    11  H   -0.113548
    12  H   -0.178267
    13  H    0.027607
    14  H   -0.266392
    15  H   -0.348830
    16  H    0.314460
 Sum of Mulliken charges =  -0.00000

 Dipole moment (field-independent basis, Debye):
    X=             -3.2743    Y=              2.2439    Z=              0.3401  Tot=              3.9840

 Test job not archived.
 1\1\GINC-SE138\SP\RHF\Aug-CC-pVDZ\C4H10O2\OHZDE\09-Apr-2025\0\\#t hf a
 ug-cc-pvdz iop(5/13=1,5/36=2,99/5=2) pseudo=read geom=check guess=(rea
 d,tcheck) scf=(maxcycle=1)\\title\\0,1\C,0,2.05393413,0.79378929,-0.68
 985289\O,0,0.71015153,0.37550718,-0.88268141\C,0,0.41555943,-0.8805465
 3,-0.25208206\C,0,-1.08566271,-1.00719671,-0.19722571\C,0,-1.48566279,
 0.39754163,1.32893224\O,0,-1.86245884,0.60887072,-0.2329845\H,0,2.7655
 4488,0.07558151,-1.13345452\H,0,2.16021823,1.76129011,-1.19427656\H,0,
 2.28779347,0.9108363,0.38215699\H,0,0.84176586,-0.9157701,0.75790059\H

 Normal termination of Gaussian 16 at Wed Apr  9 14:05:21 2025.
