 Gaussian 16, Revision C.01,

 ----------------------------------------------------------------------
 #t hf aug-cc-pvdz symm=none int=(grid=ultrafine) guess=(read,tcheck) s
 table=(opt,rrhf)
 ----------------------------------------------------------------------
 -----
 title
 -----
 Symbolic Z-matrix:
 Charge =  0 Multiplicity = 1

 SCF Done:  E(RHF) =  -322.740092292     A.U. after   15 cycles
 Normal termination of Gaussian 16 at Wed Apr  9 15:20:58 2025.
 Gaussian 16:  ES64L-G16RevC.01  3-Jul-2019

 ----------------------------------------------------------------------
 #t hf aug-cc-pvdz iop(5/13=1,5/36=2,99/5=2) pseudo=read geom=check gue
 ss=(read,tcheck) scf=(maxcycle=1)
 ----------------------------------------------------------------------
 -----
 title
 -----
 Structure from the checkpoint file:  "Grambow2020_wb97xd3_006853_forward_mol2.chk"
 Charge =  0 Multiplicity = 1

                         Standard orientation:
 ---------------------------------------------------------------------
 Center     Atomic      Atomic             Coordinates (Angstroms)
 Number     Number       Type             X           Y           Z
 ---------------------------------------------------------------------
      1          6           0        2.520010   -0.443795    0.004240
      2          6           0        1.064530   -0.159254    0.001110
      3          6           0       -0.027695   -0.958901   -0.012236
      4          6           0       -1.169394   -0.091474   -0.007797
      5          7           0       -2.500408   -0.511515   -0.086441
      6          6           0       -0.674371    1.168620    0.008007
      7          8           0        0.693213    1.135417    0.007470
      8          1           0        3.002068   -0.026744   -0.882116
      9          1           0        2.685839   -1.520145    0.012610
     10          1           0        3.001482   -0.011773    0.883672
     11          1           0       -0.031893   -2.037635   -0.033584
     12          1           0       -2.683042   -1.347252    0.445952
     13          1           0       -3.165122    0.206200    0.153801
     14          1           0       -1.130657    2.143440    0.005049
 ---------------------------------------------------------------------

 SCF Done:  E(RHF) =  -322.841363960     A.U. after    2 cycles

 The electronic state is 1-A.
 Alpha  occ. eigenvalues --  -20.61972 -15.62767 -11.30024 -11.27187 -11.26669
 Alpha  occ. eigenvalues --  -11.24236 -11.22336  -1.41046  -1.18079  -1.05701
 Alpha  occ. eigenvalues --   -1.02672  -0.92713  -0.80246  -0.77109  -0.71051
 Alpha  occ. eigenvalues --   -0.66104  -0.65263  -0.62758  -0.58039  -0.56616
 Alpha  occ. eigenvalues --   -0.56337  -0.55896  -0.51804  -0.49072  -0.35848
 Alpha  occ. eigenvalues --   -0.29209
 Alpha virt. eigenvalues --    0.03241   0.03805   0.04239   0.05654   0.06244
 Alpha virt. eigenvalues --    0.06504   0.08422   0.10399   0.11335   0.11670
 Alpha virt. eigenvalues --    0.12446   0.13737   0.14458   0.14901   0.15655

 Mulliken charges:
               1
     1  C    0.318694
     2  C   -0.662080
     3  C    0.899908
     4  C    0.032094
     5  N   -0.373219
     6  C    1.089936
     7  O   -0.587375
     8  H    0.073238
     9  H   -0.007212
    10  H    0.071168
    11  H   -0.418664
    12  H   -0.033912
    13  H   -0.017366
    14  H   -0.385210
 Sum of Mulliken charges =   0.00000

 Dipole moment (field-independent basis, Debye):
    X=             -0.4975    Y=             -1.1209    Z=              1.0856  Tot=              1.6378

 Test job not archived.
 1\1\GINC-SE129\SP\RHF\Aug-CC-pVDZ\C5H7N1O1\OHZDE\09-Apr-2025\0\\#t hf
 aug-cc-pvdz iop(5/13=1,5/36=2,99/5=2) pseudo=read geom=check guess=(re
 ad,tcheck) scf=(maxcycle=1)\\title\\0,1\C,0,2.42148239,-0.00120271,0.0
 4789609\C,0,0.94420245,0.12233218,0.00572184\C,0,-0.05074337,-0.788254
 99,-0.11038657\C,0,-1.28179656,-0.05339883,-0.08986238\N,0,-2.55420992
 ,-0.60880022,-0.2532969\C,0,-0.93154673,1.24822017,0.03760451\O,0,0.43
 045497,1.36447664,0.09075304\H,0,2.88264773,0.53262036,-0.78534952\H,0
 ,2.70624913,-1.05050916,-0.01504572\H,0,2.82258234,0.41206741,0.975357

 Normal termination of Gaussian 16 at Wed Apr  9 15:21:03 2025.
