 Gaussian 16, Revision C.01,

 ----------------------------------------------------------------------
 #t hf aug-cc-pvdz symm=none int=(grid=ultrafine) guess=(read,tcheck) s
 table=(opt,rrhf)
 ----------------------------------------------------------------------
 -----
 title
 -----
 Symbolic Z-matrix:
 Charge =  0 Multiplicity = 1

 SCF Done:  E(RHF) =  -305.856337764     A.U. after   13 cycles
 Normal termination of Gaussian 16 at Wed Apr  9 03:03:47 2025.
 Gaussian 16:  ES64L-G16RevC.01  3-Jul-2019

 ----------------------------------------------------------------------
 #t hf aug-cc-pvdz iop(5/13=1,5/36=2,99/5=2) pseudo=read geom=check gue
 ss=(read,tcheck) scf=(maxcycle=1)
 ----------------------------------------------------------------------
 -----
 title
 -----
 Structure from the checkpoint file:  "Grambow2020_b97d3_006509_reverse_mol2.chk"
 Charge =  0 Multiplicity = 1

                         Standard orientation:
 ---------------------------------------------------------------------
 Center     Atomic      Atomic             Coordinates (Angstroms)
 Number     Number       Type             X           Y           Z
 ---------------------------------------------------------------------
      1          6           0       -0.644139    1.547178    0.031345
      2          6           0       -0.506289    0.039658   -0.020013
      3          6           0       -1.773101   -0.717179   -0.365551
      4          8           0        0.257337   -0.555748    1.093363
      5          6           0        0.812537   -0.602113   -0.214113
      6          8           0        2.009783    0.060900   -0.444369
      7          1           0       -1.336401    1.839667    0.833396
      8          1           0        0.314862    2.047937    0.217683
      9          1           0       -1.043036    1.923957   -0.921113
     10          1           0       -1.584986   -1.797881   -0.396258
     11          1           0       -2.160050   -0.400022   -1.344557
     12          1           0       -2.550804   -0.526253    0.388670
     13          1           0        2.015718    0.854847    0.123984
     14          1           0        0.873688   -1.588739   -0.683767
 ---------------------------------------------------------------------

 SCF Done:  E(RHF) =  -305.953212936     A.U. after    2 cycles

 The electronic state is 1-A.
 Alpha  occ. eigenvalues --  -20.59660 -20.58443 -11.35524 -11.31042 -11.24926
 Alpha  occ. eigenvalues --  -11.24415  -1.39703  -1.31940  -1.04406  -0.95573
 Alpha  occ. eigenvalues --   -0.90016  -0.80356  -0.71400  -0.69692  -0.63409
 Alpha  occ. eigenvalues --   -0.61312  -0.58787  -0.57398  -0.56448  -0.55615
 Alpha  occ. eigenvalues --   -0.52630  -0.51080  -0.47054  -0.41635
 Alpha virt. eigenvalues --    0.03267   0.04250   0.04929   0.05309   0.06239
 Alpha virt. eigenvalues --    0.07051   0.07454   0.09088   0.10645   0.11452
 Alpha virt. eigenvalues --    0.13729   0.14536   0.15203   0.15609   0.15757

 Mulliken charges:
               1
     1  C    0.322625
     2  C   -0.511227
     3  C    0.441405
     4  O   -0.785281
     5  C    1.029217
     6  O   -0.518028
     7  H    0.102342
     8  H   -0.094741
     9  H    0.047611
    10  H   -0.038428
    11  H    0.046456
    12  H    0.089217
    13  H    0.130831
    14  H   -0.261999
 Sum of Mulliken charges =  -0.00000

 Dipole moment (field-independent basis, Debye):
    X=             -1.8697    Y=              1.3459    Z=             -1.2726  Tot=              2.6318

 Test job not archived.
 1\1\GINC-SE340\SP\RHF\Aug-CC-pVDZ\C4H8O2\OHZDE\09-Apr-2025\0\\#t hf au
 g-cc-pvdz iop(5/13=1,5/36=2,99/5=2) pseudo=read geom=check guess=(read
 ,tcheck) scf=(maxcycle=1)\\title\\0,1\C,0,-0.79083735,1.16736276,-0.23
 189384\C,0,0.1919728,0.04232696,0.01837648\C,0,1.13729096,0.25278282,1
 .18417789\O,0,0.8476633,-0.49418901,-1.18970485\C,0,-0.06529466,-1.324
 83796,-0.48513264\O,0,-1.21457785,-1.74347356,-1.14079694\H,0,-0.25562
 13,2.08702174,-0.50727349\H,0,-1.49465105,0.93441662,-1.04155237\H,0,-
 1.37540842,1.36912027,0.67685681\H,0,1.80360508,-0.6105978,1.30602064\

 Normal termination of Gaussian 16 at Wed Apr  9 03:03:51 2025.
