 Gaussian 16, Revision C.01,

 ----------------------------------------------------------------------
 #t hf aug-cc-pvdz symm=none int=(grid=ultrafine) guess=(read,tcheck) s
 table=(opt,rrhf)
 ----------------------------------------------------------------------
 -----
 title
 -----
 Symbolic Z-matrix:
 Charge =  0 Multiplicity = 1

 SCF Done:  E(RHF) =  -343.693967649     A.U. after   13 cycles
 Normal termination of Gaussian 16 at Wed Apr  9 16:59:23 2025.
 Gaussian 16:  ES64L-G16RevC.01  3-Jul-2019

 ----------------------------------------------------------------------
 #t hf aug-cc-pvdz iop(5/13=1,5/36=2,99/5=2) pseudo=read geom=check gue
 ss=(read,tcheck) scf=(maxcycle=1)
 ----------------------------------------------------------------------
 -----
 title
 -----
 Structure from the checkpoint file:  "Grambow2020_wb97xd3_009099_forward_mol2.chk"
 Charge =  0 Multiplicity = 1

                         Standard orientation:
 ---------------------------------------------------------------------
 Center     Atomic      Atomic             Coordinates (Angstroms)
 Number     Number       Type             X           Y           Z
 ---------------------------------------------------------------------
      1          6           0        1.686518   -0.042826    0.630407
      2          6           0        0.896021   -0.698856   -0.464462
      3          8           0       -0.263157   -1.434041   -0.227914
      4          6           0       -1.317933   -0.718131    0.387403
      5          6           0       -1.424814    0.684284   -0.166306
      6          8           0       -0.252461    1.418988    0.130124
      7          6           0        0.899948    0.793131   -0.347347
      8          1           0        1.283524   -0.074183    1.634462
      9          1           0        2.766512   -0.061256    0.566224
     10          1           0        1.450113   -1.142615   -1.281485
     11          1           0       -1.168816   -0.670077    1.474052
     12          1           0       -2.228284   -1.285886    0.189758
     13          1           0       -1.593384    0.647584   -1.250462
     14          1           0       -2.252542    1.218747    0.300861
     15          1           0        1.429385    1.382503   -1.089257
 ---------------------------------------------------------------------

 SCF Done:  E(RHF) =  -343.802759867     A.U. after    2 cycles

 The electronic state is 1-A.
 Alpha  occ. eigenvalues --  -20.58023 -20.57973 -11.29701 -11.29314 -11.29132
 Alpha  occ. eigenvalues --  -11.29055 -11.23304  -1.37354  -1.32974  -1.12708
 Alpha  occ. eigenvalues --   -1.00023  -0.90631  -0.83068  -0.76226  -0.72905
 Alpha  occ. eigenvalues --   -0.70031  -0.66741  -0.64254  -0.62907  -0.59001
 Alpha  occ. eigenvalues --   -0.56907  -0.54701  -0.51607  -0.49859  -0.46984
 Alpha  occ. eigenvalues --   -0.40587  -0.38496
 Alpha virt. eigenvalues --    0.03523   0.04195   0.04594   0.05149   0.06154
 Alpha virt. eigenvalues --    0.06351   0.06425   0.08717   0.10341   0.11198
 Alpha virt. eigenvalues --    0.12830   0.13243   0.13719   0.14160   0.14644

 Mulliken charges:
               1
     1  C    0.599011
     2  C    0.745171
     3  O   -0.703394
     4  C    0.665082
     5  C    0.607996
     6  O   -0.721921
     7  C    0.934922
     8  H   -0.323861
     9  H   -0.338124
    10  H   -0.437165
    11  H   -0.130961
    12  H   -0.214454
    13  H   -0.096814
    14  H   -0.191219
    15  H   -0.394270
 Sum of Mulliken charges =   0.00000

 Dipole moment (field-independent basis, Debye):
    X=             -0.2232    Y=              0.0694    Z=             -0.3204  Tot=              0.3966

 Test job not archived.
 1\1\GINC-SE162\SP\RHF\Aug-CC-pVDZ\C5H8O2\OHZDE\09-Apr-2025\0\\#t hf au
 g-cc-pvdz iop(5/13=1,5/36=2,99/5=2) pseudo=read geom=check guess=(read
 ,tcheck) scf=(maxcycle=1)\\title\\0,1\C,0,-1.57998029,0.08761029,0.848
 53083\C,0,-1.10545327,-0.00078478,-0.57309094\O,0,-0.22637035,0.919871
 57,-1.13855434\C,0,1.03593325,1.01781091,-0.50555059\C,0,1.54733852,-0
 .34223431,-0.08898715\O,0,0.68788522,-0.91373441,0.87889729\C,0,-0.630
 01149,-1.00557073,0.42896634\H,0,-1.14762695,0.85302715,1.47997568\H,0
 ,-2.61211672,-0.15741235,1.06184529\H,0,-1.81985946,-0.32879052,-1.317

 Normal termination of Gaussian 16 at Wed Apr  9 16:59:29 2025.
