 Gaussian 16, Revision C.01,

 ----------------------------------------------------------------------
 #t hf aug-cc-pvdz symm=none int=(grid=ultrafine) guess=(read,tcheck) s
 table=(opt,rrhf)
 ----------------------------------------------------------------------
 -----
 title
 -----
 Symbolic Z-matrix:
 Charge =  0 Multiplicity = 1

 SCF Done:  E(RHF) =  -358.439695182     A.U. after   17 cycles
 Normal termination of Gaussian 16 at Wed Apr  9 03:27:37 2025.
 Gaussian 16:  ES64L-G16RevC.01  3-Jul-2019

 ----------------------------------------------------------------------
 #t hf aug-cc-pvdz iop(5/13=1,5/36=2,99/5=2) pseudo=read geom=check gue
 ss=(read,tcheck) scf=(maxcycle=1)
 ----------------------------------------------------------------------
 -----
 title
 -----
 Structure from the checkpoint file:  "Grambow2020_wb97xd3_006745_reverse_mol1.chk"
 Charge =  0 Multiplicity = 1

                         Standard orientation:
 ---------------------------------------------------------------------
 Center     Atomic      Atomic             Coordinates (Angstroms)
 Number     Number       Type             X           Y           Z
 ---------------------------------------------------------------------
      1          8           0       -2.510415   -0.338686    0.224826
      2          6           0       -1.420586   -0.541722   -0.215326
      3          6           0       -0.288213    0.479150   -0.105037
      4          8           0       -0.433353    1.657585    0.020826
      5          7           0        0.978899   -0.124296   -0.178591
      6          6           0        1.226065   -1.440215    0.183919
      7          6           0        2.134527    0.517187    0.019571
      8          1           0       -1.163927   -1.457289   -0.782704
      9          1           0        1.096974   -2.241931   -0.532658
     10          1           0        1.678812   -1.614103    1.145997
     11          1           0        2.162923    1.418534    0.622202
     12          1           0        3.012311    0.127275   -0.466678
 ---------------------------------------------------------------------

 SCF Done:  E(RHF) =  -358.551190780     A.U. after    2 cycles

 The electronic state is 1-A.
 Alpha  occ. eigenvalues --  -20.60941 -20.59955 -15.72955 -11.40578 -11.37610
 Alpha  occ. eigenvalues --  -11.33098 -11.29135  -1.42059  -1.39035  -1.29586
 Alpha  occ. eigenvalues --   -1.01693  -0.95338  -0.88438  -0.77563  -0.75646
 Alpha  occ. eigenvalues --   -0.71705  -0.70211  -0.67782  -0.65694  -0.62131
 Alpha  occ. eigenvalues --   -0.60521  -0.55602  -0.54095  -0.45984  -0.44950
 Alpha  occ. eigenvalues --   -0.30198
 Alpha virt. eigenvalues --    0.01883   0.02874   0.03630   0.04518   0.05079
 Alpha virt. eigenvalues --    0.06598   0.06993   0.09087   0.10435   0.10947
 Alpha virt. eigenvalues --    0.11979   0.12828   0.13212   0.14550   0.15131

 Mulliken charges:
               1
     1  O   -0.398714
     2  C    0.643729
     3  C    0.284320
     4  O   -0.393082
     5  N   -0.357994
     6  C    0.677370
     7  C    0.650304
     8  H   -0.116157
     9  H   -0.297604
    10  H   -0.259948
    11  H   -0.231895
    12  H   -0.200328
 Sum of Mulliken charges =  -0.00000

 Dipole moment (field-independent basis, Debye):
    X=              4.1016    Y=             -2.3131    Z=             -1.2182  Tot=              4.8639

 Test job not archived.
 1\1\GINC-SE106\SP\RHF\Aug-CC-pVDZ\C4H5N1O2\OHZDE\09-Apr-2025\0\\#t hf
 aug-cc-pvdz iop(5/13=1,5/36=2,99/5=2) pseudo=read geom=check guess=(re
 ad,tcheck) scf=(maxcycle=1)\\title\\0,1\O,0,2.94060592,-0.30906279,-0.
 64701202\C,0,1.78558959,-0.58532325,-0.53609723\C,0,0.9192882,-0.04735
 228,0.60263881\O,0,1.32617954,0.316944,1.66440318\N,0,-0.44589258,-0.0
 3291545,0.26916873\C,0,-0.91870786,0.05694169,-1.03179972\C,0,-1.40411
 619,0.50658814,1.02876618\H,0,1.27031043,-1.29270859,-1.21443869\H,0,-
 1.05504442,-0.83510768,-1.63059508\H,0,-1.27190879,1.01802241,-1.36703

 Normal termination of Gaussian 16 at Wed Apr  9 03:27:41 2025.
