 Gaussian 16, Revision C.01,

 ----------------------------------------------------------------------
 #t hf aug-cc-pvdz symm=none int=(grid=ultrafine) guess=(read,tcheck) s
 table=(opt,rrhf)
 ----------------------------------------------------------------------
 -----
 title
 -----
 Symbolic Z-matrix:
 Charge =  0 Multiplicity = 1

 SCF Done:  E(RHF) =  -247.701881009     A.U. after   16 cycles
 Normal termination of Gaussian 16 at Wed Apr  9 03:21:36 2025.
 Gaussian 16:  ES64L-G16RevC.01  3-Jul-2019

 ----------------------------------------------------------------------
 #t hf aug-cc-pvdz iop(5/13=1,5/36=2,99/5=2) pseudo=read geom=check gue
 ss=(read,tcheck) scf=(maxcycle=1)
 ----------------------------------------------------------------------
 -----
 title
 -----
 Structure from the checkpoint file:  "Grambow2020_wb97xd3_006164_forward_mol1.chk"
 Charge =  0 Multiplicity = 1

                         Standard orientation:
 ---------------------------------------------------------------------
 Center     Atomic      Atomic             Coordinates (Angstroms)
 Number     Number       Type             X           Y           Z
 ---------------------------------------------------------------------
      1          6           0        0.297320    1.547492    0.016641
      2          6           0        1.130815    0.448902   -0.331831
      3          6           0        1.085986   -0.831109    0.464786
      4          6           0       -0.134982   -1.368898   -0.223736
      5          6           0       -1.213295   -0.541295   -0.081129
      6          7           0       -1.872590    0.402458    0.149060
      7          1           0        0.051699    2.307751   -0.712075
      8          1           0        1.726470    1.439569    0.112974
      9          1           0        0.036179    1.714396    1.051866
     10          1           0        1.428007    0.367336   -1.371589
     11          1           0        0.965820   -0.641683    1.533258
     12          1           0        1.962090   -1.455132    0.304711
     13          1           0       -0.057199   -2.080001   -1.030942
 ---------------------------------------------------------------------

 SCF Done:  E(RHF) =  -247.775929688     A.U. after    2 cycles

 The electronic state is 1-A.
 Alpha  occ. eigenvalues --  -15.58985 -11.35301 -11.32320 -11.27126 -11.25310
 Alpha  occ. eigenvalues --  -11.20560  -1.17969  -1.13259  -1.03393  -0.89185
 Alpha  occ. eigenvalues --   -0.83079  -0.72400  -0.66672  -0.65678  -0.61951
 Alpha  occ. eigenvalues --   -0.55975  -0.54581  -0.53396  -0.50702  -0.44641
 Alpha  occ. eigenvalues --   -0.41440  -0.26097
 Alpha virt. eigenvalues --    0.02110   0.03703   0.03853   0.05078   0.06275
 Alpha virt. eigenvalues --    0.06434   0.06907   0.07178   0.10741   0.11125
 Alpha virt. eigenvalues --    0.12626   0.13233   0.13955   0.14176   0.14541

 Mulliken charges:
               1
     1  C    0.373579
     2  C    0.208966
     3  C    0.550174
     4  C    0.723451
     5  C   -0.445604
     6  N   -0.352478
     7  H   -0.236584
     8  H    0.204121
     9  H   -0.178589
    10  H   -0.263301
    11  H   -0.102585
    12  H   -0.098556
    13  H   -0.382594
 Sum of Mulliken charges =  -0.00000

 Dipole moment (field-independent basis, Debye):
    X=              5.7962    Y=              2.7176    Z=             -0.6878  Tot=              6.4385

 Test job not archived.
 1\1\GINC-SE123\SP\RHF\Aug-CC-pVDZ\C5H7N1\OHZDE\09-Apr-2025\0\\#t hf au
 g-cc-pvdz iop(5/13=1,5/36=2,99/5=2) pseudo=read geom=check guess=(read
 ,tcheck) scf=(maxcycle=1)\\title\\0,1\C,0,1.13690605,0.9021088,-0.0784
 8633\C,0,0.72609956,-0.4595908,-0.08618473\C,0,-0.47679871,-0.90257029
 ,0.70869976\C,0,-1.47970852,-0.45693565,-0.3158124\C,0,-1.39535854,0.8
 8327692,-0.57024763\N,0,-1.00171657,1.98860829,-0.61042496\H,0,1.74219
 356,1.30125691,-0.8807683\H,0,1.80345101,-0.23935679,0.48380457\H,0,0.
 98249059,1.50311502,0.80621117\H,0,0.97139232,-1.04241192,-0.96722012\

 Normal termination of Gaussian 16 at Wed Apr  9 03:21:40 2025.
