 Gaussian 16, Revision C.01,

 ----------------------------------------------------------------------
 #t hf aug-cc-pvdz symm=none int=(grid=ultrafine) guess=(read,tcheck) s
 table=(opt,rrhf)
 ----------------------------------------------------------------------
 -----
 title
 -----
 Symbolic Z-matrix:
 Charge =  0 Multiplicity = 1

 SCF Done:  E(RHF) =  -284.721853681     A.U. after   17 cycles
 Normal termination of Gaussian 16 at Wed Apr  9 14:20:16 2025.
 Gaussian 16:  ES64L-G16RevC.01  3-Jul-2019

 ----------------------------------------------------------------------
 #t hf aug-cc-pvdz iop(5/13=1,5/36=2,99/5=2) pseudo=read geom=check gue
 ss=(read,tcheck) scf=(maxcycle=1)
 ----------------------------------------------------------------------
 -----
 title
 -----
 Structure from the checkpoint file:  "Grambow2020_b97d3_007210_forward_mol1.chk"
 Charge =  0 Multiplicity = 1

                         Standard orientation:
 ---------------------------------------------------------------------
 Center     Atomic      Atomic             Coordinates (Angstroms)
 Number     Number       Type             X           Y           Z
 ---------------------------------------------------------------------
      1          6           0        2.562125   -0.418213    0.044718
      2          6           0        1.042587   -0.445181   -0.028693
      3          8           0        0.570535    0.929792   -0.171674
      4          6           0       -1.238822    1.134084    0.184580
      5          6           0       -1.847856   -0.119395    0.005355
      6          7           0       -2.350228   -1.190105   -0.022510
      7          1           0        2.905823    0.119550    0.937990
      8          1           0        2.939599   -1.449408    0.094435
      9          1           0        2.988534    0.064289   -0.843743
     10          1           0        0.600023   -0.898418    0.868482
     11          1           0        0.682488   -0.993926   -0.906710
     12          1           0       -1.451655    1.867120   -0.597794
     13          1           0        0.114297    1.275418    0.742550
 ---------------------------------------------------------------------

 SCF Done:  E(RHF) =  -284.808361683     A.U. after    2 cycles

 The electronic state is 1-A.
 Alpha  occ. eigenvalues --  -20.64199 -15.65638 -11.32740 -11.31993 -11.30149
 Alpha  occ. eigenvalues --  -11.25139  -1.36482  -1.18735  -1.04361  -0.98493
 Alpha  occ. eigenvalues --   -0.87431  -0.75742  -0.70398  -0.65859  -0.62153
 Alpha  occ. eigenvalues --   -0.60318  -0.55798  -0.55576  -0.52506  -0.50978
 Alpha  occ. eigenvalues --   -0.50684  -0.46454  -0.37422
 Alpha virt. eigenvalues --    0.03018   0.04179   0.04610   0.04921   0.05728
 Alpha virt. eigenvalues --    0.06529   0.07432   0.07754   0.09726   0.11449
 Alpha virt. eigenvalues --    0.12184   0.12880   0.14179   0.14773   0.15708

 Mulliken charges:
               1
     1  C    0.184135
     2  C    0.679443
     3  O   -0.764571
     4  C    0.251685
     5  C   -0.093645
     6  N   -0.271260
     7  H   -0.032025
     8  H    0.030649
     9  H   -0.005522
    10  H   -0.173810
    11  H   -0.243578
    12  H   -0.133959
    13  H    0.572457
 Sum of Mulliken charges =   0.00000

 Dipole moment (field-independent basis, Debye):
    X=              2.9996    Y=              1.2162    Z=             -0.0036  Tot=              3.2368

 Test job not archived.
 1\1\GINC-SE162\SP\RHF\Aug-CC-pVDZ\C4H7N1O1\OHZDE\09-Apr-2025\0\\#t hf
 aug-cc-pvdz iop(5/13=1,5/36=2,99/5=2) pseudo=read geom=check guess=(re
 ad,tcheck) scf=(maxcycle=1)\\title\\0,1\C,0,-1.95434532,-0.55317986,-0
 .0455193\C,0,-0.48982604,-0.34679617,-0.40287223\O,0,0.17811997,0.2542
 8521,0.74881212\C,0,1.83113797,0.99398877,0.34533307\C,0,2.29743768,0.
 37102451,-0.82459615\N,0,2.6444075,-0.05592695,-1.87192512\H,0,-2.4566
 688,0.40608468,0.13541072\H,0,-2.4618675,-1.05816625,-0.87962442\H,0,-
 2.05435403,-1.17861756,0.85048358\H,0,-0.37300361,0.30275717,-1.280734

 Normal termination of Gaussian 16 at Wed Apr  9 14:20:19 2025.
