 Gaussian 16, Revision C.01,

 ----------------------------------------------------------------------
 #t hf aug-cc-pvdz symm=none int=(grid=ultrafine) guess=(read,tcheck) s
 table=(opt,rrhf)
 ----------------------------------------------------------------------
 -----
 title
 -----
 Symbolic Z-matrix:
 Charge =  0 Multiplicity = 1

 SCF Done:  E(RHF) =  -394.272016837     A.U. after   16 cycles
 Normal termination of Gaussian 16 at Wed Apr  9 15:36:45 2025.
 Gaussian 16:  ES64L-G16RevC.01  3-Jul-2019

 ----------------------------------------------------------------------
 #t hf aug-cc-pvdz iop(5/13=1,5/36=2,99/5=2) pseudo=read geom=check gue
 ss=(read,tcheck) scf=(maxcycle=1)
 ----------------------------------------------------------------------
 -----
 title
 -----
 Structure from the checkpoint file:  "Grambow2020_wb97xd3_007208_reverse_mol1.chk"
 Charge =  0 Multiplicity = 1

                         Standard orientation:
 ---------------------------------------------------------------------
 Center     Atomic      Atomic             Coordinates (Angstroms)
 Number     Number       Type             X           Y           Z
 ---------------------------------------------------------------------
      1          7           0        1.226769   -1.604522    0.345783
      2          6           0        0.647449   -0.573380   -0.053698
      3          8           0       -0.490860   -0.581216   -0.864096
      4          6           0       -1.613088   -0.065678   -0.384132
      5          8           0       -1.661309    0.244959    0.852236
      6          6           0        1.260985    0.780307    0.204579
      7          8           0        0.823064    1.795004   -0.247140
      8          1           0        0.729272   -2.454353    0.086657
      9          1           0       -2.619606    0.442751    0.128682
     10          1           0        2.163720    0.725788    0.835682
 ---------------------------------------------------------------------

 SCF Done:  E(RHF) =  -394.396745744     A.U. after    2 cycles

 The electronic state is 1-A.
 Alpha  occ. eigenvalues --  -20.67067 -20.63268 -20.61162 -15.67236 -11.40909
 Alpha  occ. eigenvalues --  -11.39525 -11.37816  -1.48495  -1.40626  -1.39266
 Alpha  occ. eigenvalues --   -1.23667  -0.97165  -0.91004  -0.79787  -0.79004
 Alpha  occ. eigenvalues --   -0.75567  -0.74003  -0.68810  -0.64956  -0.62572
 Alpha  occ. eigenvalues --   -0.59164  -0.56123  -0.51122  -0.48130  -0.47753
 Alpha  occ. eigenvalues --   -0.41574
 Alpha virt. eigenvalues --    0.03403   0.04439   0.04584   0.05092   0.08377
 Alpha virt. eigenvalues --    0.08796   0.10333   0.10575   0.11196   0.12569
 Alpha virt. eigenvalues --    0.12744   0.14209   0.14725   0.16434   0.16942

 Mulliken charges:
               1
     1  N   -0.264346
     2  C    0.602907
     3  O   -0.557613
     4  C    0.197048
     5  O   -0.537449
     6  C    0.518605
     7  O   -0.408331
     8  H    0.035837
     9  H    0.490602
    10  H   -0.077260
 Sum of Mulliken charges =  -0.00000

 Dipole moment (field-independent basis, Debye):
    X=             -0.2525    Y=             -2.0735    Z=              0.1944  Tot=              2.0979

 Test job not archived.
 1\1\GINC-SE162\SP\RHF\Aug-CC-pVDZ\C3H3N1O3\OHZDE\09-Apr-2025\0\\#t hf
 aug-cc-pvdz iop(5/13=1,5/36=2,99/5=2) pseudo=read geom=check guess=(re
 ad,tcheck) scf=(maxcycle=1)\\title\\0,1\N,0,-0.86243332,1.56021792,-0.
 67416086\C,0,-0.51017533,0.39368341,-0.40293581\O,0,0.57121435,-0.2555
 015,-1.00435837\C,0,1.59388167,-0.61860087,-0.24419315\O,0,1.63662511,
 -0.20075838,0.96038494\C,0,-1.3599891,-0.45390732,0.5108519\O,0,-1.145
 53008,-1.60968322,0.71971592\H,0,-0.22312658,2.01828197,-1.3209425\H,0
 ,2.50593523,-0.93650206,0.53147043\H,0,-2.20644394,0.10403605,0.944910

 Normal termination of Gaussian 16 at Wed Apr  9 15:36:49 2025.
