 Gaussian 16, Revision C.01,

 ----------------------------------------------------------------------
 #t hf aug-cc-pvdz symm=none int=(grid=ultrafine) guess=(read,tcheck) s
 table=(opt,rrhf)
 ----------------------------------------------------------------------
 -----
 title
 -----
 Symbolic Z-matrix:
 Charge =  0 Multiplicity = 1

 SCF Done:  E(RHF) =  -357.274649131     A.U. after   18 cycles
 Normal termination of Gaussian 16 at Wed Apr  9 03:58:23 2025.
 Gaussian 16:  ES64L-G16RevC.01  3-Jul-2019

 ----------------------------------------------------------------------
 #t hf aug-cc-pvdz iop(5/13=1,5/36=2,99/5=2) pseudo=read geom=check gue
 ss=(read,tcheck) scf=(maxcycle=1)
 ----------------------------------------------------------------------
 -----
 title
 -----
 Structure from the checkpoint file:  "Grambow2020_wb97xd3_008755_reverse_mol2.chk"
 Charge =  0 Multiplicity = 1

                         Standard orientation:
 ---------------------------------------------------------------------
 Center     Atomic      Atomic             Coordinates (Angstroms)
 Number     Number       Type             X           Y           Z
 ---------------------------------------------------------------------
      1          8           0       -2.429336   -0.044747   -0.000269
      2          6           0       -1.457213   -0.747703    0.000098
      3          6           0       -0.057586   -0.253632   -0.000960
      4          7           0        0.932072   -1.317552    0.001330
      5          8           0        2.075239   -0.974311   -0.000713
      6          6           0        0.625846    2.256937    0.000460
      7          6           0        0.270038    1.019172   -0.000686
      8          1           0       -1.527516   -1.852191    0.001594
      9          1           0        0.775930    2.791148   -0.930763
     10          1           0        0.773348    2.787735    0.934238
 ---------------------------------------------------------------------

 SCF Done:  E(RHF) =  -357.384573660     A.U. after    2 cycles

 The electronic state is 1-A.
 Alpha  occ. eigenvalues --  -20.65496 -20.58568 -15.78739 -11.36533 -11.33399
 Alpha  occ. eigenvalues --  -11.30645 -11.30095  -1.49331  -1.37889  -1.14776
 Alpha  occ. eigenvalues --   -1.06655  -0.92734  -0.87991  -0.76066  -0.73476
 Alpha  occ. eigenvalues --   -0.70980  -0.67572  -0.66702  -0.64927  -0.63196
 Alpha  occ. eigenvalues --   -0.57092  -0.47305  -0.45612  -0.41837  -0.41362
 Alpha virt. eigenvalues --    0.01882   0.02886   0.04502   0.04511   0.07733
 Alpha virt. eigenvalues --    0.08102   0.09212   0.09611   0.11495   0.11556
 Alpha virt. eigenvalues --    0.12483   0.13830   0.14253   0.15121   0.15969

 Mulliken charges:
               1
     1  O   -0.448588
     2  C    0.649713
     3  C    0.336641
     4  N   -0.379488
     5  O   -0.399727
     6  C    0.582405
     7  C    0.099007
     8  H   -0.141598
     9  H   -0.150072
    10  H   -0.148292
 Sum of Mulliken charges =  -0.00000

 Dipole moment (field-independent basis, Debye):
    X=              1.1115    Y=              1.9601    Z=              0.0024  Tot=              2.2534

 Test job not archived.
 1\1\GINC-SE403\SP\RHF\Aug-CC-pVDZ\C4H3N1O2\OHZDE\09-Apr-2025\0\\#t hf
 aug-cc-pvdz iop(5/13=1,5/36=2,99/5=2) pseudo=read geom=check guess=(re
 ad,tcheck) scf=(maxcycle=1)\\title\\0,1\O,0,-2.10250477,1.05967232,-0.
 68823441\C,0,-1.53167238,0.0471653,-0.98513509\C,0,-0.2319494,-0.38789
 798,-0.41548318\N,0,0.23793092,-1.65591265,-0.94718419\O,0,1.28096874,
 -2.0515985,-0.52273728\C,0,1.12059552,0.93845766,1.36817543\C,0,0.4385
 7739,0.2951392,0.48519442\H,0,-1.93965132,-0.6642428,-1.72829664\H,0,1
 .86193705,1.67097698,1.06999335\H,0,0.95833524,0.76342147,2.42575659\\

 Normal termination of Gaussian 16 at Wed Apr  9 03:58:26 2025.
