 Gaussian 16, Revision C.01,

 ----------------------------------------------------------------------
 #t hf aug-cc-pvdz symm=none int=(grid=ultrafine) guess=(read,tcheck) s
 table=(opt,rrhf)
 ----------------------------------------------------------------------
 -----
 title
 -----
 Symbolic Z-matrix:
 Charge =  0 Multiplicity = 1

 SCF Done:  E(RHF) =  -302.724853865     A.U. after   15 cycles
 Normal termination of Gaussian 16 at Wed Apr  9 15:33:04 2025.
 Gaussian 16:  ES64L-G16RevC.01  3-Jul-2019

 ----------------------------------------------------------------------
 #t hf aug-cc-pvdz iop(5/13=1,5/36=2,99/5=2) pseudo=read geom=check gue
 ss=(read,tcheck) scf=(maxcycle=1)
 ----------------------------------------------------------------------
 -----
 title
 -----
 Structure from the checkpoint file:  "Grambow2020_wb97xd3_006961_reverse_mol1.chk"
 Charge =  0 Multiplicity = 1

                         Standard orientation:
 ---------------------------------------------------------------------
 Center     Atomic      Atomic             Coordinates (Angstroms)
 Number     Number       Type             X           Y           Z
 ---------------------------------------------------------------------
      1          6           0        1.290312    1.294670    0.129028
      2          6           0        0.568759   -0.022974    0.102204
      3          6           0        1.333197   -1.135385   -0.562260
      4          7           0       -0.168728   -0.390870    1.255502
      5          6           0       -1.242762   -0.584611    0.335573
      6          6           0       -1.987716    0.496867   -0.391784
      7          7           0       -0.838777    0.433691   -0.946673
      8          1           0        1.594918    1.573285   -0.879231
      9          1           0        2.184120    1.188869    0.751882
     10          1           0        0.664048    2.087191    0.534490
     11          1           0        2.321187   -1.206515   -0.100806
     12          1           0        0.835392   -2.095953   -0.450064
     13          1           0        1.461655   -0.919081   -1.622734
     14          1           0       -0.337667    0.393165    1.875773
     15          1           0       -1.441862   -1.612112    0.052324
 ---------------------------------------------------------------------

 SCF Done:  E(RHF) =  -302.810346582     A.U. after    2 cycles

 The electronic state is 1-A.
 Alpha  occ. eigenvalues --  -15.65917 -15.65359 -11.36819 -11.33585 -11.26457
 Alpha  occ. eigenvalues --  -11.25792 -11.25509  -1.32117  -1.18807  -1.06382
 Alpha  occ. eigenvalues --   -0.97757  -0.86269  -0.82268  -0.72041  -0.68947
 Alpha  occ. eigenvalues --   -0.66676  -0.63454  -0.59463  -0.57900  -0.56410
 Alpha  occ. eigenvalues --   -0.55197  -0.53973  -0.46101  -0.43934  -0.43006
 Alpha  occ. eigenvalues --   -0.31864
 Alpha virt. eigenvalues --    0.02822   0.03556   0.04313   0.04994   0.06272
 Alpha virt. eigenvalues --    0.07045   0.07435   0.07897   0.09305   0.10555
 Alpha virt. eigenvalues --    0.10901   0.12434   0.13625   0.13897   0.14101

 Mulliken charges:
               1
     1  C    0.935782
     2  C   -1.517479
     3  C    0.655570
     4  N   -0.498296
     5  C    1.073315
     6  C   -0.159503
     7  N   -0.430826
     8  H    0.058363
     9  H    0.089674
    10  H   -0.065654
    11  H    0.105398
    12  H   -0.049274
    13  H    0.050822
    14  H    0.047853
    15  H   -0.295744
 Sum of Mulliken charges =  -0.00000

 Dipole moment (field-independent basis, Debye):
    X=              4.0699    Y=             -0.8488    Z=              1.6183  Tot=              4.4613

 Test job not archived.
 1\1\GINC-SE131\SP\RHF\Aug-CC-pVDZ\C5H8N2\OHZDE\09-Apr-2025\0\\#t hf au
 g-cc-pvdz iop(5/13=1,5/36=2,99/5=2) pseudo=read geom=check guess=(read
 ,tcheck) scf=(maxcycle=1)\\title\\0,1\C,0,-0.62386026,1.43269422,-0.33
 653252\C,0,-0.13261062,0.03145685,-0.1068545\C,0,-1.07039233,-0.831372
 15,0.69278702\N,0,0.52984751,-0.61581983,-1.17994148\C,0,1.55891325,-0
 .85039918,-0.21903005\C,0,2.47613503,0.18593215,0.36262291\N,0,1.33432
 489,0.39468902,0.89614387\H,0,-0.8748467,1.90021638,0.61500533\H,0,-1.
 52448523,1.38794962,-0.95694188\H,0,0.1249378,2.04364974,-0.83726214\H

 Normal termination of Gaussian 16 at Wed Apr  9 15:33:09 2025.
