 Gaussian 16, Revision C.01,

 ----------------------------------------------------------------------
 #t hf aug-cc-pvdz symm=none int=(grid=ultrafine) guess=(read,tcheck) s
 table=(opt,rrhf)
 ----------------------------------------------------------------------
 -----
 title
 -----
 Symbolic Z-matrix:
 Charge =  0 Multiplicity = 1

 SCF Done:  E(RHF) =  -342.367942533     A.U. after   16 cycles
 Normal termination of Gaussian 16 at Wed Apr  9 16:31:59 2025.
 Gaussian 16:  ES64L-G16RevC.01  3-Jul-2019

 ----------------------------------------------------------------------
 #t hf aug-cc-pvdz iop(5/13=1,5/36=2,99/5=2) pseudo=read geom=check gue
 ss=(read,tcheck) scf=(maxcycle=1)
 ----------------------------------------------------------------------
 -----
 title
 -----
 Structure from the checkpoint file:  "Grambow2020_wb97xd3_008527_reverse_mol2.chk"
 Charge =  0 Multiplicity = 1

                         Standard orientation:
 ---------------------------------------------------------------------
 Center     Atomic      Atomic             Coordinates (Angstroms)
 Number     Number       Type             X           Y           Z
 ---------------------------------------------------------------------
      1          8           0        2.140235   -0.696567   -0.103025
      2          6           0        1.003882   -0.266566   -0.084356
      3          6           0        0.554578    1.065937   -0.472900
      4          8           0       -0.722445    1.214265   -0.312762
      5          6           0       -1.253323    0.187812    0.445168
      6          6           0       -1.584130   -0.938791   -0.393759
      7          6           0       -0.226131   -0.874452    0.463453
      8          1           0        1.118739    1.901419   -0.862542
      9          1           0        0.589793    1.681846    2.372221
     10          1           0       -0.121842    1.449556    2.365433
     11          1           0       -1.522213   -0.839129   -1.473244
     12          1           0       -2.230988   -1.723967   -0.026042
     13          1           0       -0.145070   -1.654947    1.204833
 ---------------------------------------------------------------------

 SCF Done:  E(RHF) =  -342.476158507     A.U. after    2 cycles

 The electronic state is 1-A.
 Alpha  occ. eigenvalues --  -20.72028 -20.55135 -11.37815 -11.35692 -11.30996
 Alpha  occ. eigenvalues --  -11.30086 -11.27890  -1.50004  -1.34620  -1.17245
 Alpha  occ. eigenvalues --   -1.04472  -0.92629  -0.85458  -0.78742  -0.76610
 Alpha  occ. eigenvalues --   -0.71687  -0.66507  -0.64983  -0.62577  -0.59531
 Alpha  occ. eigenvalues --   -0.58675  -0.56444  -0.50736  -0.47191  -0.43509
 Alpha  occ. eigenvalues --   -0.30560
 Alpha virt. eigenvalues --   -0.01026   0.03258   0.03681   0.04740   0.05879
 Alpha virt. eigenvalues --    0.06882   0.07250   0.09071   0.09302   0.10808
 Alpha virt. eigenvalues --    0.11596   0.12470   0.13869   0.14187   0.14852

 Mulliken charges:
               1
     1  O   -0.521893
     2  C    0.064858
     3  C    0.651880
     4  O   -0.389401
     5  C    0.057735
     6  C    0.812001
     7  C    0.412558
     8  H   -0.252391
     9  H   -0.102827
    10  H    0.175164
    11  H   -0.320439
    12  H   -0.228030
    13  H   -0.359214
 Sum of Mulliken charges =  -0.00000

 Dipole moment (field-independent basis, Debye):
    X=             -2.6118    Y=              0.5841    Z=             -1.3112  Tot=              2.9803

 Test job not archived.
 1\1\GINC-SE168\SP\RHF\Aug-CC-pVDZ\C5H6O2\OHZDE\09-Apr-2025\0\\#t hf au
 g-cc-pvdz iop(5/13=1,5/36=2,99/5=2) pseudo=read geom=check guess=(read
 ,tcheck) scf=(maxcycle=1)\\title\\0,1\O,0,1.17984326,2.01752143,0.7480
 6893\C,0,0.67772615,0.94658832,0.4696286\C,0,1.35483843,-0.33696993,0.
 31994851\O,0,0.53359823,-1.2848377,-0.00492464\C,0,-0.68750466,-0.7735
 4575,-0.40164103\C,0,-1.53859864,-0.55622038,0.74329281\C,0,-0.7046111
 2,0.63217942,0.05388535\H,0,2.39858508,-0.58863606,0.44398758\H,0,1.27
 126913,0.18692277,-2.5425409\H,0,0.61446322,-0.17178826,-2.52353492\H,

 Normal termination of Gaussian 16 at Wed Apr  9 16:32:03 2025.
