 Gaussian 16, Revision C.01,

 ----------------------------------------------------------------------
 #t hf aug-cc-pvdz symm=none int=(grid=ultrafine) guess=(read,tcheck) s
 table=(opt,rrhf)
 ----------------------------------------------------------------------
 -----
 title
 -----
 Symbolic Z-matrix:
 Charge =  0 Multiplicity = 1

 SCF Done:  E(RHF) =  -344.793076150     A.U. after   14 cycles

 1\1\GINC-SE092\Stability\RHF\Aug-CC-pVDZ\C5H10O2\OHZDE\09-Apr-2025\0\\
 #t hf aug-cc-pvdz symm=none int=(grid=ultrafine) guess=(read,tcheck) s
 table=(opt,rrhf)\\title\\0,1\C,0,-1.35584165,-1.50880006,0.15326398\C,
 0,-0.55798267,-0.32716435,-0.32399135\C,0,0.76767782,-0.63497674,-0.96
 465124\C,0,2.58894464,1.39789025,1.66326029\O,0,1.70792485,2.18007162,
 1.12480963\C,0,-1.23542576,0.93036302,-0.6332069\O,0,-0.53870778,0.773
 12875,0.60482379\H,0,-1.60921342,-2.15876449,-0.68632702\H,0,-0.773729
 59,-2.09212858,0.86917243\H,0,-2.27685363,-1.18561327,0.63727742\H,0,1

 Normal termination of Gaussian 16 at Wed Apr  9 15:55:09 2025.
 Gaussian 16:  ES64L-G16RevC.01  3-Jul-2019

 ----------------------------------------------------------------------
 #t hf aug-cc-pvdz iop(5/13=1,5/36=2,99/5=2) pseudo=read geom=check gue
 ss=(read,tcheck) scf=(maxcycle=1)
 ----------------------------------------------------------------------
 -----
 title
 -----
 Structure from the checkpoint file:  "Grambow2020_wb97xd3_007586_reverse_mol2.chk"
 Charge =  0 Multiplicity = 1

                         Standard orientation:
 ---------------------------------------------------------------------
 Center     Atomic      Atomic             Coordinates (Angstroms)
 Number     Number       Type             X           Y           Z
 ---------------------------------------------------------------------
      1          6           0       -2.200634    0.438419   -0.865911
      2          6           0       -1.115847    0.086583    0.113917
      3          6           0       -0.579353    1.218487    0.946705
      4          6           0        2.903599    0.685284   -0.446214
      5          8           0        2.522003   -0.444996    0.058547
      6          6           0       -0.987776   -1.287795    0.594129
      7          8           0       -0.112738   -0.795937   -0.423340
      8          1           0       -3.076779    0.821618   -0.339516
      9          1           0       -1.852224    1.213008   -1.551676
     10          1           0       -2.495088   -0.433536   -1.448984
     11          1           0        0.223519    0.883022    1.603237
     12          1           0       -1.375059    1.640945    1.562919
     13          1           0       -0.192871    2.013004    0.305158
     14          1           0        2.001376    1.123687   -0.962461
     15          1           0        1.571183   -0.652478   -0.113526
     16          1           0       -1.683778   -2.048420    0.254846
     17          1           0       -0.514336   -1.479257    1.552594
 ---------------------------------------------------------------------

 SCF Done:  E(RHF) =  -344.904244263     A.U. after    2 cycles

 The electronic state is 1-A.
 Alpha  occ. eigenvalues --  -20.61393 -20.61336 -11.32916 -11.31622 -11.29170
 Alpha  occ. eigenvalues --  -11.25296 -11.25275  -1.41027  -1.38150  -1.06254
 Alpha  occ. eigenvalues --   -0.97262  -0.94003  -0.86532  -0.80853  -0.73934
 Alpha  occ. eigenvalues --   -0.70995  -0.67683  -0.63865  -0.61035  -0.57830
 Alpha  occ. eigenvalues --   -0.57239  -0.57138  -0.56468  -0.54790  -0.53529
 Alpha  occ. eigenvalues --   -0.49169  -0.46384  -0.34240
 Alpha virt. eigenvalues --    0.02563   0.03799   0.03949   0.04966   0.05796
 Alpha virt. eigenvalues --    0.06424   0.07178   0.07548   0.07811   0.09207
 Alpha virt. eigenvalues --    0.10914   0.11072   0.11979   0.13394   0.13605

 Mulliken charges:
               1
     1  C    0.490459
     2  C   -0.850543
     3  C    0.418639
     4  C    0.187663
     5  O   -0.271666
     6  C    1.164248
     7  O   -0.822907
     8  H    0.052378
     9  H    0.062287
    10  H   -0.045965
    11  H   -0.071960
    12  H    0.032955
    13  H    0.055585
    14  H   -0.103351
    15  H    0.246745
    16  H   -0.264860
    17  H   -0.279707
 Sum of Mulliken charges =  -0.00000

 Dipole moment (field-independent basis, Debye):
    X=             -6.5697    Y=             -0.2435    Z=              1.0666  Tot=              6.6602

 Test job not archived.
 1\1\GINC-SE092\SP\RHF\Aug-CC-pVDZ\C5H10O2\OHZDE\09-Apr-2025\0\\#t hf a
 ug-cc-pvdz iop(5/13=1,5/36=2,99/5=2) pseudo=read geom=check guess=(rea
 d,tcheck) scf=(maxcycle=1)\\title\\0,1\C,0,-1.35584165,-1.50880006,0.1
 5326398\C,0,-0.55798267,-0.32716435,-0.32399135\C,0,0.76767782,-0.6349
 7674,-0.96465124\C,0,2.58894464,1.39789025,1.66326029\O,0,1.70792485,2
 .18007162,1.12480963\C,0,-1.23542576,0.93036302,-0.6332069\O,0,-0.5387
 0778,0.77312875,0.60482379\H,0,-1.60921342,-2.15876449,-0.68632702\H,0
 ,-0.77372959,-2.09212858,0.86917243\H,0,-2.27685363,-1.18561327,0.6372

 Normal termination of Gaussian 16 at Wed Apr  9 15:55:15 2025.
