 Gaussian 16, Revision C.01,

 ----------------------------------------------------------------------
 #t hf aug-cc-pvdz symm=none int=(grid=ultrafine) guess=(read,tcheck) s
 table=(opt,rrhf)
 ----------------------------------------------------------------------
 -----
 title
 -----
 Symbolic Z-matrix:
 Charge =  0 Multiplicity = 1

 SCF Done:  E(RHF) =  -248.938302778     A.U. after   12 cycles
 Normal termination of Gaussian 16 at Wed Apr  9 03:05:26 2025.
 Gaussian 16:  ES64L-G16RevC.01  3-Jul-2019

 ----------------------------------------------------------------------
 #t hf aug-cc-pvdz iop(5/13=1,5/36=2,99/5=2) pseudo=read geom=check gue
 ss=(read,tcheck) scf=(maxcycle=1)
 ----------------------------------------------------------------------
 -----
 title
 -----
 Structure from the checkpoint file:  "Grambow2020_b97d3_006548_forward_mol2.chk"
 Charge =  0 Multiplicity = 1

                         Standard orientation:
 ---------------------------------------------------------------------
 Center     Atomic      Atomic             Coordinates (Angstroms)
 Number     Number       Type             X           Y           Z
 ---------------------------------------------------------------------
      1          6           0        2.009392   -0.000238   -0.000102
      2          6           0        0.495857   -0.000108    0.000263
      3          6           0       -0.483593   -0.724473   -0.955068
      4          7           0       -1.462087    0.000325   -0.000159
      5          6           0       -0.483448   -0.464985    1.104958
      6          6           0       -0.482827    1.189284   -0.149745
      7          1           0        2.400467    0.613355    0.824741
      8          1           0        2.398972    0.408084   -0.944141
      9          1           0        2.401094   -1.021182    0.118053
     10          1           0       -0.549826   -0.373039   -1.994633
     11          1           0       -0.550042   -1.820273   -0.896538
     12          1           0       -0.549736   -1.540946    1.320360
     13          1           0       -0.549815    0.133543    2.024623
     14          1           0       -0.548885    1.913848    0.674353
     15          1           0       -0.549912    1.687449   -1.127544
 ---------------------------------------------------------------------

 SCF Done:  E(RHF) =  -249.010165661     A.U. after    2 cycles

 The electronic state is 1-A.
 Alpha  occ. eigenvalues --  -15.63105 -11.26676 -11.26642 -11.26641 -11.26142
 Alpha  occ. eigenvalues --  -11.23564  -1.26314  -0.99914  -0.91418  -0.91415
 Alpha  occ. eigenvalues --   -0.85246  -0.74368  -0.63257  -0.63252  -0.59688
 Alpha  occ. eigenvalues --   -0.57788  -0.57784  -0.50628  -0.47472  -0.47461
 Alpha  occ. eigenvalues --   -0.44984  -0.44966  -0.36651
 Alpha virt. eigenvalues --    0.03055   0.04219   0.04220   0.04780   0.06860
 Alpha virt. eigenvalues --    0.06861   0.07299   0.07300   0.09001   0.09104
 Alpha virt. eigenvalues --    0.13263   0.13467   0.13467   0.13792   0.15004

 Mulliken charges:
               1
     1  C    0.580644
     2  C   -0.699659
     3  C    0.770098
     4  N   -0.897583
     5  C    0.770122
     6  C    0.770055
     7  H    0.046718
     8  H    0.046960
     9  H    0.046188
    10  H   -0.239072
    11  H   -0.238732
    12  H   -0.238896
    13  H   -0.238580
    14  H   -0.239262
    15  H   -0.239001
 Sum of Mulliken charges =   0.00000

 Dipole moment (field-independent basis, Debye):
    X=              2.2828    Y=             -0.0008    Z=              0.0005  Tot=              2.2828

 Test job not archived.
 1\1\GINC-SE459\SP\RHF\Aug-CC-pVDZ\C5H9N1\OHZDE\09-Apr-2025\0\\#t hf au
 g-cc-pvdz iop(5/13=1,5/36=2,99/5=2) pseudo=read geom=check guess=(read
 ,tcheck) scf=(maxcycle=1)\\title\\0,1\C,0,1.76228662,-0.11021674,-0.19
 39657\C,0,0.26073472,-0.01602281,-0.02886557\C,0,-0.5838226,-0.0199367
 9,1.26859033\N,0,-1.68169962,0.10504965,0.18522573\C,0,-0.70417834,1.1
 1157618,-0.46814095\C,0,-0.84390585,-0.95769397,-0.56552504\H,0,2.0418
 9723,-0.06957731,-1.25696587\H,0,2.14181528,-1.05444721,0.22328132\H,0
 ,2.26612821,0.71911019,0.32379779\H,0,-0.64561096,-0.95415494,1.844790

 Normal termination of Gaussian 16 at Wed Apr  9 03:05:30 2025.
