 Gaussian 16, Revision C.01,

 ----------------------------------------------------------------------
 #t hf aug-cc-pvdz symm=none int=(grid=ultrafine) guess=(read,tcheck) s
 table=(opt,rrhf)
 ----------------------------------------------------------------------
 -----
 title
 -----
 Symbolic Z-matrix:
 Charge =  0 Multiplicity = 1

 SCF Done:  E(RHF) =  -324.906687175     A.U. after   15 cycles
 Normal termination of Gaussian 16 at Wed Apr  9 16:21:21 2025.
 Gaussian 16:  ES64L-G16RevC.01  3-Jul-2019

 ----------------------------------------------------------------------
 #t hf aug-cc-pvdz iop(5/13=1,5/36=2,99/5=2) pseudo=read geom=check gue
 ss=(read,tcheck) scf=(maxcycle=1)
 ----------------------------------------------------------------------
 -----
 title
 -----
 Structure from the checkpoint file:  "Grambow2020_wb97xd3_008106_forward_mol1.chk"
 Charge =  0 Multiplicity = 1

                         Standard orientation:
 ---------------------------------------------------------------------
 Center     Atomic      Atomic             Coordinates (Angstroms)
 Number     Number       Type             X           Y           Z
 ---------------------------------------------------------------------
      1          6           0       -1.089723   -0.999440    1.066465
      2          6           0        0.613833   -1.376532   -0.246864
      3          7           0        0.937828   -0.141456   -0.566179
      4          6           0        2.032386    0.462442    0.170817
      5          6           0       -0.637786    0.299652   -0.314437
      6          8           0       -1.355019    0.169594   -1.280621
      7          6           0       -0.601459    1.539999    0.555244
      8          1           0       -1.362360   -2.024444    0.811100
      9          1           0       -2.033264   -0.472488    1.213984
     10          1           0       -0.537642   -0.979463    2.008998
     11          1           0       -0.075730   -1.889470   -0.904436
     12          1           0        1.243727   -1.983286    0.405777
     13          1           0        2.968701    0.008335   -0.158186
     14          1           0        2.084453    1.525862   -0.052476
     15          1           0        1.947663    0.331238    1.257043
     16          1           0       -1.634025    1.759457    0.822613
     17          1           0       -0.215619    2.364790   -0.046639
     18          1           0       -0.014055    1.436177    1.463095
 ---------------------------------------------------------------------

 SCF Done:  E(RHF) =  -325.008729035     A.U. after    2 cycles

 The electronic state is 1-A.
 Alpha  occ. eigenvalues --  -20.50116 -15.64715 -11.37922 -11.36455 -11.28255
 Alpha  occ. eigenvalues --  -11.24368 -11.21682  -1.32896  -1.23979  -1.00766
 Alpha  occ. eigenvalues --   -0.99838  -0.91536  -0.85315  -0.74990  -0.70077
 Alpha  occ. eigenvalues --   -0.67325  -0.65834  -0.61393  -0.59344  -0.57819
 Alpha  occ. eigenvalues --   -0.56969  -0.55135  -0.54097  -0.52612  -0.51732
 Alpha  occ. eigenvalues --   -0.42890  -0.39612  -0.32018
 Alpha virt. eigenvalues --    0.02484   0.03602   0.04049   0.04874   0.06058
 Alpha virt. eigenvalues --    0.06413   0.06803   0.07504   0.07781   0.08605
 Alpha virt. eigenvalues --    0.08957   0.09590   0.11413   0.12970   0.13417

 Mulliken charges:
               1
     1  C    0.554645
     2  C    0.822177
     3  N   -0.589715
     4  C    0.759412
     5  C    0.088815
     6  O   -0.733915
     7  C    0.549320
     8  H   -0.181805
     9  H   -0.248886
    10  H   -0.133405
    11  H   -0.144996
    12  H   -0.215355
    13  H   -0.245256
    14  H   -0.165060
    15  H   -0.026605
    16  H   -0.129595
    17  H   -0.031818
    18  H    0.072041
 Sum of Mulliken charges =   0.00000

 Dipole moment (field-independent basis, Debye):
    X=              4.2129    Y=             -1.0418    Z=              3.4381  Tot=              5.5366

 Test job not archived.
 1\1\GINC-SE114\SP\RHF\Aug-CC-pVDZ\C5H11N1O1\OHZDE\09-Apr-2025\0\\#t hf
  aug-cc-pvdz iop(5/13=1,5/36=2,99/5=2) pseudo=read geom=check guess=(r
 ead,tcheck) scf=(maxcycle=1)\\title\\0,1\C,0,-1.04241645,0.5256917,-1.
 28362856\C,0,-1.33925981,-0.58389806,0.57374282\N,0,-0.08717595,-0.804
 97608,0.91397658\C,0,0.49341295,0.08744903,1.9000828\C,0,0.32461641,-0
 .72922052,-0.68764734\O,0,0.23211572,-1.78112023,-1.27908643\C,0,1.523
 27538,0.19333537,-0.77839106\H,0,-2.05725119,0.19281679,-1.50606883\H,
 0,-0.5331715,0.57969391,-2.2466774\H,0,-1.06055057,1.52888084,-0.85137

 Normal termination of Gaussian 16 at Wed Apr  9 16:21:28 2025.
