 Gaussian 16, Revision C.01,

 ----------------------------------------------------------------------
 #t hf aug-cc-pvdz symm=none int=(grid=ultrafine) guess=(read,tcheck) s
 table=(opt,rrhf)
 ----------------------------------------------------------------------
 -----
 title
 -----
 Symbolic Z-matrix:
 Charge =  0 Multiplicity = 1

 SCF Done:  E(RHF) =  -322.728270440     A.U. after   15 cycles
 Normal termination of Gaussian 16 at Wed Apr  9 15:34:58 2025.
 Gaussian 16:  ES64L-G16RevC.01  3-Jul-2019

 ----------------------------------------------------------------------
 #t hf aug-cc-pvdz iop(5/13=1,5/36=2,99/5=2) pseudo=read geom=check gue
 ss=(read,tcheck) scf=(maxcycle=1)
 ----------------------------------------------------------------------
 -----
 title
 -----
 Structure from the checkpoint file:  "Grambow2020_wb97xd3_007020_reverse_mol2.chk"
 Charge =  0 Multiplicity = 1

                         Standard orientation:
 ---------------------------------------------------------------------
 Center     Atomic      Atomic             Coordinates (Angstroms)
 Number     Number       Type             X           Y           Z
 ---------------------------------------------------------------------
      1          6           0       -2.009379   -0.290421   -0.344751
      2          6           0       -0.700242   -0.333088    0.432841
      3          6           0        0.225317   -1.523577    0.151827
      4          6           0        1.604471   -1.006071   -0.189912
      5          7           0        1.465168    0.308461   -0.193623
      6          6           0        0.182702    0.852065    0.107527
      7          8           0       -0.069746    2.019378    0.084573
      8          1           0       -2.657857   -1.115013   -0.046734
      9          1           0       -1.827154   -0.374122   -1.418372
     10          1           0       -2.535162    0.647268   -0.162200
     11          1           0       -0.917287   -0.257501    1.502619
     12          1           0        0.307594   -2.229846    0.979944
     13          1           0       -0.107519   -2.118603   -0.705099
     14          1           0        2.221967    0.940118   -0.416577
 ---------------------------------------------------------------------

 SCF Done:  E(RHF) =  -322.825580196     A.U. after    2 cycles

 The electronic state is 1-A.
 Alpha  occ. eigenvalues --  -20.57950 -15.69247 -11.38632 -11.28334 -11.26826
 Alpha  occ. eigenvalues --  -11.25232 -11.24780  -1.39278  -1.26529  -1.09152
 Alpha  occ. eigenvalues --   -0.98326  -0.91992  -0.83163  -0.79490  -0.70587
 Alpha  occ. eigenvalues --   -0.67675  -0.63923  -0.60363  -0.58120  -0.56909
 Alpha  occ. eigenvalues --   -0.55635  -0.53070  -0.51837  -0.47139  -0.46477
 Alpha  occ. eigenvalues --   -0.36374
 Alpha virt. eigenvalues --    0.03044   0.04273   0.04335   0.04815   0.06377
 Alpha virt. eigenvalues --    0.07049   0.07623   0.09056   0.09386   0.10492
 Alpha virt. eigenvalues --    0.12251   0.12745   0.13550   0.14425   0.14907

 Mulliken charges:
               1
     1  C    0.705024
     2  C   -1.004233
     3  C    0.672829
     4  C   -0.131015
     5  N   -0.265505
     6  C    0.677097
     7  O   -0.431705
     8  H   -0.019638
     9  H   -0.002313
    10  H   -0.042191
    11  H    0.022289
    12  H   -0.032745
    13  H   -0.054493
    14  H   -0.093400
 Sum of Mulliken charges =  -0.00000

 Dipole moment (field-independent basis, Debye):
    X=             -1.3516    Y=             -1.5622    Z=              0.4427  Tot=              2.1127

 Test job not archived.
 1\1\GINC-SE332\SP\RHF\Aug-CC-pVDZ\C5H7N1O1\OHZDE\09-Apr-2025\0\\#t hf
 aug-cc-pvdz iop(5/13=1,5/36=2,99/5=2) pseudo=read geom=check guess=(re
 ad,tcheck) scf=(maxcycle=1)\\title\\0,1\C,0,-1.65971331,0.1522606,0.36
 379983\C,0,-0.34242765,0.24157819,-0.39586366\C,0,0.77392058,1.0623302
 5,0.26218164\C,0,2.02687042,0.21909087,0.33785883\N,0,1.65303379,-0.95
 889239,-0.13119731\C,0,0.30285913,-1.11749666,-0.55873624\O,0,-0.15626
 316,-2.14778927,-0.95190413\H,0,-2.14019716,1.13007713,0.41175539\H,0,
 -1.4964357,-0.19513587,1.38631181\H,0,-2.34030037,-0.54454882,-0.12639

 Normal termination of Gaussian 16 at Wed Apr  9 15:35:03 2025.
