 Gaussian 16, Revision C.01,

 ----------------------------------------------------------------------
 #t hf aug-cc-pvdz symm=none int=(grid=ultrafine) guess=(read,tcheck) s
 table=(opt,rrhf)
 ----------------------------------------------------------------------
 -----
 title
 -----
 Symbolic Z-matrix:
 Charge =  0 Multiplicity = 1

 SCF Done:  E(RHF) =  -318.702193049     A.U. after   17 cycles
 Normal termination of Gaussian 16 at Wed Apr  9 03:46:35 2025.
 Gaussian 16:  ES64L-G16RevC.01  3-Jul-2019

 ----------------------------------------------------------------------
 #t hf aug-cc-pvdz iop(5/13=1,5/36=2,99/5=2) pseudo=read geom=check gue
 ss=(read,tcheck) scf=(maxcycle=1)
 ----------------------------------------------------------------------
 -----
 title
 -----
 Structure from the checkpoint file:  "Grambow2020_wb97xd3_007958_reverse_mol1.chk"
 Charge =  0 Multiplicity = 1

                         Standard orientation:
 ---------------------------------------------------------------------
 Center     Atomic      Atomic             Coordinates (Angstroms)
 Number     Number       Type             X           Y           Z
 ---------------------------------------------------------------------
      1          6           0        2.120416   -0.558744   -0.450713
      2          6           0        1.444229    0.716240   -0.012702
      3          6           0       -0.482141    1.172617    0.340583
      4          6           0       -1.513369    0.696260   -0.492776
      5          7           0       -1.559208   -0.628160   -0.324449
      6          7           0       -0.621054   -1.094336    0.469776
      7          7           0        0.023487   -0.006245    0.889272
      8          1           0        3.089061   -0.286465   -0.881662
      9          1           0        2.272816   -1.245202    0.379747
     10          1           0        1.548648   -1.070144   -1.225660
     11          1           0        1.894025    1.215183    0.833479
     12          1           0        1.337729    1.402806   -0.847299
     13          1           0       -2.215814    1.207168   -1.130665
     14          1           0       -2.243857   -1.280402   -0.676484
 ---------------------------------------------------------------------

 SCF Done:  E(RHF) =  -318.793777992     A.U. after    2 cycles

 The electronic state is 1-A.
 Alpha  occ. eigenvalues --  -15.75609 -15.68831 -15.66897 -11.32178 -11.27998
 Alpha  occ. eigenvalues --  -11.24051 -11.22387  -1.40374  -1.17878  -1.07117
 Alpha  occ. eigenvalues --   -1.02924  -0.88675  -0.83245  -0.80229  -0.73937
 Alpha  occ. eigenvalues --   -0.65798  -0.65549  -0.60452  -0.57995  -0.56197
 Alpha  occ. eigenvalues --   -0.52544  -0.50862  -0.43711  -0.42796  -0.33920
 Alpha  occ. eigenvalues --   -0.32780
 Alpha virt. eigenvalues --    0.02390   0.03472   0.04177   0.05507   0.06362
 Alpha virt. eigenvalues --    0.06627   0.08060   0.08574   0.10236   0.11746
 Alpha virt. eigenvalues --    0.12360   0.12860   0.13739   0.14711   0.15060

 Mulliken charges:
               1
     1  C    0.325948
     2  C    0.546799
     3  C   -0.224304
     4  C    0.709580
     5  N   -0.031845
     6  N   -0.375939
     7  N   -0.408514
     8  H   -0.054628
     9  H   -0.018053
    10  H   -0.001746
    11  H   -0.162652
    12  H   -0.035870
    13  H   -0.244874
    14  H   -0.023900
 Sum of Mulliken charges =  -0.00000

 Dipole moment (field-independent basis, Debye):
    X=             -0.6048    Y=             -1.4883    Z=             -3.6661  Tot=              4.0026

 Test job not archived.
 1\1\GINC-SE345\SP\RHF\Aug-CC-pVDZ\C4H7N3\OHZDE\09-Apr-2025\0\\#t hf au
 g-cc-pvdz iop(5/13=1,5/36=2,99/5=2) pseudo=read geom=check guess=(read
 ,tcheck) scf=(maxcycle=1)\\title\\0,1\C,0,-1.58950003,0.95682755,0.055
 8831\C,0,-1.15673145,-0.44615342,0.40088036\C,0,0.64847092,-1.33098717
 ,0.44889199\C,0,1.6139872,-1.08184024,-0.546365\N,0,1.98306269,0.19467
 752,-0.40921627\N,0,1.31295826,0.84360823,0.51711769\N,0,0.51538543,-0
 .08001501,1.05204568\H,0,-2.65058272,0.91808221,-0.21006394\H,0,-1.448
 97855,1.64297626,0.88869098\H,0,-1.04840243,1.34221803,-0.80880113\H,0

 Normal termination of Gaussian 16 at Wed Apr  9 03:46:39 2025.
