 Gaussian 16, Revision C.01,

 ----------------------------------------------------------------------
 #t hf aug-cc-pvdz symm=none int=(grid=ultrafine) guess=(read,tcheck) s
 table=(opt,rrhf)
 ----------------------------------------------------------------------
 -----
 title
 -----
 Symbolic Z-matrix:
 Charge =  0 Multiplicity = 1

 SCF Done:  E(RHF) =  -322.672077277     A.U. after   14 cycles
 Normal termination of Gaussian 16 at Wed Apr  9 15:30:03 2025.
 Gaussian 16:  ES64L-G16RevC.01  3-Jul-2019

 ----------------------------------------------------------------------
 #t hf aug-cc-pvdz iop(5/13=1,5/36=2,99/5=2) pseudo=read geom=check gue
 ss=(read,tcheck) scf=(maxcycle=1)
 ----------------------------------------------------------------------
 -----
 title
 -----
 Structure from the checkpoint file:  "Grambow2020_wb97xd3_006938_reverse_mol2.chk"
 Charge =  0 Multiplicity = 1

                         Standard orientation:
 ---------------------------------------------------------------------
 Center     Atomic      Atomic             Coordinates (Angstroms)
 Number     Number       Type             X           Y           Z
 ---------------------------------------------------------------------
      1          8           0       -1.011974   -0.735417   -0.416430
      2          6           0       -2.232906   -0.367978    0.045461
      3          7           0       -2.601613    0.725770    0.538677
      4          6           0        2.142378   -0.694862    0.559825
      5          6           0        2.514469    0.642660   -0.073841
      6          6           0        1.154413    0.115589   -0.142555
      7          6           0       -0.069178    0.259163   -0.583403
      8          1           0       -2.921567   -1.202543   -0.058317
      9          1           0       -1.844788    1.403160    0.606154
     10          1           0        2.496539   -1.599071    0.079197
     11          1           0        2.091234   -0.745903    1.641010
     12          1           0        2.710518    1.476931    0.589320
     13          1           0        3.121150    0.624516   -0.971603
     14          1           0       -0.401071    1.118434   -1.157976
 ---------------------------------------------------------------------

 SCF Done:  E(RHF) =  -322.774894801     A.U. after    2 cycles

 The electronic state is 1-A.
 Alpha  occ. eigenvalues --  -20.62612 -15.61277 -11.35537 -11.31264 -11.26186
 Alpha  occ. eigenvalues --  -11.25953 -11.25796  -1.40854  -1.17731  -1.15838
 Alpha  occ. eigenvalues --   -1.00821  -0.85894  -0.84438  -0.75459  -0.74257
 Alpha  occ. eigenvalues --   -0.69966  -0.68124  -0.66307  -0.59351  -0.57281
 Alpha  occ. eigenvalues --   -0.53758  -0.46259  -0.45666  -0.44132  -0.43012
 Alpha  occ. eigenvalues --   -0.36930
 Alpha virt. eigenvalues --    0.03246   0.04106   0.04352   0.04626   0.05742
 Alpha virt. eigenvalues --    0.06874   0.07259   0.09254   0.10383   0.11736
 Alpha virt. eigenvalues --    0.12155   0.13126   0.13307   0.13683   0.14240

 Mulliken charges:
               1
     1  O   -0.568301
     2  C    0.744728
     3  N   -0.242842
     4  C    0.553502
     5  C    0.608580
     6  C   -0.777768
     7  C    0.744310
     8  H   -0.292719
     9  H    0.025055
    10  H   -0.110339
    11  H   -0.113934
    12  H   -0.113818
    13  H   -0.126069
    14  H   -0.330385
 Sum of Mulliken charges =  -0.00000

 Dipole moment (field-independent basis, Debye):
    X=              2.7026    Y=              0.0273    Z=             -0.5063  Tot=              2.7497

 Test job not archived.
 1\1\GINC-SE454\SP\RHF\Aug-CC-pVDZ\C5H7N1O1\OHZDE\09-Apr-2025\0\\#t hf
 aug-cc-pvdz iop(5/13=1,5/36=2,99/5=2) pseudo=read geom=check guess=(re
 ad,tcheck) scf=(maxcycle=1)\\title\\0,1\O,0,-1.15712989,1.06928882,-0.
 2533707\C,0,-1.4500431,2.16535148,0.48951482\N,0,-0.79931475,2.6897189
 6,1.42604175\C,0,-0.23796658,-2.07180339,0.18632656\C,0,1.26722638,-1.
 83857289,0.0917374\C,0,0.31569248,-0.73340539,0.01781212\C,0,0.1173206
 7,0.54960553,-0.14548939\H,0,-2.40226972,2.575631,0.16323425\H,0,0.054
 06288,2.18060729,1.64682744\H,0,-0.7337994,-2.5301214,-0.66109353\H,0,

 Normal termination of Gaussian 16 at Wed Apr  9 15:30:07 2025.
