 Gaussian 16, Revision C.01,

 ----------------------------------------------------------------------
 #t hf aug-cc-pvdz symm=none int=(grid=ultrafine) guess=(read,tcheck) s
 table=(opt,rrhf)
 ----------------------------------------------------------------------
 -----
 title
 -----
 Symbolic Z-matrix:
 Charge =  0 Multiplicity = 1

 SCF Done:  E(RHF) =  -299.475917369     A.U. after   17 cycles
 Normal termination of Gaussian 16 at Wed Apr  9 03:20:50 2025.
 Gaussian 16:  ES64L-G16RevC.01  3-Jul-2019

 ----------------------------------------------------------------------
 #t hf aug-cc-pvdz iop(5/13=1,5/36=2,99/5=2) pseudo=read geom=check gue
 ss=(read,tcheck) scf=(maxcycle=1)
 ----------------------------------------------------------------------
 -----
 title
 -----
 Structure from the checkpoint file:  "Grambow2020_wb97xd3_006145_reverse_mol1.chk"
 Charge =  0 Multiplicity = 1

                         Standard orientation:
 ---------------------------------------------------------------------
 Center     Atomic      Atomic             Coordinates (Angstroms)
 Number     Number       Type             X           Y           Z
 ---------------------------------------------------------------------
      1          7           0        1.589908    0.156220    0.482613
      2          6           0        0.650597    0.270394   -0.426803
      3          6           0       -0.493531    1.156368   -0.373139
      4          6           0       -1.312292    0.292002    0.283036
      5          7           0       -0.765223   -0.979656    0.417852
      6          8           0        0.196266   -0.972087   -0.692796
      7          1           0        0.566630   -0.554389    1.080160
      8          1           0        1.803647    1.044610    0.926167
      9          1           0       -0.547433    2.226264   -0.469011
     10          1           0       -2.234405    0.511676    0.803232
 ---------------------------------------------------------------------

 SCF Done:  E(RHF) =  -299.563919125     A.U. after    2 cycles

 The electronic state is 1-A.
 Alpha  occ. eigenvalues --  -20.62179 -15.68475 -15.66715 -11.40473 -11.31685
 Alpha  occ. eigenvalues --  -11.26810  -1.45129  -1.20694  -1.14617  -1.02576
 Alpha  occ. eigenvalues --   -0.82503  -0.81272  -0.75090  -0.70916  -0.64687
 Alpha  occ. eigenvalues --   -0.60412  -0.57657  -0.53062  -0.51866  -0.46363
 Alpha  occ. eigenvalues --   -0.42532  -0.34806
 Alpha virt. eigenvalues --    0.02321   0.03667   0.04468   0.05981   0.07338
 Alpha virt. eigenvalues --    0.07842   0.09248   0.10533   0.11697   0.12159
 Alpha virt. eigenvalues --    0.13566   0.14179   0.15052   0.15905   0.16411

 Mulliken charges:
               1
     1  N   -0.562336
     2  C    0.544753
     3  C    0.529546
     4  C    0.542683
     5  N   -0.530207
     6  O   -0.679037
     7  H    0.545432
     8  H    0.043982
     9  H   -0.237263
    10  H   -0.197554
 Sum of Mulliken charges =  -0.00000

 Dipole moment (field-independent basis, Debye):
    X=             -0.3516    Y=              4.5702    Z=              1.3641  Tot=              4.7824

 Test job not archived.
 1\1\GINC-SE333\SP\RHF\Aug-CC-pVDZ\C3H4N2O1\OHZDE\09-Apr-2025\0\\#t hf
 aug-cc-pvdz iop(5/13=1,5/36=2,99/5=2) pseudo=read geom=check guess=(re
 ad,tcheck) scf=(maxcycle=1)\\title\\0,1\N,0,1.65409483,-0.20828571,-0.
 07654096\C,0,0.49699351,-0.46494525,-0.64011846\C,0,-0.6016639,0.46346
 705,-0.80703865\C,0,-1.1908125,0.20361555,0.3902274\N,0,-0.60660257,-0
 .86385045,1.06386647\O,0,0.00746968,-1.58134661,-0.06137557\H,0,0.8496
 4549,-0.34226752,1.03882197\H,0,1.96792855,0.73999687,-0.26074315\H,0,
 -0.69804647,1.31426497,-1.45790522\H,0,-1.93523262,0.79197409,0.908710

 Normal termination of Gaussian 16 at Wed Apr  9 03:20:54 2025.
