 Gaussian 16, Revision C.01,

 ----------------------------------------------------------------------
 #t hf aug-cc-pvdz symm=none int=(grid=ultrafine) guess=(read,tcheck) s
 table=(opt,rrhf)
 ----------------------------------------------------------------------
 -----
 title
 -----
 Symbolic Z-matrix:
 Charge =  0 Multiplicity = 1

 SCF Done:  E(RHF) =  -262.435244937     A.U. after   21 cycles
 Normal termination of Gaussian 16 at Wed Apr  9 14:16:02 2025.
 Gaussian 16:  ES64L-G16RevC.01  3-Jul-2019

 ----------------------------------------------------------------------
 #t hf aug-cc-pvdz iop(5/13=1,5/36=2,99/5=2) pseudo=read geom=check gue
 ss=(read,tcheck) scf=(maxcycle=1)
 ----------------------------------------------------------------------
 -----
 title
 -----
 Structure from the checkpoint file:  "Grambow2020_b97d3_006911_reverse_mol1.chk"
 Charge =  0 Multiplicity = 1

                         Standard orientation:
 ---------------------------------------------------------------------
 Center     Atomic      Atomic             Coordinates (Angstroms)
 Number     Number       Type             X           Y           Z
 ---------------------------------------------------------------------
      1          6           0        1.143733    0.885741   -0.001580
      2          6           0        1.425387   -0.570497    0.001003
      3          7           0        0.513422   -1.462144   -0.000787
      4          7           0       -1.816481   -0.705227   -0.001179
      5          6           0       -1.116060    0.267211    0.001486
      6          6           0       -0.149270    1.310137    0.000705
      7          1           0        1.957097    1.613930   -0.004018
      8          1           0        2.501420   -0.842242    0.005865
      9          1           0       -2.680484    0.700251    0.002293
     10          1           0       -0.479351    2.344115   -0.000063
 ---------------------------------------------------------------------

 SCF Done:  E(RHF) =  -262.509025282     A.U. after    2 cycles

 The electronic state is 1-A.
 Alpha  occ. eigenvalues --  -15.77406 -15.57940 -11.42244 -11.31843 -11.29733
 Alpha  occ. eigenvalues --  -11.24951  -1.29393  -1.14872  -1.06847  -0.91998
 Alpha  occ. eigenvalues --   -0.77714  -0.72807  -0.66363  -0.63067  -0.59647
 Alpha  occ. eigenvalues --   -0.59578  -0.57833  -0.46805  -0.45752  -0.35718
 Alpha  occ. eigenvalues --   -0.28610
 Alpha virt. eigenvalues --   -0.00271   0.02656   0.03339   0.04623   0.06238
 Alpha virt. eigenvalues --    0.06406   0.09742   0.10138   0.10471   0.12744
 Alpha virt. eigenvalues --    0.13030   0.13122   0.13254   0.13929   0.14746

 Mulliken charges:
               1
     1  C    0.289255
     2  C    0.497725
     3  N   -0.612363
     4  N   -0.123736
     5  C   -0.321569
     6  C    0.965497
     7  H   -0.336883
     8  H   -0.252013
     9  H    0.229939
    10  H   -0.335853
 Sum of Mulliken charges =  -0.00000

 Dipole moment (field-independent basis, Debye):
    X=             -1.3212    Y=              6.1385    Z=              0.0042  Tot=              6.2791

 Test job not archived.
 1\1\GINC-SE015\SP\RHF\Aug-CC-pVDZ\C4H4N2\OHZDE\09-Apr-2025\0\\#t hf au
 g-cc-pvdz iop(5/13=1,5/36=2,99/5=2) pseudo=read geom=check guess=(read
 ,tcheck) scf=(maxcycle=1)\\title\\0,1\C,0,0.74209634,0.86705131,-0.094
 73128\C,0,1.53806927,-0.3827828,-0.16034323\N,0,1.0234337,-1.54762864,
 -0.08961608\N,0,-1.40702402,-1.70244455,0.17548412\C,0,-1.11740164,-0.
 54042616,0.13005025\C,0,-0.60803634,0.78520292,0.05499172\H,0,1.225315
 76,1.84356774,-0.16359502\H,0,2.63242523,-0.23887333,-0.27606496\H,0,-
 2.72157469,-0.71425944,0.30712815\H,0,-1.29325561,1.62471094,0.1163453

 Normal termination of Gaussian 16 at Wed Apr  9 14:16:05 2025.
