 Gaussian 16, Revision C.01,

 ----------------------------------------------------------------------
 #t hf aug-cc-pvdz symm=none int=(grid=ultrafine) guess=(read,tcheck) s
 table=(opt,rrhf)
 ----------------------------------------------------------------------
 -----
 title
 -----
 Symbolic Z-matrix:
 Charge =  0 Multiplicity = 1

 SCF Done:  E(RHF) =  -283.559297558     A.U. after   16 cycles
 Normal termination of Gaussian 16 at Wed Apr  9 03:08:43 2025.
 Gaussian 16:  ES64L-G16RevC.01  3-Jul-2019

 ----------------------------------------------------------------------
 #t hf aug-cc-pvdz iop(5/13=1,5/36=2,99/5=2) pseudo=read geom=check gue
 ss=(read,tcheck) scf=(maxcycle=1)
 ----------------------------------------------------------------------
 -----
 title
 -----
 Structure from the checkpoint file:  "Grambow2020_b97d3_006668_reverse_mol2.chk"
 Charge =  0 Multiplicity = 1

                         Standard orientation:
 ---------------------------------------------------------------------
 Center     Atomic      Atomic             Coordinates (Angstroms)
 Number     Number       Type             X           Y           Z
 ---------------------------------------------------------------------
      1          7           0        2.583414   -0.994167    0.073453
      2          6           0        1.818298   -0.118811   -0.065396
      3          6           0        0.802864    0.951456   -0.192334
      4          6           0       -0.497576    0.603894    0.463894
      5          6           0       -2.510442   -0.602545   -0.000826
      6          8           0       -1.386079    0.001040   -0.307660
      7          1           0        0.637298    1.151477   -1.261564
      8          1           0        1.220377    1.870908    0.247085
      9          1           0       -0.602530    0.503668    1.543785
     10          1           0       -3.100130   -0.917016   -0.851858
     11          1           0       -2.829140   -0.662159    1.037640
 ---------------------------------------------------------------------

 SCF Done:  E(RHF) =  -283.645823492     A.U. after    2 cycles

 The electronic state is 1-A.
 Alpha  occ. eigenvalues --  -20.73221 -15.64008 -11.32200 -11.31080 -11.30765
 Alpha  occ. eigenvalues --  -11.29047  -1.47343  -1.18263  -1.09193  -0.99384
 Alpha  occ. eigenvalues --   -0.84683  -0.75498  -0.73625  -0.70223  -0.66277
 Alpha  occ. eigenvalues --   -0.62015  -0.59845  -0.55363  -0.54243  -0.45561
 Alpha  occ. eigenvalues --   -0.45206  -0.26704
 Alpha virt. eigenvalues --    0.02671   0.03201   0.04047   0.04114   0.05916
 Alpha virt. eigenvalues --    0.06644   0.08273   0.10612   0.11791   0.12068
 Alpha virt. eigenvalues --    0.12853   0.13629   0.15116   0.15687   0.15951

 Mulliken charges:
               1
     1  N   -0.222251
     2  C   -0.215859
     3  C    0.242251
     4  C    0.583238
     5  C    0.599005
     6  O   -0.254750
     7  H    0.043078
     8  H    0.109343
     9  H   -0.397352
    10  H   -0.310452
    11  H   -0.176249
 Sum of Mulliken charges =  -0.00000

 Dipole moment (field-independent basis, Debye):
    X=             -3.6516    Y=              2.3653    Z=              0.2917  Tot=              4.3605

 Test job not archived.
 1\1\GINC-SE015\SP\RHF\Aug-CC-pVDZ\C4H5N1O1\OHZDE\09-Apr-2025\0\\#t hf
 aug-cc-pvdz iop(5/13=1,5/36=2,99/5=2) pseudo=read geom=check guess=(re
 ad,tcheck) scf=(maxcycle=1)\\title\\0,1\N,0,2.72831031,-0.63769253,1.4
 5359852\C,0,1.96873889,-0.77529381,0.57323127\C,0,0.98161669,-0.877931
 59,-0.52574451\C,0,0.01543612,0.26591438,-0.5520324\C,0,-2.03003289,0.
 95033294,0.4827218\O,0,-1.09733256,0.09258042,0.14069344\H,0,0.4326186
 ,-1.82508872,-0.41544235\H,0,1.53484707,-0.93442989,-1.47629316\H,0,0.
 31737292,1.28472908,-0.7930226\H,0,-2.89377927,0.50951018,0.96282154\H

 Normal termination of Gaussian 16 at Wed Apr  9 03:08:47 2025.
