 Gaussian 16, Revision C.01,

 ----------------------------------------------------------------------
 #t hf aug-cc-pvdz symm=none int=(grid=ultrafine) guess=(read,tcheck) s
 table=(opt,rrhf)
 ----------------------------------------------------------------------
 -----
 title
 -----
 Symbolic Z-matrix:
 Charge =  0 Multiplicity = 1

 SCF Done:  E(RHF) =  -357.292057384     A.U. after   16 cycles
 Normal termination of Gaussian 16 at Wed Apr  9 16:34:47 2025.
 Gaussian 16:  ES64L-G16RevC.01  3-Jul-2019

 ----------------------------------------------------------------------
 #t hf aug-cc-pvdz iop(5/13=1,5/36=2,99/5=2) pseudo=read geom=check gue
 ss=(read,tcheck) scf=(maxcycle=1)
 ----------------------------------------------------------------------
 -----
 title
 -----
 Structure from the checkpoint file:  "Grambow2020_wb97xd3_008634_reverse_mol1.chk"
 Charge =  0 Multiplicity = 1

                         Standard orientation:
 ---------------------------------------------------------------------
 Center     Atomic      Atomic             Coordinates (Angstroms)
 Number     Number       Type             X           Y           Z
 ---------------------------------------------------------------------
      1          7           0        2.655425    0.620935    0.305654
      2          6           0        1.713902    0.104920   -0.251215
      3          6           0        0.744455   -0.574351   -0.817975
      4          6           0       -0.501497   -0.881186   -0.026343
      5          6           0       -1.607591    0.152897   -0.319726
      6          8           0       -0.583921   -0.505002    1.229619
      7          8           0       -2.340597    1.009272   -0.199890
      8          1           0        2.734885    1.631252    0.255558
      9          1           0        0.870836   -0.951130   -1.824323
     10          1           0       -0.893168   -1.874506   -0.317093
 ---------------------------------------------------------------------

 SCF Done:  E(RHF) =  -357.401932321     A.U. after    2 cycles

 The electronic state is 1-A.
 Alpha  occ. eigenvalues --  -20.71120 -20.51624 -15.66670 -11.45727 -11.37967
 Alpha  occ. eigenvalues --  -11.35313 -11.26422  -1.51896  -1.31209  -1.23808
 Alpha  occ. eigenvalues --   -1.06205  -0.94421  -0.83705  -0.77832  -0.74456
 Alpha  occ. eigenvalues --   -0.71169  -0.69536  -0.68247  -0.64862  -0.58709
 Alpha  occ. eigenvalues --   -0.56589  -0.49055  -0.42738  -0.41828  -0.36883
 Alpha virt. eigenvalues --    0.02301   0.03660   0.04753   0.05847   0.08165
 Alpha virt. eigenvalues --    0.08604   0.09828   0.10623   0.11251   0.11645
 Alpha virt. eigenvalues --    0.12072   0.12975   0.14067   0.14448   0.15473

 Mulliken charges:
               1
     1  N   -0.126541
     2  C   -0.571015
     3  C    0.969197
     4  C    0.749302
     5  C    0.107193
     6  O   -0.804110
     7  O   -0.124521
     8  H    0.095474
     9  H   -0.285281
    10  H   -0.009697
 Sum of Mulliken charges =  -0.00000

 Dipole moment (field-independent basis, Debye):
    X=             -0.3193    Y=              0.4838    Z=             -4.7739  Tot=              4.8090

 Test job not archived.
 1\1\GINC-SE163\SP\RHF\Aug-CC-pVDZ\C4H3N1O2\OHZDE\09-Apr-2025\0\\#t hf
 aug-cc-pvdz iop(5/13=1,5/36=2,99/5=2) pseudo=read geom=check guess=(re
 ad,tcheck) scf=(maxcycle=1)\\title\\0,1\N,0,2.31108472,-0.64682401,0.8
 2755045\C,0,1.23285419,-0.71694186,0.28409715\C,0,0.02633524,-0.878107
 64,-0.20660545\C,0,-1.0721105,0.06595803,0.21218374\C,0,-1.24754597,1.
 19776232,-0.82081515\O,0,-0.82058072,1.00756619,1.09301004\O,0,-1.2350
 11,2.21957341,-1.31151009\H,0,3.0284931,-0.08778845,0.37769623\H,0,-0.
 17888158,-1.71455439,-0.86152164\H,0,-2.03260947,-0.4807336,0.26872471

 Normal termination of Gaussian 16 at Wed Apr  9 16:34:52 2025.
