 Gaussian 16, Revision C.01,

 ----------------------------------------------------------------------
 #t hf aug-cc-pvdz symm=none int=(grid=ultrafine) guess=(read,tcheck) s
 table=(opt,rrhf)
 ----------------------------------------------------------------------
 -----
 title
 -----
 Symbolic Z-matrix:
 Charge =  0 Multiplicity = 1

 SCF Done:  E(RHF) =  -267.660161663     A.U. after   15 cycles
 Normal termination of Gaussian 16 at Wed Apr  9 14:14:02 2025.
 Gaussian 16:  ES64L-G16RevC.01  3-Jul-2019

 ----------------------------------------------------------------------
 #t hf aug-cc-pvdz iop(5/13=1,5/36=2,99/5=2) pseudo=read geom=check gue
 ss=(read,tcheck) scf=(maxcycle=1)
 ----------------------------------------------------------------------
 -----
 title
 -----
 Structure from the checkpoint file:  "Grambow2020_b97d3_006843_reverse_mol2.chk"
 Charge =  0 Multiplicity = 1

                         Standard orientation:
 ---------------------------------------------------------------------
 Center     Atomic      Atomic             Coordinates (Angstroms)
 Number     Number       Type             X           Y           Z
 ---------------------------------------------------------------------
      1          6           0        3.098461   -0.368682   -0.058676
      2          6           0        1.702867    0.064594   -0.019507
      3          6           0        0.547152    0.451015    0.007000
      4          6           0       -1.787246   -0.376073    0.253629
      5          6           0       -0.861895    0.833555    0.044061
      6          8           0       -2.878446   -0.487758   -0.264887
      7          1           0        3.349184   -0.982134    0.819743
      8          1           0        3.304822   -0.969008   -0.957512
      9          1           0        3.780162    0.495120   -0.068541
     10          1           0       -1.373999   -1.148771    0.945514
     11          1           0       -1.180000    1.358038   -0.868822
     12          1           0       -1.048633    1.522366    0.889678
 ---------------------------------------------------------------------

 SCF Done:  E(RHF) =  -267.744314434     A.U. after    2 cycles

 The electronic state is 1-A.
 Alpha  occ. eigenvalues --  -20.58410 -11.36001 -11.28559 -11.27130 -11.25804
 Alpha  occ. eigenvalues --  -11.25118  -1.36369  -1.08285  -1.03007  -0.94303
 Alpha  occ. eigenvalues --   -0.81823  -0.71065  -0.66293  -0.64732  -0.62997
 Alpha  occ. eigenvalues --   -0.60474  -0.59655  -0.59261  -0.53149  -0.45490
 Alpha  occ. eigenvalues --   -0.38484  -0.38152
 Alpha virt. eigenvalues --    0.02921   0.04044   0.04640   0.05216   0.06537
 Alpha virt. eigenvalues --    0.06540   0.08406   0.09711   0.11046   0.12202
 Alpha virt. eigenvalues --    0.13461   0.13538   0.13950   0.15114   0.15210

 Mulliken charges:
               1
     1  C    0.112203
     2  C   -0.773299
     3  C   -0.066835
     4  C    0.617834
     5  C   -0.114704
     6  O   -0.467192
     7  H    0.142460
     8  H    0.146123
     9  H    0.140615
    10  H   -0.085750
    11  H    0.126684
    12  H    0.221863
 Sum of Mulliken charges =   0.00000

 Dipole moment (field-independent basis, Debye):
    X=              3.5283    Y=              0.5251    Z=              1.2351  Tot=              3.7749

 Test job not archived.
 1\1\GINC-SE138\SP\RHF\Aug-CC-pVDZ\C5H6O1\OHZDE\09-Apr-2025\0\\#t hf au
 g-cc-pvdz iop(5/13=1,5/36=2,99/5=2) pseudo=read geom=check guess=(read
 ,tcheck) scf=(maxcycle=1)\\title\\0,1\C,0,-2.56133915,-0.21287222,0.54
 619232\C,0,-1.10457313,-0.10687608,0.60571406\C,0,0.10899615,-0.022525
 96,0.68210303\C,0,2.14775014,0.19591955,-0.72859759\C,0,1.56609849,0.0
 7709193,0.68948271\O,0,3.19666936,-0.30842493,-1.07131498\H,0,-2.99516
 161,0.60174748,-0.05297243\H,0,-2.8739144,-1.16590933,0.0935349\H,0,-3
 .00281504,-0.1589521,1.55275046\H,0,1.52460094,0.80723463,-1.4246721\H

 Normal termination of Gaussian 16 at Wed Apr  9 14:14:06 2025.
