 Gaussian 16, Revision C.01,

 ----------------------------------------------------------------------
 #t hf aug-cc-pvdz symm=none int=(grid=ultrafine) guess=(read,tcheck) s
 table=(opt,rrhf)
 ----------------------------------------------------------------------
 -----
 title
 -----
 Symbolic Z-matrix:
 Charge =  0 Multiplicity = 1

 SCF Done:  E(RHF) =  -322.600470326     A.U. after   15 cycles
 Normal termination of Gaussian 16 at Wed Apr  9 17:07:27 2025.
 Gaussian 16:  ES64L-G16RevC.01  3-Jul-2019

 ----------------------------------------------------------------------
 #t hf aug-cc-pvdz iop(5/13=1,5/36=2,99/5=2) pseudo=read geom=check gue
 ss=(read,tcheck) scf=(maxcycle=1)
 ----------------------------------------------------------------------
 -----
 title
 -----
 Structure from the checkpoint file:  "Grambow2020_wb97xd3_009151_forward_mol1.chk"
 Charge =  0 Multiplicity = 1

                         Standard orientation:
 ---------------------------------------------------------------------
 Center     Atomic      Atomic             Coordinates (Angstroms)
 Number     Number       Type             X           Y           Z
 ---------------------------------------------------------------------
      1          6           0       -1.747003   -1.044159    0.027003
      2          7           0       -0.387174   -0.544634   -0.025799
      3          6           0        0.767676   -1.317444   -0.023235
      4          6           0        1.924725   -0.569232   -0.088609
      5          6           0        1.349059    0.827348   -0.004013
      6          6           0       -0.054773    0.740585   -0.011413
      7          8           0       -1.028690    1.669637   -0.009130
      8          1           0       -2.387378   -0.448658   -0.620822
      9          1           0       -2.132428   -1.001259    1.046083
     10          1           0       -1.746651   -2.076827   -0.314155
     11          1           0        0.647979   -2.391774   -0.016830
     12          1           0        1.835960    0.275594    0.977537
     13          1           0        1.915165    1.734325   -0.166369
     14          1           0       -0.631008    2.541349   -0.050206
 ---------------------------------------------------------------------

 SCF Done:  E(RHF) =  -322.698444678     A.U. after    2 cycles

 The electronic state is 1-A.
 Alpha  occ. eigenvalues --  -20.64632 -15.70772 -11.36509 -11.29845 -11.25354
 Alpha  occ. eigenvalues --  -11.24581 -11.19366  -1.42082  -1.29436  -1.09777
 Alpha  occ. eigenvalues --   -0.98186  -0.96119  -0.82944  -0.78969  -0.75083
 Alpha  occ. eigenvalues --   -0.68678  -0.67091  -0.64362  -0.61699  -0.58891
 Alpha  occ. eigenvalues --   -0.58019  -0.57228  -0.51251  -0.41711  -0.32229
 Alpha  occ. eigenvalues --   -0.29069
 Alpha virt. eigenvalues --    0.02230   0.03260   0.04642   0.05010   0.06120
 Alpha virt. eigenvalues --    0.06929   0.07658   0.10028   0.11076   0.12094
 Alpha virt. eigenvalues --    0.12789   0.12936   0.13991   0.14344   0.14467

 Mulliken charges:
               1
     1  C    0.789390
     2  N   -0.329436
     3  C    0.709435
     4  C   -1.070003
     5  C    0.624692
     6  C    0.372070
     7  O   -0.483651
     8  H   -0.133214
     9  H   -0.050370
    10  H   -0.198839
    11  H   -0.432669
    12  H    0.363709
    13  H   -0.315877
    14  H    0.154765
 Sum of Mulliken charges =  -0.00000

 Dipole moment (field-independent basis, Debye):
    X=             -4.9013    Y=              2.4954    Z=              0.6191  Tot=              5.5348

 Test job not archived.
 1\1\GINC-SE112\SP\RHF\Aug-CC-pVDZ\C5H7N1O1\OHZDE\09-Apr-2025\0\\#t hf
 aug-cc-pvdz iop(5/13=1,5/36=2,99/5=2) pseudo=read geom=check guess=(re
 ad,tcheck) scf=(maxcycle=1)\\title\\0,1\C,0,-1.76611432,0.11317623,0.6
 158145\N,0,-0.462039,-0.19409477,0.0622632\C,0,0.01788685,-1.46202138,
 -0.24262064\C,0,1.29437884,-1.45083472,-0.76540073\C,0,1.62737487,0.01
 923044,-0.63498857\C,0,0.49099074,0.70181056,-0.16483549\O,0,0.2367936
 2,2.00281476,0.06846383\H,0,-2.15809303,1.02143059,0.16215678\H,0,-1.7
 0167206,0.25314869,1.69524606\H,0,-2.43467234,-0.71706856,0.40013655\H

 Normal termination of Gaussian 16 at Wed Apr  9 17:07:32 2025.
