 Gaussian 16, Revision C.01,

 ----------------------------------------------------------------------
 #t hf aug-cc-pvdz symm=none int=(grid=ultrafine) guess=(read,tcheck) s
 table=(opt,rrhf)
 ----------------------------------------------------------------------
 -----
 title
 -----
 Symbolic Z-matrix:
 Charge =  0 Multiplicity = 1

 SCF Done:  E(RHF) =  -283.628961316     A.U. after   15 cycles
 Normal termination of Gaussian 16 at Wed Apr  9 03:09:43 2025.
 Gaussian 16:  ES64L-G16RevC.01  3-Jul-2019

 ----------------------------------------------------------------------
 #t hf aug-cc-pvdz iop(5/13=1,5/36=2,99/5=2) pseudo=read geom=check gue
 ss=(read,tcheck) scf=(maxcycle=1)
 ----------------------------------------------------------------------
 -----
 title
 -----
 Structure from the checkpoint file:  "Grambow2020_b97d3_006734_reverse_mol2.chk"
 Charge =  0 Multiplicity = 1

                         Standard orientation:
 ---------------------------------------------------------------------
 Center     Atomic      Atomic             Coordinates (Angstroms)
 Number     Number       Type             X           Y           Z
 ---------------------------------------------------------------------
      1          6           0        1.947903   -0.007526   -0.360808
      2          6           0       -0.187330    1.257026    0.193580
      3          8           0       -1.355161    0.765134   -0.197767
      4          6           0       -1.298142   -0.709613   -0.172786
      5          7           0       -0.190963   -1.177322    0.203168
      6          6           0        0.652186    0.018438    0.471454
      7          1           0        1.714528    0.027157   -1.432380
      8          1           0        2.503367   -0.928662   -0.150036
      9          1           0        2.567458    0.860551   -0.108129
     10          1           0       -2.211494   -1.208833   -0.481868
     11          1           0        0.916470    0.020018    1.543730
 ---------------------------------------------------------------------

 SCF Done:  E(RHF) =  -283.712768974     A.U. after    2 cycles

 The electronic state is 1-A.
 Alpha  occ. eigenvalues --  -20.66259 -15.65727 -11.37271 -11.32158 -11.29197
 Alpha  occ. eigenvalues --  -11.25175  -1.43219  -1.22182  -1.05472  -0.93510
 Alpha  occ. eigenvalues --   -0.83320  -0.79775  -0.72944  -0.66861  -0.63226
 Alpha  occ. eigenvalues --   -0.60764  -0.55443  -0.54435  -0.52267  -0.47816
 Alpha  occ. eigenvalues --   -0.44424  -0.38428
 Alpha virt. eigenvalues --    0.03372   0.03824   0.04543   0.06015   0.07010
 Alpha virt. eigenvalues --    0.08493   0.08865   0.09360   0.10650   0.12098
 Alpha virt. eigenvalues --    0.13240   0.13988   0.14822   0.15118   0.15799

 Mulliken charges:
               1
     1  C    0.527218
     2  C    0.130236
     3  O   -0.525844
     4  C    0.697519
     5  N   -0.463976
     6  C   -0.090699
     7  H   -0.038198
     8  H    0.017385
     9  H   -0.001279
    10  H   -0.161536
    11  H   -0.090827
 Sum of Mulliken charges =  -0.00000

 Dipole moment (field-independent basis, Debye):
    X=              0.1504    Y=             -1.7640    Z=             -0.1369  Tot=              1.7757

 Test job not archived.
 1\1\GINC-SE042\SP\RHF\Aug-CC-pVDZ\C4H5N1O1\OHZDE\09-Apr-2025\0\\#t hf
 aug-cc-pvdz iop(5/13=1,5/36=2,99/5=2) pseudo=read geom=check guess=(re
 ad,tcheck) scf=(maxcycle=1)\\title\\0,1\C,0,-1.50840703,0.18260638,-0.
 20118178\C,0,0.60285394,-1.0413852,-0.91538162\O,0,1.77157156,-0.41843
 806,-0.84484757\C,0,1.76327744,0.50901147,0.30342211\N,0,0.6856962,0.5
 1439993,0.95513351\C,0,-0.18583118,-0.46419563,0.25120769\H,0,-1.31398
 911,0.98321173,-0.92586618\H,0,-2.02600194,0.60912397,0.66578694\H,0,-
 2.14652415,-0.57225817,-0.67472008\H,0,2.68092849,1.0720541,0.44436583

 Normal termination of Gaussian 16 at Wed Apr  9 03:09:46 2025.
