 Gaussian 16, Revision C.01,

 ----------------------------------------------------------------------
 #t hf aug-cc-pvdz symm=none int=(grid=ultrafine) guess=(read,tcheck) s
 table=(opt,rrhf)
 ----------------------------------------------------------------------
 -----
 title
 -----
 Symbolic Z-matrix:
 Charge =  0 Multiplicity = 1

 SCF Done:  E(RHF) =  -307.691304411     A.U. after   17 cycles

 1\1\GINC-SE229\Stability\RHF\Aug-CC-pVDZ\C6H10O1\OHZDE\09-Apr-2025\0\\
 #t hf aug-cc-pvdz symm=none int=(grid=ultrafine) guess=(read,tcheck) s
 table=(opt,rrhf)\\title\\0,1\C,0,2.12163494,0.10377336,0.29870372\C,0,
 0.66395882,-0.09101568,0.11323515\C,0,-0.11090077,-1.12420604,0.554200
 84\C,0,-1.43523279,-0.87423808,0.31250664\C,0,-1.62875697,0.51458032,-
 0.19162757\C,0,-0.20071166,0.86141306,-0.70042537\O,0,0.16041372,2.214
 41829,-0.59038073\H,0,2.37193166,1.16009057,0.41042324\H,0,2.66682717,
 -0.25333548,-0.58331484\H,0,2.4881062,-0.45190001,1.16164694\H,0,0.032

 Normal termination of Gaussian 16 at Wed Apr  9 16:04:53 2025.
 Gaussian 16:  ES64L-G16RevC.01  3-Jul-2019

 ----------------------------------------------------------------------
 #t hf aug-cc-pvdz iop(5/13=1,5/36=2,99/5=2) pseudo=read geom=check gue
 ss=(read,tcheck) scf=(maxcycle=1)
 ----------------------------------------------------------------------
 -----
 title
 -----
 Structure from the checkpoint file:  "Grambow2020_wb97xd3_007729_reverse_mol1.chk"
 Charge =  0 Multiplicity = 1

                         Standard orientation:
 ---------------------------------------------------------------------
 Center     Atomic      Atomic             Coordinates (Angstroms)
 Number     Number       Type             X           Y           Z
 ---------------------------------------------------------------------
      1          6           0        1.619436    1.465669   -0.073379
      2          6           0        0.354531    0.697786    0.013406
      3          6           0       -0.918709    1.145941   -0.187483
      4          6           0       -1.808422    0.105512   -0.161521
      5          6           0       -1.094207   -1.200806   -0.099473
      6          6           0        0.302366   -0.765702    0.428497
      7          8           0        1.381604   -1.539847   -0.028767
      8          1           0        2.434251    0.850052   -0.458122
      9          1           0        1.927832    1.801695    0.923966
     10          1           0        1.502780    2.350248   -0.699204
     11          1           0       -1.519961    2.146016    0.148608
     12          1           0       -2.881134    0.250057   -0.102449
     13          1           0       -2.389196    2.169019    0.927973
     14          1           0       -1.614697   -1.927958    0.526555
     15          1           0       -0.982043   -1.654714   -1.090131
     16          1           0        0.325482   -0.867561    1.520565
     17          1           0        1.413887   -1.488480   -0.987906
 ---------------------------------------------------------------------

 SCF Done:  E(RHF) =  -307.786257688     A.U. after    2 cycles

 The electronic state is 1-A.
 Alpha  occ. eigenvalues --  -20.60166 -11.32711 -11.32215 -11.29041 -11.27608
 Alpha  occ. eigenvalues --  -11.25349 -11.23837  -1.36024  -1.17770  -1.04398
 Alpha  occ. eigenvalues --   -0.98597  -0.93234  -0.83278  -0.75275  -0.71301
 Alpha  occ. eigenvalues --   -0.68390  -0.67372  -0.63081  -0.59455  -0.58084
 Alpha  occ. eigenvalues --   -0.57048  -0.55770  -0.53611  -0.52352  -0.47597
 Alpha  occ. eigenvalues --   -0.40767  -0.24686
 Alpha virt. eigenvalues --    0.00580   0.02724   0.03667   0.04305   0.05155
 Alpha virt. eigenvalues --    0.05998   0.06299   0.06541   0.07851   0.09494
 Alpha virt. eigenvalues --    0.09571   0.10529   0.11558   0.12526   0.13486

 Mulliken charges:
               1
     1  C    0.570473
     2  C   -0.519489
     3  C   -0.133409
     4  C    0.384546
     5  C    0.312317
     6  C    0.531410
     7  O   -0.534679
     8  H   -0.034893
     9  H    0.123845
    10  H   -0.057066
    11  H   -0.009771
    12  H   -0.328167
    13  H   -0.395433
    14  H   -0.003099
    15  H    0.058558
    16  H   -0.083710
    17  H    0.118569
 Sum of Mulliken charges =  -0.00000

 Dipole moment (field-independent basis, Debye):
    X=              2.1514    Y=             -3.3255    Z=             -2.6481  Tot=              4.7644

 Test job not archived.
 1\1\GINC-SE229\SP\RHF\Aug-CC-pVDZ\C6H10O1\OHZDE\09-Apr-2025\0\\#t hf a
 ug-cc-pvdz iop(5/13=1,5/36=2,99/5=2) pseudo=read geom=check guess=(rea
 d,tcheck) scf=(maxcycle=1)\\title\\0,1\C,0,2.12163494,0.10377336,0.298
 70372\C,0,0.66395882,-0.09101568,0.11323515\C,0,-0.11090077,-1.1242060
 4,0.55420084\C,0,-1.43523279,-0.87423808,0.31250664\C,0,-1.62875697,0.
 51458032,-0.19162757\C,0,-0.20071166,0.86141306,-0.70042537\O,0,0.1604
 1372,2.21441829,-0.59038073\H,0,2.37193166,1.16009057,0.41042324\H,0,2
 .66682717,-0.25333548,-0.58331484\H,0,2.4881062,-0.45190001,1.16164694

 Normal termination of Gaussian 16 at Wed Apr  9 16:05:00 2025.
