 Gaussian 16, Revision C.01,

 ----------------------------------------------------------------------
 #t hf aug-cc-pvdz symm=none int=(grid=ultrafine) guess=(read,tcheck) s
 table=(opt,rrhf)
 ----------------------------------------------------------------------
 -----
 title
 -----
 Symbolic Z-matrix:
 Charge =  0 Multiplicity = 1

 SCF Done:  E(RHF) =  -338.520335933     A.U. after   17 cycles
 Normal termination of Gaussian 16 at Wed Apr  9 16:33:00 2025.
 Gaussian 16:  ES64L-G16RevC.01  3-Jul-2019

 ----------------------------------------------------------------------
 #t hf aug-cc-pvdz iop(5/13=1,5/36=2,99/5=2) pseudo=read geom=check gue
 ss=(read,tcheck) scf=(maxcycle=1)
 ----------------------------------------------------------------------
 -----
 title
 -----
 Structure from the checkpoint file:  "Grambow2020_wb97xd3_008560_forward_mol1.chk"
 Charge =  0 Multiplicity = 1

                         Standard orientation:
 ---------------------------------------------------------------------
 Center     Atomic      Atomic             Coordinates (Angstroms)
 Number     Number       Type             X           Y           Z
 ---------------------------------------------------------------------
      1          7           0        0.146929   -1.208149    0.057323
      2          6           0       -1.171727   -1.071006   -0.052785
      3          8           0       -1.843414   -0.018846   -0.095946
      4          6           0       -1.278986    1.353061    0.084746
      5          6           0        1.151880    1.181041   -0.168107
      6          6           0        1.145955   -0.203970    0.057908
      7          7           0        2.379353   -0.227867    0.050375
      8          1           0        0.502292   -2.153155    0.098038
      9          1           0       -1.741710   -1.993564   -0.124295
     10          1           0       -1.092936    1.401258    1.163929
     11          1           0       -2.151575    1.969689   -0.136648
     12          1           0        1.188365    1.562766   -1.176318
     13          1           0        1.276169    1.861136    0.658412
 ---------------------------------------------------------------------

 SCF Done:  E(RHF) =  -338.624128706     A.U. after    2 cycles

 The electronic state is 1-A.
 Alpha  occ. eigenvalues --  -20.66196 -15.73062 -15.61381 -11.44263 -11.32333
 Alpha  occ. eigenvalues --  -11.31207 -11.22173  -1.45601  -1.29516  -1.20361
 Alpha  occ. eigenvalues --   -0.99234  -0.93342  -0.88788  -0.82390  -0.74968
 Alpha  occ. eigenvalues --   -0.71547  -0.68391  -0.64787  -0.64445  -0.59218
 Alpha  occ. eigenvalues --   -0.55246  -0.51190  -0.49277  -0.39495  -0.38103
 Alpha  occ. eigenvalues --   -0.26869
 Alpha virt. eigenvalues --    0.01499   0.04190   0.04473   0.04809   0.06439
 Alpha virt. eigenvalues --    0.07192   0.07721   0.09582   0.10228   0.11395
 Alpha virt. eigenvalues --    0.11856   0.12671   0.13225   0.14284   0.15035

 Mulliken charges:
               1
     1  N   -0.202857
     2  C    0.836364
     3  O   -0.350056
     4  C    0.359456
     5  C    0.725512
     6  C    0.505422
     7  N   -0.612898
     8  H   -0.040790
     9  H   -0.291085
    10  H   -0.225622
    11  H   -0.315651
    12  H   -0.222147
    13  H   -0.165648
 Sum of Mulliken charges =  -0.00000

 Dipole moment (field-independent basis, Debye):
    X=             -2.7722    Y=             -3.8487    Z=              0.2525  Tot=              4.7499

 Test job not archived.
 1\1\GINC-SE168\SP\RHF\Aug-CC-pVDZ\C4H6N2O1\OHZDE\09-Apr-2025\0\\#t hf
 aug-cc-pvdz iop(5/13=1,5/36=2,99/5=2) pseudo=read geom=check guess=(re
 ad,tcheck) scf=(maxcycle=1)\\title\\0,1\N,0,-0.72704513,1.07667636,-0.
 3902728\C,0,-1.55693322,0.04176041,-0.29016759\O,0,-1.29311701,-1.1400
 1632,0.01621813\C,0,0.08727472,-1.66917649,0.23499453\C,0,1.57279789,0
 .25950011,0.51079296\C,0,0.6546392,1.13822926,-0.08434751\N,0,1.479136
 59,2.05496948,-0.04324805\H,0,-1.13296667,1.95694923,-0.6754442\H,0,-2
 .60428645,0.25053012,-0.49159627\H,0,0.48602958,-1.74195699,-0.7834711

 Normal termination of Gaussian 16 at Wed Apr  9 16:33:04 2025.
