 Gaussian 16, Revision C.01,

 ----------------------------------------------------------------------
 #t hf aug-cc-pvdz symm=none int=(grid=ultrafine) guess=(read,tcheck) s
 table=(opt,rrhf)
 ----------------------------------------------------------------------
 -----
 title
 -----
 Symbolic Z-matrix:
 Charge =  0 Multiplicity = 1

 SCF Done:  E(RHF) =  -307.890397904     A.U. after   12 cycles

 1\1\GINC-SE332\Stability\RHF\Aug-CC-pVDZ\C6H10O1\OHZDE\09-Apr-2025\0\\
 #t hf aug-cc-pvdz symm=none int=(grid=ultrafine) guess=(read,tcheck) s
 table=(opt,rrhf)\\title\\0,1\C,0,-2.05989085,-0.51665711,0.24525429\C,
 0,-0.84654416,-0.03736142,-0.5186948\O,0,-0.52511519,1.27935501,-0.082
 64746\C,0,0.84421719,1.52549409,-0.3480425\C,0,1.52913975,0.18368942,-
 0.21625655\C,0,1.14179597,-0.62462826,0.98412031\C,0,0.4309214,-0.8295
 9608,-0.31971749\H,0,-2.89421008,0.17077246,0.1012474\H,0,-1.8404185,-
 0.57816088,1.31220039\H,0,-2.36306117,-1.50486871,-0.10564057\H,0,-1.0

 Normal termination of Gaussian 16 at Wed Apr  9 15:25:01 2025.
 Gaussian 16:  ES64L-G16RevC.01  3-Jul-2019

 ----------------------------------------------------------------------
 #t hf aug-cc-pvdz iop(5/13=1,5/36=2,99/5=2) pseudo=read geom=check gue
 ss=(read,tcheck) scf=(maxcycle=1)
 ----------------------------------------------------------------------
 -----
 title
 -----
 Structure from the checkpoint file:  "Grambow2020_wb97xd3_006888_forward_mol2.chk"
 Charge =  0 Multiplicity = 1

                         Standard orientation:
 ---------------------------------------------------------------------
 Center     Atomic      Atomic             Coordinates (Angstroms)
 Number     Number       Type             X           Y           Z
 ---------------------------------------------------------------------
      1          6           0        2.181898   -0.256394   -0.190902
      2          6           0        0.889458    0.171957    0.466112
      3          8           0        0.291369    1.191313   -0.327863
      4          6           0       -1.100038    1.216394   -0.064331
      5          6           0       -1.475818   -0.211964    0.260493
      6          6           0       -0.915741   -1.252951   -0.659820
      7          6           0       -0.183925   -0.890937    0.597454
      8          1           0        2.845854    0.599859   -0.314911
      9          1           0        1.986492   -0.689762   -1.172907
     10          1           0        2.691100   -1.001198    0.423574
     11          1           0        1.102403    0.569253    1.470943
     12          1           0       -1.326331    1.869056    0.790212
     13          1           0       -1.592732    1.619958   -0.951512
     14          1           0       -2.386800   -0.404873    0.811003
     15          1           0       -0.505750   -0.926760   -1.608537
     16          1           0       -1.411839   -2.213932   -0.682382
     17          1           0       -0.108346   -1.608738    1.403395
 ---------------------------------------------------------------------

 SCF Done:  E(RHF) =  -307.986443797     A.U. after    2 cycles

 The electronic state is 1-A.
 Alpha  occ. eigenvalues --  -20.56324 -11.28630 -11.28178 -11.23818 -11.23694
 Alpha  occ. eigenvalues --  -11.23313 -11.21975  -1.34314  -1.13987  -1.03078
 Alpha  occ. eigenvalues --   -0.92340  -0.87228  -0.78758  -0.76270  -0.71601
 Alpha  occ. eigenvalues --   -0.65469  -0.63085  -0.62057  -0.57065  -0.56047
 Alpha  occ. eigenvalues --   -0.53185  -0.52269  -0.49615  -0.48389  -0.43814
 Alpha  occ. eigenvalues --   -0.41774  -0.39823
 Alpha virt. eigenvalues --    0.03281   0.04308   0.04394   0.04775   0.06259
 Alpha virt. eigenvalues --    0.06474   0.06734   0.07122   0.07473   0.09600
 Alpha virt. eigenvalues --    0.11747   0.12557   0.12966   0.13705   0.14491

 Mulliken charges:
               1
     1  C    0.389699
     2  C    0.364548
     3  O   -0.711663
     4  C    0.865267
     5  C    0.417150
     6  C    0.692358
     7  C    0.170171
     8  H   -0.027790
     9  H    0.001159
    10  H    0.003491
    11  H   -0.257531
    12  H   -0.167972
    13  H   -0.201777
    14  H   -0.389922
    15  H   -0.347988
    16  H   -0.372346
    17  H   -0.426856
 Sum of Mulliken charges =   0.00000

 Dipole moment (field-independent basis, Debye):
    X=             -0.8343    Y=             -1.1875    Z=              1.1187  Tot=              1.8324

 Test job not archived.
 1\1\GINC-SE332\SP\RHF\Aug-CC-pVDZ\C6H10O1\OHZDE\09-Apr-2025\0\\#t hf a
 ug-cc-pvdz iop(5/13=1,5/36=2,99/5=2) pseudo=read geom=check guess=(rea
 d,tcheck) scf=(maxcycle=1)\\title\\0,1\C,0,-2.05989085,-0.51665711,0.2
 4525429\C,0,-0.84654416,-0.03736142,-0.5186948\O,0,-0.52511519,1.27935
 501,-0.08264746\C,0,0.84421719,1.52549409,-0.3480425\C,0,1.52913975,0.
 18368942,-0.21625655\C,0,1.14179597,-0.62462826,0.98412031\C,0,0.43092
 14,-0.82959608,-0.31971749\H,0,-2.89421008,0.17077246,0.1012474\H,0,-1
 .8404185,-0.57816088,1.31220039\H,0,-2.36306117,-1.50486871,-0.1056405

 Normal termination of Gaussian 16 at Wed Apr  9 15:25:07 2025.
