 Gaussian 16, Revision C.01,

 ----------------------------------------------------------------------
 #t hf aug-cc-pvdz symm=none int=(grid=ultrafine) guess=(read,tcheck) s
 table=(opt,rrhf)
 ----------------------------------------------------------------------
 -----
 title
 -----
 Symbolic Z-matrix:
 Charge =  0 Multiplicity = 1

 SCF Done:  E(RHF) =  -302.774975150     A.U. after   15 cycles
 Normal termination of Gaussian 16 at Wed Apr  9 03:34:27 2025.
 Gaussian 16:  ES64L-G16RevC.01  3-Jul-2019

 ----------------------------------------------------------------------
 #t hf aug-cc-pvdz iop(5/13=1,5/36=2,99/5=2) pseudo=read geom=check gue
 ss=(read,tcheck) scf=(maxcycle=1)
 ----------------------------------------------------------------------
 -----
 title
 -----
 Structure from the checkpoint file:  "Grambow2020_wb97xd3_007171_forward_mol1.chk"
 Charge =  0 Multiplicity = 1

                         Standard orientation:
 ---------------------------------------------------------------------
 Center     Atomic      Atomic             Coordinates (Angstroms)
 Number     Number       Type             X           Y           Z
 ---------------------------------------------------------------------
      1          6           0       -1.231737    1.702358   -0.078675
      2          6           0       -1.526010    0.268664    0.203877
      3          6           0       -0.976051   -1.505788   -0.733493
      4          7           0       -0.555658   -0.665325    0.252345
      5          6           0        0.743343   -0.595149    0.883176
      6          6           0        1.755001    0.066142    0.045027
      7          7           0        2.525506    0.603691   -0.612393
      8          1           0       -0.891040    1.840806   -1.111673
      9          1           0       -0.426024    2.078602    0.560974
     10          1           0       -2.110061    2.326858    0.077113
     11          1           0       -2.525952   -0.065995    0.431866
     12          1           0       -1.061018   -2.573283   -0.548065
     13          1           0       -1.102693   -1.118590   -1.733157
     14          1           0        0.666271   -0.059457    1.831649
     15          1           0        1.074310   -1.614870    1.092157
 ---------------------------------------------------------------------

 SCF Done:  E(RHF) =  -302.867875734     A.U. after    2 cycles

 The electronic state is 1-A.
 Alpha  occ. eigenvalues --  -15.68416 -15.64526 -11.33817 -11.30276 -11.29173
 Alpha  occ. eigenvalues --  -11.26373 -11.24908  -1.27979  -1.20117  -1.05636
 Alpha  occ. eigenvalues --   -1.01134  -0.88417  -0.81102  -0.73618  -0.69291
 Alpha  occ. eigenvalues --   -0.67299  -0.63706  -0.60499  -0.57837  -0.57223
 Alpha  occ. eigenvalues --   -0.55406  -0.54833  -0.47783  -0.46882  -0.39795
 Alpha  occ. eigenvalues --   -0.28007
 Alpha virt. eigenvalues --    0.02810   0.03589   0.04262   0.04671   0.06307
 Alpha virt. eigenvalues --    0.06661   0.07342   0.08153   0.08731   0.09416
 Alpha virt. eigenvalues --    0.10957   0.12004   0.12608   0.13695   0.14107

 Mulliken charges:
               1
     1  C    0.120195
     2  C    0.227517
     3  C    0.663973
     4  N   -0.347317
     5  C    0.871821
     6  C   -0.161165
     7  N   -0.195729
     8  H    0.054188
     9  H    0.004259
    10  H   -0.082575
    11  H   -0.286301
    12  H   -0.377644
    13  H   -0.297077
    14  H   -0.094640
    15  H   -0.099506
 Sum of Mulliken charges =  -0.00000

 Dipole moment (field-independent basis, Debye):
    X=             -2.2469    Y=             -0.4220    Z=              2.6896  Tot=              3.5300

 Test job not archived.
 1\1\GINC-SE071\SP\RHF\Aug-CC-pVDZ\C5H8N2\OHZDE\09-Apr-2025\0\\#t hf au
 g-cc-pvdz iop(5/13=1,5/36=2,99/5=2) pseudo=read geom=check guess=(read
 ,tcheck) scf=(maxcycle=1)\\title\\0,1\C,0,-1.39436463,-1.23601602,-0.1
 7493177\C,0,-1.04813434,0.17220406,-0.51982656\C,0,-0.2038139,1.733965
 32,0.56544829\N,0,0.16047348,0.70056891,-0.24348299\C,0,1.47092441,0.1
 1752564,-0.42529215\C,0,1.86877748,-0.76118222,0.68503935\N,0,2.153723
 98,-1.45999496,1.54834959\H,0,-1.45722574,-1.37400188,0.9110407\H,0,-0
 .62698736,-1.933965,-0.5269033\H,0,-2.34774718,-1.52954293,-0.61153994

 Normal termination of Gaussian 16 at Wed Apr  9 03:34:32 2025.
