 Gaussian 16, Revision C.01,

 ----------------------------------------------------------------------
 #t hf aug-cc-pvdz symm=none int=(grid=ultrafine) guess=(read,tcheck) s
 table=(opt,rrhf)
 ----------------------------------------------------------------------
 -----
 title
 -----
 Symbolic Z-matrix:
 Charge =  0 Multiplicity = 1

 SCF Done:  E(RHF) =  -272.082152080     A.U. after   13 cycles
 Normal termination of Gaussian 16 at Wed Apr  9 15:53:20 2025.
 Gaussian 16:  ES64L-G16RevC.01  3-Jul-2019

 ----------------------------------------------------------------------
 #t hf aug-cc-pvdz iop(5/13=1,5/36=2,99/5=2) pseudo=read geom=check gue
 ss=(read,tcheck) scf=(maxcycle=1)
 ----------------------------------------------------------------------
 -----
 title
 -----
 Structure from the checkpoint file:  "Grambow2020_wb97xd3_007420_reverse_mol2.chk"
 Charge =  0 Multiplicity = 1

                         Standard orientation:
 ---------------------------------------------------------------------
 Center     Atomic      Atomic             Coordinates (Angstroms)
 Number     Number       Type             X           Y           Z
 ---------------------------------------------------------------------
      1          6           0       -2.024390   -0.741367   -0.712463
      2          6           0       -1.251511   -0.171291    0.472170
      3          6           0        0.097935   -0.897687    0.656772
      4          6           0        1.102542    0.017263    0.001498
      5          6           0        2.500543   -0.425692   -0.273289
      6          6           0        0.571347    1.211996   -0.230409
      7          6           0       -0.858779    1.303479    0.223576
      8          1           0       -1.431766   -0.665442   -1.628712
      9          1           0       -2.267116   -1.794873   -0.555676
     10          1           0       -2.960300   -0.201296   -0.872045
     11          1           0       -1.868688   -0.262468    1.368649
     12          1           0        0.350091   -1.033058    1.715086
     13          1           0        0.090258   -1.897423    0.209860
     14          1           0       -0.935087    1.903014    1.137700
     15          1           0        2.511764   -1.288990   -0.944756
     16          1           0        2.996585   -0.737289    0.650564
     17          1           0        3.091870    0.369860   -0.727486
     18          1           0        1.107504    2.047812   -0.666007
     19          1           0       -1.511241    1.779950   -0.514309
 ---------------------------------------------------------------------

 SCF Done:  E(RHF) =  -272.166219925     A.U. after    2 cycles

 The electronic state is 1-A.
 Alpha  occ. eigenvalues --  -11.23018 -11.22917 -11.22763 -11.22381 -11.22270
 Alpha  occ. eigenvalues --  -11.21696 -11.21656  -1.13019  -1.02189  -0.96650
 Alpha  occ. eigenvalues --   -0.92535  -0.87351  -0.76109  -0.70578  -0.65239
 Alpha  occ. eigenvalues --   -0.62375  -0.58430  -0.57832  -0.56338  -0.54542
 Alpha  occ. eigenvalues --   -0.52242  -0.50617  -0.48228  -0.47119  -0.45882
 Alpha  occ. eigenvalues --   -0.45258  -0.33143
 Alpha virt. eigenvalues --    0.03510   0.04156   0.04440   0.04725   0.05980
 Alpha virt. eigenvalues --    0.06332   0.06566   0.07014   0.07343   0.08872
 Alpha virt. eigenvalues --    0.08920   0.09518   0.12042   0.13156   0.13508

 Mulliken charges:
               1
     1  C    0.532615
     2  C   -0.176140
     3  C    0.247696
     4  C   -0.966694
     5  C    0.579160
     6  C    0.228861
     7  C    0.535012
     8  H    0.005698
     9  H   -0.107861
    10  H   -0.113588
    11  H   -0.153741
    12  H   -0.014552
    13  H   -0.072326
    14  H   -0.026600
    15  H    0.044266
    16  H    0.039127
    17  H   -0.122405
    18  H   -0.400977
    19  H   -0.057551
 Sum of Mulliken charges =  -0.00000

 Dipole moment (field-independent basis, Debye):
    X=              0.1086    Y=             -0.1959    Z=              0.1910  Tot=              0.2944

 Test job not archived.
 1\1\GINC-SE037\SP\RHF\Aug-CC-pVDZ\C7H12\OHZDE\09-Apr-2025\0\\#t hf aug
 -cc-pvdz iop(5/13=1,5/36=2,99/5=2) pseudo=read geom=check guess=(read,
 tcheck) scf=(maxcycle=1)\\title\\0,1\C,0,-2.14402258,-0.45267764,-0.22
 15672\C,0,-1.15177915,0.60999637,0.23871785\C,0,-0.01881993,-0.0149265
 5,1.08050526\C,0,1.12314148,-0.16845241,0.10679777\C,0,2.33437011,-0.9
 7220837,0.44298934\C,0,0.89284184,0.5233504,-1.00302524\C,0,-0.4224820
 8,1.25013784,-0.9651631\H,0,-1.63380825,-1.22805732,-0.80031533\H,0,-2
 .6303665,-0.93426054,0.62985504\H,0,-2.92337834,-0.02032227,-0.8530275

 Normal termination of Gaussian 16 at Wed Apr  9 15:53:28 2025.
