 Gaussian 16, Revision C.01,

 ----------------------------------------------------------------------
 #t hf aug-cc-pvdz symm=none int=(grid=ultrafine) guess=(read,tcheck) s
 table=(opt,rrhf)
 ----------------------------------------------------------------------
 -----
 title
 -----
 Symbolic Z-matrix:
 Charge =  0 Multiplicity = 1

 SCF Done:  E(RHF) =  -375.771518684     A.U. after   13 cycles
 Normal termination of Gaussian 16 at Wed Apr  9 03:45:29 2025.
 Gaussian 16:  ES64L-G16RevC.01  3-Jul-2019

 ----------------------------------------------------------------------
 #t hf aug-cc-pvdz iop(5/13=1,5/36=2,99/5=2) pseudo=read geom=check gue
 ss=(read,tcheck) scf=(maxcycle=1)
 ----------------------------------------------------------------------
 -----
 title
 -----
 Structure from the checkpoint file:  "Grambow2020_wb97xd3_007865_reverse_mol2.chk"
 Charge =  0 Multiplicity = 1

                         Standard orientation:
 ---------------------------------------------------------------------
 Center     Atomic      Atomic             Coordinates (Angstroms)
 Number     Number       Type             X           Y           Z
 ---------------------------------------------------------------------
      1          7           0       -2.242182   -0.531525   -0.266951
      2          6           0       -1.076183   -0.113496    0.406859
      3          8           0        0.087475   -0.939638    0.145550
      4          6           0       -0.580531    1.253759   -0.046695
      5          8           0        0.830230    1.147552   -0.008207
      6          6           0        1.179430   -0.156499   -0.013721
      7          7           0        2.366662   -0.527253   -0.150483
      8          1           0       -2.112777   -0.585528   -1.267878
      9          1           0       -2.600234   -1.409093    0.078220
     10          1           0       -0.897734    2.061334    0.609841
     11          1           0       -0.911984    1.467319   -1.068069
     12          1           0       -1.256411   -0.151963    1.483401
     13          1           0        2.429835   -1.536522   -0.090883
 ---------------------------------------------------------------------

 SCF Done:  E(RHF) =  -375.889900908     A.U. after    2 cycles

 The electronic state is 1-A.
 Alpha  occ. eigenvalues --  -20.62337 -20.62317 -15.64468 -15.59009 -11.40595
 Alpha  occ. eigenvalues --  -11.35884 -11.32173  -1.46482  -1.34985  -1.21080
 Alpha  occ. eigenvalues --   -1.16175  -1.00708  -0.89361  -0.83818  -0.76491
 Alpha  occ. eigenvalues --   -0.73238  -0.70591  -0.68640  -0.63739  -0.62755
 Alpha  occ. eigenvalues --   -0.59799  -0.57862  -0.54751  -0.49464  -0.45946
 Alpha  occ. eigenvalues --   -0.42706  -0.39645
 Alpha virt. eigenvalues --    0.02786   0.03627   0.04075   0.05262   0.06592
 Alpha virt. eigenvalues --    0.07247   0.09046   0.10807   0.11176   0.13212
 Alpha virt. eigenvalues --    0.13608   0.14488   0.14705   0.15197   0.16148

 Mulliken charges:
               1
     1  N   -0.288905
     2  C    0.941167
     3  O   -0.668498
     4  C    0.663142
     5  O   -0.601353
     6  C    0.724151
     7  N   -0.306566
     8  H    0.019046
     9  H    0.005667
    10  H   -0.078260
    11  H   -0.155281
    12  H   -0.258293
    13  H    0.003982
 Sum of Mulliken charges =  -0.00000

 Dipole moment (field-independent basis, Debye):
    X=             -4.5742    Y=             -0.8375    Z=              0.2135  Tot=              4.6551

 Test job not archived.
 1\1\GINC-SE159\SP\RHF\Aug-CC-pVDZ\C3H6N2O2\OHZDE\09-Apr-2025\0\\#t hf
 aug-cc-pvdz iop(5/13=1,5/36=2,99/5=2) pseudo=read geom=check guess=(re
 ad,tcheck) scf=(maxcycle=1)\\title\\0,1\N,0,-2.04353457,0.06485064,-0.
 26800215\C,0,-0.70268631,-0.31586978,-0.48130605\O,0,0.22132099,0.7984
 4508,-0.5782998\C,0,-0.10934362,-1.09607979,0.68487876\O,0,1.2367177,-
 0.66369097,0.74940997\C,0,1.35992051,0.5098228,0.09351011\N,0,2.408605
 82,1.19092265,0.13873347\H,0,-2.15652347,0.6400975,0.55530804\H,0,-2.4
 5035442,0.52848994,-1.06612919\H,0,-0.13346209,-2.1732222,0.53316714\H

 Normal termination of Gaussian 16 at Wed Apr  9 03:45:36 2025.
