 Gaussian 16, Revision C.01,

 ----------------------------------------------------------------------
 #t hf aug-cc-pvdz symm=none int=(grid=ultrafine) guess=(read,tcheck) s
 table=(opt,rrhf)
 ----------------------------------------------------------------------
 -----
 title
 -----
 Symbolic Z-matrix:
 Charge =  0 Multiplicity = 1

 SCF Done:  E(RHF) =  -267.509964797     A.U. after   17 cycles
 Normal termination of Gaussian 16 at Wed Apr  9 14:22:09 2025.
 Gaussian 16:  ES64L-G16RevC.01  3-Jul-2019

 ----------------------------------------------------------------------
 #t hf aug-cc-pvdz iop(5/13=1,5/36=2,99/5=2) pseudo=read geom=check gue
 ss=(read,tcheck) scf=(maxcycle=1)
 ----------------------------------------------------------------------
 -----
 title
 -----
 Structure from the checkpoint file:  "Grambow2020_wb97xd3_006079_reverse_mol1.chk"
 Charge =  0 Multiplicity = 1

                         Standard orientation:
 ---------------------------------------------------------------------
 Center     Atomic      Atomic             Coordinates (Angstroms)
 Number     Number       Type             X           Y           Z
 ---------------------------------------------------------------------
      1          8           0       -2.386622   -0.684789   -0.064335
      2          6           0       -1.935050    0.424576   -0.013918
      3          6           0       -0.466154    0.746307    0.085371
      4          6           0        0.433102   -0.439614   -0.016592
      5          6           0        1.806560   -0.319319   -0.004542
      6          6           0        2.972444    0.185293   -0.245940
      7          1           0       -2.603848    1.308667   -0.030360
      8          1           0       -0.319732    1.294012    1.024402
      9          1           0       -0.201615    1.473087   -0.696168
     10          1           0        1.639053   -1.030113    0.907236
     11          1           0       -0.022318   -1.422763   -0.038037
     12          1           0        3.736021    0.271966    0.521330
 ---------------------------------------------------------------------

 SCF Done:  E(RHF) =  -267.592806822     A.U. after    2 cycles

 The electronic state is 1-A.
 Alpha  occ. eigenvalues --  -20.59784 -11.36966 -11.32404 -11.28680 -11.26153
 Alpha  occ. eigenvalues --  -11.23528  -1.39075  -1.13108  -1.04042  -0.93452
 Alpha  occ. eigenvalues --   -0.82581  -0.74879  -0.68899  -0.68677  -0.65466
 Alpha  occ. eigenvalues --   -0.62548  -0.59321  -0.55952  -0.53420  -0.46648
 Alpha  occ. eigenvalues --   -0.39027  -0.30631
 Alpha virt. eigenvalues --    0.02302   0.03482   0.04784   0.04807   0.05298
 Alpha virt. eigenvalues --    0.06172   0.07136   0.08881   0.09485   0.10947
 Alpha virt. eigenvalues --    0.11207   0.11890   0.12748   0.14096   0.14547

 Mulliken charges:
               1
     1  O   -0.416808
     2  C    0.648683
     3  C   -0.132962
     4  C    0.435050
     5  C    0.169291
     6  C   -0.249592
     7  H   -0.123244
     8  H    0.099230
     9  H    0.105866
    10  H    0.063422
    11  H   -0.343670
    12  H   -0.255265
 Sum of Mulliken charges =  -0.00000

 Dipole moment (field-independent basis, Debye):
    X=             -1.5868    Y=              2.0272    Z=              2.3892  Tot=              3.5122

 Test job not archived.
 1\1\GINC-SE162\SP\RHF\Aug-CC-pVDZ\C5H6O1\OHZDE\09-Apr-2025\0\\#t hf au
 g-cc-pvdz iop(5/13=1,5/36=2,99/5=2) pseudo=read geom=check guess=(read
 ,tcheck) scf=(maxcycle=1)\\title\\0,1\O,0,-2.63433228,0.27428769,-0.54
 393554\C,0,-2.1479623,-0.097988,0.48660127\C,0,-0.66692058,-0.20233146
 ,0.74477484\C,0,0.18966183,0.32757971,-0.35564631\C,0,1.56459758,0.363
 8613,-0.2595289\C,0,2.72956303,0.50468382,0.28380929\H,0,-2.79013258,-
 0.40546999,1.3364538\H,0,-0.4519313,-1.2556974,0.96248726\H,0,-0.42517
 448,0.3224077,1.68029615\H,0,1.427461,-0.28309785,-1.22247396\H,0,-0.2

 Normal termination of Gaussian 16 at Wed Apr  9 14:22:12 2025.
