 Gaussian 16, Revision C.01,

 ----------------------------------------------------------------------
 #t hf aug-cc-pvdz symm=none int=(grid=ultrafine) guess=(read,tcheck) s
 table=(opt,rrhf)
 ----------------------------------------------------------------------
 -----
 title
 -----
 Symbolic Z-matrix:
 Charge =  0 Multiplicity = 1

 SCF Done:  E(RHF) =  -281.110262312     A.U. after   20 cycles
 Normal termination of Gaussian 16 at Wed Apr  9 03:03:34 2025.
 Gaussian 16:  ES64L-G16RevC.01  3-Jul-2019

 ----------------------------------------------------------------------
 #t hf aug-cc-pvdz iop(5/13=1,5/36=2,99/5=2) pseudo=read geom=check gue
 ss=(read,tcheck) scf=(maxcycle=1)
 ----------------------------------------------------------------------
 -----
 title
 -----
 Structure from the checkpoint file:  "Grambow2020_b97d3_006504_forward_mol1.chk"
 Charge =  0 Multiplicity = 1

                         Standard orientation:
 ---------------------------------------------------------------------
 Center     Atomic      Atomic             Coordinates (Angstroms)
 Number     Number       Type             X           Y           Z
 ---------------------------------------------------------------------
      1          8           0        0.592473    0.997335   -0.141651
      2          6           0       -0.212682    0.039461    0.463212
      3          6           0       -1.531416   -0.069446    0.020074
      4          6           0       -2.725785   -0.329767   -0.129549
      5          6           0        1.449478   -0.070615    0.038052
      6          7           0        2.449916   -0.699070   -0.128430
      7          1           0       -3.766765   -0.502983   -0.318517
 ---------------------------------------------------------------------

 SCF Done:  E(RHF) =  -281.195062647     A.U. after    2 cycles

 The electronic state is 1-A.
 Alpha  occ. eigenvalues --  -20.72339 -15.64729 -11.42036 -11.38401 -11.34527
 Alpha  occ. eigenvalues --  -11.31592  -1.49894  -1.17553  -1.11179  -0.97465
 Alpha  occ. eigenvalues --   -0.84841  -0.79962  -0.75042  -0.70585  -0.56366
 Alpha  occ. eigenvalues --   -0.54581  -0.48704  -0.46516  -0.44884  -0.37539
 Alpha virt. eigenvalues --   -0.02636   0.01907   0.05583   0.07442   0.07743
 Alpha virt. eigenvalues --    0.08303   0.09213   0.10490   0.12041   0.12716
 Alpha virt. eigenvalues --    0.13300   0.14944   0.15157   0.15616   0.17134

 Mulliken charges:
               1
     1  O   -0.436344
     2  C    0.108806
     3  C    0.137279
     4  C    0.679327
     5  C    0.094684
     6  N   -0.183982
     7  H   -0.399770
 Sum of Mulliken charges =  -0.00000

 Dipole moment (field-independent basis, Debye):
    X=             -6.3384    Y=              0.8706    Z=             -0.1468  Tot=              6.3996

 Test job not archived.
 1\1\GINC-SE114\SP\RHF\Aug-CC-pVDZ\C4H1N1O1\OHZDE\09-Apr-2025\0\\#t hf
 aug-cc-pvdz iop(5/13=1,5/36=2,99/5=2) pseudo=read geom=check guess=(re
 ad,tcheck) scf=(maxcycle=1)\\title\\0,1\O,0,-1.1541793,-1.06229695,-0.
 01191544\C,0,-0.3084358,-0.08886637,0.50655105\C,0,1.00152879,-0.04914
 917,0.02727346\C,0,2.19856753,0.16539196,-0.16699743\C,0,-1.97687227,0
 .03997178,0.1123729\N,0,-2.96345676,0.68430537,-0.07479648\H,0,3.23896
 481,0.29482439,-0.39099106\\Version=ES64L-G16RevC.01\State=1-A\HF=-281
 .1950626\RMSD=7.414e-03\Dipole=2.4812166,-0.4180998,-0.090031\Quadrupo

 Normal termination of Gaussian 16 at Wed Apr  9 03:03:36 2025.
