 Gaussian 16, Revision C.01,

 ----------------------------------------------------------------------
 #t hf aug-cc-pvdz symm=none int=(grid=ultrafine) guess=(read,tcheck) s
 table=(opt,rrhf)
 ----------------------------------------------------------------------
 -----
 title
 -----
 Symbolic Z-matrix:
 Charge =  0 Multiplicity = 1

 SCF Done:  E(RHF) =  -307.747276813     A.U. after   15 cycles

 1\1\GINC-SE162\Stability\RHF\Aug-CC-pVDZ\C6H10O1\OHZDE\09-Apr-2025\0\\
 #t hf aug-cc-pvdz symm=none int=(grid=ultrafine) guess=(read,tcheck) s
 table=(opt,rrhf)\\title\\0,1\C,0,2.16553058,0.03199345,0.04878861\C,0,
 0.68513374,-0.154336,0.01547857\C,0,0.03957224,-1.24334738,0.40604805\
 C,0,-1.44060001,-1.30342869,0.28288097\C,0,-1.61460709,0.7956099,-0.11
 591016\C,0,-0.15877807,0.99972183,-0.48915653\O,0,0.21587017,2.2257267
 4,0.13236634\H,0,2.42029148,0.91150651,0.64210556\H,0,2.5521325,0.2070
 4123,-0.95904126\H,0,2.66841234,-0.83987478,0.46677734\H,0,0.55491028,

 Normal termination of Gaussian 16 at Wed Apr  9 16:04:48 2025.
 Gaussian 16:  ES64L-G16RevC.01  3-Jul-2019

 ----------------------------------------------------------------------
 #t hf aug-cc-pvdz iop(5/13=1,5/36=2,99/5=2) pseudo=read geom=check gue
 ss=(read,tcheck) scf=(maxcycle=1)
 ----------------------------------------------------------------------
 -----
 title
 -----
 Structure from the checkpoint file:  "Grambow2020_wb97xd3_007730_forward_mol1.chk"
 Charge =  0 Multiplicity = 1

                         Standard orientation:
 ---------------------------------------------------------------------
 Center     Atomic      Atomic             Coordinates (Angstroms)
 Number     Number       Type             X           Y           Z
 ---------------------------------------------------------------------
      1          6           0       -1.684039   -1.374170    0.084924
      2          6           0       -0.362413   -0.680844    0.087538
      3          6           0        0.803217   -1.249446   -0.183087
      4          6           0        2.049143   -0.442186   -0.107663
      5          6           0        0.984005    1.414335    0.011028
      6          6           0       -0.345073    0.800918    0.408123
      7          8           0       -1.321934    1.506587   -0.351820
      8          1           0       -2.366934   -0.878659   -0.606881
      9          1           0       -2.144808   -1.323680    1.075361
     10          1           0       -1.584805   -2.421789   -0.198635
     11          1           0        0.890086   -2.299450   -0.441205
     12          1           0        2.512672   -0.193518   -1.056169
     13          1           0        2.803355   -0.898711    0.547606
     14          1           0        1.881039    0.479482    0.578655
     15          1           0        1.447280    1.984988    0.835306
     16          1           0       -0.653988    0.948683    1.452110
     17          1           0       -0.877458    1.738316   -1.176763
 ---------------------------------------------------------------------

 SCF Done:  E(RHF) =  -307.840457879     A.U. after    2 cycles

 The electronic state is 1-A.
 Alpha  occ. eigenvalues --  -20.56456 -11.29477 -11.28448 -11.26076 -11.24924
 Alpha  occ. eigenvalues --  -11.24337 -11.23032  -1.32163  -1.12286  -1.01604
 Alpha  occ. eigenvalues --   -0.96939  -0.90827  -0.81843  -0.74360  -0.67994
 Alpha  occ. eigenvalues --   -0.64051  -0.63197  -0.61703  -0.60876  -0.56422
 Alpha  occ. eigenvalues --   -0.54227  -0.52583  -0.52075  -0.50954  -0.44468
 Alpha  occ. eigenvalues --   -0.36199  -0.34686
 Alpha virt. eigenvalues --    0.03088   0.04119   0.04288   0.04976   0.06016
 Alpha virt. eigenvalues --    0.06234   0.06808   0.07930   0.08531   0.08915
 Alpha virt. eigenvalues --    0.11314   0.11785   0.12386   0.12655   0.13685

 Mulliken charges:
               1
     1  C    0.363452
     2  C   -0.892305
     3  C    0.484568
     4  C    0.373190
     5  C   -0.204807
     6  C    0.674798
     7  O   -0.644818
     8  H    0.094366
     9  H    0.067439
    10  H   -0.146631
    11  H   -0.446841
    12  H    0.106514
    13  H    0.079121
    14  H    0.045281
    15  H   -0.021231
    16  H   -0.127821
    17  H    0.195726
 Sum of Mulliken charges =  -0.00000

 Dipole moment (field-independent basis, Debye):
    X=              2.0499    Y=             -2.3110    Z=              0.9813  Tot=              3.2412

 Test job not archived.
 1\1\GINC-SE162\SP\RHF\Aug-CC-pVDZ\C6H10O1\OHZDE\09-Apr-2025\0\\#t hf a
 ug-cc-pvdz iop(5/13=1,5/36=2,99/5=2) pseudo=read geom=check guess=(rea
 d,tcheck) scf=(maxcycle=1)\\title\\0,1\C,0,2.16553058,0.03199345,0.048
 78861\C,0,0.68513374,-0.154336,0.01547857\C,0,0.03957224,-1.24334738,0
 .40604805\C,0,-1.44060001,-1.30342869,0.28288097\C,0,-1.61460709,0.795
 6099,-0.11591016\C,0,-0.15877807,0.99972183,-0.48915653\O,0,0.21587017
 ,2.22572674,0.13236634\H,0,2.42029148,0.91150651,0.64210556\H,0,2.5521
 325,0.20704123,-0.95904126\H,0,2.66841234,-0.83987478,0.46677734\H,0,0

 Normal termination of Gaussian 16 at Wed Apr  9 16:04:54 2025.
