 Gaussian 16, Revision C.01,

 ----------------------------------------------------------------------
 #t hf aug-cc-pvdz symm=none int=(grid=ultrafine) guess=(read,tcheck) s
 table=(opt,rrhf)
 ----------------------------------------------------------------------
 -----
 title
 -----
 Symbolic Z-matrix:
 Charge =  0 Multiplicity = 1

 SCF Done:  E(RHF) =  -324.987978440     A.U. after   14 cycles
 Normal termination of Gaussian 16 at Wed Apr  9 16:50:27 2025.
 Gaussian 16:  ES64L-G16RevC.01  3-Jul-2019

 ----------------------------------------------------------------------
 #t hf aug-cc-pvdz iop(5/13=1,5/36=2,99/5=2) pseudo=read geom=check gue
 ss=(read,tcheck) scf=(maxcycle=1)
 ----------------------------------------------------------------------
 -----
 title
 -----
 Structure from the checkpoint file:  "Grambow2020_wb97xd3_008962_reverse_mol2.chk"
 Charge =  0 Multiplicity = 1

                         Standard orientation:
 ---------------------------------------------------------------------
 Center     Atomic      Atomic             Coordinates (Angstroms)
 Number     Number       Type             X           Y           Z
 ---------------------------------------------------------------------
      1          6           0        2.390879   -0.959791   -0.586059
      2          6           0        1.771695   -0.253243    0.607082
      3          7           0        0.515881    0.435461    0.250882
      4          6           0        0.633496    1.665861   -0.247795
      5          6           0       -0.602922   -0.259159    0.401751
      6          6           0       -1.893299    0.286980   -0.080763
      7          8           0       -2.905369   -0.698453   -0.122294
      8          1           0        3.301975   -1.474313   -0.276592
      9          1           0        2.648180   -0.251191   -1.373232
     10          1           0        1.701532   -1.698792   -0.995296
     11          1           0        1.536830   -0.961728    1.399942
     12          1           0        2.447320    0.496485    1.016924
     13          1           0       -0.247048    2.237087   -0.483048
     14          1           0        1.622879    2.060933   -0.400722
     15          1           0       -0.561263   -1.180630    0.961172
     16          1           0       -2.280865    1.084757    0.568098
     17          1           0       -1.739981    0.752137   -1.072413
     18          1           0       -2.596863   -1.409229   -0.687953
 ---------------------------------------------------------------------

 SCF Done:  E(RHF) =  -325.091237467     A.U. after    2 cycles

 The electronic state is 1-A.
 Alpha  occ. eigenvalues --  -20.56862 -15.73327 -11.29486 -11.28634 -11.24458
 Alpha  occ. eigenvalues --  -11.24219 -11.23465  -1.32283  -1.28037  -1.04970
 Alpha  occ. eigenvalues --   -0.99196  -0.92662  -0.87402  -0.76136  -0.70624
 Alpha  occ. eigenvalues --   -0.69858  -0.67212  -0.62818  -0.61402  -0.60564
 Alpha  occ. eigenvalues --   -0.56704  -0.56189  -0.54274  -0.51998  -0.51718
 Alpha  occ. eigenvalues --   -0.47908  -0.45410  -0.23593
 Alpha virt. eigenvalues --    0.02945   0.03740   0.04150   0.04601   0.06153
 Alpha virt. eigenvalues --    0.06621   0.07145   0.07310   0.07838   0.09053
 Alpha virt. eigenvalues --    0.09720   0.09848   0.11750   0.12791   0.14020

 Mulliken charges:
               1
     1  C    0.405170
     2  C    0.498396
     3  N    0.319459
     4  C    0.553863
     5  C    0.051748
     6  C    0.816246
     7  O   -0.532865
     8  H   -0.054031
     9  H   -0.082613
    10  H   -0.084061
    11  H   -0.187865
    12  H   -0.207003
    13  H   -0.408459
    14  H   -0.430098
    15  H   -0.557611
    16  H   -0.109508
    17  H   -0.127581
    18  H    0.136813
 Sum of Mulliken charges =  -0.00000

 Dipole moment (field-independent basis, Debye):
    X=              3.2699    Y=             -1.2682    Z=             -0.2656  Tot=              3.5172

 Test job not archived.
 1\1\GINC-SE113\SP\RHF\Aug-CC-pVDZ\C5H11N1O1\OHZDE\09-Apr-2025\0\\#t hf
  aug-cc-pvdz iop(5/13=1,5/36=2,99/5=2) pseudo=read geom=check guess=(r
 ead,tcheck) scf=(maxcycle=1)\\title\\0,1\C,0,-2.12055133,-0.98474931,0
 .05646074\C,0,-1.54832491,0.41131844,0.22890535\N,0,-0.08517392,0.3889
 58,0.4211279\C,0,0.34780073,0.20185811,1.66769186\C,0,0.65665937,0.493
 56649,-0.67236214\C,0,2.12637471,0.31839569,-0.59880301\O,0,2.70665385
 ,0.15304968,-1.87670192\H,0,-3.19780379,-0.92315873,-0.10581497\H,0,-1
 .94179826,-1.59556237,0.94128492\H,0,-1.67155677,-1.48044063,-0.804637

 Normal termination of Gaussian 16 at Wed Apr  9 16:50:34 2025.
