 Gaussian 16, Revision C.01,

 ----------------------------------------------------------------------
 #t hf aug-cc-pvdz symm=none int=(grid=ultrafine) guess=(read,tcheck) s
 table=(opt,rrhf)
 ----------------------------------------------------------------------
 -----
 title
 -----
 Symbolic Z-matrix:
 Charge =  0 Multiplicity = 1

 SCF Done:  E(RHF) =  -322.729269397     A.U. after   13 cycles
 Normal termination of Gaussian 16 at Wed Apr  9 03:33:50 2025.
 Gaussian 16:  ES64L-G16RevC.01  3-Jul-2019

 ----------------------------------------------------------------------
 #t hf aug-cc-pvdz iop(5/13=1,5/36=2,99/5=2) pseudo=read geom=check gue
 ss=(read,tcheck) scf=(maxcycle=1)
 ----------------------------------------------------------------------
 -----
 title
 -----
 Structure from the checkpoint file:  "Grambow2020_wb97xd3_007116_forward_mol2.chk"
 Charge =  0 Multiplicity = 1

                         Standard orientation:
 ---------------------------------------------------------------------
 Center     Atomic      Atomic             Coordinates (Angstroms)
 Number     Number       Type             X           Y           Z
 ---------------------------------------------------------------------
      1          7           0       -2.179303   -0.547294   -0.054932
      2          6           0       -0.986945   -0.151418   -0.050650
      3          8           0       -0.589136    1.103186    0.312606
      4          6           0        0.762364    1.352208   -0.085907
      5          6           0        1.358047    0.005439   -0.423045
      6          6           0        1.263662   -1.031067    0.642867
      7          6           0        0.202581   -0.953823   -0.423072
      8          1           0       -2.810071    0.205388    0.210364
      9          1           0        1.263178    1.861081    0.739718
     10          1           0        0.756450    2.010196   -0.958900
     11          1           0        2.139640   -0.046071   -1.167668
     12          1           0        1.002373   -0.724331    1.648725
     13          1           0        1.941344   -1.871540    0.582359
     14          1           0        0.077032   -1.757188   -1.132081
 ---------------------------------------------------------------------

 SCF Done:  E(RHF) =  -322.828181674     A.U. after    2 cycles

 The electronic state is 1-A.
 Alpha  occ. eigenvalues --  -20.60710 -15.59308 -11.34743 -11.31044 -11.26420
 Alpha  occ. eigenvalues --  -11.26050 -11.25804  -1.39570  -1.17129  -1.16514
 Alpha  occ. eigenvalues --   -0.97712  -0.89226  -0.82417  -0.77511  -0.71974
 Alpha  occ. eigenvalues --   -0.68596  -0.66380  -0.63785  -0.59465  -0.56467
 Alpha  occ. eigenvalues --   -0.54655  -0.51230  -0.45896  -0.44789  -0.42014
 Alpha  occ. eigenvalues --   -0.38715
 Alpha virt. eigenvalues --    0.02850   0.04139   0.04278   0.04935   0.06308
 Alpha virt. eigenvalues --    0.06494   0.06998   0.10057   0.10280   0.12553
 Alpha virt. eigenvalues --    0.13015   0.13371   0.14099   0.14461   0.14723

 Mulliken charges:
               1
     1  N   -0.415045
     2  C    0.469781
     3  O   -0.683773
     4  C    0.889687
     5  C    0.105292
     6  C    0.778017
     7  C    0.533227
     8  H    0.002632
     9  H   -0.123368
    10  H   -0.164850
    11  H   -0.323331
    12  H   -0.341731
    13  H   -0.344973
    14  H   -0.381566
 Sum of Mulliken charges =   0.00000

 Dipole moment (field-independent basis, Debye):
    X=              3.5929    Y=              0.8916    Z=             -0.4795  Tot=              3.7328

 Test job not archived.
 1\1\GINC-SE249\SP\RHF\Aug-CC-pVDZ\C5H7N1O1\OHZDE\09-Apr-2025\0\\#t hf
 aug-cc-pvdz iop(5/13=1,5/36=2,99/5=2) pseudo=read geom=check guess=(re
 ad,tcheck) scf=(maxcycle=1)\\title\\0,1\N,0,1.76848512,-1.7315433,-0.0
 1870761\C,0,1.00295635,-0.77380836,-0.29286622\O,0,1.37501281,0.339350
 56,-0.99049802\C,0,0.3973347,1.37683957,-0.86745679\C,0,-0.84923671,0.
 71976186,-0.32284964\C,0,-1.35724751,-0.44854295,-1.09512459\C,0,-0.43
 00783,-0.66740797,0.07129749\H,0,2.71145169,-1.54629863,-0.3522915\H,0
 ,0.26383716,1.8253869,-1.85356373\H,0,0.77529567,2.13686477,-0.1785408

 Normal termination of Gaussian 16 at Wed Apr  9 03:33:55 2025.
