 Gaussian 16, Revision C.01,

 ----------------------------------------------------------------------
 #t hf aug-cc-pvdz symm=none int=(grid=ultrafine) guess=(read,tcheck) s
 table=(opt,rrhf)
 ----------------------------------------------------------------------
 -----
 title
 -----
 Symbolic Z-matrix:
 Charge =  0 Multiplicity = 1

 SCF Done:  E(RHF) =  -344.669616748     A.U. after   16 cycles

 1\1\GINC-SE082\Stability\RHF\Aug-CC-pVDZ\C5H10O2\OHZDE\09-Apr-2025\0\\
 #t hf aug-cc-pvdz symm=none int=(grid=ultrafine) guess=(read,tcheck) s
 table=(opt,rrhf)\\title\\0,1\O,0,2.72433048,-0.28788969,-0.43880577\C,
 0,1.56271145,-0.92008282,-0.03814907\C,0,0.92729736,-0.44095528,1.0762
 0576\C,0,-0.77654714,0.94257775,0.63050012\C,0,-1.09270696,0.98419554,
 -0.71323258\O,0,-2.21194624,0.14798159,-0.6547114\C,0,-2.03866354,0.12
 142483,0.7859807\H,0,2.9212889,-0.52814462,-1.34531583\H,0,1.45395174,
 -1.95989929,-0.33465408\H,0,0.57884202,-0.47708566,-1.20046518\H,0,1.4

 Normal termination of Gaussian 16 at Wed Apr  9 03:40:43 2025.
 Gaussian 16:  ES64L-G16RevC.01  3-Jul-2019

 ----------------------------------------------------------------------
 #t hf aug-cc-pvdz iop(5/13=1,5/36=2,99/5=2) pseudo=read geom=check gue
 ss=(read,tcheck) scf=(maxcycle=1)
 ----------------------------------------------------------------------
 -----
 title
 -----
 Structure from the checkpoint file:  "Grambow2020_wb97xd3_007547_forward_mol1.chk"
 Charge =  0 Multiplicity = 1

                         Standard orientation:
 ---------------------------------------------------------------------
 Center     Atomic      Atomic             Coordinates (Angstroms)
 Number     Number       Type             X           Y           Z
 ---------------------------------------------------------------------
      1          8           0       -2.812703   -0.443262    0.243863
      2          6           0       -1.819311    0.117413   -0.536116
      3          6           0       -1.041802    1.094426    0.026047
      4          6           0        0.922258    0.358033    0.810967
      5          6           0        1.182463   -0.950672    0.454747
      6          8           0        2.071758   -0.673675   -0.588230
      7          6           0        1.957851    0.727935   -0.229285
      8          1           0       -3.099142   -1.268569   -0.149959
      9          1           0       -1.973911    0.081653   -1.611189
     10          1           0       -0.807993   -1.100428   -0.632670
     11          1           0       -1.304996    1.438470    1.016191
     12          1           0       -0.556126    1.805543   -0.626320
     13          1           0        0.743631    0.786758    1.781998
     14          1           0       -0.107742   -1.434875   -0.282663
     15          1           0        1.259304   -1.882345    1.001129
     16          1           0        2.904426    1.084444    0.182531
     17          1           0        1.661360    1.342039   -1.082271
 ---------------------------------------------------------------------

 SCF Done:  E(RHF) =  -344.782506648     A.U. after    2 cycles

 The electronic state is 1-A.
 Alpha  occ. eigenvalues --  -20.59083 -20.57864 -11.30269 -11.30108 -11.29880
 Alpha  occ. eigenvalues --  -11.24364 -11.23814  -1.36940  -1.34852  -1.03400
 Alpha  occ. eigenvalues --   -1.00291  -0.93250  -0.81247  -0.74943  -0.73831
 Alpha  occ. eigenvalues --   -0.70722  -0.68452  -0.64216  -0.62143  -0.61490
 Alpha  occ. eigenvalues --   -0.56706  -0.55842  -0.52914  -0.50779  -0.49437
 Alpha  occ. eigenvalues --   -0.48102  -0.35184  -0.29886
 Alpha virt. eigenvalues --    0.03355   0.03914   0.04486   0.05067   0.05868
 Alpha virt. eigenvalues --    0.06306   0.07273   0.07671   0.08863   0.10835
 Alpha virt. eigenvalues --    0.10962   0.11503   0.12527   0.13520   0.14480

 Mulliken charges:
               1
     1  O   -0.560485
     2  C    0.492537
     3  C    0.514587
     4  C    0.381163
     5  C    0.335404
     6  O   -0.771424
     7  C    0.817083
     8  H    0.148370
     9  H   -0.221298
    10  H    0.053980
    11  H   -0.219351
    12  H   -0.259424
    13  H   -0.390050
    14  H    0.323480
    15  H   -0.217361
    16  H   -0.196059
    17  H   -0.231151
 Sum of Mulliken charges =  -0.00000

 Dipole moment (field-independent basis, Debye):
    X=             -0.3933    Y=              0.5763    Z=              0.2555  Tot=              0.7430

 Test job not archived.
 1\1\GINC-SE082\SP\RHF\Aug-CC-pVDZ\C5H10O2\OHZDE\09-Apr-2025\0\\#t hf a
 ug-cc-pvdz iop(5/13=1,5/36=2,99/5=2) pseudo=read geom=check guess=(rea
 d,tcheck) scf=(maxcycle=1)\\title\\0,1\O,0,2.72433048,-0.28788969,-0.4
 3880577\C,0,1.56271145,-0.92008282,-0.03814907\C,0,0.92729736,-0.44095
 528,1.07620576\C,0,-0.77654714,0.94257775,0.63050012\C,0,-1.09270696,0
 .98419554,-0.71323258\O,0,-2.21194624,0.14798159,-0.6547114\C,0,-2.038
 66354,0.12142483,0.7859807\H,0,2.9212889,-0.52814462,-1.34531583\H,0,1
 .45395174,-1.95989929,-0.33465408\H,0,0.57884202,-0.47708566,-1.200465

 Normal termination of Gaussian 16 at Wed Apr  9 03:40:49 2025.
