 Gaussian 16, Revision C.01,

 ----------------------------------------------------------------------
 #t hf aug-cc-pvdz symm=none int=(grid=ultrafine) guess=(read,tcheck) s
 table=(opt,rrhf)
 ----------------------------------------------------------------------
 -----
 title
 -----
 Symbolic Z-matrix:
 Charge =  0 Multiplicity = 1

 SCF Done:  E(RHF) =  -305.627213126     A.U. after   15 cycles
 Normal termination of Gaussian 16 at Wed Apr  9 14:00:02 2025.
 Gaussian 16:  ES64L-G16RevC.01  3-Jul-2019

 ----------------------------------------------------------------------
 #t hf aug-cc-pvdz iop(5/13=1,5/36=2,99/5=2) pseudo=read geom=check gue
 ss=(read,tcheck) scf=(maxcycle=1)
 ----------------------------------------------------------------------
 -----
 title
 -----
 Structure from the checkpoint file:  "Grambow2020_b97d3_006759_forward_mol1.chk"
 Charge =  0 Multiplicity = 1

                         Standard orientation:
 ---------------------------------------------------------------------
 Center     Atomic      Atomic             Coordinates (Angstroms)
 Number     Number       Type             X           Y           Z
 ---------------------------------------------------------------------
      1          6           0       -1.248973   -1.092920   -0.157972
      2          6           0       -1.952239    0.191414   -0.089642
      3          6           0       -0.100192    1.106315    0.516746
      4          8           0        0.558316    1.816208   -0.153263
      5          6           0        0.995778   -0.877634    0.581179
      6          8           0        1.819605   -0.667125   -0.521465
      7          1           0       -0.731564   -1.386350   -1.066079
      8          1           0       -2.495104   -0.976339   -0.592089
      9          1           0       -1.391554   -1.821669    0.633507
     10          1           0       -2.607313    0.392445    0.752804
     11          1           0       -2.054388    0.811777   -0.976878
     12          1           0        1.396330   -0.525461    1.541832
     13          1           0        0.805377   -1.952987    0.644543
     14          1           0        1.888607    0.302871   -0.641676
 ---------------------------------------------------------------------

 SCF Done:  E(RHF) =  -305.723200794     A.U. after    2 cycles

 The electronic state is 1-A.
 Alpha  occ. eigenvalues --  -20.61706 -20.55390 -11.34590 -11.32696 -11.31868
 Alpha  occ. eigenvalues --  -11.26326  -1.40728  -1.30106  -1.10748  -0.88314
 Alpha  occ. eigenvalues --   -0.85161  -0.76774  -0.69655  -0.68707  -0.65207
 Alpha  occ. eigenvalues --   -0.62020  -0.60920  -0.58647  -0.57780  -0.56781
 Alpha  occ. eigenvalues --   -0.54183  -0.47850  -0.42814  -0.25989
 Alpha virt. eigenvalues --    0.02628   0.04088   0.04201   0.05088   0.06714
 Alpha virt. eigenvalues --    0.06737   0.07434   0.07982   0.08627   0.09747
 Alpha virt. eigenvalues --    0.12485   0.12860   0.13332   0.14392   0.14588

 Mulliken charges:
               1
     1  C    0.465356
     2  C    0.450978
     3  C    0.314104
     4  O   -0.443033
     5  C    0.631952
     6  O   -0.565966
     7  H   -0.044482
     8  H   -0.018258
     9  H   -0.138614
    10  H   -0.171697
    11  H   -0.153053
    12  H   -0.140084
    13  H   -0.384422
    14  H    0.197219
 Sum of Mulliken charges =  -0.00000

 Dipole moment (field-independent basis, Debye):
    X=             -5.0380    Y=             -1.0773    Z=              0.3233  Tot=              5.1620

 Test job not archived.
 1\1\GINC-SE131\SP\RHF\Aug-CC-pVDZ\C4H8O2\OHZDE\09-Apr-2025\0\\#t hf au
 g-cc-pvdz iop(5/13=1,5/36=2,99/5=2) pseudo=read geom=check guess=(read
 ,tcheck) scf=(maxcycle=1)\\title\\0,1\C,0,-1.05145104,-0.22370955,-0.5
 195629\C,0,-1.31642503,-0.34881269,0.91671807\C,0,0.80025504,-0.163701
 24,1.26345703\O,0,1.3333179,0.77960509,1.72444613\C,0,1.27977687,-0.12
 553089,-0.9523858\O,0,1.67202634,1.20815507,-1.03145497\H,0,-0.9955502
 5,0.75646771,-0.982811\H,0,-2.29191702,-0.2237455,-0.05466044\H,0,-1.0
 8429199,-1.10870862,-1.14689174\H,0,-1.54355995,-1.32691319,1.3302154\

 Normal termination of Gaussian 16 at Wed Apr  9 14:00:06 2025.
