 Gaussian 16, Revision C.01,

 ----------------------------------------------------------------------
 #t hf aug-cc-pvdz symm=none int=(grid=ultrafine) guess=(read,tcheck) s
 table=(opt,rrhf)
 ----------------------------------------------------------------------
 -----
 title
 -----
 Symbolic Z-matrix:
 Charge =  0 Multiplicity = 1

 SCF Done:  E(RHF) =  -266.651774877     A.U. after   16 cycles
 Normal termination of Gaussian 16 at Wed Apr  9 03:03:09 2025.
 Gaussian 16:  ES64L-G16RevC.01  3-Jul-2019

 ----------------------------------------------------------------------
 #t hf aug-cc-pvdz iop(5/13=1,5/36=2,99/5=2) pseudo=read geom=check gue
 ss=(read,tcheck) scf=(maxcycle=1)
 ----------------------------------------------------------------------
 -----
 title
 -----
 Structure from the checkpoint file:  "Grambow2020_b97d3_006484_forward_mol1.chk"
 Charge =  0 Multiplicity = 1

                         Standard orientation:
 ---------------------------------------------------------------------
 Center     Atomic      Atomic             Coordinates (Angstroms)
 Number     Number       Type             X           Y           Z
 ---------------------------------------------------------------------
      1          8           0        1.181292    0.839631    0.158206
      2          6           0        1.027214   -0.673219   -0.168517
      3          6           0       -0.281767   -1.179181    0.210261
      4          6           0       -0.944895    0.914473    0.143749
      5          8           0       -1.314075   -0.234454   -0.355722
      6          1           0        1.616174    1.269084   -0.616570
      7          1           0        1.206186   -0.703456   -1.256476
      8          1           0        1.817105   -1.226455    0.355492
      9          1           0       -0.503538   -1.392997    1.257857
     10          1           0       -1.029273    1.802411   -0.495601
     11          1           0       -0.847702    1.037560    1.222464
 ---------------------------------------------------------------------

 SCF Done:  E(RHF) =  -266.734268067     A.U. after    2 cycles

 The electronic state is 1-A.
 Alpha  occ. eigenvalues --  -20.63988 -20.59783 -11.42144 -11.28956 -11.21363
 Alpha  occ. eigenvalues --   -1.40955  -1.30761  -0.99464  -0.93128  -0.81701
 Alpha  occ. eigenvalues --   -0.72631  -0.69671  -0.68799  -0.66497  -0.58813
 Alpha  occ. eigenvalues --   -0.55823  -0.52246  -0.50097  -0.48878  -0.26865
 Alpha virt. eigenvalues --    0.02499   0.03652   0.04707   0.06065   0.06495
 Alpha virt. eigenvalues --    0.06764   0.07911   0.10217   0.11649   0.12406
 Alpha virt. eigenvalues --    0.14179   0.14809   0.15294   0.16392   0.16721

 Mulliken charges:
               1
     1  O   -0.648788
     2  C    0.639835
     3  C    0.204311
     4  C    0.903321
     5  O   -0.564571
     6  H    0.182219
     7  H   -0.170089
     8  H   -0.081086
     9  H   -0.274842
    10  H   -0.163110
    11  H   -0.027201
 Sum of Mulliken charges =  -0.00000

 Dipole moment (field-independent basis, Debye):
    X=              0.4811    Y=              4.6322    Z=             -0.0548  Tot=              4.6574

 Test job not archived.
 1\1\GINC-SE083\SP\RHF\Aug-CC-pVDZ\C3H6O2\OHZDE\09-Apr-2025\0\\#t hf au
 g-cc-pvdz iop(5/13=1,5/36=2,99/5=2) pseudo=read geom=check guess=(read
 ,tcheck) scf=(maxcycle=1)\\title\\0,1\O,0,-1.07223752,-0.49596629,0.52
 018079\C,0,-0.70641335,0.87811989,-0.11010889\C,0,0.73188674,1.0742089
 2,-0.18589441\C,0,0.88748871,-1.11212167,-0.03327241\O,0,1.3254127,-0.
 16252246,-0.81575623\H,0,-1.79815343,-0.88832764,-0.02104669\H,0,-1.19
 005251,0.82473941,-1.09998022\H,0,-1.16935617,1.67233199,0.48947018\H,
 0,1.2949164,1.34613092,0.70932263\H,0,0.58852322,-2.06106801,-0.496353

 Normal termination of Gaussian 16 at Wed Apr  9 03:03:14 2025.
