 Gaussian 16, Revision C.01,

 ----------------------------------------------------------------------
 #t hf aug-cc-pvdz symm=none int=(grid=ultrafine) guess=(read,tcheck) s
 table=(opt,rrhf)
 ----------------------------------------------------------------------
 -----
 title
 -----
 Symbolic Z-matrix:
 Charge =  0 Multiplicity = 1

 SCF Done:  E(RHF) =  -344.920680396     A.U. after   14 cycles

 1\1\GINC-SE059\Stability\RHF\Aug-CC-pVDZ\C5H10O2\OHZDE\09-Apr-2025\0\\
 #t hf aug-cc-pvdz symm=none int=(grid=ultrafine) guess=(read,tcheck) s
 table=(opt,rrhf)\\title\\0,1\C,0,2.27388968,0.41891063,-0.27915694\C,0
 ,1.63398817,-0.59166053,0.67134793\C,0,0.61870973,0.05849155,1.5626377
 6\O,0,-0.52363853,-0.29592589,1.69228803\C,0,-1.67981967,-0.57072275,-
 1.08004052\C,0,-2.70424315,0.41281272,-0.61246195\O,0,-0.70691964,-0.2
 8972472,-1.72987916\H,0,1.53631257,0.79736417,-0.98698949\H,0,3.076607
 79,-0.05044103,-0.84761137\H,0,2.70243834,1.26365365,0.2655546\H,0,1.1

 Normal termination of Gaussian 16 at Wed Apr  9 03:34:02 2025.
 Gaussian 16:  ES64L-G16RevC.01  3-Jul-2019

 ----------------------------------------------------------------------
 #t hf aug-cc-pvdz iop(5/13=1,5/36=2,99/5=2) pseudo=read geom=check gue
 ss=(read,tcheck) scf=(maxcycle=1)
 ----------------------------------------------------------------------
 -----
 title
 -----
 Structure from the checkpoint file:  "Grambow2020_wb97xd3_007114_reverse_mol2.chk"
 Charge =  0 Multiplicity = 1

                         Standard orientation:
 ---------------------------------------------------------------------
 Center     Atomic      Atomic             Coordinates (Angstroms)
 Number     Number       Type             X           Y           Z
 ---------------------------------------------------------------------
      1          6           0       -2.144921   -1.155736    0.500116
      2          6           0       -1.888897   -0.029572   -0.500082
      3          6           0       -1.267111    1.163115    0.162312
      4          8           0       -0.247888    1.700281   -0.184125
      5          6           0        1.833997   -0.463501   -0.470260
      6          6           0        2.616497    0.334676    0.522727
      7          8           0        1.161210   -1.423668   -0.199664
      8          1           0       -1.202484   -1.551947    0.878405
      9          1           0       -2.685973   -1.972099    0.021995
     10          1           0       -2.744376   -0.810157    1.345802
     11          1           0       -1.245326   -0.357423   -1.316403
     12          1           0       -1.821642    1.550531    1.044898
     13          1           0       -2.840199    0.310308   -0.927113
     14          1           0        1.904052   -0.113192   -1.519606
     15          1           0        2.515462   -0.084211    1.522301
     16          1           0        3.668191    0.358261    0.225832
     17          1           0        2.248328    1.363121    0.505318
 ---------------------------------------------------------------------

 SCF Done:  E(RHF) =  -345.033265395     A.U. after    2 cycles

 The electronic state is 1-A.
 Alpha  occ. eigenvalues --  -20.57542 -20.56432 -11.34560 -11.33935 -11.24575
 Alpha  occ. eigenvalues --  -11.23743 -11.23368  -1.36617  -1.35567  -1.05602
 Alpha  occ. eigenvalues --   -1.00582  -0.89580  -0.79702  -0.79207  -0.68494
 Alpha  occ. eigenvalues --   -0.67919  -0.65269  -0.62971  -0.61873  -0.59535
 Alpha  occ. eigenvalues --   -0.56802  -0.55358  -0.54070  -0.51412  -0.51082
 Alpha  occ. eigenvalues --   -0.49825  -0.43309  -0.42977
 Alpha virt. eigenvalues --    0.03462   0.04287   0.04484   0.05058   0.05922
 Alpha virt. eigenvalues --    0.06318   0.06869   0.07854   0.08587   0.09712
 Alpha virt. eigenvalues --    0.10290   0.11174   0.12242   0.13285   0.14012

 Mulliken charges:
               1
     1  C    0.336128
     2  C    0.021801
     3  C    0.606369
     4  O   -0.466384
     5  C    0.619633
     6  C    0.096878
     7  O   -0.496696
     8  H   -0.050642
     9  H   -0.090654
    10  H   -0.083754
    11  H   -0.117714
    12  H   -0.175927
    13  H    0.022682
    14  H   -0.173648
    15  H   -0.074348
    16  H   -0.002819
    17  H    0.029095
 Sum of Mulliken charges =   0.00000

 Dipole moment (field-independent basis, Debye):
    X=             -0.8733    Y=              0.8072    Z=              0.2770  Tot=              1.2210

 Test job not archived.
 1\1\GINC-SE059\SP\RHF\Aug-CC-pVDZ\C5H10O2\OHZDE\09-Apr-2025\0\\#t hf a
 ug-cc-pvdz iop(5/13=1,5/36=2,99/5=2) pseudo=read geom=check guess=(rea
 d,tcheck) scf=(maxcycle=1)\\title\\0,1\C,0,2.27388968,0.41891063,-0.27
 915694\C,0,1.63398817,-0.59166053,0.67134793\C,0,0.61870973,0.05849155
 ,1.56263776\O,0,-0.52363853,-0.29592589,1.69228803\C,0,-1.67981967,-0.
 57072275,-1.08004052\C,0,-2.70424315,0.41281272,-0.61246195\O,0,-0.706
 91964,-0.28972472,-1.72987916\H,0,1.53631257,0.79736417,-0.98698949\H,
 0,3.07660779,-0.05044103,-0.84761137\H,0,2.70243834,1.26365365,0.26555

 Normal termination of Gaussian 16 at Wed Apr  9 03:34:08 2025.
