 Gaussian 16, Revision C.01,

 ----------------------------------------------------------------------
 #t hf aug-cc-pvdz symm=none int=(grid=ultrafine) guess=(read,tcheck) s
 table=(opt,rrhf)
 ----------------------------------------------------------------------
 -----
 title
 -----
 Symbolic Z-matrix:
 Charge =  0 Multiplicity = 1

 SCF Done:  E(RHF) =  -191.964875266     A.U. after   13 cycles
 Normal termination of Gaussian 16 at Wed Apr  9 14:10:51 2025.
 Gaussian 16:  ES64L-G16RevC.01  3-Jul-2019

 ----------------------------------------------------------------------
 #t hf aug-cc-pvdz iop(5/13=1,5/36=2,99/5=2) pseudo=read geom=check gue
 ss=(read,tcheck) scf=(maxcycle=1)
 ----------------------------------------------------------------------
 -----
 title
 -----
 Structure from the checkpoint file:  "Grambow2020_b97d3_006805_reverse_mol2.chk"
 Charge =  0 Multiplicity = 1

                         Standard orientation:
 ---------------------------------------------------------------------
 Center     Atomic      Atomic             Coordinates (Angstroms)
 Number     Number       Type             X           Y           Z
 ---------------------------------------------------------------------
      1          6           0       -1.403877   -0.242860    0.000386
      2          6           0        0.084769   -0.044992   -0.001217
      3          8           0        0.398502    1.294130   -0.000768
      4          6           0        0.995242   -1.038396   -0.000678
      5          1           0       -1.855785    0.241183   -0.877640
      6          1           0       -1.656221   -1.308682   -0.012766
      7          1           0       -1.850650    0.217453    0.893872
      8          1           0        2.069097   -0.844069    0.000864
      9          1           0        1.371786    1.375984    0.008070
     10          1           0        0.676951   -2.077420    0.002802
 ---------------------------------------------------------------------

 SCF Done:  E(RHF) =  -192.027052030     A.U. after    2 cycles

 The electronic state is 1-A.
 Alpha  occ. eigenvalues --  -20.60425 -11.31806 -11.24069 -11.22230  -1.35966
 Alpha  occ. eigenvalues --   -1.04401  -0.94249  -0.79878  -0.68779  -0.64821
 Alpha  occ. eigenvalues --   -0.61490  -0.55601  -0.54979  -0.54429  -0.52374
 Alpha  occ. eigenvalues --   -0.34461
 Alpha virt. eigenvalues --    0.03398   0.04495   0.05090   0.06206   0.06753
 Alpha virt. eigenvalues --    0.07507   0.11466   0.11635   0.14136   0.14391
 Alpha virt. eigenvalues --    0.15276   0.15840   0.17051   0.17601   0.18627

 Mulliken charges:
               1
     1  C    0.223057
     2  C    0.224984
     3  O   -0.568921
     4  C    0.684661
     5  H    0.038331
     6  H   -0.086348
     7  H    0.041562
     8  H   -0.422030
     9  H    0.154028
    10  H   -0.289326
 Sum of Mulliken charges =  -0.00000

 Dipole moment (field-independent basis, Debye):
    X=              0.5141    Y=             -0.5120    Z=              0.0203  Tot=              0.7259

 Test job not archived.
 1\1\GINC-SE131\SP\RHF\Aug-CC-pVDZ\C3H6O1\OHZDE\09-Apr-2025\0\\#t hf au
 g-cc-pvdz iop(5/13=1,5/36=2,99/5=2) pseudo=read geom=check guess=(read
 ,tcheck) scf=(maxcycle=1)\\title\\0,1\C,0,-1.19828757,-0.10394788,0.47
 838419\C,0,0.16477292,0.22721685,-0.05791751\O,0,0.37622319,1.58619689
 ,-0.0462466\C,0,1.06438785,-0.67773559,-0.49100857\H,0,-1.97628976,0.3
 9457931,-0.11796354\H,0,-1.37386158,-1.18496357,0.45826389\H,0,-1.3000
 761,0.2537405,1.51352153\H,0,2.04564338,-0.38775837,-0.87045582\H,0,1.
 27392439,1.75484388,-0.39229537\H,0,0.83260727,-1.73918401,-0.4686822\

 Normal termination of Gaussian 16 at Wed Apr  9 14:10:53 2025.
