 Gaussian 16, Revision C.01,

 ----------------------------------------------------------------------
 #t hf aug-cc-pvdz symm=none int=(grid=ultrafine) guess=(read,tcheck) s
 table=(opt,rrhf)
 ----------------------------------------------------------------------
 -----
 title
 -----
 Symbolic Z-matrix:
 Charge =  0 Multiplicity = 1

 SCF Done:  E(RHF) =  -306.582339299     A.U. after   15 cycles
 Normal termination of Gaussian 16 at Wed Apr  9 16:28:10 2025.
 Gaussian 16:  ES64L-G16RevC.01  3-Jul-2019

 ----------------------------------------------------------------------
 #t hf aug-cc-pvdz iop(5/13=1,5/36=2,99/5=2) pseudo=read geom=check gue
 ss=(read,tcheck) scf=(maxcycle=1)
 ----------------------------------------------------------------------
 -----
 title
 -----
 Structure from the checkpoint file:  "Grambow2020_wb97xd3_008440_reverse_mol1.chk"
 Charge =  0 Multiplicity = 1

                         Standard orientation:
 ---------------------------------------------------------------------
 Center     Atomic      Atomic             Coordinates (Angstroms)
 Number     Number       Type             X           Y           Z
 ---------------------------------------------------------------------
      1          6           0       -0.908310    1.007753   -0.595849
      2          6           0       -1.357740   -0.421502   -0.318074
      3          6           0       -0.086320   -1.169650    0.099246
      4          8           0        1.083531   -0.797553   -0.586156
      5          6           0        1.451347    0.480009   -0.060879
      6          6           0        0.150726    0.991748    0.530926
      7          6           0       -0.358100   -0.289389    1.278295
      8          1           0       -0.509115    1.181484   -1.597725
      9          1           0       -1.703662    1.726786   -0.403329
     10          1           0       -2.153514   -0.955091   -0.831258
     11          1           0       -0.164509   -2.247329    0.192371
     12          1           0        1.824417    1.103229   -0.875752
     13          1           0        2.240611    0.364719    0.692141
     14          1           0        0.239885    1.892044    1.133160
     15          1           0       -1.791979   -0.279234    0.777648
 ---------------------------------------------------------------------

 SCF Done:  E(RHF) =  -306.671544319     A.U. after    2 cycles

 The electronic state is 1-A.
 Alpha  occ. eigenvalues --  -20.57721 -11.29752 -11.29159 -11.27410 -11.26619
 Alpha  occ. eigenvalues --  -11.25370 -11.25040  -1.36182  -1.16482  -1.02799
 Alpha  occ. eigenvalues --   -0.94677  -0.87299  -0.79018  -0.75026  -0.71742
 Alpha  occ. eigenvalues --   -0.67415  -0.62074  -0.58445  -0.57933  -0.55777
 Alpha  occ. eigenvalues --   -0.53179  -0.50661  -0.49356  -0.47665  -0.41469
 Alpha  occ. eigenvalues --   -0.33870
 Alpha virt. eigenvalues --    0.03115   0.03906   0.04472   0.04939   0.06170
 Alpha virt. eigenvalues --    0.06593   0.06829   0.07767   0.10185   0.10848
 Alpha virt. eigenvalues --    0.11732   0.12805   0.13400   0.13548   0.14445

 Mulliken charges:
               1
     1  C    0.560722
     2  C   -0.053809
     3  C    1.058575
     4  O   -0.799431
     5  C    1.012811
     6  C    0.108564
     7  C   -0.634840
     8  H   -0.218177
     9  H   -0.124875
    10  H   -0.234974
    11  H   -0.337179
    12  H   -0.196319
    13  H   -0.222643
    14  H   -0.278005
    15  H    0.359582
 Sum of Mulliken charges =  -0.00000

 Dipole moment (field-independent basis, Debye):
    X=             -1.1026    Y=              1.5167    Z=             -1.3211  Tot=              2.2938

 Test job not archived.
 1\1\GINC-SE141\SP\RHF\Aug-CC-pVDZ\C6H8O1\OHZDE\09-Apr-2025\0\\#t hf au
 g-cc-pvdz iop(5/13=1,5/36=2,99/5=2) pseudo=read geom=check guess=(read
 ,tcheck) scf=(maxcycle=1)\\title\\0,1\C,0,0.69935934,1.06789648,0.0716
 3348\C,0,1.35017594,-0.2769362,-0.22799484\C,0,0.26193281,-1.32123533,
 0.04688005\O,0,-0.57713173,-1.04289792,1.14016913\C,0,-1.44600409,0.00
 565721,0.70547197\C,0,-0.68401689,0.61985563,-0.45464076\C,0,-0.212068
 5,-0.66866718,-1.2134208\H,0,0.71538821,1.36655292,1.12227274\H,0,1.12
 912076,1.86838158,-0.52935409\H,0,2.3949339,-0.5330405,-0.07235784\H,0

 Normal termination of Gaussian 16 at Wed Apr  9 16:28:16 2025.
