 Gaussian 16, Revision C.01,

 ----------------------------------------------------------------------
 #t hf aug-cc-pvdz symm=none int=(grid=ultrafine) guess=(read,tcheck) s
 table=(opt,rrhf)
 ----------------------------------------------------------------------
 -----
 title
 -----
 Symbolic Z-matrix:
 Charge =  0 Multiplicity = 1

 SCF Done:  E(RHF) =  -343.590698803     A.U. after   16 cycles
 Normal termination of Gaussian 16 at Wed Apr  9 16:01:07 2025.
 Gaussian 16:  ES64L-G16RevC.01  3-Jul-2019

 ----------------------------------------------------------------------
 #t hf aug-cc-pvdz iop(5/13=1,5/36=2,99/5=2) pseudo=read geom=check gue
 ss=(read,tcheck) scf=(maxcycle=1)
 ----------------------------------------------------------------------
 -----
 title
 -----
 Structure from the checkpoint file:  "Grambow2020_wb97xd3_007679_reverse_mol2.chk"
 Charge =  0 Multiplicity = 1

                         Standard orientation:
 ---------------------------------------------------------------------
 Center     Atomic      Atomic             Coordinates (Angstroms)
 Number     Number       Type             X           Y           Z
 ---------------------------------------------------------------------
      1          6           0       -0.220437    1.920139    0.264965
      2          6           0       -0.003263    0.755600   -0.676171
      3          6           0        1.220647   -0.132035   -0.501723
      4          8           0        1.311821   -0.357954    0.920890
      5          6           0        0.435217   -1.432712   -0.388703
      6          6           0       -0.817311   -0.567274   -0.489009
      7          8           0       -1.832817   -0.668202    0.456775
      8          1           0        0.510805    2.711380    0.085531
      9          1           0       -0.139874    1.615470    1.307653
     10          1           0       -1.216703    2.338671    0.115231
     11          1           0       -0.082968    1.088700   -1.712887
     12          1           0        2.184619    0.025586   -0.981109
     13          1           0        1.886950   -1.121780    1.061550
     14          1           0       -1.236329   -0.864221   -1.461355
     15          1           0       -1.427655   -0.846866    1.307917
 ---------------------------------------------------------------------

 SCF Done:  E(RHF) =  -343.693475145     A.U. after    2 cycles

 The electronic state is 1-A.
 Alpha  occ. eigenvalues --  -20.63230 -20.57816 -11.31316 -11.29789 -11.27536
 Alpha  occ. eigenvalues --  -11.24938 -11.22839  -1.39085  -1.33540  -1.12233
 Alpha  occ. eigenvalues --   -0.98774  -0.90287  -0.83521  -0.77777  -0.76171
 Alpha  occ. eigenvalues --   -0.67161  -0.64414  -0.62293  -0.61805  -0.57939
 Alpha  occ. eigenvalues --   -0.55380  -0.53792  -0.52963  -0.50519  -0.45055
 Alpha  occ. eigenvalues --   -0.43520  -0.35630
 Alpha virt. eigenvalues --    0.02994   0.03954   0.04340   0.04971   0.06465
 Alpha virt. eigenvalues --    0.06629   0.06972   0.07702   0.08475   0.11211
 Alpha virt. eigenvalues --    0.12759   0.13065   0.13739   0.14368   0.14819

 Mulliken charges:
               1
     1  C    0.563132
     2  C   -0.599933
     3  C    1.099564
     4  O   -0.673032
     5  C   -0.571228
     6  C    0.904836
     7  O   -0.586013
     8  H   -0.005745
     9  H   -0.019173
    10  H    0.012469
    11  H   -0.156358
    12  H   -0.293254
    13  H    0.241956
    14  H   -0.072987
    15  H    0.155767
 Sum of Mulliken charges =  -0.00000

 Dipole moment (field-independent basis, Debye):
    X=              2.2786    Y=              1.6034    Z=             -0.5593  Tot=              2.8418

 Test job not archived.
 1\1\GINC-SE138\SP\RHF\Aug-CC-pVDZ\C5H8O2\OHZDE\09-Apr-2025\0\\#t hf au
 g-cc-pvdz iop(5/13=1,5/36=2,99/5=2) pseudo=read geom=check guess=(read
 ,tcheck) scf=(maxcycle=1)\\title\\0,1\C,0,1.6086808,-0.49728915,-0.023
 91208\C,0,0.41656995,0.17199383,0.62415076\C,0,-0.30513945,1.2932179,-
 0.10952248\O,0,-0.42069324,0.82777526,-1.47084177\C,0,-1.67919969,0.63
 758131,-0.05008144\C,0,-0.9778063,-0.53752343,0.62449013\O,0,-1.133831
 55,-1.8339049,0.1438701\H,0,2.46713338,0.17717516,-0.05753353\H,0,1.38
 785263,-0.81445915,-1.04231725\H,0,1.89449624,-1.38191749,0.54694401\H

 Normal termination of Gaussian 16 at Wed Apr  9 16:01:13 2025.
