 Gaussian 16, Revision C.01,

 ----------------------------------------------------------------------
 #t hf aug-cc-pvdz symm=none int=(grid=ultrafine) guess=(read,tcheck) s
 table=(opt,rrhf)
 ----------------------------------------------------------------------
 -----
 title
 -----
 Symbolic Z-matrix:
 Charge =  0 Multiplicity = 1

 SCF Done:  E(RHF) =  -373.258172998     A.U. after   20 cycles
 Normal termination of Gaussian 16 at Wed Apr  9 03:27:00 2025.
 Gaussian 16:  ES64L-G16RevC.01  3-Jul-2019

 ----------------------------------------------------------------------
 #t hf aug-cc-pvdz iop(5/13=1,5/36=2,99/5=2) pseudo=read geom=check gue
 ss=(read,tcheck) scf=(maxcycle=1)
 ----------------------------------------------------------------------
 -----
 title
 -----
 Structure from the checkpoint file:  "Grambow2020_wb97xd3_006708_forward_mol1.chk"
 Charge =  0 Multiplicity = 1

                         Standard orientation:
 ---------------------------------------------------------------------
 Center     Atomic      Atomic             Coordinates (Angstroms)
 Number     Number       Type             X           Y           Z
 ---------------------------------------------------------------------
      1          8           0       -2.412353   -0.666876   -0.333324
      2          6           0       -1.748341    0.091682    0.299539
      3          6           0       -0.241311    0.336683    0.059970
      4          7           0        0.464891   -0.783900    0.000545
      5          6           0        1.861710   -0.789614    0.188719
      6          7           0        2.246119    0.271208   -0.277495
      7          8           0        0.108831    1.496929   -0.041604
      8          1           0       -2.159949    0.774234    1.065542
      9          1           0        2.378703   -1.658326    0.583159
 ---------------------------------------------------------------------

 SCF Done:  E(RHF) =  -373.369335348     A.U. after    2 cycles

 The electronic state is 1-A.
 Alpha  occ. eigenvalues --  -20.59591 -20.57065 -15.79775 -15.68004 -11.41441
 Alpha  occ. eigenvalues --  -11.38430 -11.36290  -1.39965  -1.37963  -1.32688
 Alpha  occ. eigenvalues --   -1.15830  -0.94003  -0.88311  -0.77914  -0.70757
 Alpha  occ. eigenvalues --   -0.70215  -0.67984  -0.65932  -0.64280  -0.57846
 Alpha  occ. eigenvalues --   -0.55074  -0.53391  -0.46287  -0.43205  -0.41311
 Alpha virt. eigenvalues --   -0.02789   0.01780   0.04369   0.05849   0.07221
 Alpha virt. eigenvalues --    0.07438   0.08904   0.09809   0.11488   0.12571
 Alpha virt. eigenvalues --    0.13287   0.14184   0.14673   0.15506   0.16044

 Mulliken charges:
               1
     1  O   -0.404269
     2  C    0.715826
     3  C    0.115107
     4  N   -0.540366
     5  C    0.823811
     6  N   -0.123485
     7  O   -0.464677
     8  H   -0.051758
     9  H   -0.070190
 Sum of Mulliken charges =  -0.00000

 Dipole moment (field-independent basis, Debye):
    X=              4.3567    Y=             -2.3151    Z=              2.7344  Tot=              5.6407

 Test job not archived.
 1\1\GINC-SE249\SP\RHF\Aug-CC-pVDZ\C3H2N2O2\OHZDE\09-Apr-2025\0\\#t hf
 aug-cc-pvdz iop(5/13=1,5/36=2,99/5=2) pseudo=read geom=check guess=(re
 ad,tcheck) scf=(maxcycle=1)\\title\\0,1\O,0,-2.23247643,1.29368389,0.0
 9014712\C,0,-1.80425649,0.18960938,-0.03020711\C,0,-0.35891647,-0.2259
 9455,0.32591748\N,0,0.55774875,0.56731312,-0.21106265\C,0,1.89937548,0
 .15903029,-0.35208816\N,0,2.11365344,-0.5559685,0.61400194\O,0,-0.2370
 269,-1.20565495,1.03619528\H,0,-2.42316,-0.67932546,-0.31998464\H,0,2.
 53285662,0.5505898,-1.14133326\\Version=ES64L-G16RevC.01\State=1-A\HF=

 Normal termination of Gaussian 16 at Wed Apr  9 03:27:04 2025.
