 Gaussian 16, Revision C.01,

 ----------------------------------------------------------------------
 #t hf aug-cc-pvdz symm=none int=(grid=ultrafine) guess=(read,tcheck) s
 table=(opt,rrhf)
 ----------------------------------------------------------------------
 -----
 title
 -----
 Symbolic Z-matrix:
 Charge =  0 Multiplicity = 1

 SCF Done:  E(RHF) =  -337.396215331     A.U. after   19 cycles
 Normal termination of Gaussian 16 at Wed Apr  9 16:36:48 2025.
 Gaussian 16:  ES64L-G16RevC.01  3-Jul-2019

 ----------------------------------------------------------------------
 #t hf aug-cc-pvdz iop(5/13=1,5/36=2,99/5=2) pseudo=read geom=check gue
 ss=(read,tcheck) scf=(maxcycle=1)
 ----------------------------------------------------------------------
 -----
 title
 -----
 Structure from the checkpoint file:  "Grambow2020_wb97xd3_008689_reverse_mol1.chk"
 Charge =  0 Multiplicity = 1

                         Standard orientation:
 ---------------------------------------------------------------------
 Center     Atomic      Atomic             Coordinates (Angstroms)
 Number     Number       Type             X           Y           Z
 ---------------------------------------------------------------------
      1          8           0        2.103944   -0.665660    0.574212
      2          6           0        1.751381    0.133962   -0.251993
      3          6           0        0.454645    0.716159   -0.371945
      4          6           0       -0.522662    1.531549   -0.154073
      5          7           0       -1.313988    0.657490    0.539221
      6          6           0       -1.624570   -0.611235    0.147920
      7          7           0       -0.822950   -1.410021   -0.429924
      8          1           0        2.431236    0.517660   -1.041940
      9          1           0       -0.722440    2.592763   -0.242516
     10          1           0       -2.648603   -0.872772    0.425857
     11          1           0       -1.285939   -2.267263   -0.719639
 ---------------------------------------------------------------------

 SCF Done:  E(RHF) =  -337.497699118     A.U. after    2 cycles

 The electronic state is 1-A.
 Alpha  occ. eigenvalues --  -20.58136 -15.65074 -15.60932 -11.37983 -11.35980
 Alpha  occ. eigenvalues --  -11.33798 -11.32826  -1.37378  -1.27203  -1.16058
 Alpha  occ. eigenvalues --   -1.03728  -0.94399  -0.80750  -0.77577  -0.72839
 Alpha  occ. eigenvalues --   -0.69453  -0.67488  -0.64395  -0.59647  -0.55560
 Alpha  occ. eigenvalues --   -0.47356  -0.44646  -0.41419  -0.41180  -0.34250
 Alpha virt. eigenvalues --    0.02477   0.03632   0.03867   0.04223   0.06073
 Alpha virt. eigenvalues --    0.06933   0.07870   0.10409   0.10734   0.11258
 Alpha virt. eigenvalues --    0.11606   0.13088   0.13767   0.14261   0.15236

 Mulliken charges:
               1
     1  O   -0.471739
     2  C    0.636968
     3  C   -0.371494
     4  C    0.961360
     5  N   -0.769239
     6  C    0.678829
     7  N   -0.271436
     8  H   -0.038550
     9  H   -0.132056
    10  H   -0.220542
    11  H   -0.002100
 Sum of Mulliken charges =  -0.00000

 Dipole moment (field-independent basis, Debye):
    X=             -1.6542    Y=              3.1720    Z=             -2.7950  Tot=              4.5398

 Test job not archived.
 1\1\GINC-SE168\SP\RHF\Aug-CC-pVDZ\C4H4N2O1\OHZDE\09-Apr-2025\0\\#t hf
 aug-cc-pvdz iop(5/13=1,5/36=2,99/5=2) pseudo=read geom=check guess=(re
 ad,tcheck) scf=(maxcycle=1)\\title\\0,1\O,0,-2.19278396,-0.96655955,-0
 .73958121\C,0,-1.95413116,-0.06364147,0.01810832\C,0,-0.72068592,0.643
 18601,0.13590195\C,0,0.19226433,1.5201221,-0.11897811\N,0,1.09121624,0
 .66036129,-0.68777415\C,0,1.48986626,-0.53206337,-0.16009632\N,0,0.731
 61006,-1.34249962,0.45861006\H,0,-2.70470106,0.32931069,0.73621486\H,0
 ,0.29448241,2.59872811,-0.1271774\H,0,2.54573365,-0.72413356,-0.366366

 Normal termination of Gaussian 16 at Wed Apr  9 16:36:52 2025.
