 Gaussian 16, Revision C.01,

 ----------------------------------------------------------------------
 #t hf aug-cc-pvdz symm=none int=(grid=ultrafine) guess=(read,tcheck) s
 table=(opt,rrhf)
 ----------------------------------------------------------------------
 -----
 title
 -----
 Symbolic Z-matrix:
 Charge =  0 Multiplicity = 1

 SCF Done:  E(RHF) =  -317.606584375     A.U. after   15 cycles
 Normal termination of Gaussian 16 at Wed Apr  9 16:11:47 2025.
 Gaussian 16:  ES64L-G16RevC.01  3-Jul-2019

 ----------------------------------------------------------------------
 #t hf aug-cc-pvdz iop(5/13=1,5/36=2,99/5=2) pseudo=read geom=check gue
 ss=(read,tcheck) scf=(maxcycle=1)
 ----------------------------------------------------------------------
 -----
 title
 -----
 Structure from the checkpoint file:  "Grambow2020_wb97xd3_007988_reverse_mol2.chk"
 Charge =  0 Multiplicity = 1

                         Standard orientation:
 ---------------------------------------------------------------------
 Center     Atomic      Atomic             Coordinates (Angstroms)
 Number     Number       Type             X           Y           Z
 ---------------------------------------------------------------------
      1          7           0       -2.099577    0.029828   -0.470508
      2          6           0       -0.760345    0.032009   -0.125110
      3          7           0        0.150767   -1.056728    0.263123
      4          6           0        1.453601   -0.758877   -0.272914
      5          6           0        1.593391    0.551919   -0.401139
      6          6           0        0.287374    1.067667    0.080591
      7          7           0       -0.211042    0.132242    1.156494
      8          1           0       -2.649389   -0.559184    0.138953
      9          1           0       -2.260328   -0.197914   -1.439512
     10          1           0        2.121655   -1.578051   -0.487019
     11          1           0        2.430434    1.130193   -0.756217
     12          1           0        0.032468    2.111251    0.211461
 ---------------------------------------------------------------------

 SCF Done:  E(RHF) =  -317.694518440     A.U. after    2 cycles

 The electronic state is 1-A.
 Alpha  occ. eigenvalues --  -15.67639 -15.67056 -15.64065 -11.34789 -11.29938
 Alpha  occ. eigenvalues --  -11.27547 -11.24880  -1.39492  -1.17877  -1.08698
 Alpha  occ. eigenvalues --   -1.03377  -0.83578  -0.79976  -0.78921  -0.72551
 Alpha  occ. eigenvalues --   -0.68305  -0.65761  -0.59478  -0.56184  -0.51620
 Alpha  occ. eigenvalues --   -0.49492  -0.45010  -0.43948  -0.41375  -0.33715
 Alpha virt. eigenvalues --    0.02991   0.03549   0.04087   0.05483   0.06093
 Alpha virt. eigenvalues --    0.09677   0.09964   0.10885   0.12065   0.12877
 Alpha virt. eigenvalues --    0.13300   0.13954   0.14601   0.15143   0.15384

 Mulliken charges:
               1
     1  N   -0.322856
     2  C    0.861018
     3  N   -0.780280
     4  C    0.620667
     5  C    0.479079
     6  C    0.583054
     7  N   -0.707886
     8  H    0.048832
     9  H    0.050735
    10  H   -0.226385
    11  H   -0.271824
    12  H   -0.334152
 Sum of Mulliken charges =  -0.00000

 Dipole moment (field-independent basis, Debye):
    X=              0.0445    Y=              0.7063    Z=             -2.5984  Tot=              2.6930

 Test job not archived.
 1\1\GINC-SE138\SP\RHF\Aug-CC-pVDZ\C4H5N3\OHZDE\09-Apr-2025\0\\#t hf au
 g-cc-pvdz iop(5/13=1,5/36=2,99/5=2) pseudo=read geom=check guess=(read
 ,tcheck) scf=(maxcycle=1)\\title\\0,1\N,0,2.13281624,0.25339535,0.0897
 5189\C,0,0.7711292,0.10772158,-0.10372351\N,0,-0.02355092,-0.99523247,
 -0.66779328\C,0,-1.26504394,-1.06559068,0.05827153\C,0,-1.56836399,0.1
 3076907,0.53878278\C,0,-0.43064276,0.96535058,0.07747415\N,0,0.0353917
 8,0.41863738,-1.25102968\H,0,2.66716514,-0.06654884,-0.705722\H,0,2.46
 113549,-0.17074372,0.94356006\H,0,-1.77336703,-2.0149268,0.11786317\H,

 Normal termination of Gaussian 16 at Wed Apr  9 16:11:52 2025.
