 Gaussian 16, Revision C.01,

 ----------------------------------------------------------------------
 #t hf aug-cc-pvdz symm=none int=(grid=ultrafine) guess=(read,tcheck) s
 table=(opt,rrhf)
 ----------------------------------------------------------------------
 -----
 title
 -----
 Symbolic Z-matrix:
 Charge =  0 Multiplicity = 1

 SCF Done:  E(RHF) =  -301.923253584     A.U. after   15 cycles
 Normal termination of Gaussian 16 at Wed Apr  9 14:17:16 2025.
 Gaussian 16:  ES64L-G16RevC.01  3-Jul-2019

 ----------------------------------------------------------------------
 #t hf aug-cc-pvdz iop(5/13=1,5/36=2,99/5=2) pseudo=read geom=check gue
 ss=(read,tcheck) scf=(maxcycle=1)
 ----------------------------------------------------------------------
 -----
 title
 -----
 Structure from the checkpoint file:  "Grambow2020_b97d3_006944_forward_mol1.chk"
 Charge =  0 Multiplicity = 1

                         Standard orientation:
 ---------------------------------------------------------------------
 Center     Atomic      Atomic             Coordinates (Angstroms)
 Number     Number       Type             X           Y           Z
 ---------------------------------------------------------------------
      1          6           0       -2.499262   -0.027058   -0.037363
      2          7           0       -1.169578   -0.625480   -0.071033
      3          6           0       -0.039865    0.147093    0.018592
      4          8           0       -0.010413    1.364937    0.036983
      5          7           0        1.183687   -0.647373    0.123378
      6          6           0        2.735677   -0.008875   -0.039248
      7          1           0       -2.900877    0.032770    0.986226
      8          1           0       -3.183017   -0.616592   -0.660687
      9          1           0       -2.420396    0.986232   -0.441362
     10          1           0       -1.097557   -1.617861    0.125744
     11          1           0        1.138037   -1.583268   -0.283642
     12          1           0        1.787911   -0.699728    1.022933
     13          1           0        2.989578   -0.239523   -1.086978
     14          1           0        2.491567    1.061479    0.023600
 ---------------------------------------------------------------------

 SCF Done:  E(RHF) =  -302.018615036     A.U. after    2 cycles

 The electronic state is 1-A.
 Alpha  occ. eigenvalues --  -20.56686 -15.70209 -15.68292 -11.42814 -11.29478
 Alpha  occ. eigenvalues --  -11.21487  -1.38336  -1.23890  -1.19602  -0.97582
 Alpha  occ. eigenvalues --   -0.86508  -0.81548  -0.77497  -0.72340  -0.67466
 Alpha  occ. eigenvalues --   -0.64903  -0.62963  -0.57687  -0.57023  -0.50945
 Alpha  occ. eigenvalues --   -0.49092  -0.48417  -0.42409  -0.30516
 Alpha virt. eigenvalues --    0.01600   0.03354   0.03860   0.05055   0.06740
 Alpha virt. eigenvalues --    0.07073   0.07467   0.09398   0.09855   0.12266
 Alpha virt. eigenvalues --    0.12805   0.13019   0.13962   0.15217   0.15690

 Mulliken charges:
               1
     1  C    0.694671
     2  N   -0.324101
     3  C    0.815737
     4  O   -0.438746
     5  N   -0.627831
     6  C    0.270197
     7  H   -0.064001
     8  H   -0.140879
     9  H   -0.113801
    10  H   -0.083994
    11  H    0.018889
    12  H    0.407155
    13  H   -0.181989
    14  H   -0.231307
 Sum of Mulliken charges =  -0.00000

 Dipole moment (field-independent basis, Debye):
    X=             -5.0457    Y=             -4.5692    Z=             -0.2466  Tot=              6.8115

 Test job not archived.
 1\1\GINC-SE159\SP\RHF\Aug-CC-pVDZ\C3H8N2O1\OHZDE\09-Apr-2025\0\\#t hf
 aug-cc-pvdz iop(5/13=1,5/36=2,99/5=2) pseudo=read geom=check guess=(re
 ad,tcheck) scf=(maxcycle=1)\\title\\0,1\C,0,-2.40404234,0.30398087,0.2
 3842556\N,0,-1.05323594,-0.16025547,0.5335705\C,0,0.00897738,0.1933832
 ,-0.25876439\O,0,-0.05862751,0.82100671,-1.30081444\N,0,1.29403736,-0.
 24047501,0.2886145\C,0,2.74126917,-0.21311823,-0.57600682\H,0,-2.63689
 369,1.25203934,0.74790847\H,0,-3.12977478,-0.45953279,0.54496246\H,0,-
 2.47521834,0.46123673,-0.84157255\H,0,-0.86920535,-0.49974624,1.471444

 Normal termination of Gaussian 16 at Wed Apr  9 14:17:20 2025.
