 Gaussian 16, Revision C.01,

 ----------------------------------------------------------------------
 #t hf aug-cc-pvdz symm=none int=(grid=ultrafine) guess=(read,tcheck) s
 table=(opt,rrhf)
 ----------------------------------------------------------------------
 -----
 title
 -----
 Symbolic Z-matrix:
 Charge =  0 Multiplicity = 1

 SCF Done:  E(RHF) =  -359.733032876     A.U. after   15 cycles
 Normal termination of Gaussian 16 at Wed Apr  9 04:04:44 2025.
 Gaussian 16:  ES64L-G16RevC.01  3-Jul-2019

 ----------------------------------------------------------------------
 #t hf aug-cc-pvdz iop(5/13=1,5/36=2,99/5=2) pseudo=read geom=check gue
 ss=(read,tcheck) scf=(maxcycle=1)
 ----------------------------------------------------------------------
 -----
 title
 -----
 Structure from the checkpoint file:  "Grambow2020_wb97xd3_009243_reverse_mol2.chk"
 Charge =  0 Multiplicity = 1

                         Standard orientation:
 ---------------------------------------------------------------------
 Center     Atomic      Atomic             Coordinates (Angstroms)
 Number     Number       Type             X           Y           Z
 ---------------------------------------------------------------------
      1          6           0        0.335189   -0.848049    1.068318
      2          6           0       -0.281393   -0.902985   -0.333412
      3          6           0       -1.642470   -0.395415   -0.514420
      4          8           0       -2.109532    0.539122    0.102583
      5          6           0        0.818232    0.103474    0.056540
      6          8           0        0.489115    1.446157    0.142720
      7          7           0        2.090646   -0.135209   -0.516936
      8          1           0       -0.452801    1.519093    0.361074
      9          1           0       -0.315945   -0.459072    1.841329
     10          1           0        0.963167   -1.684460    1.340327
     11          1           0        0.021511   -1.720334   -0.972870
     12          1           0       -2.252862   -0.901398   -1.284711
     13          1           0        2.815551    0.204440    0.102402
     14          1           0        2.172841    0.363817   -1.393587
 ---------------------------------------------------------------------

 SCF Done:  E(RHF) =  -359.844452228     A.U. after    2 cycles

 The electronic state is 1-A.
 Alpha  occ. eigenvalues --  -20.58024 -20.57564 -15.62360 -11.35758 -11.34881
 Alpha  occ. eigenvalues --  -11.25680 -11.25624  -1.37672  -1.34658  -1.18486
 Alpha  occ. eigenvalues --   -1.10776  -0.93466  -0.82161  -0.79520  -0.73119
 Alpha  occ. eigenvalues --   -0.70939  -0.67743  -0.66415  -0.63986  -0.59749
 Alpha  occ. eigenvalues --   -0.57460  -0.55735  -0.55282  -0.46446  -0.45214
 Alpha  occ. eigenvalues --   -0.42841  -0.39691
 Alpha virt. eigenvalues --    0.03153   0.03969   0.04363   0.05280   0.06227
 Alpha virt. eigenvalues --    0.07494   0.07560   0.08617   0.10274   0.11401
 Alpha virt. eigenvalues --    0.12908   0.13688   0.13879   0.15121   0.15340

 Mulliken charges:
               1
     1  C    0.722666
     2  C    0.369853
     3  C    0.437820
     4  O   -0.528581
     5  C    0.838034
     6  O   -0.669454
     7  N   -0.333101
     8  H    0.214686
     9  H   -0.302537
    10  H   -0.298258
    11  H   -0.380030
    12  H   -0.128254
    13  H    0.029932
    14  H    0.027227
 Sum of Mulliken charges =  -0.00000

 Dipole moment (field-independent basis, Debye):
    X=              1.0679    Y=             -2.4460    Z=             -0.7603  Tot=              2.7751

 Test job not archived.
 1\1\GINC-SE454\SP\RHF\Aug-CC-pVDZ\C4H7N1O2\OHZDE\09-Apr-2025\0\\#t hf
 aug-cc-pvdz iop(5/13=1,5/36=2,99/5=2) pseudo=read geom=check guess=(re
 ad,tcheck) scf=(maxcycle=1)\\title\\0,1\C,0,-0.65361448,-1.03081993,-0
 .13339621\C,0,-0.52572833,0.41009939,-0.63880097\C,0,-1.24878229,1.463
 84557,0.07515591\O,0,-1.44522517,1.46525479,1.27248924\C,0,0.60997102,
 -0.31773467,0.10594252\O,0,0.94575907,0.10560612,1.38131294\N,0,1.7268
 4282,-0.67303384,-0.68856486\H,0,0.16252057,0.50605203,1.78921414\H,0,
 -1.31452868,-1.16303252,0.71426989\H,0,-0.68468302,-1.79671257,-0.8952

 Normal termination of Gaussian 16 at Wed Apr  9 04:04:48 2025.
