 Gaussian 16, Revision C.01,

 ----------------------------------------------------------------------
 #t hf aug-cc-pvdz symm=none int=(grid=ultrafine) guess=(read,tcheck) s
 table=(opt,rrhf)
 ----------------------------------------------------------------------
 -----
 title
 -----
 Symbolic Z-matrix:
 Charge =  0 Multiplicity = 1

 SCF Done:  E(RHF) =  -284.809718682     A.U. after   15 cycles
 Normal termination of Gaussian 16 at Wed Apr  9 14:22:16 2025.
 Gaussian 16:  ES64L-G16RevC.01  3-Jul-2019

 ----------------------------------------------------------------------
 #t hf aug-cc-pvdz iop(5/13=1,5/36=2,99/5=2) pseudo=read geom=check gue
 ss=(read,tcheck) scf=(maxcycle=1)
 ----------------------------------------------------------------------
 -----
 title
 -----
 Structure from the checkpoint file:  "Grambow2020_wb97xd3_006088_reverse_mol2.chk"
 Charge =  0 Multiplicity = 1

                         Standard orientation:
 ---------------------------------------------------------------------
 Center     Atomic      Atomic             Coordinates (Angstroms)
 Number     Number       Type             X           Y           Z
 ---------------------------------------------------------------------
      1          6           0        1.587224   -1.188611    0.168120
      2          6           0        1.837391    0.211413   -0.296365
      3          7           0        0.840911    1.044390   -0.115129
      4          6           0       -0.482150    0.814320    0.467546
      5          6           0       -1.358398   -0.078677   -0.390610
      6          8           0       -2.329007   -0.638201    0.029324
      7          1           0        0.709754   -1.392717    0.794582
      8          1           0        2.479934   -1.546554    0.683028
      9          1           0        1.515038   -1.805816   -0.733841
     10          1           0       -0.420232    0.392509    1.470759
     11          1           0        0.995307    1.986918   -0.438929
     12          1           0       -0.992186    1.776956    0.555728
     13          1           0       -1.046338   -0.167082   -1.452166
 ---------------------------------------------------------------------

 SCF Done:  E(RHF) =  -284.898735046     A.U. after    2 cycles

 The electronic state is 1-A.
 Alpha  occ. eigenvalues --  -20.59253 -15.68264 -11.36250 -11.30611 -11.26431
 Alpha  occ. eigenvalues --  -11.23577  -1.38561  -1.24604  -1.03096  -0.98180
 Alpha  occ. eigenvalues --   -0.83883  -0.79593  -0.71808  -0.67731  -0.66572
 Alpha  occ. eigenvalues --   -0.63371  -0.59170  -0.57628  -0.54648  -0.53421
 Alpha  occ. eigenvalues --   -0.48419  -0.43772  -0.34017
 Alpha virt. eigenvalues --    0.02809   0.04049   0.04239   0.05200   0.06572
 Alpha virt. eigenvalues --    0.07151   0.07669   0.09415   0.10589   0.10848
 Alpha virt. eigenvalues --    0.12153   0.13126   0.13375   0.13959   0.14875

 Mulliken charges:
               1
     1  C    0.466206
     2  C   -0.253916
     3  N   -0.107936
     4  C    0.463009
     5  C    0.548311
     6  O   -0.482077
     7  H   -0.210630
     8  H   -0.090979
     9  H   -0.008900
    10  H   -0.095523
    11  H   -0.043685
    12  H   -0.061936
    13  H   -0.121944
 Sum of Mulliken charges =   0.00000

 Dipole moment (field-independent basis, Debye):
    X=             -0.1162    Y=              1.9526    Z=              0.2697  Tot=              1.9745

 Test job not archived.
 1\1\GINC-SE114\SP\RHF\Aug-CC-pVDZ\C4H7N1O1\OHZDE\09-Apr-2025\0\\#t hf
 aug-cc-pvdz iop(5/13=1,5/36=2,99/5=2) pseudo=read geom=check guess=(re
 ad,tcheck) scf=(maxcycle=1)\\title\\0,1\C,0,-1.06617172,-0.49313987,1.
 29798841\C,0,-1.50648025,-0.59916221,-0.12794421\N,0,-0.55774568,-0.43
 060645,-1.01741634\C,0,0.86659098,-0.14917743,-0.83034766\C,0,1.125916
 25,1.23347168,-0.26226328\O,0,2.16081833,1.54413478,0.25150623\H,0,0.0
 0748077,-0.48848754,1.5245189\H,0,-1.54396352,-1.29165113,1.86744463\H
 ,0,-1.50258963,0.43233541,1.68878514\H,0,1.3506136,-0.89062834,-0.1946

 Normal termination of Gaussian 16 at Wed Apr  9 14:22:19 2025.
