 Gaussian 16, Revision C.01,

 ----------------------------------------------------------------------
 #t hf aug-cc-pvdz symm=none int=(grid=ultrafine) guess=(read,tcheck) s
 table=(opt,rrhf)
 ----------------------------------------------------------------------
 -----
 title
 -----
 Symbolic Z-matrix:
 Charge =  0 Multiplicity = 1

 SCF Done:  E(RHF) =  -307.039751578     A.U. after   14 cycles

 1\1\GINC-SE129\Stability\RHF\Aug-CC-pVDZ\C4H10O2\OHZDE\09-Apr-2025\0\\
 #t hf aug-cc-pvdz symm=none int=(grid=ultrafine) guess=(read,tcheck) s
 table=(opt,rrhf)\\title\\0,1\C,0,2.0890807,-1.31650796,-0.59828826\O,0
 ,2.23369395,-0.07771337,0.07817913\C,0,-0.81380263,1.10662434,0.041748
 74\C,0,-0.88990685,0.35471349,1.34611588\C,0,-1.79835187,0.5174423,-0.
 98946563\O,0,0.04363987,-0.20116128,1.91058639\H,0,2.43526586,-2.17749
 474,0.00362107\H,0,1.04582435,-1.52106705,-0.90988203\H,0,2.70638707,-
 1.26669607,-1.5050276\H,0,0.21966551,1.09034898,-0.32656003\H,0,-1.099

 Normal termination of Gaussian 16 at Wed Apr  9 03:05:57 2025.
 Gaussian 16:  ES64L-G16RevC.01  3-Jul-2019

 ----------------------------------------------------------------------
 #t hf aug-cc-pvdz iop(5/13=1,5/36=2,99/5=2) pseudo=read geom=check gue
 ss=(read,tcheck) scf=(maxcycle=1)
 ----------------------------------------------------------------------
 -----
 title
 -----
 Structure from the checkpoint file:  "Grambow2020_b97d3_006567_reverse_mol2.chk"
 Charge =  0 Multiplicity = 1

                         Standard orientation:
 ---------------------------------------------------------------------
 Center     Atomic      Atomic             Coordinates (Angstroms)
 Number     Number       Type             X           Y           Z
 ---------------------------------------------------------------------
      1          6           0       -2.333201   -0.698512   -0.465299
      2          8           0       -1.943532   -0.001240    0.707349
      3          6           0        1.316404   -0.238556    0.619495
      4          6           0        1.172846    1.049726   -0.150087
      5          6           0        1.930056   -1.341850   -0.267099
      6          8           0        0.132598    1.672424   -0.321156
      7          1           0       -2.949861   -0.082538   -1.146286
      8          1           0       -1.472506   -1.084231   -1.046456
      9          1           0       -2.936151   -1.559384   -0.147377
     10          1           0        0.337726   -0.533938    1.018134
     11          1           0        1.998676   -0.038483    1.464287
     12          1           0        2.121155    1.431258   -0.602252
     13          1           0        2.894661   -1.028322   -0.691839
     14          1           0        1.255789   -1.594941   -1.096194
     15          1           0        2.099061   -2.250691    0.324109
     16          1           0       -1.377711    0.746947    0.412269
 ---------------------------------------------------------------------

 SCF Done:  E(RHF) =  -307.139984380     A.U. after    2 cycles

 The electronic state is 1-A.
 Alpha  occ. eigenvalues --  -20.59242 -20.54950 -11.36497 -11.27382 -11.26008
 Alpha  occ. eigenvalues --  -11.25619  -1.36907  -1.29446  -1.06576  -0.90980
 Alpha  occ. eigenvalues --   -0.90569  -0.80853  -0.69492  -0.69083  -0.65268
 Alpha  occ. eigenvalues --   -0.62858  -0.60660  -0.58750  -0.57793  -0.55561
 Alpha  occ. eigenvalues --   -0.52438  -0.51231  -0.49562  -0.45038  -0.44122
 Alpha virt. eigenvalues --    0.02908   0.04175   0.04424   0.04875   0.06526
 Alpha virt. eigenvalues --    0.06828   0.07162   0.07921   0.08698   0.09835
 Alpha virt. eigenvalues --    0.10301   0.12042   0.12901   0.13955   0.14790

 Mulliken charges:
               1
     1  C    0.827472
     2  O   -0.563648
     3  C    0.112364
     4  C    0.572252
     5  C    0.292541
     6  O   -0.470700
     7  H   -0.098963
     8  H   -0.198915
     9  H   -0.190060
    10  H   -0.172741
    11  H    0.049498
    12  H   -0.169083
    13  H   -0.072408
    14  H   -0.087730
    15  H   -0.057561
    16  H    0.227683
 Sum of Mulliken charges =  -0.00000

 Dipole moment (field-independent basis, Debye):
    X=              3.6891    Y=             -1.6753    Z=             -1.0017  Tot=              4.1737

 Test job not archived.
 1\1\GINC-SE129\SP\RHF\Aug-CC-pVDZ\C4H10O2\OHZDE\09-Apr-2025\0\\#t hf a
 ug-cc-pvdz iop(5/13=1,5/36=2,99/5=2) pseudo=read geom=check guess=(rea
 d,tcheck) scf=(maxcycle=1)\\title\\0,1\C,0,2.0890807,-1.31650796,-0.59
 828826\O,0,2.23369395,-0.07771337,0.07817913\C,0,-0.81380263,1.1066243
 4,0.04174874\C,0,-0.88990685,0.35471349,1.34611588\C,0,-1.79835187,0.5
 174423,-0.98946563\O,0,0.04363987,-0.20116128,1.91058639\H,0,2.4352658
 6,-2.17749474,0.00362107\H,0,1.04582435,-1.52106705,-0.90988203\H,0,2.
 70638707,-1.26669607,-1.5050276\H,0,0.21966551,1.09034898,-0.32656003\

 Normal termination of Gaussian 16 at Wed Apr  9 03:06:02 2025.
