 Gaussian 16, Revision C.01,

 ----------------------------------------------------------------------
 #t hf aug-cc-pvdz symm=none int=(grid=ultrafine) guess=(read,tcheck) s
 table=(opt,rrhf)
 ----------------------------------------------------------------------
 -----
 title
 -----
 Symbolic Z-matrix:
 Charge =  0 Multiplicity = 1

 SCF Done:  E(RHF) =  -360.835996144     A.U. after   13 cycles
 Normal termination of Gaussian 16 at Wed Apr  9 16:37:08 2025.
 Gaussian 16:  ES64L-G16RevC.01  3-Jul-2019

 ----------------------------------------------------------------------
 #t hf aug-cc-pvdz iop(5/13=1,5/36=2,99/5=2) pseudo=read geom=check gue
 ss=(read,tcheck) scf=(maxcycle=1)
 ----------------------------------------------------------------------
 -----
 title
 -----
 Structure from the checkpoint file:  "Grambow2020_wb97xd3_008682_reverse_mol2.chk"
 Charge =  0 Multiplicity = 1

                         Standard orientation:
 ---------------------------------------------------------------------
 Center     Atomic      Atomic             Coordinates (Angstroms)
 Number     Number       Type             X           Y           Z
 ---------------------------------------------------------------------
      1          6           0       -2.576181   -1.217588   -0.049578
      2          7           0       -2.182397    0.021578    0.200429
      3          6           0       -2.637467    1.205138   -0.176898
      4          6           0        0.975205   -0.068835   -0.326438
      5          8           0        0.652308    0.058664    0.826671
      6          8           0        2.218433   -0.083327   -0.770101
      7          6           0        3.240824    0.067612    0.221659
      8          1           0       -2.026372   -2.021308    0.408990
      9          1           0        0.267162   -0.190736   -1.156142
     10          1           0       -3.460319   -1.386596   -0.643698
     11          1           0       -1.331368    0.070793    0.761395
     12          1           0       -2.121910    2.079056    0.181621
     13          1           0       -3.525744    1.265791   -0.785666
     14          1           0        3.195245   -0.752095    0.938066
     15          1           0        3.118842    1.013180    0.748986
     16          1           0        4.181038    0.050208   -0.321579
 ---------------------------------------------------------------------

 SCF Done:  E(RHF) =  -360.955497681     A.U. after    2 cycles

 The electronic state is 1-A.
 Alpha  occ. eigenvalues --  -20.64344 -20.58982 -15.72116 -11.41463 -11.31429
 Alpha  occ. eigenvalues --  -11.23298 -11.23201  -1.45183  -1.35559  -1.25260
 Alpha  occ. eigenvalues --   -1.01064  -0.96004  -0.83693  -0.82837  -0.77085
 Alpha  occ. eigenvalues --   -0.71979  -0.70609  -0.70481  -0.65090  -0.62200
 Alpha  occ. eigenvalues --   -0.58077  -0.55940  -0.55561  -0.53832  -0.53580
 Alpha  occ. eigenvalues --   -0.50310  -0.49900  -0.23204
 Alpha virt. eigenvalues --    0.03039   0.04370   0.04686   0.04902   0.05748
 Alpha virt. eigenvalues --    0.06372   0.06484   0.08314   0.08594   0.09806
 Alpha virt. eigenvalues --    0.10459   0.10775   0.14207   0.14260   0.14963

 Mulliken charges:
               1
     1  C    0.564503
     2  N    0.286446
     3  C    0.562345
     4  C    0.687050
     5  O   -0.423222
     6  O   -0.474424
     7  C    0.769245
     8  H   -0.356031
     9  H   -0.239001
    10  H   -0.366147
    11  H    0.065716
    12  H   -0.354954
    13  H   -0.364823
    14  H   -0.071574
    15  H   -0.071195
    16  H   -0.213934
 Sum of Mulliken charges =  -0.00000

 Dipole moment (field-independent basis, Debye):
    X=              3.2374    Y=             -0.0095    Z=             -0.5546  Tot=              3.2846

 Test job not archived.
 1\1\GINC-SE105\SP\RHF\Aug-CC-pVDZ\C4H9N1O2\OHZDE\09-Apr-2025\0\\#t hf
 aug-cc-pvdz iop(5/13=1,5/36=2,99/5=2) pseudo=read geom=check guess=(re
 ad,tcheck) scf=(maxcycle=1)\\title\\0,1\C,0,-2.65775261,0.47451939,0.1
 8522674\N,0,-1.88836685,-0.40364819,0.80970202\C,0,-1.84309269,-0.8334
 1786,2.060113\C,0,1.07415989,0.41152909,-0.09314309\O,0,0.66927505,-0.
 62840279,-0.54567815\O,0,2.27890123,0.91108767,-0.29735758\C,0,3.14980
 477,0.13155402,-1.12531112\H,0,-2.49184945,0.62861022,-0.86704321\H,0,
 0.48357135,1.07687641,0.54959417\H,0,-3.45890578,0.95804836,0.72150588

 Normal termination of Gaussian 16 at Wed Apr  9 16:37:13 2025.
