 Gaussian 16, Revision C.01,

 ----------------------------------------------------------------------
 #t hf aug-cc-pvdz symm=none int=(grid=ultrafine) guess=(read,tcheck) s
 table=(opt,rrhf)
 ----------------------------------------------------------------------
 -----
 title
 -----
 Symbolic Z-matrix:
 Charge =  0 Multiplicity = 1

 SCF Done:  E(RHF) =  -301.548405355     A.U. after   16 cycles
 Normal termination of Gaussian 16 at Wed Apr  9 03:46:30 2025.
 Gaussian 16:  ES64L-G16RevC.01  3-Jul-2019

 ----------------------------------------------------------------------
 #t hf aug-cc-pvdz iop(5/13=1,5/36=2,99/5=2) pseudo=read geom=check gue
 ss=(read,tcheck) scf=(maxcycle=1)
 ----------------------------------------------------------------------
 -----
 title
 -----
 Structure from the checkpoint file:  "Grambow2020_wb97xd3_007932_reverse_mol1.chk"
 Charge =  0 Multiplicity = 1

                         Standard orientation:
 ---------------------------------------------------------------------
 Center     Atomic      Atomic             Coordinates (Angstroms)
 Number     Number       Type             X           Y           Z
 ---------------------------------------------------------------------
      1          6           0       -1.723671    0.363902   -0.057919
      2          6           0       -1.090292   -0.885061    0.529172
      3          6           0       -0.041243   -0.756724   -0.402948
      4          7           0        1.287742   -0.981324   -0.236548
      5          6           0        1.680688    0.206462    0.162604
      6          6           0        0.573789    1.116034    0.289198
      7          7           0       -0.374879    0.608045   -0.640307
      8          1           0       -2.057402    1.143066    0.623433
      9          1           0       -2.457654    0.202390   -0.845629
     10          1           0       -0.164748    0.156958    1.266484
     11          1           0       -1.495380   -1.738826    1.056457
     12          1           0        2.701916    0.398781    0.467787
     13          1           0        0.687602    2.182906    0.448808
 ---------------------------------------------------------------------

 SCF Done:  E(RHF) =  -301.633434025     A.U. after    2 cycles

 The electronic state is 1-A.
 Alpha  occ. eigenvalues --  -15.65202 -15.63438 -11.32114 -11.30476 -11.29250
 Alpha  occ. eigenvalues --  -11.28857 -11.27437  -1.34639  -1.19561  -1.04441
 Alpha  occ. eigenvalues --   -0.93341  -0.90432  -0.80472  -0.72854  -0.70617
 Alpha  occ. eigenvalues --   -0.69204  -0.62900  -0.58764  -0.55353  -0.53321
 Alpha  occ. eigenvalues --   -0.50492  -0.45523  -0.42386  -0.38754  -0.33583
 Alpha virt. eigenvalues --    0.03140   0.03532   0.04269   0.05118   0.06352
 Alpha virt. eigenvalues --    0.07631   0.08266   0.09834   0.10009   0.10874
 Alpha virt. eigenvalues --    0.11899   0.12349   0.13368   0.13886   0.14342

 Mulliken charges:
               1
     1  C    1.001997
     2  C    0.109418
     3  C    0.357773
     4  N   -0.697918
     5  C    0.550766
     6  C    0.087340
     7  N   -0.874503
     8  H   -0.161331
     9  H   -0.231933
    10  H    0.600919
    11  H   -0.218124
    12  H   -0.189490
    13  H   -0.334914
 Sum of Mulliken charges =  -0.00000

 Dipole moment (field-independent basis, Debye):
    X=             -1.3273    Y=              1.8093    Z=              1.4630  Tot=              2.6787

 Test job not archived.
 1\1\GINC-SE021\SP\RHF\Aug-CC-pVDZ\C5H6N2\OHZDE\09-Apr-2025\0\\#t hf au
 g-cc-pvdz iop(5/13=1,5/36=2,99/5=2) pseudo=read geom=check guess=(read
 ,tcheck) scf=(maxcycle=1)\\title\\0,1\C,0,-1.41085223,-0.61144915,0.25
 398515\C,0,-1.0896382,0.87060399,0.17592065\C,0,0.10324388,0.62024696,
 0.88315171\N,0,1.33426288,1.1675703,0.7117888\C,0,1.84292861,0.3360435
 3,-0.16820361\C,0,0.89068264,-0.66768427,-0.56105223\N,0,0.03587203,-0
 .76833755,0.57083655\H,0,-1.72099502,-1.12145421,-0.65509145\H,0,-2.02
 396127,-0.92373251,1.09771645\H,0,-0.14051912,0.412605,-0.99688438\H,0

 Normal termination of Gaussian 16 at Wed Apr  9 03:46:34 2025.
