 Gaussian 16, Revision C.01,

 ----------------------------------------------------------------------
 #t hf aug-cc-pvdz symm=none int=(grid=ultrafine) guess=(read,tcheck) s
 table=(opt,rrhf)
 ----------------------------------------------------------------------
 -----
 title
 -----
 Symbolic Z-matrix:
 Charge =  0 Multiplicity = 1

 SCF Done:  E(RHF) =  -339.902660110     A.U. after   14 cycles
 Normal termination of Gaussian 16 at Wed Apr  9 15:35:02 2025.
 Gaussian 16:  ES64L-G16RevC.01  3-Jul-2019

 ----------------------------------------------------------------------
 #t hf aug-cc-pvdz iop(5/13=1,5/36=2,99/5=2) pseudo=read geom=check gue
 ss=(read,tcheck) scf=(maxcycle=1)
 ----------------------------------------------------------------------
 -----
 title
 -----
 Structure from the checkpoint file:  "Grambow2020_wb97xd3_007003_reverse_mol2.chk"
 Charge =  0 Multiplicity = 1

                         Standard orientation:
 ---------------------------------------------------------------------
 Center     Atomic      Atomic             Coordinates (Angstroms)
 Number     Number       Type             X           Y           Z
 ---------------------------------------------------------------------
      1          6           0       -1.460774   -0.316315    1.134095
      2          6           0       -0.595041   -0.012887   -0.069013
      3          8           0       -1.106750   -0.578906   -1.249204
      4          6           0       -0.173253    1.470368   -0.245660
      5          7           0        1.177354    1.067166    0.169060
      6          6           0        0.897433   -0.279901    0.118913
      7          7           0        1.525137   -1.372446    0.135758
      8          1           0       -1.491739   -1.393663    1.304406
      9          1           0       -2.476935    0.040604    0.959037
     10          1           0       -1.064536    0.160769    2.032411
     11          1           0       -0.728334   -1.459976   -1.329031
     12          1           0       -0.645126    2.196849    0.417546
     13          1           0       -0.247599    1.789952   -1.285953
     14          1           0        2.532729   -1.250671    0.192625
     15          1           0        2.047913    1.516760   -0.061141
 ---------------------------------------------------------------------

 SCF Done:  E(RHF) =  -340.005204640     A.U. after    2 cycles

 The electronic state is 1-A.
 Alpha  occ. eigenvalues --  -20.57908 -15.64794 -15.59675 -11.32658 -11.30912
 Alpha  occ. eigenvalues --  -11.28127 -11.23212  -1.34581  -1.26241  -1.14439
 Alpha  occ. eigenvalues --   -1.02399  -0.92592  -0.87796  -0.77463  -0.71821
 Alpha  occ. eigenvalues --   -0.68198  -0.65864  -0.61403  -0.61099  -0.57652
 Alpha  occ. eigenvalues --   -0.57235  -0.52919  -0.49686  -0.48344  -0.45967
 Alpha  occ. eigenvalues --   -0.41297  -0.36567
 Alpha virt. eigenvalues --    0.03006   0.03897   0.04423   0.04813   0.06652
 Alpha virt. eigenvalues --    0.06818   0.07416   0.07969   0.10406   0.12158
 Alpha virt. eigenvalues --    0.12671   0.13472   0.14041   0.14654   0.15370

 Mulliken charges:
               1
     1  C    0.627793
     2  C   -0.655376
     3  O   -0.627599
     4  C    1.074658
     5  N   -0.368366
     6  C    0.566080
     7  N   -0.385563
     8  H    0.030437
     9  H   -0.000531
    10  H    0.017826
    11  H    0.156247
    12  H   -0.158929
    13  H   -0.117794
    14  H   -0.017228
    15  H   -0.141653
 Sum of Mulliken charges =  -0.00000

 Dipole moment (field-independent basis, Debye):
    X=              1.0450    Y=              2.4760    Z=              0.4453  Tot=              2.7241

 Test job not archived.
 1\1\GINC-SE043\SP\RHF\Aug-CC-pVDZ\C4H8N2O1\OHZDE\09-Apr-2025\0\\#t hf
 aug-cc-pvdz iop(5/13=1,5/36=2,99/5=2) pseudo=read geom=check guess=(re
 ad,tcheck) scf=(maxcycle=1)\\title\\0,1\C,0,1.16293968,1.25018731,-0.4
 1378593\C,0,0.01878323,0.48242222,0.21109323\O,0,-0.38574688,1.0353027
 2,1.43818418\C,0,-1.17485264,0.1591617,-0.72693248\N,0,-0.71508776,-1.
 23629606,-0.72272426\C,0,0.20978952,-1.03195512,0.27642749\N,0,0.92723
 653,-1.72145948,1.04960651\H,0,2.03614652,1.20791948,0.23918238\H,0,0.
 87752672,2.29439253,-0.55087572\H,0,1.43811513,0.82530608,-1.38091599\

 Normal termination of Gaussian 16 at Wed Apr  9 15:35:08 2025.
