 Gaussian 16, Revision C.01,

 ----------------------------------------------------------------------
 #t hf aug-cc-pvdz symm=none int=(grid=ultrafine) guess=(read,tcheck) s
 table=(opt,rrhf)
 ----------------------------------------------------------------------
 -----
 title
 -----
 Symbolic Z-matrix:
 Charge =  0 Multiplicity = 1

 SCF Done:  E(RHF) =  -344.873750031     A.U. after   14 cycles

 1\1\GINC-SE150\Stability\RHF\Aug-CC-pVDZ\C5H10O2\OHZDE\09-Apr-2025\0\\
 #t hf aug-cc-pvdz symm=none int=(grid=ultrafine) guess=(read,tcheck) s
 table=(opt,rrhf)\\title\\0,1\C,0,-2.64891707,-0.75779669,1.1696506\C,0
 ,-0.45323893,1.05556783,-0.91438428\O,0,-0.73072429,1.977622,-0.204603
 64\C,0,0.44151032,-0.09814505,-0.53497146\C,0,1.89129717,0.07398199,-1
 .03993852\C,0,2.21805959,0.19227804,0.45441116\O,0,0.86031803,-0.10285
 993,0.82037906\H,0,-3.09904862,0.22711516,1.05757465\H,0,-2.62691907,-
 1.25980195,0.20182585\H,0,-3.24063236,-1.35364197,1.86309647\H,0,-0.82

 Normal termination of Gaussian 16 at Wed Apr  9 03:33:32 2025.
 Gaussian 16:  ES64L-G16RevC.01  3-Jul-2019

 ----------------------------------------------------------------------
 #t hf aug-cc-pvdz iop(5/13=1,5/36=2,99/5=2) pseudo=read geom=check gue
 ss=(read,tcheck) scf=(maxcycle=1)
 ----------------------------------------------------------------------
 -----
 title
 -----
 Structure from the checkpoint file:  "Grambow2020_wb97xd3_007052_reverse_mol2.chk"
 Charge =  0 Multiplicity = 1

                         Standard orientation:
 ---------------------------------------------------------------------
 Center     Atomic      Atomic             Coordinates (Angstroms)
 Number     Number       Type             X           Y           Z
 ---------------------------------------------------------------------
      1          6           0        3.079663   -0.854034    0.147946
      2          6           0        0.274318    1.282128    0.287042
      3          8           0        0.634091    1.630389   -0.799351
      4          6           0       -0.386343   -0.036083    0.605524
      5          6           0       -1.925869    0.066040    0.682555
      6          6           0       -1.877761   -0.810446   -0.575741
      7          8           0       -0.450352   -0.945157   -0.481621
      8          1           0        3.394337    0.072979   -0.328349
      9          1           0        2.862690   -0.666816    1.200111
     10          1           0        3.878576   -1.590817    0.077851
     11          1           0        0.377397    1.949595    1.172188
     12          1           0        2.188872   -1.229796   -0.353836
     13          1           0        0.103096   -0.467646    1.486765
     14          1           0       -2.361781   -0.412103    1.556246
     15          1           0       -2.346411    1.062893    0.560550
     16          1           0       -2.170727   -0.308458   -1.500880
     17          1           0       -2.380001   -1.777319   -0.506828
 ---------------------------------------------------------------------

 SCF Done:  E(RHF) =  -344.986375970     A.U. after    2 cycles

 The electronic state is 1-A.
 Alpha  occ. eigenvalues --  -20.57953 -20.57839 -11.34705 -11.31487 -11.30219
 Alpha  occ. eigenvalues --  -11.26164 -11.20809  -1.38114  -1.35671  -1.03714
 Alpha  occ. eigenvalues --   -0.98484  -0.93011  -0.85080  -0.76456  -0.73094
 Alpha  occ. eigenvalues --   -0.70050  -0.67402  -0.63463  -0.60134  -0.57296
 Alpha  occ. eigenvalues --   -0.55545  -0.53954  -0.53574  -0.53517  -0.50052
 Alpha  occ. eigenvalues --   -0.49060  -0.46564  -0.42136
 Alpha virt. eigenvalues --    0.02875   0.04049   0.04344   0.04762   0.05761
 Alpha virt. eigenvalues --    0.06397   0.07115   0.07408   0.08381   0.09583
 Alpha virt. eigenvalues --    0.10222   0.11238   0.11408   0.13461   0.13684

 Mulliken charges:
               1
     1  C    0.717528
     2  C    0.540857
     3  O   -0.470983
     4  C    0.666098
     5  C    0.459610
     6  C    0.917810
     7  O   -0.848192
     8  H   -0.137151
     9  H   -0.191248
    10  H   -0.194210
    11  H   -0.149442
    12  H   -0.189638
    13  H   -0.256583
    14  H   -0.177236
    15  H   -0.208701
    16  H   -0.239122
    17  H   -0.239397
 Sum of Mulliken charges =   0.00000

 Dipole moment (field-independent basis, Debye):
    X=             -2.9523    Y=             -0.2867    Z=              3.4428  Tot=              4.5443

 Test job not archived.
 1\1\GINC-SE150\SP\RHF\Aug-CC-pVDZ\C5H10O2\OHZDE\09-Apr-2025\0\\#t hf a
 ug-cc-pvdz iop(5/13=1,5/36=2,99/5=2) pseudo=read geom=check guess=(rea
 d,tcheck) scf=(maxcycle=1)\\title\\0,1\C,0,-2.64891707,-0.75779669,1.1
 696506\C,0,-0.45323893,1.05556783,-0.91438428\O,0,-0.73072429,1.977622
 ,-0.20460364\C,0,0.44151032,-0.09814505,-0.53497146\C,0,1.89129717,0.0
 7398199,-1.03993852\C,0,2.21805959,0.19227804,0.45441116\O,0,0.8603180
 3,-0.10285993,0.82037906\H,0,-3.09904862,0.22711516,1.05757465\H,0,-2.
 62691907,-1.25980195,0.20182585\H,0,-3.24063236,-1.35364197,1.86309647

 Normal termination of Gaussian 16 at Wed Apr  9 03:33:38 2025.
