 Gaussian 16, Revision C.01,

 ----------------------------------------------------------------------
 #t hf aug-cc-pvdz symm=none int=(grid=ultrafine) guess=(read,tcheck) s
 table=(opt,rrhf)
 ----------------------------------------------------------------------
 -----
 title
 -----
 Symbolic Z-matrix:
 Charge =  0 Multiplicity = 1

 SCF Done:  E(RHF) =  -375.692517340     A.U. after   14 cycles
 Normal termination of Gaussian 16 at Wed Apr  9 16:10:58 2025.
 Gaussian 16:  ES64L-G16RevC.01  3-Jul-2019

 ----------------------------------------------------------------------
 #t hf aug-cc-pvdz iop(5/13=1,5/36=2,99/5=2) pseudo=read geom=check gue
 ss=(read,tcheck) scf=(maxcycle=1)
 ----------------------------------------------------------------------
 -----
 title
 -----
 Structure from the checkpoint file:  "Grambow2020_wb97xd3_007915_forward_mol1.chk"
 Charge =  0 Multiplicity = 1

                         Standard orientation:
 ---------------------------------------------------------------------
 Center     Atomic      Atomic             Coordinates (Angstroms)
 Number     Number       Type             X           Y           Z
 ---------------------------------------------------------------------
      1          6           0       -2.735981   -0.025150    0.148386
      2          8           0       -1.510350   -0.738927    0.040618
      3          6           0       -0.390795   -0.041843   -0.131991
      4          7           0       -0.294969    1.267806   -0.170034
      5          7           0        0.744952   -0.704009   -0.254177
      6          6           0        1.983862    0.316286    0.094443
      7          8           0        3.046960   -0.177616    0.172794
      8          1           0       -3.515148   -0.781080    0.188194
      9          1           0       -2.892016    0.615864   -0.721527
     10          1           0       -2.763714    0.568304    1.065127
     11          1           0       -1.059068    1.833380    0.155364
     12          1           0        0.741663   -1.704432   -0.122611
     13          1           0        0.903001    1.357969    0.032600
 ---------------------------------------------------------------------

 SCF Done:  E(RHF) =  -375.812234145     A.U. after    2 cycles

 The electronic state is 1-A.
 Alpha  occ. eigenvalues --  -20.65245 -20.55737 -15.63777 -15.63576 -11.42539
 Alpha  occ. eigenvalues --  -11.33345 -11.32211  -1.44375  -1.36244  -1.25528
 Alpha  occ. eigenvalues --   -1.14100  -1.00727  -0.83709  -0.81372  -0.75302
 Alpha  occ. eigenvalues --   -0.72684  -0.71668  -0.65651  -0.64494  -0.62445
 Alpha  occ. eigenvalues --   -0.59310  -0.56983  -0.54501  -0.53102  -0.48898
 Alpha  occ. eigenvalues --   -0.39684  -0.34000
 Alpha virt. eigenvalues --    0.02039   0.03653   0.04478   0.05227   0.06384
 Alpha virt. eigenvalues --    0.07815   0.08661   0.09715   0.12326   0.12410
 Alpha virt. eigenvalues --    0.13130   0.14267   0.14666   0.14747   0.15380

 Mulliken charges:
               1
     1  C    0.768567
     2  O   -0.532807
     3  C    0.838390
     4  N   -0.382619
     5  N   -0.461770
     6  C    0.223238
     7  O   -0.409668
     8  H   -0.278438
     9  H   -0.064378
    10  H   -0.098522
    11  H   -0.037060
    12  H   -0.089613
    13  H    0.524679
 Sum of Mulliken charges =  -0.00000

 Dipole moment (field-independent basis, Debye):
    X=             -7.2351    Y=              0.7111    Z=              0.6240  Tot=              7.2967

 Test job not archived.
 1\1\GINC-SE220\SP\RHF\Aug-CC-pVDZ\C3H6N2O2\OHZDE\09-Apr-2025\0\\#t hf
 aug-cc-pvdz iop(5/13=1,5/36=2,99/5=2) pseudo=read geom=check guess=(re
 ad,tcheck) scf=(maxcycle=1)\\title\\0,1\C,0,-1.72822713,0.08015512,-1.
 09528608\O,0,-1.26454195,-0.04282146,0.24379396\C,0,0.04345193,-0.1750
 5733,0.44575381\N,0,0.97330793,-0.15940405,-0.48211142\N,0,0.47342293,
 -0.31134566,1.68666677\C,0,2.06492099,0.09148361,1.73460851\O,0,2.5430
 3476,0.16152504,2.80547581\H,0,-2.81277558,0.08105498,-1.03307667\H,0,
 -1.39711562,-0.76495301,-1.70204115\H,0,-1.39292719,1.01964155,-1.5406

 Normal termination of Gaussian 16 at Wed Apr  9 16:11:02 2025.
