 Gaussian 16, Revision C.01,

 ----------------------------------------------------------------------
 #t hf aug-cc-pvdz symm=none int=(grid=ultrafine) guess=(read,tcheck) s
 table=(opt,rrhf)
 ----------------------------------------------------------------------
 -----
 title
 -----
 Symbolic Z-matrix:
 Charge =  0 Multiplicity = 1

 SCF Done:  E(RHF) =  -307.756621385     A.U. after   16 cycles

 1\1\GINC-SE097\Stability\RHF\Aug-CC-pVDZ\C6H10O1\OHZDE\09-Apr-2025\0\\
 #t hf aug-cc-pvdz symm=none int=(grid=ultrafine) guess=(read,tcheck) s
 table=(opt,rrhf)\\title\\0,1\O,0,2.10009998,-1.17347074,0.64764409\C,0
 ,1.05077327,-0.50081643,0.28451259\C,0,-0.17579553,-1.31650753,0.07317
 645\C,0,-1.4824645,-0.557964,0.25592836\C,0,-1.41545916,0.80158717,-0.
 43119418\C,0,-0.19508649,1.54543073,0.00388405\C,0,0.96468665,0.931069
 ,0.29776736\H,0,2.80216267,-0.620432,0.13583672\H,0,2.60015319,0.15542
 349,-1.10208434\H,0,-0.09932698,-2.21068392,0.69473613\H,0,-0.07118518

 Normal termination of Gaussian 16 at Wed Apr  9 16:27:24 2025.
 Gaussian 16:  ES64L-G16RevC.01  3-Jul-2019

 ----------------------------------------------------------------------
 #t hf aug-cc-pvdz iop(5/13=1,5/36=2,99/5=2) pseudo=read geom=check gue
 ss=(read,tcheck) scf=(maxcycle=1)
 ----------------------------------------------------------------------
 -----
 title
 -----
 Structure from the checkpoint file:  "Grambow2020_wb97xd3_008422_reverse_mol1.chk"
 Charge =  0 Multiplicity = 1

                         Standard orientation:
 ---------------------------------------------------------------------
 Center     Atomic      Atomic             Coordinates (Angstroms)
 Number     Number       Type             X           Y           Z
 ---------------------------------------------------------------------
      1          8           0       -2.276957   -0.246215   -0.151582
      2          6           0       -1.004715   -0.039211    0.003221
      3          6           0       -0.182381   -1.269986    0.156341
      4          6           0        1.271392   -1.119555   -0.268025
      5          6           0        1.854095    0.185655    0.262910
      6          6           0        0.974056    1.335977   -0.103419
      7          6           0       -0.364400    1.230874   -0.183232
      8          1           0       -2.614712    0.571929    0.374966
      9          1           0       -1.932315    1.266031    1.483012
     10          1           0       -0.701320   -2.088832   -0.345585
     11          1           0       -0.253158   -1.489483    1.230641
     12          1           0        1.331074   -1.116493   -1.359936
     13          1           0        1.848783   -1.975945    0.083352
     14          1           0        1.949725    0.137324    1.356544
     15          1           0        2.861419    0.342521   -0.126081
     16          1           0        1.430745    2.305370   -0.266512
     17          1           0       -0.992866    2.074775   -0.424517
 ---------------------------------------------------------------------

 SCF Done:  E(RHF) =  -307.852958216     A.U. after    2 cycles

 The electronic state is 1-A.
 Alpha  occ. eigenvalues --  -20.62544 -11.41369 -11.28900 -11.27662 -11.26897
 Alpha  occ. eigenvalues --  -11.26877 -11.26821  -1.41762  -1.16086  -1.05695
 Alpha  occ. eigenvalues --   -1.03012  -0.89104  -0.86638  -0.78299  -0.72800
 Alpha  occ. eigenvalues --   -0.70188  -0.67497  -0.65036  -0.62377  -0.60337
 Alpha  occ. eigenvalues --   -0.59060  -0.56649  -0.52159  -0.51858  -0.49209
 Alpha  occ. eigenvalues --   -0.41718  -0.25860
 Alpha virt. eigenvalues --    0.02452   0.02688   0.03466   0.04021   0.04853
 Alpha virt. eigenvalues --    0.05973   0.06402   0.06728   0.07068   0.09096
 Alpha virt. eigenvalues --    0.10204   0.11884   0.12752   0.13147   0.13390

 Mulliken charges:
               1
     1  O   -0.470798
     2  C   -0.445143
     3  C    0.224625
     4  C    0.392747
     5  C    0.381802
     6  C    0.114369
     7  C    0.846366
     8  H    0.291239
     9  H   -0.463477
    10  H    0.000461
    11  H    0.122691
    12  H   -0.137580
    13  H   -0.007661
    14  H    0.031587
    15  H   -0.003707
    16  H   -0.411737
    17  H   -0.465784
 Sum of Mulliken charges =  -0.00000

 Dipole moment (field-independent basis, Debye):
    X=              5.3736    Y=             -2.2243    Z=             -3.0597  Tot=              6.5715

 Test job not archived.
 1\1\GINC-SE097\SP\RHF\Aug-CC-pVDZ\C6H10O1\OHZDE\09-Apr-2025\0\\#t hf a
 ug-cc-pvdz iop(5/13=1,5/36=2,99/5=2) pseudo=read geom=check guess=(rea
 d,tcheck) scf=(maxcycle=1)\\title\\0,1\O,0,2.10009998,-1.17347074,0.64
 764409\C,0,1.05077327,-0.50081643,0.28451259\C,0,-0.17579553,-1.316507
 53,0.07317645\C,0,-1.4824645,-0.557964,0.25592836\C,0,-1.41545916,0.80
 158717,-0.43119418\C,0,-0.19508649,1.54543073,0.00388405\C,0,0.9646866
 5,0.931069,0.29776736\H,0,2.80216267,-0.620432,0.13583672\H,0,2.600153
 19,0.15542349,-1.10208434\H,0,-0.09932698,-2.21068392,0.69473613\H,0,-

 Normal termination of Gaussian 16 at Wed Apr  9 16:27:31 2025.
