 Gaussian 16, Revision C.01,

 ----------------------------------------------------------------------
 #t hf aug-cc-pvdz symm=none int=(grid=ultrafine) guess=(read,tcheck) s
 table=(opt,rrhf)
 ----------------------------------------------------------------------
 -----
 title
 -----
 Symbolic Z-matrix:
 Charge =  0 Multiplicity = 1

 SCF Done:  E(RHF) =  -295.856812757     A.U. after   15 cycles
 Normal termination of Gaussian 16 at Wed Apr  9 14:06:59 2025.
 Gaussian 16:  ES64L-G16RevC.01  3-Jul-2019

 ----------------------------------------------------------------------
 #t hf aug-cc-pvdz iop(5/13=1,5/36=2,99/5=2) pseudo=read geom=check gue
 ss=(read,tcheck) scf=(maxcycle=1)
 ----------------------------------------------------------------------
 -----
 title
 -----
 Structure from the checkpoint file:  "Grambow2020_b97d3_006783_reverse_mol2.chk"
 Charge =  0 Multiplicity = 1

                         Standard orientation:
 ---------------------------------------------------------------------
 Center     Atomic      Atomic             Coordinates (Angstroms)
 Number     Number       Type             X           Y           Z
 ---------------------------------------------------------------------
      1          7           0       -2.013883   -0.023878   -0.063140
      2          6           0       -0.659106   -0.106371   -0.000622
      3          7           0        0.083021    1.165053   -0.000330
      4          7           0        1.307312    0.880194    0.001852
      5          6           0        1.426308   -0.605392    0.001800
      6          7           0        0.098844   -1.156817    0.006412
      7          1           0       -2.539449   -0.858630    0.166610
      8          1           0       -2.416162    0.865090    0.211666
      9          1           0        2.010907   -0.893711   -0.888062
     10          1           0        2.014440   -0.894029    0.889164
 ---------------------------------------------------------------------

 SCF Done:  E(RHF) =  -295.940429213     A.U. after    2 cycles

 The electronic state is 1-A.
 Alpha  occ. eigenvalues --  -15.71733 -15.70830 -15.66718 -15.62344 -11.37062
 Alpha  occ. eigenvalues --  -11.30983  -1.37214  -1.22970  -1.16056  -1.00869
 Alpha  occ. eigenvalues --   -0.85790  -0.79660  -0.72071  -0.69614  -0.66540
 Alpha  occ. eigenvalues --   -0.60967  -0.56103  -0.54416  -0.47979  -0.45241
 Alpha  occ. eigenvalues --   -0.42416  -0.37340
 Alpha virt. eigenvalues --    0.02768   0.03931   0.04961   0.05435   0.08448
 Alpha virt. eigenvalues --    0.09750   0.09956   0.11322   0.13480   0.13886
 Alpha virt. eigenvalues --    0.15685   0.16594   0.17142   0.17700   0.18734

 Mulliken charges:
               1
     1  N   -0.256091
     2  C    0.974804
     3  N   -0.517589
     4  N   -0.410244
     5  C    0.956426
     6  N   -0.572404
     7  H    0.016240
     8  H    0.010007
     9  H   -0.099221
    10  H   -0.101928
 Sum of Mulliken charges =  -0.00000

 Dipole moment (field-independent basis, Debye):
    X=             -1.6405    Y=             -0.6557    Z=              0.7569  Tot=              1.9219

 Test job not archived.
 1\1\GINC-SE138\SP\RHF\Aug-CC-pVDZ\C2H4N4\OHZDE\09-Apr-2025\0\\#t hf au
 g-cc-pvdz iop(5/13=1,5/36=2,99/5=2) pseudo=read geom=check guess=(read
 ,tcheck) scf=(maxcycle=1)\\title\\0,1\N,0,1.92823248,-0.01786845,-0.29
 763456\C,0,0.58497866,-0.01027271,-0.0933148\N,0,-0.04330529,-1.301347
 78,0.23173129\N,0,-1.28050827,-1.09925003,0.32406304\C,0,-1.52372466,0
 .34722976,0.06011619\N,0,-0.2540884,0.97145348,-0.19408642\H,0,2.40237
 949,0.87709508,-0.29126201\H,0,2.43018008,-0.80893063,0.08950993\H,0,-
 2.2190231,0.41884622,-0.79321285\H,0,-2.03964099,0.76592907,0.94054119

 Normal termination of Gaussian 16 at Wed Apr  9 14:07:02 2025.
