 Gaussian 16, Revision C.01,

 ----------------------------------------------------------------------
 #t hf aug-cc-pvdz symm=none int=(grid=ultrafine) guess=(read,tcheck) s
 table=(opt,rrhf)
 ----------------------------------------------------------------------
 -----
 title
 -----
 Symbolic Z-matrix:
 Charge =  0 Multiplicity = 1

 SCF Done:  E(RHF) =  -305.666624976     A.U. after   17 cycles
 Normal termination of Gaussian 16 at Wed Apr  9 14:18:20 2025.
 Gaussian 16:  ES64L-G16RevC.01  3-Jul-2019

 ----------------------------------------------------------------------
 #t hf aug-cc-pvdz iop(5/13=1,5/36=2,99/5=2) pseudo=read geom=check gue
 ss=(read,tcheck) scf=(maxcycle=1)
 ----------------------------------------------------------------------
 -----
 title
 -----
 Structure from the checkpoint file:  "Grambow2020_b97d3_007091_forward_mol1.chk"
 Charge =  0 Multiplicity = 1

                         Standard orientation:
 ---------------------------------------------------------------------
 Center     Atomic      Atomic             Coordinates (Angstroms)
 Number     Number       Type             X           Y           Z
 ---------------------------------------------------------------------
      1          6           0        1.540455    1.444745    0.290720
      2          6           0       -0.988878    0.179284   -0.285749
      3          6           0       -2.425210    0.423241    0.019164
      4          8           0       -0.456826   -0.933290    0.266313
      5          6           0        0.858700   -1.172688    0.118252
      6          8           0        1.587211   -0.353418   -0.505534
      7          1           0        1.169935    2.129235   -0.468445
      8          1           0        1.001022    1.455686    1.236238
      9          1           0        2.619567    1.357233    0.360890
     10          1           0       -0.499965    0.557450   -1.176155
     11          1           0       -3.112702   -0.216532   -0.569772
     12          1           0       -2.679623    1.466322   -0.215334
     13          1           0       -2.648328    0.245484    1.081398
     14          1           0        1.196605   -1.948713    0.810630
 ---------------------------------------------------------------------

 SCF Done:  E(RHF) =  -305.765081495     A.U. after    2 cycles

 The electronic state is 1-A.
 Alpha  occ. eigenvalues --  -20.66300 -20.59861 -11.36365 -11.31239 -11.27435
 Alpha  occ. eigenvalues --  -11.23225  -1.43583  -1.32669  -1.02208  -0.94556
 Alpha  occ. eigenvalues --   -0.90344  -0.78280  -0.74159  -0.69439  -0.66233
 Alpha  occ. eigenvalues --   -0.61659  -0.60347  -0.58591  -0.55805  -0.55120
 Alpha  occ. eigenvalues --   -0.51763  -0.50358  -0.49801  -0.21178
 Alpha virt. eigenvalues --    0.02881   0.04352   0.04507   0.05013   0.06054
 Alpha virt. eigenvalues --    0.06396   0.07217   0.07313   0.08833   0.09693
 Alpha virt. eigenvalues --    0.11226   0.12818   0.13916   0.15205   0.15512

 Mulliken charges:
               1
     1  C    0.516202
     2  C    0.484286
     3  C    0.123219
     4  O   -0.443473
     5  C    0.745538
     6  O   -0.477214
     7  H   -0.075843
     8  H   -0.040767
     9  H   -0.114927
    10  H   -0.382091
    11  H    0.012900
    12  H   -0.020933
    13  H   -0.051831
    14  H   -0.275066
 Sum of Mulliken charges =  -0.00000

 Dipole moment (field-independent basis, Debye):
    X=              0.3197    Y=              1.2180    Z=              1.1971  Tot=              1.7375

 Test job not archived.
 1\1\GINC-SE138\SP\RHF\Aug-CC-pVDZ\C4H8O2\OHZDE\09-Apr-2025\0\\#t hf au
 g-cc-pvdz iop(5/13=1,5/36=2,99/5=2) pseudo=read geom=check guess=(read
 ,tcheck) scf=(maxcycle=1)\\title\\0,1\C,0,0.73810774,1.91841179,-0.318
 37851\C,0,-0.54073388,-0.66530034,-0.17615295\C,0,-1.8325575,-1.217405
 54,0.31568853\O,0,0.55993941,-1.07418247,0.49243168\C,0,1.75476958,-0.
 54568898,0.17162258\O,0,1.8383611,0.33892103,-0.7236533\H,0,0.0195896,
 2.032724,-1.1263432\H,0,0.31457766,1.87142656,0.6833838\H,0,1.65617857
 ,2.48763675,-0.41934449\H,0,-0.3895453,-0.33110123,-1.19611417\H,0,-2.

 Normal termination of Gaussian 16 at Wed Apr  9 14:18:23 2025.
