 Gaussian 16, Revision C.01,

 ----------------------------------------------------------------------
 #t hf aug-cc-pvdz symm=none int=(grid=ultrafine) guess=(read,tcheck) s
 table=(opt,rrhf)
 ----------------------------------------------------------------------
 -----
 title
 -----
 Symbolic Z-matrix:
 Charge =  0 Multiplicity = 1

 SCF Done:  E(RHF) =  -325.032542855     A.U. after   14 cycles
 Normal termination of Gaussian 16 at Wed Apr  9 16:21:18 2025.
 Gaussian 16:  ES64L-G16RevC.01  3-Jul-2019

 ----------------------------------------------------------------------
 #t hf aug-cc-pvdz iop(5/13=1,5/36=2,99/5=2) pseudo=read geom=check gue
 ss=(read,tcheck) scf=(maxcycle=1)
 ----------------------------------------------------------------------
 -----
 title
 -----
 Structure from the checkpoint file:  "Grambow2020_wb97xd3_008110_reverse_mol2.chk"
 Charge =  0 Multiplicity = 1

                         Standard orientation:
 ---------------------------------------------------------------------
 Center     Atomic      Atomic             Coordinates (Angstroms)
 Number     Number       Type             X           Y           Z
 ---------------------------------------------------------------------
      1          6           0        1.775567   -1.210702   -0.194269
      2          7           0        1.041013    0.027146   -0.494271
      3          6           0       -0.412968   -0.018195    0.280420
      4          8           0       -0.259768   -0.088133    1.490566
      5          6           0       -1.411247    0.035093   -0.627386
      6          6           0       -2.850038    0.011966   -0.207072
      7          6           0        1.767234    1.230408   -0.061618
      8          1           0        2.784376   -1.167612   -0.606070
      9          1           0        1.229333   -2.052268   -0.615726
     10          1           0        1.808156   -1.312734    0.889068
     11          1           0        0.836863    0.080776   -1.485978
     12          1           0       -1.178960    0.094269   -1.684451
     13          1           0       -2.917932   -0.026888    0.880784
     14          1           0       -3.382263   -0.859040   -0.602220
     15          1           0       -3.391375    0.902321   -0.541627
     16          1           0        1.205345    2.108135   -0.375076
     17          1           0        1.816059    1.207148    1.025613
     18          1           0        2.770157    1.249510   -0.489402
 ---------------------------------------------------------------------

 SCF Done:  E(RHF) =  -325.137040833     A.U. after    2 cycles

 The electronic state is 1-A.
 Alpha  occ. eigenvalues --  -20.49713 -15.72743 -11.32771 -11.29559 -11.29546
 Alpha  occ. eigenvalues --  -11.20294 -11.19079  -1.31738  -1.25030  -1.01841
 Alpha  occ. eigenvalues --   -1.00008  -0.93048  -0.86421  -0.76361  -0.70246
 Alpha  occ. eigenvalues --   -0.67165  -0.65981  -0.60441  -0.59672  -0.58694
 Alpha  occ. eigenvalues --   -0.56274  -0.55503  -0.54868  -0.51020  -0.50961
 Alpha  occ. eigenvalues --   -0.48658  -0.41180  -0.28095
 Alpha virt. eigenvalues --    0.01983   0.03656   0.03766   0.04831   0.06293
 Alpha virt. eigenvalues --    0.06369   0.06947   0.07642   0.08001   0.08433
 Alpha virt. eigenvalues --    0.09197   0.11668   0.12782   0.13261   0.13999

 Mulliken charges:
               1
     1  C    0.722987
     2  N   -0.417842
     3  C    0.294522
     4  O   -0.638991
     5  C    0.462025
     6  C    0.182804
     7  C    0.724590
     8  H   -0.173093
     9  H   -0.157908
    10  H   -0.015562
    11  H    0.087936
    12  H   -0.660550
    13  H   -0.107159
    14  H    0.023972
    15  H    0.021235
    16  H   -0.155633
    17  H   -0.013390
    18  H   -0.179943
 Sum of Mulliken charges =   0.00000

 Dipole moment (field-independent basis, Debye):
    X=              4.8515    Y=              0.2579    Z=             -4.3699  Tot=              6.5346

 Test job not archived.
 1\1\GINC-SE220\SP\RHF\Aug-CC-pVDZ\C5H11N1O1\OHZDE\09-Apr-2025\0\\#t hf
  aug-cc-pvdz iop(5/13=1,5/36=2,99/5=2) pseudo=read geom=check guess=(r
 ead,tcheck) scf=(maxcycle=1)\\title\\0,1\C,0,1.97563816,0.71034619,-0.
 13711397\N,0,0.5199343,0.84083033,-0.29754773\C,0,-0.21337575,-0.41725
 828,0.47428947\O,0,0.04231883,-0.40399769,1.66896865\C,0,-0.91664588,-
 1.1474208,-0.41777886\C,0,-1.69151335,-2.35940181,0.00412322\C,0,0.003
 79106,2.0999124,0.25988688\H,0,2.48646465,1.58250464,-0.54641609\H,0,2
 .30363275,-0.19449561,-0.6449636\H,0,2.17604245,0.61423669,0.92857451\

 Normal termination of Gaussian 16 at Wed Apr  9 16:21:25 2025.
