 Gaussian 16, Revision C.01,

 ----------------------------------------------------------------------
 #t hf aug-cc-pvdz symm=none int=(grid=ultrafine) guess=(read,tcheck) s
 table=(opt,rrhf)
 ----------------------------------------------------------------------
 -----
 title
 -----
 Symbolic Z-matrix:
 Charge =  0 Multiplicity = 1

 SCF Done:  E(RHF) =  -267.479495275     A.U. after   17 cycles
 Normal termination of Gaussian 16 at Wed Apr  9 14:14:02 2025.
 Gaussian 16:  ES64L-G16RevC.01  3-Jul-2019

 ----------------------------------------------------------------------
 #t hf aug-cc-pvdz iop(5/13=1,5/36=2,99/5=2) pseudo=read geom=check gue
 ss=(read,tcheck) scf=(maxcycle=1)
 ----------------------------------------------------------------------
 -----
 title
 -----
 Structure from the checkpoint file:  "Grambow2020_b97d3_006839_reverse_mol1.chk"
 Charge =  0 Multiplicity = 1

                         Standard orientation:
 ---------------------------------------------------------------------
 Center     Atomic      Atomic             Coordinates (Angstroms)
 Number     Number       Type             X           Y           Z
 ---------------------------------------------------------------------
      1          6           0       -1.810123   -0.667155    0.042095
      2          6           0       -1.295330    0.621667    0.103128
      3          6           0       -0.320057    1.430942    0.044229
      4          6           0        0.926045    0.872372   -0.256605
      5          6           0        1.433843   -0.306696    0.524485
      6          8           0        0.818047   -1.106458   -0.455251
      7          1           0       -2.515986   -0.921978   -0.757700
      8          1           0       -0.549611   -1.062306   -0.253959
      9          1           0       -2.046547   -1.155557    0.996364
     10          1           0        1.447691    1.106041   -1.185127
     11          1           0        0.990427   -0.371184    1.532819
     12          1           0        2.523381   -0.450134    0.565622
 ---------------------------------------------------------------------

 SCF Done:  E(RHF) =  -267.559510034     A.U. after    2 cycles

 The electronic state is 1-A.
 Alpha  occ. eigenvalues --  -20.54376 -11.36183 -11.31711 -11.31067 -11.25440
 Alpha  occ. eigenvalues --  -11.25413  -1.28798  -1.12179  -1.02587  -0.92757
 Alpha  occ. eigenvalues --   -0.85110  -0.72269  -0.67823  -0.64710  -0.61546
 Alpha  occ. eigenvalues --   -0.60679  -0.57921  -0.53884  -0.46903  -0.42428
 Alpha  occ. eigenvalues --   -0.38556  -0.36791
 Alpha virt. eigenvalues --    0.03456   0.03741   0.04540   0.05249   0.05977
 Alpha virt. eigenvalues --    0.06802   0.07836   0.08814   0.09816   0.11060
 Alpha virt. eigenvalues --    0.11751   0.13152   0.13727   0.14190   0.15078

 Mulliken charges:
               1
     1  C    0.316321
     2  C   -0.265272
     3  C   -0.624222
     4  C    0.788058
     5  C    0.927831
     6  O   -0.947109
     7  H   -0.108270
     8  H    0.542351
     9  H   -0.014915
    10  H   -0.242860
    11  H   -0.180936
    12  H   -0.190976
 Sum of Mulliken charges =  -0.00000

 Dipole moment (field-independent basis, Debye):
    X=              0.2133    Y=              0.8227    Z=              0.8995  Tot=              1.2375

 Test job not archived.
 1\1\GINC-SE112\SP\RHF\Aug-CC-pVDZ\C5H6O1\OHZDE\09-Apr-2025\0\\#t hf au
 g-cc-pvdz iop(5/13=1,5/36=2,99/5=2) pseudo=read geom=check guess=(read
 ,tcheck) scf=(maxcycle=1)\\title\\0,1\C,0,-1.80699657,-0.22844734,0.27
 476134\C,0,-1.08947819,0.96101392,0.28692933\C,0,0.00161915,1.59985052
 ,0.18229586\C,0,1.13248991,0.83952342,-0.13124153\C,0,1.46464585,-0.38
 676359,0.67128957\O,0,0.70113717,-1.09991039,-0.2706136\H,0,-2.5664637
 9,-0.38502157,-0.50083108\H,0,-0.63540609,-0.82978407,-0.03901028\H,0,
 -2.09279697,-0.64855784,1.24784271\H,0,1.659263,0.96275252,-1.07791557

 Normal termination of Gaussian 16 at Wed Apr  9 14:14:06 2025.
