 Gaussian 16, Revision C.01,

 ----------------------------------------------------------------------
 #t hf aug-cc-pvdz symm=none int=(grid=ultrafine) guess=(read,tcheck) s
 table=(opt,rrhf)
 ----------------------------------------------------------------------
 -----
 title
 -----
 Symbolic Z-matrix:
 Charge =  0 Multiplicity = 1

 SCF Done:  E(RHF) =  -321.411225379     A.U. after   16 cycles
 Normal termination of Gaussian 16 at Wed Apr  9 03:39:45 2025.
 Gaussian 16:  ES64L-G16RevC.01  3-Jul-2019

 ----------------------------------------------------------------------
 #t hf aug-cc-pvdz iop(5/13=1,5/36=2,99/5=2) pseudo=read geom=check gue
 ss=(read,tcheck) scf=(maxcycle=1)
 ----------------------------------------------------------------------
 -----
 title
 -----
 Structure from the checkpoint file:  "Grambow2020_wb97xd3_007506_reverse_mol2.chk"
 Charge =  0 Multiplicity = 1

                         Standard orientation:
 ---------------------------------------------------------------------
 Center     Atomic      Atomic             Coordinates (Angstroms)
 Number     Number       Type             X           Y           Z
 ---------------------------------------------------------------------
      1          8           0       -0.367799    1.595182   -0.177247
      2          6           0       -1.003207    0.611191    0.027815
      3          6           0       -2.398060    0.218904    0.498196
      4          6           0       -2.301903   -0.936192   -0.261456
      5          6           0       -0.919372   -0.846114   -0.064932
      6          6           0        3.451690   -0.259292    0.022931
      7          7           0        2.194222   -0.331677    0.057553
      8          1           0       -2.985922   -1.704607   -0.585017
      9          1           0       -0.219576   -1.534780    0.400488
     10          1           0        4.009757    0.651770   -0.213615
     11          1           0        4.043222   -1.149778    0.239379
     12          1           0        1.760466    0.566697   -0.161453
 ---------------------------------------------------------------------

 SCF Done:  E(RHF) =  -321.507567679     A.U. after    2 cycles

 The electronic state is 1-A.
 Alpha  occ. eigenvalues --  -20.58211 -15.62876 -11.37776 -11.32462 -11.32341
 Alpha  occ. eigenvalues --  -11.29798 -11.28339  -1.38325  -1.23403  -1.18430
 Alpha  occ. eigenvalues --   -0.89613  -0.87498  -0.83917  -0.72576  -0.69300
 Alpha  occ. eigenvalues --   -0.68619  -0.65231  -0.62450  -0.60588  -0.58409
 Alpha  occ. eigenvalues --   -0.47356  -0.45354  -0.44090  -0.42581  -0.36465
 Alpha virt. eigenvalues --    0.02878   0.03643   0.04413   0.04945   0.05903
 Alpha virt. eigenvalues --    0.06732   0.08209   0.08292   0.09742   0.11487
 Alpha virt. eigenvalues --    0.11668   0.12222   0.12826   0.13976   0.14699

 Mulliken charges:
               1
     1  O   -0.425687
     2  C    0.184997
     3  C   -0.249666
     4  C    0.564630
     5  C    0.375843
     6  C    0.538423
     7  N   -0.089274
     8  H   -0.236558
     9  H   -0.218897
    10  H   -0.202391
    11  H   -0.283767
    12  H    0.042349
 Sum of Mulliken charges =  -0.00000

 Dipole moment (field-independent basis, Debye):
    X=              1.2208    Y=             -3.7042    Z=             -1.4027  Tot=              4.1448

 Test job not archived.
 1\1\GINC-SE097\SP\RHF\Aug-CC-pVDZ\C5H5N1O1\OHZDE\09-Apr-2025\0\\#t hf
 aug-cc-pvdz iop(5/13=1,5/36=2,99/5=2) pseudo=read geom=check guess=(re
 ad,tcheck) scf=(maxcycle=1)\\title\\0,1\O,0,0.57037791,0.21986526,1.93
 188469\C,0,1.29637068,0.40465017,1.00840175\C,0,2.65322617,1.03380698,
 0.7188042\C,0,2.8157937,0.1404195,-0.32809277\C,0,1.41973864,0.1329415
 8,-0.42349272\C,0,-2.96103165,-0.37954935,-0.35667134\N,0,-1.72174161,
 -0.16221109,-0.28894243\H,0,3.63334127,-0.16143189,-0.96333811\H,0,0.7
 60219,0.40376811,-1.24341847\H,0,-3.59713229,-0.59185013,0.50804349\H,

 Normal termination of Gaussian 16 at Wed Apr  9 03:39:49 2025.
