 Gaussian 16, Revision C.01,

 ----------------------------------------------------------------------
 #t hf aug-cc-pvdz symm=none int=(grid=ultrafine) guess=(read,tcheck) s
 table=(opt,rrhf)
 ----------------------------------------------------------------------
 -----
 title
 -----
 Symbolic Z-matrix:
 Charge =  0 Multiplicity = 1

 SCF Done:  E(RHF) =  -279.767415573     A.U. after   16 cycles
 Normal termination of Gaussian 16 at Wed Apr  9 03:15:49 2025.
 Gaussian 16:  ES64L-G16RevC.01  3-Jul-2019

 ----------------------------------------------------------------------
 #t hf aug-cc-pvdz iop(5/13=1,5/36=2,99/5=2) pseudo=read geom=check gue
 ss=(read,tcheck) scf=(maxcycle=1)
 ----------------------------------------------------------------------
 -----
 title
 -----
 Structure from the checkpoint file:  "Grambow2020_b97d3_007061_reverse_mol2.chk"
 Charge =  0 Multiplicity = 1

                         Standard orientation:
 ---------------------------------------------------------------------
 Center     Atomic      Atomic             Coordinates (Angstroms)
 Number     Number       Type             X           Y           Z
 ---------------------------------------------------------------------
      1          7           0        2.394350    0.612594   -0.232153
      2          6           0        1.517408   -0.235918    0.451181
      3          6           0        0.370746   -0.725313   -0.002894
      4          6           0       -0.904585   -0.977809   -0.253605
      5          7           0       -1.999409   -0.111265    0.082947
      6          7           0       -1.741613    1.118329    0.005784
      7          1           0        2.165879    0.730988   -1.216800
      8          1           0        3.379327    0.387931   -0.104076
      9          1           0        1.839753   -0.482771    1.467355
     10          1           0       -1.251536   -1.937163   -0.647143
     11          1           0       -2.608138    1.597646    0.336519
 ---------------------------------------------------------------------

 SCF Done:  E(RHF) =  -279.848907912     A.U. after    2 cycles

 The electronic state is 1-A.
 Alpha  occ. eigenvalues --  -15.70206 -15.68692 -15.64558 -11.31004 -11.28197
 Alpha  occ. eigenvalues --  -11.25564  -1.30488  -1.19077  -1.05744  -0.96637
 Alpha  occ. eigenvalues --   -0.85471  -0.74816  -0.70620  -0.67362  -0.62861
 Alpha  occ. eigenvalues --   -0.60398  -0.59682  -0.51052  -0.49952  -0.40093
 Alpha  occ. eigenvalues --   -0.36049  -0.33492
 Alpha virt. eigenvalues --    0.03101   0.04345   0.04471   0.04787   0.06729
 Alpha virt. eigenvalues --    0.08531   0.09954   0.10838   0.11273   0.12771
 Alpha virt. eigenvalues --    0.14113   0.14976   0.16133   0.16574   0.17110

 Mulliken charges:
               1
     1  N   -0.420906
     2  C    0.831893
     3  C   -0.232659
     4  C    0.799995
     5  N   -0.516767
     6  N   -0.164253
     7  H    0.011948
     8  H    0.022439
     9  H   -0.220637
    10  H   -0.202971
    11  H    0.091918
 Sum of Mulliken charges =  -0.00000

 Dipole moment (field-independent basis, Debye):
    X=              1.9289    Y=             -0.2238    Z=             -0.1401  Tot=              1.9469

 Test job not archived.
 1\1\GINC-SE365\SP\RHF\Aug-CC-pVDZ\C3H5N3\OHZDE\09-Apr-2025\0\\#t hf au
 g-cc-pvdz iop(5/13=1,5/36=2,99/5=2) pseudo=read geom=check guess=(read
 ,tcheck) scf=(maxcycle=1)\\title\\0,1\N,0,-2.08236231,-0.72205793,0.10
 47498\C,0,-0.90831255,-0.71961508,-0.65521546\C,0,0.33180154,-0.594399
 16,-0.20028282\C,0,1.53589373,-0.1561649,0.13317407\N,0,1.93529312,1.2
 2323953,0.15618022\N,0,1.03163667,2.02810883,0.50245164\H,0,-1.9206183
 4,-0.77015556,1.10837955\H,0,-2.77266264,-1.40886925,-0.19329843\H,0,-
 1.07618955,-0.81603092,-1.73223533\H,0,2.37969462,-0.82686013,0.316951

 Normal termination of Gaussian 16 at Wed Apr  9 03:15:52 2025.
