 Gaussian 16, Revision C.01,

 ----------------------------------------------------------------------
 #t hf aug-cc-pvdz symm=none int=(grid=ultrafine) guess=(read,tcheck) s
 table=(opt,rrhf)
 ----------------------------------------------------------------------
 -----
 title
 -----
 Symbolic Z-matrix:
 Charge =  0 Multiplicity = 1

 SCF Done:  E(RHF) =  -360.889281551     A.U. after   15 cycles
 Normal termination of Gaussian 16 at Wed Apr  9 14:46:03 2025.
 Gaussian 16:  ES64L-G16RevC.01  3-Jul-2019

 ----------------------------------------------------------------------
 #t hf aug-cc-pvdz iop(5/13=1,5/36=2,99/5=2) pseudo=read geom=check gue
 ss=(read,tcheck) scf=(maxcycle=1)
 ----------------------------------------------------------------------
 -----
 title
 -----
 Structure from the checkpoint file:  "Grambow2020_wb97xd3_006609_reverse_mol2.chk"
 Charge =  0 Multiplicity = 1

                         Standard orientation:
 ---------------------------------------------------------------------
 Center     Atomic      Atomic             Coordinates (Angstroms)
 Number     Number       Type             X           Y           Z
 ---------------------------------------------------------------------
      1          6           0        2.402930   -0.030749   -0.338092
      2          6           0        1.040057   -0.435145    0.127530
      3          8           0        0.588507   -1.543133   -0.077859
      4          6           0        0.196063    0.603719    0.854130
      5          7           0       -0.856621    1.147782    0.008921
      6          6           0       -1.828835    0.409830   -0.327495
      7          8           0       -2.030880   -0.887158   -0.095595
      8          1           0        2.312600    0.857426   -0.968678
      9          1           0        2.882077   -0.838649   -0.885574
     10          1           0        3.012627    0.255533    0.522600
     11          1           0        1.160989    3.593895   -0.725322
     12          1           0       -1.181896   -1.329738    0.113872
     13          1           0       -0.217643    0.116960    1.746517
     14          1           0        0.821999    1.434524    1.181173
     15          1           0        0.540857    3.177005   -0.682737
     16          1           0       -2.657568    0.854979   -0.873107
 ---------------------------------------------------------------------

 SCF Done:  E(RHF) =  -361.006379275     A.U. after    2 cycles

 The electronic state is 1-A.
 Alpha  occ. eigenvalues --  -20.60674 -20.58934 -15.61943 -11.36705 -11.35663
 Alpha  occ. eigenvalues --  -11.28651 -11.25902  -1.39585  -1.37626  -1.19472
 Alpha  occ. eigenvalues --   -1.04537  -0.98007  -0.85919  -0.77301  -0.72812
 Alpha  occ. eigenvalues --   -0.70375  -0.67874  -0.65883  -0.62530  -0.61164
 Alpha  occ. eigenvalues --   -0.59546  -0.57592  -0.56773  -0.55022  -0.53410
 Alpha  occ. eigenvalues --   -0.47694  -0.42072  -0.39530
 Alpha virt. eigenvalues --    0.03133   0.04226   0.04442   0.05362   0.06516
 Alpha virt. eigenvalues --    0.07047   0.07690   0.08258   0.08673   0.09817
 Alpha virt. eigenvalues --    0.11177   0.11672   0.12936   0.13910   0.14464

 Mulliken charges:
               1
     1  C    0.360654
     2  C   -0.015413
     3  O   -0.592784
     4  C    0.632586
     5  N   -0.269457
     6  C    0.575252
     7  O   -0.396480
     8  H    0.103905
     9  H   -0.087022
    10  H    0.080083
    11  H    0.004919
    12  H    0.229817
    13  H   -0.040489
    14  H   -0.307928
    15  H    0.012419
    16  H   -0.290062
 Sum of Mulliken charges =  -0.00000

 Dipole moment (field-independent basis, Debye):
    X=              2.4188    Y=              1.2670    Z=              0.8453  Tot=              2.8584

 Test job not archived.
 1\1\GINC-SE114\SP\RHF\Aug-CC-pVDZ\C4H9N1O2\OHZDE\09-Apr-2025\0\\#t hf
 aug-cc-pvdz iop(5/13=1,5/36=2,99/5=2) pseudo=read geom=check guess=(re
 ad,tcheck) scf=(maxcycle=1)\\title\\0,1\C,0,-1.93354601,-0.63100439,-0
 .58101005\C,0,-1.02732164,0.45167447,-0.08671731\O,0,-1.14357005,1.606
 03134,-0.44402261\C,0,0.09102477,0.06477303,0.87198938\N,0,1.3911543,0
 .03334517,0.21838165\C,0,1.92271188,1.11730309,-0.16297441\O,0,1.43277
 881,2.35679686,-0.14304477\H,0,-1.32853046,-1.41710728,-1.03997788\H,0
 ,-2.65334819,-0.23919193,-1.29542629\H,0,-2.45232244,-1.08759085,0.265

 Normal termination of Gaussian 16 at Wed Apr  9 14:46:08 2025.
