 Gaussian 16, Revision C.01,

 ----------------------------------------------------------------------
 #t hf aug-cc-pvdz symm=none int=(grid=ultrafine) guess=(read,tcheck) s
 table=(opt,rrhf)
 ----------------------------------------------------------------------
 -----
 title
 -----
 Symbolic Z-matrix:
 Charge =  0 Multiplicity = 1

 SCF Done:  E(RHF) =  -344.709266576     A.U. after   16 cycles

 1\1\GINC-SE057\Stability\RHF\Aug-CC-pVDZ\C5H10O2\OHZDE\09-Apr-2025\0\\
 #t hf aug-cc-pvdz symm=none int=(grid=ultrafine) guess=(read,tcheck) s
 table=(opt,rrhf)\\title\\0,1\C,0,2.31773352,-0.02001615,-0.20466543\C,
 0,1.11253796,0.50834385,0.5296395\O,0,0.03512829,0.64412894,-0.6004078
 8\C,0,-1.18825629,1.09719955,-0.03772737\C,0,-1.65551224,-0.18171633,0
 .65480983\C,0,-0.59586494,-1.06978755,0.06269824\O,0,-0.80569498,-1.74
 406045,-1.04289797\H,0,2.60019181,0.56077648,-1.09674016\H,0,2.1989084
 7,-1.0626279,-0.52945751\H,0,3.1672094,-0.00210752,0.48352218\H,0,1.30

 Normal termination of Gaussian 16 at Wed Apr  9 15:48:13 2025.
 Gaussian 16:  ES64L-G16RevC.01  3-Jul-2019

 ----------------------------------------------------------------------
 #t hf aug-cc-pvdz iop(5/13=1,5/36=2,99/5=2) pseudo=read geom=check gue
 ss=(read,tcheck) scf=(maxcycle=1)
 ----------------------------------------------------------------------
 -----
 title
 -----
 Structure from the checkpoint file:  "Grambow2020_wb97xd3_007398_reverse_mol1.chk"
 Charge =  0 Multiplicity = 1

                         Standard orientation:
 ---------------------------------------------------------------------
 Center     Atomic      Atomic             Coordinates (Angstroms)
 Number     Number       Type             X           Y           Z
 ---------------------------------------------------------------------
      1          6           0       -2.378449    0.425106    0.034485
      2          6           0       -1.315714   -0.553281    0.463691
      3          8           0       -0.275257   -0.488884   -0.706590
      4          6           0        0.822750   -1.341314   -0.412828
      5          6           0        1.533233   -0.507282    0.651675
      6          6           0        0.684793    0.721505    0.471814
      7          8           0        1.041403    1.687949   -0.340486
      8          1           0       -2.762895    0.264132   -0.984921
      9          1           0       -2.045034    1.470471    0.086387
     10          1           0       -3.221892    0.331647    0.723979
     11          1           0       -1.722532   -1.570050    0.362201
     12          1           0        1.411877   -1.467207   -1.324392
     13          1           0        0.493969   -2.321210   -0.063339
     14          1           0        1.410115   -0.889206    1.661929
     15          1           0        2.588319   -0.302090    0.453689
     16          1           0        0.018501    1.053724    1.250884
     17          1           0        1.620738    1.368869   -1.042837
 ---------------------------------------------------------------------

 SCF Done:  E(RHF) =  -344.817045353     A.U. after    2 cycles

 The electronic state is 1-A.
 Alpha  occ. eigenvalues --  -20.67163 -20.57131 -11.42941 -11.30087 -11.27368
 Alpha  occ. eigenvalues --  -11.18252 -11.17995  -1.45173  -1.31993  -1.07084
 Alpha  occ. eigenvalues --   -0.97625  -0.93239  -0.86386  -0.77689  -0.74385
 Alpha  occ. eigenvalues --   -0.72904  -0.68494  -0.65722  -0.63774  -0.59676
 Alpha  occ. eigenvalues --   -0.56460  -0.54667  -0.51887  -0.50357  -0.47378
 Alpha  occ. eigenvalues --   -0.46453  -0.43572  -0.24759
 Alpha virt. eigenvalues --    0.02127   0.04046   0.04253   0.05012   0.06261
 Alpha virt. eigenvalues --    0.06420   0.07080   0.07312   0.07771   0.09383
 Alpha virt. eigenvalues --    0.10051   0.11185   0.12280   0.13004   0.13296

 Mulliken charges:
               1
     1  C    0.389831
     2  C   -0.034487
     3  O   -0.826332
     4  C    0.899354
     5  C    0.321217
     6  C    1.135843
     7  O   -0.444580
     8  H   -0.066270
     9  H   -0.224842
    10  H   -0.079728
    11  H   -0.476975
    12  H   -0.268301
    13  H   -0.135475
    14  H   -0.068372
    15  H   -0.122473
    16  H   -0.190672
    17  H    0.192262
 Sum of Mulliken charges =   0.00000

 Dipole moment (field-independent basis, Debye):
    X=              5.7953    Y=              0.4305    Z=             -0.3842  Tot=              5.8239

 Test job not archived.
 1\1\GINC-SE057\SP\RHF\Aug-CC-pVDZ\C5H10O2\OHZDE\09-Apr-2025\0\\#t hf a
 ug-cc-pvdz iop(5/13=1,5/36=2,99/5=2) pseudo=read geom=check guess=(rea
 d,tcheck) scf=(maxcycle=1)\\title\\0,1\C,0,2.31773352,-0.02001615,-0.2
 0466543\C,0,1.11253796,0.50834385,0.5296395\O,0,0.03512829,0.64412894,
 -0.60040788\C,0,-1.18825629,1.09719955,-0.03772737\C,0,-1.65551224,-0.
 18171633,0.65480983\C,0,-0.59586494,-1.06978755,0.06269824\O,0,-0.8056
 9498,-1.74406045,-1.04289797\H,0,2.60019181,0.56077648,-1.09674016\H,0
 ,2.19890847,-1.0626279,-0.52945751\H,0,3.1672094,-0.00210752,0.4835221

 Normal termination of Gaussian 16 at Wed Apr  9 15:48:19 2025.
