 Gaussian 16, Revision C.01,

 ----------------------------------------------------------------------
 #t hf aug-cc-pvdz symm=none int=(grid=ultrafine) guess=(read,tcheck) s
 table=(opt,rrhf)
 ----------------------------------------------------------------------
 -----
 title
 -----
 Symbolic Z-matrix:
 Charge =  0 Multiplicity = 1

 SCF Done:  E(RHF) =  -344.870039028     A.U. after   14 cycles

 1\1\GINC-SE073\Stability\RHF\Aug-CC-pVDZ\C5H10O2\OHZDE\09-Apr-2025\0\\
 #t hf aug-cc-pvdz symm=none int=(grid=ultrafine) guess=(read,tcheck) s
 table=(opt,rrhf)\\title\\0,1\C,0,1.385236,0.45696113,-0.922462\C,0,1.4
 2119687,-0.68912839,0.06010856\C,0,0.92585348,-0.37080236,1.45939081\O
 ,0,-0.21025258,-1.25755441,1.61775766\C,0,-0.42995866,-1.99583244,0.55
 1226\C,0,-2.54877002,0.80472995,-0.59094057\O,0,0.47239681,-1.71937088
 ,-0.3593264\H,0,1.62488045,0.10812143,-1.92671637\H,0,2.11592808,1.217
 23747,-0.63997573\H,0,0.39441846,0.91370102,-0.93917665\H,0,2.4011001,

 Normal termination of Gaussian 16 at Wed Apr  9 03:33:33 2025.
 Gaussian 16:  ES64L-G16RevC.01  3-Jul-2019

 ----------------------------------------------------------------------
 #t hf aug-cc-pvdz iop(5/13=1,5/36=2,99/5=2) pseudo=read geom=check gue
 ss=(read,tcheck) scf=(maxcycle=1)
 ----------------------------------------------------------------------
 -----
 title
 -----
 Structure from the checkpoint file:  "Grambow2020_wb97xd3_007102_reverse_mol2.chk"
 Charge =  0 Multiplicity = 1

                         Standard orientation:
 ---------------------------------------------------------------------
 Center     Atomic      Atomic             Coordinates (Angstroms)
 Number     Number       Type             X           Y           Z
 ---------------------------------------------------------------------
      1          6           0        0.464094    1.927995    0.048921
      2          6           0        1.195986    0.612144   -0.065659
      3          6           0        0.995152   -0.354087    1.087923
      4          8           0        0.377095   -1.502206    0.453908
      5          6           0        0.195256   -1.331494   -0.837838
      6          6           0       -3.063835    0.123227    0.110407
      7          8           0        0.650315   -0.151979   -1.186331
      8          1           0        0.552702    2.497338   -0.876089
      9          1           0        0.886778    2.523739    0.860190
     10          1           0       -0.594136    1.758889    0.254260
     11          1           0        2.250937    0.768734   -0.292916
     12          1           0        0.308821    0.018843    1.848484
     13          1           0        1.920227   -0.685301    1.555655
     14          1           0       -2.481049   -0.416298   -0.635062
     15          1           0       -2.585569    0.027734    1.085107
     16          1           0       -3.132978    1.174866   -0.165980
     17          1           0       -4.064923   -0.301780    0.163217
 ---------------------------------------------------------------------

 SCF Done:  E(RHF) =  -344.984265171     A.U. after    2 cycles

 The electronic state is 1-A.
 Alpha  occ. eigenvalues --  -20.62752 -20.62601 -11.34248 -11.32395 -11.31789
 Alpha  occ. eigenvalues --  -11.25116 -11.21663  -1.46401  -1.34095  -1.09139
 Alpha  occ. eigenvalues --   -0.97355  -0.93849  -0.86998  -0.83972  -0.73765
 Alpha  occ. eigenvalues --   -0.70984  -0.66927  -0.61678  -0.60960  -0.57293
 Alpha  occ. eigenvalues --   -0.56701  -0.56132  -0.54721  -0.54485  -0.54209
 Alpha  occ. eigenvalues --   -0.51989  -0.47483  -0.38805
 Alpha virt. eigenvalues --    0.02655   0.04003   0.04330   0.04830   0.05989
 Alpha virt. eigenvalues --    0.06495   0.07004   0.08044   0.08498   0.10363
 Alpha virt. eigenvalues --    0.10432   0.11395   0.12717   0.13467   0.13687

 Mulliken charges:
               1
     1  C    0.476038
     2  C    0.171801
     3  C    0.876558
     4  O   -0.510748
     5  C    0.228308
     6  C    0.762622
     7  O   -0.556972
     8  H   -0.047408
     9  H    0.035114
    10  H   -0.146044
    11  H   -0.196572
    12  H   -0.218315
    13  H   -0.122868
    14  H   -0.169392
    15  H   -0.220228
    16  H   -0.144793
    17  H   -0.217102
 Sum of Mulliken charges =  -0.00000

 Dipole moment (field-independent basis, Debye):
    X=              1.8880    Y=              3.5022    Z=              2.8712  Tot=              4.9065

 Test job not archived.
 1\1\GINC-SE073\SP\RHF\Aug-CC-pVDZ\C5H10O2\OHZDE\09-Apr-2025\0\\#t hf a
 ug-cc-pvdz iop(5/13=1,5/36=2,99/5=2) pseudo=read geom=check guess=(rea
 d,tcheck) scf=(maxcycle=1)\\title\\0,1\C,0,1.385236,0.45696113,-0.9224
 62\C,0,1.42119687,-0.68912839,0.06010856\C,0,0.92585348,-0.37080236,1.
 45939081\O,0,-0.21025258,-1.25755441,1.61775766\C,0,-0.42995866,-1.995
 83244,0.551226\C,0,-2.54877002,0.80472995,-0.59094057\O,0,0.47239681,-
 1.71937088,-0.3593264\H,0,1.62488045,0.10812143,-1.92671637\H,0,2.1159
 2808,1.21723747,-0.63997573\H,0,0.39441846,0.91370102,-0.93917665\H,0,

 Normal termination of Gaussian 16 at Wed Apr  9 03:33:39 2025.
