 Gaussian 16, Revision C.01,

 ----------------------------------------------------------------------
 #t hf aug-cc-pvdz symm=none int=(grid=ultrafine) guess=(read,tcheck) s
 table=(opt,rrhf)
 ----------------------------------------------------------------------
 -----
 title
 -----
 Symbolic Z-matrix:
 Charge =  0 Multiplicity = 1

 SCF Done:  E(RHF) =  -306.528295022     A.U. after   15 cycles
 Normal termination of Gaussian 16 at Wed Apr  9 16:28:09 2025.
 Gaussian 16:  ES64L-G16RevC.01  3-Jul-2019

 ----------------------------------------------------------------------
 #t hf aug-cc-pvdz iop(5/13=1,5/36=2,99/5=2) pseudo=read geom=check gue
 ss=(read,tcheck) scf=(maxcycle=1)
 ----------------------------------------------------------------------
 -----
 title
 -----
 Structure from the checkpoint file:  "Grambow2020_wb97xd3_008457_forward_mol1.chk"
 Charge =  0 Multiplicity = 1

                         Standard orientation:
 ---------------------------------------------------------------------
 Center     Atomic      Atomic             Coordinates (Angstroms)
 Number     Number       Type             X           Y           Z
 ---------------------------------------------------------------------
      1          6           0        1.346281   -0.813648   -0.939644
      2          6           0        1.335632    0.471855   -0.127345
      3          6           0        0.019956    1.180567    0.055694
      4          8           0       -1.121495    0.751937   -0.638691
      5          6           0       -1.528367   -0.488680   -0.085185
      6          6           0       -0.258694   -1.071640    0.508998
      7          6           0        0.470337    0.165571    1.050672
      8          1           0        0.250184   -1.447248   -0.541019
      9          1           0        2.082016   -1.459646   -0.423798
     10          1           0        2.255663    1.040640   -0.065091
     11          1           0        0.018821    2.236525    0.292348
     12          1           0       -1.963687   -1.095329   -0.880530
     13          1           0       -2.277699   -0.335981    0.705020
     14          1           0       -0.340786   -1.954254    1.137120
     15          1           0        0.636577    0.335653    2.106337
 ---------------------------------------------------------------------

 SCF Done:  E(RHF) =  -306.618893847     A.U. after    2 cycles

 The electronic state is 1-A.
 Alpha  occ. eigenvalues --  -20.57731 -11.30091 -11.29552 -11.29071 -11.25747
 Alpha  occ. eigenvalues --  -11.25285 -11.25204  -1.36163  -1.16889  -1.04070
 Alpha  occ. eigenvalues --   -0.93385  -0.87229  -0.80610  -0.73657  -0.73029
 Alpha  occ. eigenvalues --   -0.68466  -0.62898  -0.62366  -0.56617  -0.54922
 Alpha  occ. eigenvalues --   -0.53271  -0.52241  -0.48598  -0.46014  -0.39084
 Alpha  occ. eigenvalues --   -0.31063
 Alpha virt. eigenvalues --    0.02706   0.03853   0.04316   0.04760   0.05972
 Alpha virt. eigenvalues --    0.06468   0.06542   0.08735   0.09422   0.10822
 Alpha virt. eigenvalues --    0.11739   0.12307   0.12982   0.13409   0.13892

 Mulliken charges:
               1
     1  C   -0.427300
     2  C    0.509510
     3  C    1.100309
     4  O   -0.774921
     5  C    0.833865
     6  C   -0.032891
     7  C    0.277640
     8  H    0.173890
     9  H    0.043708
    10  H   -0.396567
    11  H   -0.376817
    12  H   -0.174543
    13  H   -0.154511
    14  H   -0.194088
    15  H   -0.407285
 Sum of Mulliken charges =  -0.00000

 Dipole moment (field-independent basis, Debye):
    X=              0.0422    Y=             -0.6948    Z=              3.8225  Tot=              3.8854

 Test job not archived.
 1\1\GINC-SE174\SP\RHF\Aug-CC-pVDZ\C6H8O1\OHZDE\09-Apr-2025\0\\#t hf au
 g-cc-pvdz iop(5/13=1,5/36=2,99/5=2) pseudo=read geom=check guess=(read
 ,tcheck) scf=(maxcycle=1)\\title\\0,1\C,0,1.24856481,1.17625587,0.5067
 7586\C,0,1.42123359,-0.2065226,-0.10197046\C,0,0.40571985,-1.26254847,
 0.24490074\O,0,-0.56878619,-1.01781058,1.22431124\C,0,-1.48907989,-0.0
 7596259,0.69798044\C,0,-0.69362393,0.68600816,-0.34682348\C,0,0.209040
 65,-0.39710547,-0.95316645\H,0,-0.05784125,1.39592269,0.42413436\H,0,1
 .56277335,1.87156615,-0.29480575\H,0,2.41797832,-0.50915516,-0.3999027

 Normal termination of Gaussian 16 at Wed Apr  9 16:28:14 2025.
