 Gaussian 16, Revision C.01,

 ----------------------------------------------------------------------
 #t hf aug-cc-pvdz symm=none int=(grid=ultrafine) guess=(read,tcheck) s
 table=(opt,rrhf)
 ----------------------------------------------------------------------
 -----
 title
 -----
 Symbolic Z-matrix:
 Charge =  0 Multiplicity = 1

 SCF Done:  E(RHF) =  -304.433384396     A.U. after   17 cycles
 Normal termination of Gaussian 16 at Wed Apr  9 14:17:06 2025.
 Gaussian 16:  ES64L-G16RevC.01  3-Jul-2019

 ----------------------------------------------------------------------
 #t hf aug-cc-pvdz iop(5/13=1,5/36=2,99/5=2) pseudo=read geom=check gue
 ss=(read,tcheck) scf=(maxcycle=1)
 ----------------------------------------------------------------------
 -----
 title
 -----
 Structure from the checkpoint file:  "Grambow2020_b97d3_006927_reverse_mol1.chk"
 Charge =  0 Multiplicity = 1

                         Standard orientation:
 ---------------------------------------------------------------------
 Center     Atomic      Atomic             Coordinates (Angstroms)
 Number     Number       Type             X           Y           Z
 ---------------------------------------------------------------------
      1          8           0        2.072575   -0.416981   -0.197661
      2          6           0        0.788178   -0.711058   -0.047165
      3          6           0       -0.066447    1.323121   -0.365412
      4          6           0       -0.063631    0.333412    0.727660
      5          8           0       -1.342037   -0.300388    0.683146
      6          6           0       -1.449083   -0.532557   -0.689862
      7          1           0        2.345387    0.467623    0.173728
      8          1           0        0.865799    1.787095   -0.695481
      9          1           0       -0.976898    1.842208   -0.640808
     10          1           0        0.259888    0.587286    1.755565
     11          1           0       -2.069471    0.161397   -1.258476
     12          1           0       -1.523116   -1.584170   -0.969735
 ---------------------------------------------------------------------

 SCF Done:  E(RHF) =  -304.526245759     A.U. after    2 cycles

 The electronic state is 1-A.
 Alpha  occ. eigenvalues --  -20.63657 -20.60279 -11.35778 -11.32211 -11.31895
 Alpha  occ. eigenvalues --  -11.27353  -1.39464  -1.37466  -1.04214  -0.93081
 Alpha  occ. eigenvalues --   -0.88204  -0.80699  -0.73146  -0.70240  -0.67638
 Alpha  occ. eigenvalues --   -0.63798  -0.61531  -0.57972  -0.56307  -0.54721
 Alpha  occ. eigenvalues --   -0.47495  -0.35636  -0.29637
 Alpha virt. eigenvalues --    0.02960   0.03426   0.04247   0.04854   0.06042
 Alpha virt. eigenvalues --    0.06792   0.07863   0.08841   0.10241   0.11568
 Alpha virt. eigenvalues --    0.12990   0.13813   0.14670   0.15232   0.15608

 Mulliken charges:
               1
     1  O   -0.426389
     2  C    0.095115
     3  C    0.582783
     4  C    0.733644
     5  O   -0.686180
     6  C    0.756409
     7  H    0.187935
     8  H   -0.379145
     9  H   -0.247970
    10  H   -0.175190
    11  H   -0.223867
    12  H   -0.217146
 Sum of Mulliken charges =  -0.00000

 Dipole moment (field-independent basis, Debye):
    X=             -0.0252    Y=              2.6285    Z=              0.0080  Tot=              2.6286

 Test job not archived.
 1\1\GINC-SE018\SP\RHF\Aug-CC-pVDZ\C4H6O2\OHZDE\09-Apr-2025\0\\#t hf au
 g-cc-pvdz iop(5/13=1,5/36=2,99/5=2) pseudo=read geom=check guess=(read
 ,tcheck) scf=(maxcycle=1)\\title\\0,1\O,0,-0.15743331,-1.61565118,-1.5
 7427856\C,0,0.49225065,-0.5875134,-1.04546134\C,0,-0.86218828,-0.17848
 702,0.6772523\C,0,-0.39154393,0.57048993,-0.50252141\O,0,0.61991809,1.
 45687543,-0.02370001\C,0,1.34504385,0.58083476,0.78701385\H,0,-1.15170
 848,-1.54896771,-1.53124292\H,0,-1.47291239,-1.07612395,0.55656801\H,0
 ,-0.89763751,0.2903541,1.65354413\H,0,-1.08873755,1.05144697,-1.215478

 Normal termination of Gaussian 16 at Wed Apr  9 14:17:11 2025.
