 Gaussian 16, Revision C.01,

 ----------------------------------------------------------------------
 #t hf aug-cc-pvdz symm=none int=(grid=ultrafine) guess=(read,tcheck) s
 table=(opt,rrhf)
 ----------------------------------------------------------------------
 -----
 title
 -----
 Symbolic Z-matrix:
 Charge =  0 Multiplicity = 1

 SCF Done:  E(RHF) =  -307.915196951     A.U. after   13 cycles

 1\1\GINC-SE168\Stability\RHF\Aug-CC-pVDZ\C6H10O1\OHZDE\09-Apr-2025\0\\
 #t hf aug-cc-pvdz symm=none int=(grid=ultrafine) guess=(read,tcheck) s
 table=(opt,rrhf)\\title\\0,1\C,0,2.22858633,0.05008558,0.01068193\C,0,
 0.7519106,-0.15987296,0.01227092\C,0,0.06678208,-1.16611008,0.54595939
 \C,0,-1.42074912,-1.02893294,0.37013453\C,0,-1.54302936,0.15562864,-0.
 60533441\C,0,-0.18767921,0.87940683,-0.56019272\O,0,-0.18666323,2.0604
 4021,0.23620215\H,0,2.47891124,1.01570726,0.45602761\H,0,2.61535537,0.
 06251019,-1.01213118\H,0,2.74766413,-0.734056,0.56237142\H,0,0.5178687

 Normal termination of Gaussian 16 at Wed Apr  9 16:03:14 2025.
 Gaussian 16:  ES64L-G16RevC.01  3-Jul-2019

 ----------------------------------------------------------------------
 #t hf aug-cc-pvdz iop(5/13=1,5/36=2,99/5=2) pseudo=read geom=check gue
 ss=(read,tcheck) scf=(maxcycle=1)
 ----------------------------------------------------------------------
 -----
 title
 -----
 Structure from the checkpoint file:  "Grambow2020_wb97xd3_007728_forward_mol2.chk"
 Charge =  0 Multiplicity = 1

                         Standard orientation:
 ---------------------------------------------------------------------
 Center     Atomic      Atomic             Coordinates (Angstroms)
 Number     Number       Type             X           Y           Z
 ---------------------------------------------------------------------
      1          6           0       -2.205997   -0.484652    0.164814
      2          6           0       -0.716577   -0.434742    0.103231
      3          6           0        0.120856   -1.389336   -0.289443
      4          6           0        1.564159   -0.968920   -0.238355
      5          6           0        1.502922    0.378213    0.504047
      6          6           0        0.038382    0.837775    0.421638
      7          8           0       -0.202548    1.833823   -0.567770
      8          1           0       -2.641364    0.324834   -0.425617
      9          1           0       -2.554294   -0.350517    1.192719
     10          1           0       -2.592998   -1.434265   -0.205521
     11          1           0       -0.189002   -2.372377   -0.627720
     12          1           0        1.982587   -0.878004   -1.246558
     13          1           0        2.187620   -1.697209    0.285265
     14          1           0        1.774159    0.230785    1.551154
     15          1           0        2.170395    1.138665    0.097867
     16          1           0       -0.295156    1.300999    1.352991
     17          1           0       -0.044030    1.436479   -1.428012
 ---------------------------------------------------------------------

 SCF Done:  E(RHF) =  -308.009665705     A.U. after    2 cycles

 The electronic state is 1-A.
 Alpha  occ. eigenvalues --  -20.56608 -11.28567 -11.23616 -11.23501 -11.23293
 Alpha  occ. eigenvalues --  -11.23026 -11.22705  -1.32044  -1.12435  -1.01115
 Alpha  occ. eigenvalues --   -0.94936  -0.90453  -0.80249  -0.74225  -0.66626
 Alpha  occ. eigenvalues --   -0.65381  -0.62852  -0.59573  -0.58143  -0.56736
 Alpha  occ. eigenvalues --   -0.54475  -0.51861  -0.49719  -0.49019  -0.47670
 Alpha  occ. eigenvalues --   -0.43627  -0.35056
 Alpha virt. eigenvalues --    0.03412   0.04235   0.04505   0.04779   0.06201
 Alpha virt. eigenvalues --    0.06412   0.06774   0.07485   0.07644   0.08963
 Alpha virt. eigenvalues --    0.11788   0.12552   0.13166   0.14030   0.14426

 Mulliken charges:
               1
     1  C    0.476423
     2  C   -0.699611
     3  C    0.322204
     4  C    0.293574
     5  C    0.460652
     6  C    0.386926
     7  O   -0.633202
     8  H    0.032610
     9  H    0.063459
    10  H   -0.116648
    11  H   -0.397347
    12  H   -0.021342
    13  H   -0.005176
    14  H   -0.066398
    15  H   -0.069826
    16  H   -0.187492
    17  H    0.161194
 Sum of Mulliken charges =  -0.00000

 Dipole moment (field-independent basis, Debye):
    X=              0.4389    Y=             -1.7902    Z=             -0.1857  Tot=              1.8526

 Test job not archived.
 1\1\GINC-SE168\SP\RHF\Aug-CC-pVDZ\C6H10O1\OHZDE\09-Apr-2025\0\\#t hf a
 ug-cc-pvdz iop(5/13=1,5/36=2,99/5=2) pseudo=read geom=check guess=(rea
 d,tcheck) scf=(maxcycle=1)\\title\\0,1\C,0,2.22858633,0.05008558,0.010
 68193\C,0,0.7519106,-0.15987296,0.01227092\C,0,0.06678208,-1.16611008,
 0.54595939\C,0,-1.42074912,-1.02893294,0.37013453\C,0,-1.54302936,0.15
 562864,-0.60533441\C,0,-0.18767921,0.87940683,-0.56019272\O,0,-0.18666
 323,2.06044021,0.23620215\H,0,2.47891124,1.01570726,0.45602761\H,0,2.6
 1535537,0.06251019,-1.01213118\H,0,2.74766413,-0.734056,0.56237142\H,0

 Normal termination of Gaussian 16 at Wed Apr  9 16:03:20 2025.
