 Gaussian 16, Revision C.01,

 ----------------------------------------------------------------------
 #t hf aug-cc-pvdz symm=none int=(grid=ultrafine) guess=(read,tcheck) s
 table=(opt,rrhf)
 ----------------------------------------------------------------------
 -----
 title
 -----
 Symbolic Z-matrix:
 Charge =  0 Multiplicity = 1

 SCF Done:  E(RHF) =  -320.399330243     A.U. after   16 cycles
 Normal termination of Gaussian 16 at Wed Apr  9 15:58:42 2025.
 Gaussian 16:  ES64L-G16RevC.01  3-Jul-2019

 ----------------------------------------------------------------------
 #t hf aug-cc-pvdz iop(5/13=1,5/36=2,99/5=2) pseudo=read geom=check gue
 ss=(read,tcheck) scf=(maxcycle=1)
 ----------------------------------------------------------------------
 -----
 title
 -----
 Structure from the checkpoint file:  "Grambow2020_wb97xd3_007650_forward_mol2.chk"
 Charge =  0 Multiplicity = 1

                         Standard orientation:
 ---------------------------------------------------------------------
 Center     Atomic      Atomic             Coordinates (Angstroms)
 Number     Number       Type             X           Y           Z
 ---------------------------------------------------------------------
      1          7           0       -2.930152    0.022012    0.000437
      2          6           0       -1.781730    0.013088   -0.000236
      3          6           0       -0.359690    0.012395   -0.000622
      4          6           0        0.441875   -1.083169   -0.000515
      5          8           0        1.728868   -0.712940    0.000120
      6          6           0        1.763140    0.642818    0.000378
      7          6           0        0.515297    1.149800   -0.000021
      8          1           0        0.234099   -2.139637    0.001927
      9          1           0        2.742097    1.090994    0.000151
     10          1           0        0.230576    2.188490   -0.000008
 ---------------------------------------------------------------------

 SCF Done:  E(RHF) =  -320.497792074     A.U. after    2 cycles

 The electronic state is 1-A.
 Alpha  occ. eigenvalues --  -20.67640 -15.64534 -11.34632 -11.32950 -11.29780
 Alpha  occ. eigenvalues --  -11.29696 -11.27465  -1.46817  -1.20498  -1.12636
 Alpha  occ. eigenvalues --   -1.05275  -0.89795  -0.83547  -0.79891  -0.69205
 Alpha  occ. eigenvalues --   -0.68861  -0.64396  -0.61844  -0.59983  -0.55340
 Alpha  occ. eigenvalues --   -0.52505  -0.47308  -0.42272  -0.35607
 Alpha virt. eigenvalues --    0.02762   0.03836   0.04577   0.06862   0.08388
 Alpha virt. eigenvalues --    0.08947   0.09658   0.10091   0.11328   0.12897
 Alpha virt. eigenvalues --    0.13034   0.13210   0.14392   0.14766   0.15109

 Mulliken charges:
               1
     1  N   -0.129396
     2  C   -0.845322
     3  C    1.071974
     4  C    0.458505
     5  O   -0.464145
     6  C    0.688655
     7  C    0.201091
     8  H   -0.351327
     9  H   -0.284842
    10  H   -0.345194
 Sum of Mulliken charges =  -0.00000

 Dipole moment (field-independent basis, Debye):
    X=              3.9070    Y=              0.3589    Z=              0.0007  Tot=              3.9234

 Test job not archived.
 1\1\GINC-SE129\SP\RHF\Aug-CC-pVDZ\C5H3N1O1\OHZDE\09-Apr-2025\0\\#t hf
 aug-cc-pvdz iop(5/13=1,5/36=2,99/5=2) pseudo=read geom=check guess=(re
 ad,tcheck) scf=(maxcycle=1)\\title\\0,1\N,0,3.13189449,-0.58395226,-0.
 16319079\C,0,2.01347673,-0.3326492,-0.0928938\C,0,0.6263144,-0.0312871
 4,-0.00828295\C,0,0.08493083,1.16306301,0.34271406\O,0,-1.25194828,1.0
 8857863,0.31763106\C,0,-1.58313638,-0.17260829,-0.055166\C,0,-0.477106
 73,-0.9105751,-0.27021335\H,0,0.51964887,2.10681251,0.62495241\H,0,-2.
 6366174,-0.38488614,-0.12100694\H,0,-0.42745654,-1.94249604,-0.5745437

 Normal termination of Gaussian 16 at Wed Apr  9 15:58:45 2025.
