 Gaussian 16, Revision C.01,

 ----------------------------------------------------------------------
 #t hf aug-cc-pvdz symm=none int=(grid=ultrafine) guess=(read,tcheck) s
 table=(opt,rrhf)
 ----------------------------------------------------------------------
 -----
 title
 -----
 Symbolic Z-matrix:
 Charge =  0 Multiplicity = 1

 SCF Done:  E(RHF) =  -268.746548608     A.U. after   17 cycles
 Normal termination of Gaussian 16 at Wed Apr  9 03:03:38 2025.
 Gaussian 16:  ES64L-G16RevC.01  3-Jul-2019

 ----------------------------------------------------------------------
 #t hf aug-cc-pvdz iop(5/13=1,5/36=2,99/5=2) pseudo=read geom=check gue
 ss=(read,tcheck) scf=(maxcycle=1)
 ----------------------------------------------------------------------
 -----
 title
 -----
 Structure from the checkpoint file:  "Grambow2020_b97d3_006488_forward_mol1.chk"
 Charge =  0 Multiplicity = 1

                         Standard orientation:
 ---------------------------------------------------------------------
 Center     Atomic      Atomic             Coordinates (Angstroms)
 Number     Number       Type             X           Y           Z
 ---------------------------------------------------------------------
      1          8           0       -2.217919   -0.154600   -0.101054
      2          6           0       -0.983229   -0.003027    0.037066
      3          6           0        0.037065   -1.108396    0.273544
      4          6           0        1.366466   -0.693333   -0.375315
      5          6           0        1.810009    0.676714    0.147863
      6          6           0       -0.632040    1.374288    0.101765
      7          1           0        0.162089   -1.238972    1.361195
      8          1           0       -0.356035   -2.050676   -0.129409
      9          1           0        2.154713   -1.437117   -0.182754
     10          1           0        1.230943   -0.644749   -1.465631
     11          1           0        2.510461    1.205616   -0.508942
     12          1           0        2.208900    0.625942    1.170296
     13          1           0        0.902591    1.383310    0.310778
     14          1           0       -0.659939    1.915963   -0.856639
 ---------------------------------------------------------------------

 SCF Done:  E(RHF) =  -268.826926835     A.U. after    2 cycles

 The electronic state is 1-A.
 Alpha  occ. eigenvalues --  -20.55094 -11.34963 -11.29832 -11.27963 -11.26901
 Alpha  occ. eigenvalues --  -11.26632  -1.32797  -1.10672  -0.98462  -0.97085
 Alpha  occ. eigenvalues --   -0.84495  -0.73107  -0.67735  -0.66141  -0.61687
 Alpha  occ. eigenvalues --   -0.60074  -0.58217  -0.57163  -0.52370  -0.51723
 Alpha  occ. eigenvalues --   -0.49982  -0.42915  -0.37241
 Alpha virt. eigenvalues --    0.02574   0.03832   0.04143   0.04770   0.06195
 Alpha virt. eigenvalues --    0.06608   0.06852   0.07237   0.07993   0.10593
 Alpha virt. eigenvalues --    0.11934   0.12433   0.13462   0.14169   0.14354

 Mulliken charges:
               1
     1  O   -0.633434
     2  C    0.277120
     3  C    0.185288
     4  C    0.250528
     5  C    0.497678
     6  C   -0.134119
     7  H    0.038787
     8  H   -0.019216
     9  H   -0.039949
    10  H   -0.109399
    11  H   -0.010688
    12  H    0.029202
    13  H   -0.302590
    14  H   -0.029208
 Sum of Mulliken charges =  -0.00000

 Dipole moment (field-independent basis, Debye):
    X=              5.3555    Y=             -0.5284    Z=             -0.8015  Tot=              5.4408

 Test job not archived.
 1\1\GINC-SE090\SP\RHF\Aug-CC-pVDZ\C5H8O1\OHZDE\09-Apr-2025\0\\#t hf au
 g-cc-pvdz iop(5/13=1,5/36=2,99/5=2) pseudo=read geom=check guess=(read
 ,tcheck) scf=(maxcycle=1)\\title\\0,1\O,0,-0.91634265,2.53238128,-0.46
 839998\C,0,-0.41579721,1.42925026,-0.1536521\C,0,-1.18026936,0.1891320
 4,0.28957742\C,0,-0.40431959,-1.05413318,-0.17172072\C,0,1.03815469,-1
 .0031623,0.34222979\C,0,1.00467638,1.49678549,-0.10663529\H,0,-1.26365
 301,0.20676971,1.3888507\H,0,-2.19787953,0.23050673,-0.11974825\H,0,-0
 .88932961,-1.97948309,0.17486199\H,0,-0.40250268,-1.08544736,-1.271053

 Normal termination of Gaussian 16 at Wed Apr  9 03:03:42 2025.
