 Gaussian 16, Revision C.01,

 ----------------------------------------------------------------------
 #t hf aug-cc-pvdz symm=none int=(grid=ultrafine) guess=(read,tcheck) s
 table=(opt,rrhf)
 ----------------------------------------------------------------------
 -----
 title
 -----
 Symbolic Z-matrix:
 Charge =  0 Multiplicity = 1

 SCF Done:  E(RHF) =  -271.917856938     A.U. after   15 cycles
 Normal termination of Gaussian 16 at Wed Apr  9 15:53:25 2025.
 Gaussian 16:  ES64L-G16RevC.01  3-Jul-2019

 ----------------------------------------------------------------------
 #t hf aug-cc-pvdz iop(5/13=1,5/36=2,99/5=2) pseudo=read geom=check gue
 ss=(read,tcheck) scf=(maxcycle=1)
 ----------------------------------------------------------------------
 -----
 title
 -----
 Structure from the checkpoint file:  "Grambow2020_wb97xd3_007429_reverse_mol1.chk"
 Charge =  0 Multiplicity = 1

                         Standard orientation:
 ---------------------------------------------------------------------
 Center     Atomic      Atomic             Coordinates (Angstroms)
 Number     Number       Type             X           Y           Z
 ---------------------------------------------------------------------
      1          6           0        2.688007    0.130407   -0.220146
      2          6           0        1.419923   -0.707283   -0.127587
      3          6           0        0.299547    0.014300    0.597984
      4          6           0       -0.347780    1.248168   -0.087676
      5          6           0       -1.713956    0.561585    0.015663
      6          6           0       -1.943996   -0.517344   -0.949179
      7          6           0       -1.073553   -0.686409    0.658620
      8          1           0        3.472246   -0.395594   -0.766493
      9          1           0        3.077245    0.371796    0.772328
     10          1           0        2.499542    1.073186   -0.739178
     11          1           0        1.072750   -0.970293   -1.131523
     12          1           0        1.631806   -1.649182    0.389935
     13          1           0        0.610628    0.262077    1.615851
     14          1           0       -0.032707    1.422973   -1.116789
     15          1           0       -0.252571    2.169046    0.486511
     16          1           0       -2.544890    1.032554    0.530131
     17          1           0       -2.902103   -0.985649   -0.669514
     18          1           0       -1.088306   -1.457781   -0.239131
     19          1           0       -1.512796   -1.133673    1.541798
 ---------------------------------------------------------------------

 SCF Done:  E(RHF) =  -271.999691364     A.U. after    2 cycles

 The electronic state is 1-A.
 Alpha  occ. eigenvalues --  -11.26834 -11.24764 -11.24759 -11.24268 -11.22758
 Alpha  occ. eigenvalues --  -11.22746 -11.22328  -1.17863  -1.04634  -0.96667
 Alpha  occ. eigenvalues --   -0.91488  -0.83674  -0.76868  -0.74661  -0.69642
 Alpha  occ. eigenvalues --   -0.62050  -0.60292  -0.57389  -0.56412  -0.54078
 Alpha  occ. eigenvalues --   -0.51810  -0.50690  -0.48587  -0.46345  -0.45548
 Alpha  occ. eigenvalues --   -0.41708  -0.32485
 Alpha virt. eigenvalues --    0.03035   0.04019   0.04240   0.04776   0.06016
 Alpha virt. eigenvalues --    0.06200   0.06437   0.07166   0.07333   0.08785
 Alpha virt. eigenvalues --    0.09082   0.10143   0.11607   0.13094   0.13747

 Mulliken charges:
               1
     1  C    0.465615
     2  C    0.196724
     3  C   -0.291271
     4  C    0.863702
     5  C    0.571874
     6  C   -0.377876
     7  C    0.103695
     8  H   -0.061629
     9  H   -0.063521
    10  H   -0.075627
    11  H   -0.042849
    12  H   -0.088576
    13  H   -0.269155
    14  H   -0.246145
    15  H   -0.228289
    16  H   -0.381086
    17  H   -0.120016
    18  H    0.321568
    19  H   -0.277140
 Sum of Mulliken charges =  -0.00000

 Dipole moment (field-independent basis, Debye):
    X=              0.2497    Y=              0.2988    Z=              2.5965  Tot=              2.6256

 Test job not archived.
 1\1\GINC-SE131\SP\RHF\Aug-CC-pVDZ\C7H12\OHZDE\09-Apr-2025\0\\#t hf aug
 -cc-pvdz iop(5/13=1,5/36=2,99/5=2) pseudo=read geom=check guess=(read,
 tcheck) scf=(maxcycle=1)\\title\\0,1\C,0,2.39466031,0.45475019,-0.6809
 784\C,0,1.14760868,-0.4155432,-0.75702132\C,0,0.25822901,-0.26281888,0
 .46283713\C,0,-0.47649253,1.08883482,0.67451383\C,0,-1.80984098,0.3340
 8818,0.70697545\C,0,-2.30369813,-0.11534694,-0.59764659\C,0,-1.0923583
 8,-1.00841508,0.45418738\H,0,3.00738635,0.34960853,-1.5774793\H,0,3.01
 344443,0.18686088,0.17932402\H,0,2.13191165,1.51070845,-0.58269144\H,0

 Normal termination of Gaussian 16 at Wed Apr  9 15:53:33 2025.
