 Gaussian 16, Revision C.01,

 ----------------------------------------------------------------------
 #t hf aug-cc-pvdz symm=none int=(grid=ultrafine) guess=(read,tcheck) s
 table=(opt,rrhf)
 ----------------------------------------------------------------------
 -----
 title
 -----
 Symbolic Z-matrix:
 Charge =  0 Multiplicity = 1

 SCF Done:  E(RHF) =  -352.257720617     A.U. after   18 cycles
 Normal termination of Gaussian 16 at Wed Apr  9 16:25:42 2025.
 Gaussian 16:  ES64L-G16RevC.01  3-Jul-2019

 ----------------------------------------------------------------------
 #t hf aug-cc-pvdz iop(5/13=1,5/36=2,99/5=2) pseudo=read geom=check gue
 ss=(read,tcheck) scf=(maxcycle=1)
 ----------------------------------------------------------------------
 -----
 title
 -----
 Structure from the checkpoint file:  "Grambow2020_wb97xd3_008227_reverse_mol1.chk"
 Charge =  0 Multiplicity = 1

                         Standard orientation:
 ---------------------------------------------------------------------
 Center     Atomic      Atomic             Coordinates (Angstroms)
 Number     Number       Type             X           Y           Z
 ---------------------------------------------------------------------
      1          7           0       -2.705561   -0.191238    0.001080
      2          6           0       -1.556132   -0.238430   -0.000333
      3          6           0       -0.149601   -0.262621   -0.001624
      4          6           0        0.700490    0.905883    0.000287
      5          8           0        0.689826    2.059447   -0.000221
      6          7           0        1.838573   -1.180380    0.001080
      7          7           0        0.666590   -1.344650   -0.000962
      8          1           0        1.915638    0.109315    0.003389
 ---------------------------------------------------------------------

 SCF Done:  E(RHF) =  -352.358260617     A.U. after    2 cycles

 The electronic state is 1-A.
 Alpha  occ. eigenvalues --  -20.70152 -15.80305 -15.79343 -15.66455 -11.47605
 Alpha  occ. eigenvalues --  -11.35782 -11.31877  -1.50575  -1.45603  -1.22239
 Alpha  occ. eigenvalues --   -1.13382  -0.95755  -0.87900  -0.81007  -0.77346
 Alpha  occ. eigenvalues --   -0.71137  -0.67748  -0.65242  -0.62541  -0.57089
 Alpha  occ. eigenvalues --   -0.53330  -0.49922  -0.46229  -0.38256
 Alpha virt. eigenvalues --   -0.01788   0.03030   0.03327   0.06343   0.07227
 Alpha virt. eigenvalues --    0.08578   0.10031   0.11144   0.11800   0.11901
 Alpha virt. eigenvalues --    0.12905   0.13433   0.13774   0.14504   0.15315

 Mulliken charges:
               1
     1  N   -0.073751
     2  C   -0.730112
     3  C    1.564455
     4  C   -0.209849
     5  O   -0.233952
     6  N   -0.203420
     7  N   -0.354311
     8  H    0.240940
 Sum of Mulliken charges =  -0.00000

 Dipole moment (field-independent basis, Debye):
    X=              3.4716    Y=             -0.4543    Z=              0.0013  Tot=              3.5012

 Test job not archived.
 1\1\GINC-SE026\SP\RHF\Aug-CC-pVDZ\C3H1N3O1\OHZDE\09-Apr-2025\0\\#t hf
 aug-cc-pvdz iop(5/13=1,5/36=2,99/5=2) pseudo=read geom=check guess=(re
 ad,tcheck) scf=(maxcycle=1)\\title\\0,1\N,0,2.84319419,-0.27260251,0.3
 6672313\C,0,1.69471517,-0.29174654,0.30312615\C,0,0.2905218,-0.2822187
 5,0.21906588\C,0,-0.51745929,0.88764106,-0.03911268\O,0,-0.46732262,2.
 02295283,-0.23754772\N,0,-1.72435848,-1.13925162,0.24868599\N,0,-0.560
 82589,-1.32818066,0.35370597\H,0,-1.75691889,0.13163019,0.01834228\\Ve
 rsion=ES64L-G16RevC.01\State=1-A\HF=-352.3582606\RMSD=5.533e-03\Dipole

 Normal termination of Gaussian 16 at Wed Apr  9 16:25:45 2025.
