 Gaussian 16, Revision C.01,

 ----------------------------------------------------------------------
 #t hf aug-cc-pvdz symm=none int=(grid=ultrafine) guess=(read,tcheck) s
 table=(opt,rrhf)
 ----------------------------------------------------------------------
 -----
 title
 -----
 Symbolic Z-matrix:
 Charge =  0 Multiplicity = 1

 SCF Done:  E(RHF) =  -375.597678632     A.U. after   15 cycles
 Normal termination of Gaussian 16 at Wed Apr  9 16:11:00 2025.
 Gaussian 16:  ES64L-G16RevC.01  3-Jul-2019

 ----------------------------------------------------------------------
 #t hf aug-cc-pvdz iop(5/13=1,5/36=2,99/5=2) pseudo=read geom=check gue
 ss=(read,tcheck) scf=(maxcycle=1)
 ----------------------------------------------------------------------
 -----
 title
 -----
 Structure from the checkpoint file:  "Grambow2020_wb97xd3_007857_reverse_mol1.chk"
 Charge =  0 Multiplicity = 1

                         Standard orientation:
 ---------------------------------------------------------------------
 Center     Atomic      Atomic             Coordinates (Angstroms)
 Number     Number       Type             X           Y           Z
 ---------------------------------------------------------------------
      1          7           0        2.291477    0.906958    0.177788
      2          6           0        1.539102   -0.104530   -0.084223
      3          8           0        1.626669   -1.330351   -0.295780
      4          6           0        0.079007    0.195672   -0.266662
      5          8           0       -0.739697   -0.149090    0.689950
      6          6           0       -2.100107   -0.212656    0.422775
      7          7           0       -2.577826    0.293718   -0.606575
      8          1           0        3.275176    0.675890    0.239395
      9          1           0        0.926030    1.876318    0.012936
     10          1           0       -0.343584    0.229285   -1.269612
     11          1           0        0.116662    1.935968   -0.146968
     12          1           0       -2.591561   -0.727278    1.244159
     13          1           0       -3.582068    0.169696   -0.663094
 ---------------------------------------------------------------------

 SCF Done:  E(RHF) =  -375.717366302     A.U. after    2 cycles

 The electronic state is 1-A.
 Alpha  occ. eigenvalues --  -20.70919 -20.51767 -15.68043 -15.58104 -11.43933
 Alpha  occ. eigenvalues --  -11.41904 -11.34701  -1.50338  -1.32107  -1.25111
 Alpha  occ. eigenvalues --   -1.14096  -1.04581  -0.89492  -0.84330  -0.75992
 Alpha  occ. eigenvalues --   -0.75787  -0.73161  -0.67065  -0.65775  -0.61805
 Alpha  occ. eigenvalues --   -0.58507  -0.55118  -0.50638  -0.50002  -0.44584
 Alpha  occ. eigenvalues --   -0.40167  -0.36426
 Alpha virt. eigenvalues --    0.01686   0.03479   0.04024   0.05506   0.06061
 Alpha virt. eigenvalues --    0.06598   0.08478   0.09556   0.09872   0.11776
 Alpha virt. eigenvalues --    0.12312   0.13128   0.13727   0.13858   0.15322

 Mulliken charges:
               1
     1  N   -0.335422
     2  C    0.376054
     3  O   -0.610483
     4  C    0.454786
     5  O   -0.458292
     6  C    0.710138
     7  N   -0.230212
     8  H   -0.049199
     9  H    0.226207
    10  H   -0.077474
    11  H    0.161041
    12  H   -0.211373
    13  H    0.044228
 Sum of Mulliken charges =  -0.00000

 Dipole moment (field-independent basis, Debye):
    X=             -6.7722    Y=              1.5003    Z=              0.5025  Tot=              6.9546

 Test job not archived.
 1\1\GINC-SE141\SP\RHF\Aug-CC-pVDZ\C3H6N2O2\OHZDE\09-Apr-2025\0\\#t hf
 aug-cc-pvdz iop(5/13=1,5/36=2,99/5=2) pseudo=read geom=check guess=(re
 ad,tcheck) scf=(maxcycle=1)\\title\\0,1\N,0,-2.39625265,-0.72320295,0.
 64825106\C,0,-1.73954847,0.2770016,0.17269129\O,0,-1.91985115,1.463494
 16,-0.16611243\C,0,-0.30058598,0.0133794,-0.16667999\O,0,0.61365909,0.
 50378017,0.62572572\C,0,1.9233257,0.5867272,0.17402889\N,0,2.29244248,
 -0.02276737,-0.84403827\H,0,-3.37511009,-0.52450588,0.81320789\H,0,-1.
 01244078,-1.65197443,0.41645995\H,0,-0.00836261,-0.12615465,-1.2062749

 Normal termination of Gaussian 16 at Wed Apr  9 16:11:07 2025.
