 Gaussian 16, Revision C.01,

 ----------------------------------------------------------------------
 #t hf aug-cc-pvdz symm=none int=(grid=ultrafine) guess=(read,tcheck) s
 table=(opt,rrhf)
 ----------------------------------------------------------------------
 -----
 title
 -----
 Symbolic Z-matrix:
 Charge =  0 Multiplicity = 1

 SCF Done:  E(RHF) =  -333.504722962     A.U. after   20 cycles
 Normal termination of Gaussian 16 at Wed Apr  9 15:33:43 2025.
 Gaussian 16:  ES64L-G16RevC.01  3-Jul-2019

 ----------------------------------------------------------------------
 #t hf aug-cc-pvdz iop(5/13=1,5/36=2,99/5=2) pseudo=read geom=check gue
 ss=(read,tcheck) scf=(maxcycle=1)
 ----------------------------------------------------------------------
 -----
 title
 -----
 Structure from the checkpoint file:  "Grambow2020_wb97xd3_006989_forward_mol1.chk"
 Charge =  0 Multiplicity = 1

                         Standard orientation:
 ---------------------------------------------------------------------
 Center     Atomic      Atomic             Coordinates (Angstroms)
 Number     Number       Type             X           Y           Z
 ---------------------------------------------------------------------
      1          7           0       -2.024770   -0.230750   -0.304212
      2          6           0       -0.875298    0.225275    0.238082
      3          6           0       -0.089819    1.355165    0.003463
      4          7           0        1.202152    0.957634    0.103632
      5          6           0        1.490300   -0.361681   -0.436434
      6          7           0        0.706383   -1.322760   -0.145728
      7          7           0        0.048268   -0.575080    0.887251
      8          1           0       -2.340019    0.113687   -1.193207
      9          1           0       -2.338148   -1.147234   -0.038204
     10          1           0       -0.339164    2.369944   -0.281956
     11          1           0        2.342014   -0.452260   -1.103902
 ---------------------------------------------------------------------

 SCF Done:  E(RHF) =  -333.598934455     A.U. after    2 cycles

 The electronic state is 1-A.
 Alpha  occ. eigenvalues --  -15.68912 -15.68126 -15.67689 -15.66901 -11.35010
 Alpha  occ. eigenvalues --  -11.33409 -11.29540  -1.35550  -1.22569  -1.16576
 Alpha  occ. eigenvalues --   -1.07730  -0.90875  -0.85059  -0.75555  -0.74244
 Alpha  occ. eigenvalues --   -0.70853  -0.66131  -0.62791  -0.59866  -0.54162
 Alpha  occ. eigenvalues --   -0.49596  -0.45654  -0.39799  -0.38814  -0.29765
 Alpha virt. eigenvalues --    0.01804   0.02502   0.04003   0.04293   0.05480
 Alpha virt. eigenvalues --    0.09109   0.09625   0.10556   0.11505   0.11987
 Alpha virt. eigenvalues --    0.13095   0.14331   0.14718   0.15087   0.16137

 Mulliken charges:
               1
     1  N   -0.278474
     2  C    0.827953
     3  C    0.600809
     4  N   -0.607198
     5  C    0.872784
     6  N   -0.368371
     7  N   -0.726203
     8  H    0.006789
     9  H    0.003037
    10  H   -0.164407
    11  H   -0.166719
 Sum of Mulliken charges =   0.00000

 Dipole moment (field-independent basis, Debye):
    X=             -2.7481    Y=              0.7106    Z=             -2.8893  Tot=              4.0504

 Test job not archived.
 1\1\GINC-SE163\SP\RHF\Aug-CC-pVDZ\C3H4N4\OHZDE\09-Apr-2025\0\\#t hf au
 g-cc-pvdz iop(5/13=1,5/36=2,99/5=2) pseudo=read geom=check guess=(read
 ,tcheck) scf=(maxcycle=1)\\title\\0,1\N,0,1.72672461,-0.44021315,-0.50
 221648\C,0,0.60695386,0.31248677,-0.4485247\C,0,0.08572785,1.1837745,0
 .50952295\N,0,-1.25595222,0.99134679,0.52047218\C,0,-1.68766256,-0.387
 23912,0.35188844\N,0,-1.14642842,-1.08663009,-0.56496743\N,0,-0.537209
 18,0.05598342,-1.18341212\H,0,2.2363715,-0.65504797,0.33589768\H,0,1.8
 2321782,-1.08428762,-1.26691676\H,0,0.55624969,1.86211689,1.21086053\H

 Normal termination of Gaussian 16 at Wed Apr  9 15:33:48 2025.
