 Gaussian 16, Revision C.01,

 ----------------------------------------------------------------------
 #t hf aug-cc-pvdz symm=none int=(grid=ultrafine) guess=(read,tcheck) s
 table=(opt,rrhf)
 ----------------------------------------------------------------------
 -----
 title
 -----
 Symbolic Z-matrix:
 Charge =  0 Multiplicity = 1

 SCF Done:  E(RHF) =  -320.610064444     A.U. after   16 cycles
 Normal termination of Gaussian 16 at Wed Apr  9 14:18:05 2025.
 Gaussian 16:  ES64L-G16RevC.01  3-Jul-2019

 ----------------------------------------------------------------------
 #t hf aug-cc-pvdz iop(5/13=1,5/36=2,99/5=2) pseudo=read geom=check gue
 ss=(read,tcheck) scf=(maxcycle=1)
 ----------------------------------------------------------------------
 -----
 title
 -----
 Structure from the checkpoint file:  "Grambow2020_b97d3_007122_forward_mol1.chk"
 Charge =  0 Multiplicity = 1

                         Standard orientation:
 ---------------------------------------------------------------------
 Center     Atomic      Atomic             Coordinates (Angstroms)
 Number     Number       Type             X           Y           Z
 ---------------------------------------------------------------------
      1          6           0       -2.038883   -0.620134   -0.061338
      2          7           0       -0.641471   -0.774636    0.034048
      3          6           0        0.063613    0.368626    0.053511
      4          8           0       -0.667181    1.453117    0.023526
      5          6           0        1.521540    0.336289   -0.074775
      6          8           0        2.170610   -0.701744    0.062319
      7          1           0       -1.632724    0.957177   -0.329015
      8          1           0       -2.538816   -1.472036   -0.519232
      9          1           0       -2.501930   -0.269310    0.868306
     10          1           0       -0.122551   -1.634304   -0.150120
     11          1           0        1.981264    1.321254   -0.299422
 ---------------------------------------------------------------------

 SCF Done:  E(RHF) =  -320.709447129     A.U. after    2 cycles

 The electronic state is 1-A.
 Alpha  occ. eigenvalues --  -20.62342 -20.62135 -15.72394 -11.39709 -11.39471
 Alpha  occ. eigenvalues --  -11.23860  -1.41463  -1.38514  -1.24014  -1.01477
 Alpha  occ. eigenvalues --   -0.89764  -0.82899  -0.76939  -0.74304  -0.68577
 Alpha  occ. eigenvalues --   -0.66513  -0.63151  -0.60460  -0.57371  -0.55855
 Alpha  occ. eigenvalues --   -0.49604  -0.46843  -0.30266
 Alpha virt. eigenvalues --    0.01353   0.03426   0.03993   0.05142   0.06270
 Alpha virt. eigenvalues --    0.07378   0.09213   0.10371   0.11665   0.13164
 Alpha virt. eigenvalues --    0.13209   0.14479   0.14925   0.15715   0.16038

 Mulliken charges:
               1
     1  C    0.318571
     2  N   -0.237846
     3  C    0.403688
     4  O   -0.616026
     5  C    0.842492
     6  O   -0.490544
     7  H    0.367642
     8  H   -0.300644
     9  H   -0.208867
    10  H   -0.011793
    11  H   -0.066673
 Sum of Mulliken charges =   0.00000

 Dipole moment (field-independent basis, Debye):
    X=              0.4201    Y=             -0.3157    Z=             -0.2749  Tot=              0.5931

 Test job not archived.
 1\1\GINC-SE232\SP\RHF\Aug-CC-pVDZ\C3H5N1O2\OHZDE\09-Apr-2025\0\\#t hf
 aug-cc-pvdz iop(5/13=1,5/36=2,99/5=2) pseudo=read geom=check guess=(re
 ad,tcheck) scf=(maxcycle=1)\\title\\0,1\C,0,-0.98922775,1.40504672,0.0
 4296187\N,0,0.21927524,0.68690776,-0.05463721\C,0,0.09204959,-0.649618
 07,-0.10026817\O,0,-1.14526644,-1.07390183,-0.08970606\C,0,1.27303489,
 -1.50584705,0.02301735\O,0,2.41814685,-1.06729426,-0.09526718\H,0,-1.6
 1935806,-0.10254897,0.27666223\H,0,-0.87824092,2.37731354,0.52016054\H
 ,0,-1.5615033,1.42208833,-0.89188435\H,0,1.15000692,1.05577505,0.14511

 Normal termination of Gaussian 16 at Wed Apr  9 14:18:09 2025.
