 Gaussian 16, Revision C.01,

 ----------------------------------------------------------------------
 #t hf aug-cc-pvdz symm=none int=(grid=ultrafine) guess=(read,tcheck) s
 table=(opt,rrhf)
 ----------------------------------------------------------------------
 -----
 title
 -----
 Symbolic Z-matrix:
 Charge =  0 Multiplicity = 1

 SCF Done:  E(RHF) =  -288.989447220     A.U. after   14 cycles

 1\1\GINC-SE103\Stability\RHF\Aug-CC-pVDZ\C6H13N1\OHZDE\09-Apr-2025\0\\
 #t hf aug-cc-pvdz symm=none int=(grid=ultrafine) guess=(read,tcheck) s
 table=(opt,rrhf)\\title\\0,1\C,0,-1.18797583,1.73938669,0.61132538\C,0
 ,-0.68728187,0.33212438,0.75531076\N,0,-0.73762956,-0.54996945,-0.4128
 7459\C,0,-1.26203362,-1.89917957,-0.31784719\C,0,0.50686581,-0.2745797
 5,0.1504491\C,0,1.57699432,-1.09059236,0.60239901\C,0,1.31071708,1.148
 89564,-1.15641631\H,0,-2.25441067,1.77780246,0.84120107\H,0,-0.6689812
 9,2.40422654,1.30470436\H,0,-1.04458368,2.10463016,-0.40294687\H,0,-0.

 Normal termination of Gaussian 16 at Wed Apr  9 17:05:04 2025.
 Gaussian 16:  ES64L-G16RevC.01  3-Jul-2019

 ----------------------------------------------------------------------
 #t hf aug-cc-pvdz iop(5/13=1,5/36=2,99/5=2) pseudo=read geom=check gue
 ss=(read,tcheck) scf=(maxcycle=1)
 ----------------------------------------------------------------------
 -----
 title
 -----
 Structure from the checkpoint file:  "Grambow2020_wb97xd3_009133_reverse_mol1.chk"
 Charge =  0 Multiplicity = 1

                         Standard orientation:
 ---------------------------------------------------------------------
 Center     Atomic      Atomic             Coordinates (Angstroms)
 Number     Number       Type             X           Y           Z
 ---------------------------------------------------------------------
      1          6           0       -1.523754   -1.567435    0.327722
      2          6           0       -0.237025   -0.840057    0.586688
      3          7           0        0.596820   -0.466837   -0.558166
      4          6           0        2.024866   -0.721803   -0.566824
      5          6           0        0.103752    0.550834    0.256189
      6          6           0        0.710595    1.641163    0.933119
      7          6           0       -1.493690    1.314617   -0.859683
      8          1           0       -1.345441   -2.644371    0.323775
      9          1           0       -2.252545   -1.348759    1.110784
     10          1           0       -1.944964   -1.288183   -0.635249
     11          1           0        0.302185   -1.165895    1.478343
     12          1           0        2.497751   -0.079725   -1.310825
     13          1           0        2.492798   -0.535625    0.405894
     14          1           0        2.189028   -1.759517   -0.857611
     15          1           0       -0.453034    1.751107    0.031181
     16          1           0        0.495343    1.786533    1.981628
     17          1           0        1.599232    2.083202    0.503074
     18          1           0       -1.325195    0.812720   -1.806965
     19          1           0       -1.536828    2.402058   -1.018414
     20          1           0       -2.404537    0.990398   -0.361720
 ---------------------------------------------------------------------

 SCF Done:  E(RHF) =  -289.080974677     A.U. after    2 cycles

 The electronic state is 1-A.
 Alpha  occ. eigenvalues --  -15.64292 -11.34730 -11.29188 -11.26637 -11.23890
 Alpha  occ. eigenvalues --  -11.21454 -11.18341  -1.29090  -1.03670  -1.01859
 Alpha  occ. eigenvalues --   -0.95053  -0.91346  -0.80976  -0.73322  -0.67184
 Alpha  occ. eigenvalues --   -0.66345  -0.61736  -0.60617  -0.57275  -0.56863
 Alpha  occ. eigenvalues --   -0.56076  -0.54664  -0.53619  -0.49705  -0.47194
 Alpha  occ. eigenvalues --   -0.45567  -0.38872  -0.25967
 Alpha virt. eigenvalues --    0.03234   0.04101   0.04205   0.04456   0.06422
 Alpha virt. eigenvalues --    0.06486   0.06689   0.06946   0.07131   0.08807
 Alpha virt. eigenvalues --    0.08977   0.09758   0.10261   0.12530   0.12750

 Mulliken charges:
               1
     1  C    0.327638
     2  C    0.112955
     3  N   -0.612014
     4  C    0.857461
     5  C   -0.068375
     6  C    0.645938
     7  C    0.228805
     8  H    0.000885
     9  H    0.097756
    10  H   -0.075987
    11  H   -0.413628
    12  H   -0.208720
    13  H   -0.084941
    14  H   -0.203930
    15  H    0.176592
    16  H   -0.226895
    17  H   -0.260814
    18  H   -0.071293
    19  H   -0.208298
    20  H   -0.013136
 Sum of Mulliken charges =  -0.00000

 Dipole moment (field-independent basis, Debye):
    X=              0.1474    Y=             -2.0091    Z=              0.2375  Tot=              2.0285

 Test job not archived.
 1\1\GINC-SE103\SP\RHF\Aug-CC-pVDZ\C6H13N1\OHZDE\09-Apr-2025\0\\#t hf a
 ug-cc-pvdz iop(5/13=1,5/36=2,99/5=2) pseudo=read geom=check guess=(rea
 d,tcheck) scf=(maxcycle=1)\\title\\0,1\C,0,-1.18797583,1.73938669,0.61
 132538\C,0,-0.68728187,0.33212438,0.75531076\N,0,-0.73762956,-0.549969
 45,-0.41287459\C,0,-1.26203362,-1.89917957,-0.31784719\C,0,0.50686581,
 -0.27457975,0.1504491\C,0,1.57699432,-1.09059236,0.60239901\C,0,1.3107
 1708,1.14889564,-1.15641631\H,0,-2.25441067,1.77780246,0.84120107\H,0,
 -0.66898129,2.40422654,1.30470436\H,0,-1.04458368,2.10463016,-0.402946

 Normal termination of Gaussian 16 at Wed Apr  9 17:05:13 2025.
