 Gaussian 16, Revision C.01,

 ----------------------------------------------------------------------
 #t hf aug-cc-pvdz symm=none int=(grid=ultrafine) guess=(read,tcheck) s
 table=(opt,rrhf)
 ----------------------------------------------------------------------
 -----
 title
 -----
 Symbolic Z-matrix:
 Charge =  0 Multiplicity = 1

 SCF Done:  E(RHF) =  -343.517973504     A.U. after   14 cycles
 Normal termination of Gaussian 16 at Wed Apr  9 16:36:07 2025.
 Gaussian 16:  ES64L-G16RevC.01  3-Jul-2019

 ----------------------------------------------------------------------
 #t hf aug-cc-pvdz iop(5/13=1,5/36=2,99/5=2) pseudo=read geom=check gue
 ss=(read,tcheck) scf=(maxcycle=1)
 ----------------------------------------------------------------------
 -----
 title
 -----
 Structure from the checkpoint file:  "Grambow2020_wb97xd3_008652_forward_mol1.chk"
 Charge =  0 Multiplicity = 1

                         Standard orientation:
 ---------------------------------------------------------------------
 Center     Atomic      Atomic             Coordinates (Angstroms)
 Number     Number       Type             X           Y           Z
 ---------------------------------------------------------------------
      1          6           0        2.241555    0.679511   -0.350669
      2          6           0        1.249274   -0.440795   -0.348188
      3          8           0        0.776137   -0.883996    0.929507
      4          6           0       -0.129614   -0.249945    0.087513
      5          6           0       -1.444134   -0.795026   -0.438846
      6          8           0       -1.949801    0.561611   -0.378306
      7          6           0       -0.873807    1.064231    0.288179
      8          1           0        2.335414    1.095133   -1.355587
      9          1           0        1.920791    1.474289    0.322723
     10          1           0        3.222317    0.320162   -0.034758
     11          1           0        1.439595   -1.261015   -1.038089
     12          1           0       -1.494785   -1.215523   -1.444042
     13          1           0       -1.968639   -1.424842    0.286683
     14          1           0       -1.236437    0.629328    1.910973
     15          1           0       -1.088590    1.413691    1.514563
 ---------------------------------------------------------------------

 SCF Done:  E(RHF) =  -343.627458745     A.U. after    2 cycles

 The electronic state is 1-A.
 Alpha  occ. eigenvalues --  -20.61452 -20.60406 -11.32467 -11.31817 -11.31484
 Alpha  occ. eigenvalues --  -11.31413 -11.24176  -1.42095  -1.39502  -1.02244
 Alpha  occ. eigenvalues --   -0.99971  -0.95066  -0.86600  -0.76566  -0.73508
 Alpha  occ. eigenvalues --   -0.70392  -0.68356  -0.64990  -0.62037  -0.58198
 Alpha  occ. eigenvalues --   -0.56165  -0.53775  -0.52380  -0.51097  -0.47649
 Alpha  occ. eigenvalues --   -0.44729  -0.34758
 Alpha virt. eigenvalues --    0.03197   0.04259   0.04513   0.05120   0.06064
 Alpha virt. eigenvalues --    0.06286   0.07398   0.08328   0.10465   0.10987
 Alpha virt. eigenvalues --    0.11747   0.12180   0.12702   0.14046   0.14542

 Mulliken charges:
               1
     1  C    0.326958
     2  C    0.243778
     3  O   -0.759014
     4  C    0.009742
     5  C    0.801549
     6  O   -0.629862
     7  C    0.043983
     8  H    0.085772
     9  H    0.015024
    10  H    0.058839
    11  H   -0.261528
    12  H   -0.122220
    13  H   -0.036528
    14  H    0.097606
    15  H    0.125902
 Sum of Mulliken charges =  -0.00000

 Dipole moment (field-independent basis, Debye):
    X=              1.0375    Y=             -1.4351    Z=             -1.4660  Tot=              2.2989

 Test job not archived.
 1\1\GINC-SE129\SP\RHF\Aug-CC-pVDZ\C5H8O2\OHZDE\09-Apr-2025\0\\#t hf au
 g-cc-pvdz iop(5/13=1,5/36=2,99/5=2) pseudo=read geom=check guess=(read
 ,tcheck) scf=(maxcycle=1)\\title\\0,1\C,0,2.0220969,-0.32562057,0.6970
 8022\C,0,0.96159683,0.65919457,0.3160381\O,0,0.6241753,0.74215221,-1.0
 7394559\C,0,-0.33400423,0.23625662,-0.20370453\C,0,-1.73979748,0.75654
 459,0.03119231\O,0,-2.13673592,-0.61979265,0.25020145\C,0,-0.95217646,
 -1.15539088,-0.15544167\H,0,2.01688802,-0.48324031,1.77714473\H,0,1.84
 616195,-1.28359909,0.20785329\H,0,3.00718096,0.04507315,0.40894452\H,0

 Normal termination of Gaussian 16 at Wed Apr  9 16:36:12 2025.
