 Gaussian 16, Revision C.01,

 ----------------------------------------------------------------------
 #t hf aug-cc-pvdz symm=none int=(grid=ultrafine) guess=(read,tcheck) s
 table=(opt,rrhf)
 ----------------------------------------------------------------------
 -----
 title
 -----
 Symbolic Z-matrix:
 Charge =  0 Multiplicity = 1

 SCF Done:  E(RHF) =  -322.576129702     A.U. after   16 cycles
 Normal termination of Gaussian 16 at Wed Apr  9 15:21:01 2025.
 Gaussian 16:  ES64L-G16RevC.01  3-Jul-2019

 ----------------------------------------------------------------------
 #t hf aug-cc-pvdz iop(5/13=1,5/36=2,99/5=2) pseudo=read geom=check gue
 ss=(read,tcheck) scf=(maxcycle=1)
 ----------------------------------------------------------------------
 -----
 title
 -----
 Structure from the checkpoint file:  "Grambow2020_wb97xd3_006857_forward_mol1.chk"
 Charge =  0 Multiplicity = 1

                         Standard orientation:
 ---------------------------------------------------------------------
 Center     Atomic      Atomic             Coordinates (Angstroms)
 Number     Number       Type             X           Y           Z
 ---------------------------------------------------------------------
      1          6           0       -1.943507   -0.540968    0.648579
      2          6           0       -1.109936   -0.349951   -0.456926
      3          6           0        0.150245   -0.993777   -0.561497
      4          6           0        1.021017   -0.053590   -0.053920
      5          7           0        2.330781   -0.210644    0.331597
      6          6           0        0.212880    1.094713    0.259515
      7          8           0       -0.911879    1.007405   -0.562892
      8          1           0       -0.797796    0.315768    1.264168
      9          1           0       -2.049704   -1.534762    1.070899
     10          1           0       -2.786205    0.127133    0.786723
     11          1           0        0.311904   -2.057866   -0.643887
     12          1           0        2.777651   -1.064197    0.046609
     13          1           0        2.924793    0.596111    0.251240
     14          1           0        0.614731    2.094517    0.391699
 ---------------------------------------------------------------------

 SCF Done:  E(RHF) =  -322.675628980     A.U. after    2 cycles

 The electronic state is 1-A.
 Alpha  occ. eigenvalues --  -20.59224 -15.64493 -11.31271 -11.29984 -11.29677
 Alpha  occ. eigenvalues --  -11.25150 -11.22921  -1.39895  -1.20256  -1.06877
 Alpha  occ. eigenvalues --   -1.01482  -0.91584  -0.78593  -0.78043  -0.71425
 Alpha  occ. eigenvalues --   -0.69466  -0.66147  -0.63615  -0.58712  -0.56397
 Alpha  occ. eigenvalues --   -0.54467  -0.53967  -0.48297  -0.44059  -0.32811
 Alpha  occ. eigenvalues --   -0.31522
 Alpha virt. eigenvalues --    0.02839   0.03846   0.04372   0.05759   0.06308
 Alpha virt. eigenvalues --    0.06971   0.08146   0.08702   0.10397   0.10990
 Alpha virt. eigenvalues --    0.11918   0.13079   0.13482   0.14047   0.15039

 Mulliken charges:
               1
     1  C    0.532493
     2  C   -0.288046
     3  C    0.831785
     4  C    0.079160
     5  N   -0.277632
     6  C    0.445541
     7  O   -0.702198
     8  H    0.546600
     9  H   -0.232547
    10  H   -0.183557
    11  H   -0.352125
    12  H   -0.013509
    13  H   -0.032554
    14  H   -0.353410
 Sum of Mulliken charges =  -0.00000

 Dipole moment (field-independent basis, Debye):
    X=              2.5458    Y=             -1.1446    Z=              0.6040  Tot=              2.8559

 Test job not archived.
 1\1\GINC-SE114\SP\RHF\Aug-CC-pVDZ\C5H7N1O1\OHZDE\09-Apr-2025\0\\#t hf
 aug-cc-pvdz iop(5/13=1,5/36=2,99/5=2) pseudo=read geom=check guess=(re
 ad,tcheck) scf=(maxcycle=1)\\title\\0,1\C,0,2.08103249,-0.02346056,-0.
 10349652\C,0,1.04352426,-0.1219958,0.82781133\C,0,-0.0720669,-0.972686
 09,0.61500733\C,0,-0.99911185,-0.12939381,0.04118065\N,0,-2.16662527,-
 0.44698406,-0.61060024\C,0,-0.37755317,1.16778803,0.01099948\O,0,0.579
 3273,1.15765373,1.0275314\H,0,0.92316997,0.70745537,-0.84559869\H,0,2.
 44465213,-0.92062515,-0.59353346\H,0,2.7947037,0.78669092,-0.00393837\

 Normal termination of Gaussian 16 at Wed Apr  9 15:21:05 2025.
