 Gaussian 16, Revision C.01,

 ----------------------------------------------------------------------
 #t hf aug-cc-pvdz symm=none int=(grid=ultrafine) guess=(read,tcheck) s
 table=(opt,rrhf)
 ----------------------------------------------------------------------
 -----
 title
 -----
 Symbolic Z-matrix:
 Charge =  0 Multiplicity = 1

 SCF Done:  E(RHF) =  -302.685364900     A.U. after   16 cycles
 Normal termination of Gaussian 16 at Wed Apr  9 03:59:49 2025.
 Gaussian 16:  ES64L-G16RevC.01  3-Jul-2019

 ----------------------------------------------------------------------
 #t hf aug-cc-pvdz iop(5/13=1,5/36=2,99/5=2) pseudo=read geom=check gue
 ss=(read,tcheck) scf=(maxcycle=1)
 ----------------------------------------------------------------------
 -----
 title
 -----
 Structure from the checkpoint file:  "Grambow2020_wb97xd3_008851_forward_mol1.chk"
 Charge =  0 Multiplicity = 1

                         Standard orientation:
 ---------------------------------------------------------------------
 Center     Atomic      Atomic             Coordinates (Angstroms)
 Number     Number       Type             X           Y           Z
 ---------------------------------------------------------------------
      1          6           0       -2.163276   -0.511183   -0.382582
      2          6           0       -0.785142   -0.103424    0.039814
      3          6           0        0.272359   -1.140359    0.383625
      4          6           0        1.440831   -0.307826   -0.047402
      5          7           0        2.599690   -0.024353   -0.211581
      6          6           0        0.022086    1.004594   -0.516537
      7          7           0       -0.551375    1.090318    0.842936
      8          1           0       -2.127281   -1.211080   -1.220089
      9          1           0       -2.702936   -0.993776    0.436563
     10          1           0       -2.739978    0.359725   -0.700454
     11          1           0        0.221343   -2.029778   -0.248916
     12          1           0        0.326750   -1.431537    1.433258
     13          1           0       -0.356457    1.663877   -1.295156
     14          1           0        1.704619    0.860569   -0.517145
     15          1           0       -1.385411    1.669430    0.830943
 ---------------------------------------------------------------------

 SCF Done:  E(RHF) =  -302.771379628     A.U. after    2 cycles

 The electronic state is 1-A.
 Alpha  occ. eigenvalues --  -15.64456 -15.62468 -11.36421 -11.28621 -11.27908
 Alpha  occ. eigenvalues --  -11.24954 -11.24854  -1.27343  -1.23418  -1.04782
 Alpha  occ. eigenvalues --   -0.98974  -0.86456  -0.77253  -0.72352  -0.67786
 Alpha  occ. eigenvalues --   -0.66392  -0.62207  -0.59636  -0.58209  -0.56975
 Alpha  occ. eigenvalues --   -0.51870  -0.49821  -0.47819  -0.45820  -0.39404
 Alpha  occ. eigenvalues --   -0.30494
 Alpha virt. eigenvalues --    0.02774   0.03766   0.04280   0.04888   0.06366
 Alpha virt. eigenvalues --    0.06764   0.07286   0.07884   0.09571   0.10895
 Alpha virt. eigenvalues --    0.11738   0.13445   0.13753   0.14324   0.14542

 Mulliken charges:
               1
     1  C    0.674228
     2  C   -0.301025
     3  C    0.294079
     4  C    0.373675
     5  N   -0.530470
     6  C    0.147032
     7  N   -0.700794
     8  H    0.047535
     9  H    0.060769
    10  H   -0.045954
    11  H   -0.007549
    12  H    0.056928
    13  H   -0.411333
    14  H    0.385154
    15  H   -0.042274
 Sum of Mulliken charges =  -0.00000

 Dipole moment (field-independent basis, Debye):
    X=             -3.5748    Y=             -1.1330    Z=             -0.9921  Tot=              3.8790

 Test job not archived.
 1\1\GINC-SE072\SP\RHF\Aug-CC-pVDZ\C5H8N2\OHZDE\09-Apr-2025\0\\#t hf au
 g-cc-pvdz iop(5/13=1,5/36=2,99/5=2) pseudo=read geom=check guess=(read
 ,tcheck) scf=(maxcycle=1)\\title\\0,1\C,0,-1.29677048,1.13751953,-0.62
 484524\C,0,-0.29837685,0.08934105,-0.23952617\C,0,1.14132751,0.1571291
 1,-0.72367865\C,0,1.73094089,-0.5287207,0.47055181\N,0,2.59083972,-1.0
 2757219,1.15024872\C,0,-0.16143911,-0.56282576,1.08137354\N,0,-0.67686
 316,-1.30979606,-0.08513691\H,0,-0.93144558,2.13743658,-0.38138119\H,0
 ,-1.50909293,1.10837934,-1.69685182\H,0,-2.23656438,0.98652954,-0.0899

 Normal termination of Gaussian 16 at Wed Apr  9 03:59:54 2025.
