 Gaussian 16, Revision C.01,

 ----------------------------------------------------------------------
 #t hf aug-cc-pvdz symm=none int=(grid=ultrafine) guess=(read,tcheck) s
 table=(opt,rrhf)
 ----------------------------------------------------------------------
 -----
 title
 -----
 Symbolic Z-matrix:
 Charge =  0 Multiplicity = 1

 SCF Done:  E(RHF) =  -360.758910199     A.U. after   16 cycles
 Normal termination of Gaussian 16 at Wed Apr  9 03:28:23 2025.
 Gaussian 16:  ES64L-G16RevC.01  3-Jul-2019

 ----------------------------------------------------------------------
 #t hf aug-cc-pvdz iop(5/13=1,5/36=2,99/5=2) pseudo=read geom=check gue
 ss=(read,tcheck) scf=(maxcycle=1)
 ----------------------------------------------------------------------
 -----
 title
 -----
 Structure from the checkpoint file:  "Grambow2020_wb97xd3_006768_forward_mol1.chk"
 Charge =  0 Multiplicity = 1

                         Standard orientation:
 ---------------------------------------------------------------------
 Center     Atomic      Atomic             Coordinates (Angstroms)
 Number     Number       Type             X           Y           Z
 ---------------------------------------------------------------------
      1          6           0        0.831670    1.203669    0.795693
      2          7           0        1.277848    0.985605   -0.497944
      3          6           0        1.536406   -0.289514   -0.701851
      4          8           0        1.314181   -1.195877    0.147443
      5          6           0       -0.812252   -0.980290    0.775007
      6          6           0       -1.528139   -0.494823   -0.428016
      7          8           0       -2.128856    0.761869   -0.267017
      8          1           0        1.525052    0.908928    1.591624
      9          1           0        0.404566    2.192280    0.957461
     10          1           0        0.008019    0.387304    1.014795
     11          1           0        1.881417   -0.567985   -1.704417
     12          1           0       -0.490333   -2.009292    0.761191
     13          1           0       -1.200675   -0.649068    1.734542
     14          1           0       -0.862440   -0.518353   -1.298563
     15          1           0       -2.319722   -1.231364   -0.627245
     16          1           0       -1.539531    1.426123   -0.632183
 ---------------------------------------------------------------------

 SCF Done:  E(RHF) =  -360.871162044     A.U. after    2 cycles

 The electronic state is 1-A.
 Alpha  occ. eigenvalues --  -20.60175 -20.53786 -15.58518 -11.36956 -11.33372
 Alpha  occ. eigenvalues --  -11.31558 -11.27475  -1.36124  -1.32336  -1.15405
 Alpha  occ. eigenvalues --   -1.07135  -0.93384  -0.87979  -0.76283  -0.75334
 Alpha  occ. eigenvalues --   -0.70537  -0.66895  -0.65826  -0.64386  -0.61795
 Alpha  occ. eigenvalues --   -0.60041  -0.56162  -0.53514  -0.51082  -0.49518
 Alpha  occ. eigenvalues --   -0.43221  -0.39966  -0.34272
 Alpha virt. eigenvalues --    0.01606   0.02970   0.03841   0.04664   0.05111
 Alpha virt. eigenvalues --    0.06218   0.06601   0.07441   0.07931   0.09398
 Alpha virt. eigenvalues --    0.11962   0.12693   0.12941   0.13308   0.13566

 Mulliken charges:
               1
     1  C    0.932417
     2  N   -0.656486
     3  C    0.607242
     4  O   -0.627949
     5  C    0.447771
     6  C    0.815376
     7  O   -0.552515
     8  H   -0.046847
     9  H   -0.123150
    10  H   -0.438998
    11  H   -0.264933
    12  H   -0.183518
    13  H    0.027927
    14  H   -0.042867
    15  H   -0.103121
    16  H    0.209651
 Sum of Mulliken charges =  -0.00000

 Dipole moment (field-independent basis, Debye):
    X=             -3.1258    Y=             -1.3038    Z=              1.0283  Tot=              3.5394

 Test job not archived.
 1\1\GINC-SE365\SP\RHF\Aug-CC-pVDZ\C4H9N1O2\OHZDE\09-Apr-2025\0\\#t hf
 aug-cc-pvdz iop(5/13=1,5/36=2,99/5=2) pseudo=read geom=check guess=(re
 ad,tcheck) scf=(maxcycle=1)\\title\\0,1\C,0,1.38604503,-0.14963266,-1.
 064618\N,0,1.67996652,-0.52471691,0.23655274\C,0,1.33293845,0.41538994
 ,1.09102987\O,0,0.72829422,1.47350314,0.76395032\C,0,-1.06802778,0.853
 40098,-0.3982589\C,0,-1.49188011,-0.4365648,0.19484713\O,0,-1.45851718
 ,-1.51528192,-0.70031339\H,0,1.87441029,0.76685926,-1.41490326\H,0,1.4
 5298526,-0.96192351,-1.78686521\H,0,0.28312139,0.27033408,-1.05786869\

 Normal termination of Gaussian 16 at Wed Apr  9 03:28:28 2025.
