 Gaussian 16, Revision C.01,

 ----------------------------------------------------------------------
 #t hf aug-cc-pvdz symm=none int=(grid=ultrafine) guess=(read,tcheck) s
 table=(opt,rrhf)
 ----------------------------------------------------------------------
 -----
 title
 -----
 Symbolic Z-matrix:
 Charge =  0 Multiplicity = 1

 SCF Done:  E(RHF) =  -320.571633442     A.U. after   16 cycles
 Normal termination of Gaussian 16 at Wed Apr  9 14:19:05 2025.
 Gaussian 16:  ES64L-G16RevC.01  3-Jul-2019

 ----------------------------------------------------------------------
 #t hf aug-cc-pvdz iop(5/13=1,5/36=2,99/5=2) pseudo=read geom=check gue
 ss=(read,tcheck) scf=(maxcycle=1)
 ----------------------------------------------------------------------
 -----
 title
 -----
 Structure from the checkpoint file:  "Grambow2020_b97d3_007136_forward_mol1.chk"
 Charge =  0 Multiplicity = 1

                         Standard orientation:
 ---------------------------------------------------------------------
 Center     Atomic      Atomic             Coordinates (Angstroms)
 Number     Number       Type             X           Y           Z
 ---------------------------------------------------------------------
      1          8           0       -2.059667   -0.272776    0.148684
      2          6           0       -0.947611    0.120524    0.114979
      3          7           0       -0.181030    1.209866   -0.169922
      4          6           0        1.235519    0.868144    0.036838
      5          6           0        1.102787   -0.655318    0.384438
      6          8           0        0.522145   -1.367778   -0.534066
      7          1           0       -0.440936    1.642568   -1.059369
      8          1           0        1.806850    1.005090   -0.889748
      9          1           0        1.661583    1.472005    0.848411
     10          1           0        0.191155   -0.405570    1.261709
     11          1           0        2.004565   -1.058824    0.893982
 ---------------------------------------------------------------------

 SCF Done:  E(RHF) =  -320.667876076     A.U. after    2 cycles

 The electronic state is 1-A.
 Alpha  occ. eigenvalues --  -20.67624 -20.49561 -15.72716 -11.51105 -11.33466
 Alpha  occ. eigenvalues --  -11.30680  -1.46774  -1.30907  -1.24703  -0.99957
 Alpha  occ. eigenvalues --   -0.89006  -0.79504  -0.77638  -0.71858  -0.70517
 Alpha  occ. eigenvalues --   -0.64514  -0.62817  -0.59144  -0.57131  -0.54435
 Alpha  occ. eigenvalues --   -0.47887  -0.39571  -0.37653
 Alpha virt. eigenvalues --    0.02123   0.03483   0.04431   0.04909   0.05463
 Alpha virt. eigenvalues --    0.07216   0.09513   0.10258   0.11112   0.11668
 Alpha virt. eigenvalues --    0.13210   0.13421   0.14792   0.15144   0.15875

 Mulliken charges:
               1
     1  O   -0.227178
     2  C    0.350929
     3  N   -0.314156
     4  C    0.657821
     5  C    0.271280
     6  O   -0.781808
     7  H    0.069573
     8  H   -0.103219
     9  H   -0.129936
    10  H    0.345130
    11  H   -0.138435
 Sum of Mulliken charges =   0.00000

 Dipole moment (field-independent basis, Debye):
    X=              1.5382    Y=              5.3156    Z=              0.6780  Tot=              5.5750

 Test job not archived.
 1\1\GINC-SE141\SP\RHF\Aug-CC-pVDZ\C3H5N1O2\OHZDE\09-Apr-2025\0\\#t hf
 aug-cc-pvdz iop(5/13=1,5/36=2,99/5=2) pseudo=read geom=check guess=(re
 ad,tcheck) scf=(maxcycle=1)\\title\\0,1\O,0,2.4521136,0.63719248,0.395
 31168\C,0,1.34581305,0.23088512,0.33612573\N,0,0.53708685,-0.79826923,
 0.7133315\C,0,-0.8193161,-0.55863329,0.19479381\C,0,-0.56949559,0.7487
 6021,-0.63447691\O,0,0.33187357,0.63243585,-1.56312941\H,0,0.96214358,
 -1.71017046,0.52986099\H,0,-1.13406441,-1.37909328,-0.46210417\H,0,-1.
 52923756,-0.42947099,1.02193213\H,0,0.0276638,1.30336026,0.36495817\H,

 Normal termination of Gaussian 16 at Wed Apr  9 14:19:08 2025.
