 Gaussian 16, Revision C.01,

 ----------------------------------------------------------------------
 #t hf aug-cc-pvdz symm=none int=(grid=ultrafine) guess=(read,tcheck) s
 table=(opt,rrhf)
 ----------------------------------------------------------------------
 -----
 title
 -----
 Symbolic Z-matrix:
 Charge =  0 Multiplicity = 1

 SCF Done:  E(RHF) =  -302.874231788     A.U. after   15 cycles
 Normal termination of Gaussian 16 at Wed Apr  9 04:05:50 2025.
 Gaussian 16:  ES64L-G16RevC.01  3-Jul-2019

 ----------------------------------------------------------------------
 #t hf aug-cc-pvdz iop(5/13=1,5/36=2,99/5=2) pseudo=read geom=check gue
 ss=(read,tcheck) scf=(maxcycle=1)
 ----------------------------------------------------------------------
 -----
 title
 -----
 Structure from the checkpoint file:  "Grambow2020_wb97xd3_009341_reverse_mol2.chk"
 Charge =  0 Multiplicity = 1

                         Standard orientation:
 ---------------------------------------------------------------------
 Center     Atomic      Atomic             Coordinates (Angstroms)
 Number     Number       Type             X           Y           Z
 ---------------------------------------------------------------------
      1          6           0        0.255375    1.954821   -0.366444
      2          7           0        1.589158   -0.019001    0.249927
      3          6           0        0.300379    0.657647    0.431530
      4          6           0       -0.706904   -0.380798    0.064110
      5          6           0       -2.179958   -0.182704    0.073477
      6          6           0        0.010834   -1.457430   -0.255749
      7          7           0        1.404626   -1.191190   -0.127590
      8          1           0        0.344013    1.749274   -1.434108
      9          1           0        1.079893    2.602636   -0.071256
     10          1           0       -0.682114    2.483782   -0.189220
     11          1           0        0.235277    0.887841    1.503252
     12          1           0       -2.707381   -1.096586   -0.197242
     13          1           0       -2.469345    0.600186   -0.632606
     14          1           0       -2.526001    0.132412    1.060757
     15          1           0       -0.309191   -2.437420   -0.577480
 ---------------------------------------------------------------------

 SCF Done:  E(RHF) =  -302.963018073     A.U. after    2 cycles

 The electronic state is 1-A.
 Alpha  occ. eigenvalues --  -15.68141 -15.67296 -11.27853 -11.26502 -11.26332
 Alpha  occ. eigenvalues --  -11.25561 -11.24605  -1.33816  -1.09807  -1.05086
 Alpha  occ. eigenvalues --   -0.96996  -0.91799  -0.77920  -0.76463  -0.68845
 Alpha  occ. eigenvalues --   -0.64347  -0.59844  -0.59614  -0.58034  -0.56353
 Alpha  occ. eigenvalues --   -0.54596  -0.52297  -0.49196  -0.48204  -0.38580
 Alpha  occ. eigenvalues --   -0.35794
 Alpha virt. eigenvalues --    0.02744   0.03677   0.04280   0.04827   0.06299
 Alpha virt. eigenvalues --    0.06912   0.07016   0.08536   0.09454   0.10628
 Alpha virt. eigenvalues --    0.11101   0.12576   0.13282   0.13896   0.14140

 Mulliken charges:
               1
     1  C    0.513993
     2  N   -0.427366
     3  C    0.049900
     4  C   -0.731480
     5  C    0.300674
     6  C    1.338369
     7  N   -0.739940
     8  H    0.032476
     9  H   -0.024596
    10  H   -0.020480
    11  H    0.003820
    12  H   -0.064665
    13  H    0.045902
    14  H    0.074932
    15  H   -0.351537
 Sum of Mulliken charges =  -0.00000

 Dipole moment (field-independent basis, Debye):
    X=             -3.9269    Y=              1.2535    Z=              0.1573  Tot=              4.1251

 Test job not archived.
 1\1\GINC-SE016\SP\RHF\Aug-CC-pVDZ\C5H8N2\OHZDE\09-Apr-2025\0\\#t hf au
 g-cc-pvdz iop(5/13=1,5/36=2,99/5=2) pseudo=read geom=check guess=(read
 ,tcheck) scf=(maxcycle=1)\\title\\0,1\C,0,-1.46579284,-0.80546148,-0.7
 5158529\N,0,-1.51300204,0.76441017,1.14265326\C,0,-0.7360213,-0.290395
 61,0.48275176\C,0,0.59804608,0.33707614,0.24923911\C,0,1.7513712,-0.32
 913965,-0.41046724\C,0,0.49103652,1.56776452,0.74978931\N,0,-0.8120331
 3,1.78386576,1.28389982\H,0,-1.5825092,-0.00772827,-1.48643924\H,0,-2.
 45581904,-1.16640173,-0.47554054\H,0,-0.91311035,-1.62590389,-1.211488

 Normal termination of Gaussian 16 at Wed Apr  9 04:05:55 2025.
