 Gaussian 16, Revision C.01,

 ----------------------------------------------------------------------
 #t hf aug-cc-pvdz symm=none int=(grid=ultrafine) guess=(read,tcheck) s
 table=(opt,rrhf)
 ----------------------------------------------------------------------
 -----
 title
 -----
 Symbolic Z-matrix:
 Charge =  0 Multiplicity = 1

 SCF Done:  E(RHF) =  -268.624729117     A.U. after   15 cycles
 Normal termination of Gaussian 16 at Wed Apr  9 03:16:00 2025.
 Gaussian 16:  ES64L-G16RevC.01  3-Jul-2019

 ----------------------------------------------------------------------
 #t hf aug-cc-pvdz iop(5/13=1,5/36=2,99/5=2) pseudo=read geom=check gue
 ss=(read,tcheck) scf=(maxcycle=1)
 ----------------------------------------------------------------------
 -----
 title
 -----
 Structure from the checkpoint file:  "Grambow2020_b97d3_007069_forward_mol1.chk"
 Charge =  0 Multiplicity = 1

                         Standard orientation:
 ---------------------------------------------------------------------
 Center     Atomic      Atomic             Coordinates (Angstroms)
 Number     Number       Type             X           Y           Z
 ---------------------------------------------------------------------
      1          6           0       -1.834741    0.054794   -0.368037
      2          6           0       -0.600010    1.363104    0.299602
      3          6           0        0.710652    1.230926    0.050004
      4          6           0        1.547535   -0.005046   -0.216400
      5          8           0        0.684615   -1.153658   -0.247476
      6          6           0       -0.380173   -1.016575    0.560237
      7          1           0       -1.793946   -0.800175   -1.070008
      8          1           0       -2.136524    0.886010   -1.013782
      9          1           0       -2.629285   -0.096805    0.369333
     10          1           0        1.289193    2.140121    0.247620
     11          1           0        2.288477   -0.131692    0.591616
     12          1           0        2.079800   -0.001982   -1.178232
     13          1           0       -0.233979   -0.616240    1.567032
     14          1           0       -1.000234   -1.913201    0.513796
 ---------------------------------------------------------------------

 SCF Done:  E(RHF) =  -268.706614766     A.U. after    2 cycles

 The electronic state is 1-A.
 Alpha  occ. eigenvalues --  -20.62714 -11.37837 -11.31704 -11.25666 -11.25240
 Alpha  occ. eigenvalues --  -11.22257  -1.40140  -1.04591  -1.01037  -0.91133
 Alpha  occ. eigenvalues --   -0.86487  -0.74462  -0.71212  -0.68648  -0.63944
 Alpha  occ. eigenvalues --   -0.59845  -0.56398  -0.55261  -0.53372  -0.52288
 Alpha  occ. eigenvalues --   -0.44216  -0.35542  -0.31790
 Alpha virt. eigenvalues --    0.03069   0.04209   0.04359   0.05250   0.06282
 Alpha virt. eigenvalues --    0.06405   0.06836   0.07608   0.09198   0.10514
 Alpha virt. eigenvalues --    0.12648   0.12813   0.13437   0.13985   0.14800

 Mulliken charges:
               1
     1  C    0.305816
     2  C   -0.684248
     3  C    0.508613
     4  C    0.726698
     5  O   -0.579936
     6  C    0.724770
     7  H   -0.057533
     8  H   -0.104944
     9  H   -0.021610
    10  H   -0.326228
    11  H   -0.051248
    12  H   -0.139749
    13  H   -0.011550
    14  H   -0.288850
 Sum of Mulliken charges =  -0.00000

 Dipole moment (field-independent basis, Debye):
    X=              1.1090    Y=             -2.4640    Z=              0.3891  Tot=              2.7300

 Test job not archived.
 1\1\GINC-SE455\SP\RHF\Aug-CC-pVDZ\C5H8O1\OHZDE\09-Apr-2025\0\\#t hf au
 g-cc-pvdz iop(5/13=1,5/36=2,99/5=2) pseudo=read geom=check guess=(read
 ,tcheck) scf=(maxcycle=1)\\title\\0,1\C,0,-1.6418364,-0.18229643,-0.57
 694846\C,0,-0.63282804,1.37096745,-0.07569822\C,0,0.70579738,1.3478162
 3,-0.14747831\C,0,1.68214214,0.19185638,-0.05012199\O,0,0.94184268,-1.
 03362657,0.07257782\C,0,-0.22763653,-0.8639661,0.71171703\H,0,-1.42978
 761,-1.1502193,-1.0704654\H,0,-1.93281096,0.45978717,-1.41482729\H,0,-
 2.50840912,-0.27538479,0.08515736\H,0,1.16598538,2.34033138,-0.0879937

 Normal termination of Gaussian 16 at Wed Apr  9 03:16:04 2025.
