 Gaussian 16, Revision C.01,

 ----------------------------------------------------------------------
 #t hf aug-cc-pvdz symm=none int=(grid=ultrafine) guess=(read,tcheck) s
 table=(opt,rrhf)
 ----------------------------------------------------------------------
 -----
 title
 -----
 Symbolic Z-matrix:
 Charge =  0 Multiplicity = 1

 SCF Done:  E(RHF) =  -353.521256657     A.U. after   15 cycles
 Normal termination of Gaussian 16 at Wed Apr  9 03:46:13 2025.
 Gaussian 16:  ES64L-G16RevC.01  3-Jul-2019

 ----------------------------------------------------------------------
 #t hf aug-cc-pvdz iop(5/13=1,5/36=2,99/5=2) pseudo=read geom=check gue
 ss=(read,tcheck) scf=(maxcycle=1)
 ----------------------------------------------------------------------
 -----
 title
 -----
 Structure from the checkpoint file:  "Grambow2020_wb97xd3_007938_reverse_mol2.chk"
 Charge =  0 Multiplicity = 1

                         Standard orientation:
 ---------------------------------------------------------------------
 Center     Atomic      Atomic             Coordinates (Angstroms)
 Number     Number       Type             X           Y           Z
 ---------------------------------------------------------------------
      1          8           0       -2.220021   -0.157009    0.000351
      2          6           0       -0.898648   -0.061926   -0.000180
      3          6           0       -0.173950   -1.322024   -0.000491
      4          7           0        1.113556   -1.048209    0.000085
      5          7           0        1.774280    0.137691    0.000405
      6          6           0        0.983850    1.162613   -0.000266
      7          7           0       -0.366664    1.128688   -0.000139
      8          1           0       -2.576873    0.740544    0.000082
      9          1           0        1.764488   -1.821227    0.000249
     10          1           0        1.456833    2.137585    0.000029
 ---------------------------------------------------------------------

 SCF Done:  E(RHF) =  -353.624660871     A.U. after    2 cycles

 The electronic state is 1-A.
 Alpha  occ. eigenvalues --  -20.63695 -15.75211 -15.68863 -15.66012 -11.38915
 Alpha  occ. eigenvalues --  -11.34493 -11.27697  -1.42691  -1.36426  -1.22806
 Alpha  occ. eigenvalues --   -1.14084  -0.96306  -0.92279  -0.82989  -0.78200
 Alpha  occ. eigenvalues --   -0.67829  -0.66785  -0.66420  -0.60751  -0.60406
 Alpha  occ. eigenvalues --   -0.55373  -0.47776  -0.45863  -0.38725  -0.37362
 Alpha virt. eigenvalues --    0.03228   0.03779   0.04333   0.05955   0.07691
 Alpha virt. eigenvalues --    0.09541   0.10134   0.11015   0.11757   0.13624
 Alpha virt. eigenvalues --    0.13708   0.14051   0.14208   0.15241   0.15937

 Mulliken charges:
               1
     1  O   -0.453792
     2  C    0.706583
     3  C   -0.170539
     4  N   -0.100356
     5  N   -0.188330
     6  C    0.750108
     7  N   -0.470825
     8  H    0.155507
     9  H    0.039323
    10  H   -0.267679
 Sum of Mulliken charges =   0.00000

 Dipole moment (field-independent basis, Debye):
    X=              1.0175    Y=              1.9185    Z=             -0.0002  Tot=              2.1716

 Test job not archived.
 1\1\GINC-SE284\SP\RHF\Aug-CC-pVDZ\C3H3N3O1\OHZDE\09-Apr-2025\0\\#t hf
 aug-cc-pvdz iop(5/13=1,5/36=2,99/5=2) pseudo=read geom=check guess=(re
 ad,tcheck) scf=(maxcycle=1)\\title\\0,1\O,0,2.20425657,-0.66490782,0.1
 2488461\C,0,0.95171679,-0.23969255,0.05136686\C,0,0.77658926,1.2012509
 3,-0.02639649\N,0,-0.51455444,1.44888054,-0.09177324\N,0,-1.58487959,0
 .61383231,-0.09548536\C,0,-1.25752053,-0.63621978,-0.02164286\N,0,-0.0
 0201224,-1.12904919,0.05488563\H,0,2.18244614,-1.62946605,0.17065676\H
 ,0,-0.81182472,2.41293326,-0.15094583\H,0,-2.07288025,-1.34999164,-0.0

 Normal termination of Gaussian 16 at Wed Apr  9 03:46:16 2025.
