 Gaussian 16, Revision C.01,

 ----------------------------------------------------------------------
 #t hf aug-cc-pvdz symm=none int=(grid=ultrafine) guess=(read,tcheck) s
 table=(opt,rrhf)
 ----------------------------------------------------------------------
 -----
 title
 -----
 Symbolic Z-matrix:
 Charge =  0 Multiplicity = 1

 SCF Done:  E(RHF) =  -306.680414575     A.U. after   15 cycles
 Normal termination of Gaussian 16 at Wed Apr  9 03:58:43 2025.
 Gaussian 16:  ES64L-G16RevC.01  3-Jul-2019

 ----------------------------------------------------------------------
 #t hf aug-cc-pvdz iop(5/13=1,5/36=2,99/5=2) pseudo=read geom=check gue
 ss=(read,tcheck) scf=(maxcycle=1)
 ----------------------------------------------------------------------
 -----
 title
 -----
 Structure from the checkpoint file:  "Grambow2020_wb97xd3_008775_reverse_mol2.chk"
 Charge =  0 Multiplicity = 1

                         Standard orientation:
 ---------------------------------------------------------------------
 Center     Atomic      Atomic             Coordinates (Angstroms)
 Number     Number       Type             X           Y           Z
 ---------------------------------------------------------------------
      1          8           0       -0.688228    1.936743   -0.427720
      2          6           0       -0.605023    0.907559    0.169203
      3          6           0       -1.184989   -0.409137    0.434302
      4          6           0       -1.355139   -1.415799   -0.675204
      5          6           0        2.179077   -0.043373   -0.597010
      6          6           0        1.487639   -0.568211    0.403878
      7          6           0        0.246441    0.017945    0.967457
      8          1           0       -1.925035   -0.453449    1.228076
      9          1           0       -1.337480   -2.434774   -0.284294
     10          1           0       -0.559851   -1.323032   -1.415780
     11          1           0       -2.307168   -1.260745   -1.184619
     12          1           0        3.070155   -0.528816   -0.975777
     13          1           0        1.882814    0.890354   -1.062269
     14          1           0        1.821326   -1.497583    0.859074
     15          1           0        0.253028    0.180198    2.041591
 ---------------------------------------------------------------------

 SCF Done:  E(RHF) =  -306.776454898     A.U. after    2 cycles

 The electronic state is 1-A.
 Alpha  occ. eigenvalues --  -20.58118 -11.35339 -11.26545 -11.26447 -11.25884
 Alpha  occ. eigenvalues --  -11.24404 -11.24395  -1.36935  -1.16414  -1.04803
 Alpha  occ. eigenvalues --   -0.97650  -0.85918  -0.77309  -0.73794  -0.69192
 Alpha  occ. eigenvalues --   -0.66291  -0.63790  -0.61816  -0.58215  -0.56550
 Alpha  occ. eigenvalues --   -0.55146  -0.52758  -0.51272  -0.45917  -0.38975
 Alpha  occ. eigenvalues --   -0.37171
 Alpha virt. eigenvalues --    0.02871   0.04010   0.04368   0.04917   0.05949
 Alpha virt. eigenvalues --    0.06677   0.07370   0.07848   0.08977   0.11203
 Alpha virt. eigenvalues --    0.11531   0.11695   0.13372   0.13771   0.14447

 Mulliken charges:
               1
     1  O   -0.418743
     2  C   -0.105055
     3  C   -0.007067
     4  C    0.381253
     5  C    0.449175
     6  C    0.643975
     7  C    0.533808
     8  H   -0.269992
     9  H    0.000391
    10  H   -0.025712
    11  H    0.032776
    12  H   -0.309574
    13  H   -0.286266
    14  H   -0.402035
    15  H   -0.216935
 Sum of Mulliken charges =  -0.00000

 Dipole moment (field-independent basis, Debye):
    X=              0.1919    Y=             -3.2833    Z=              1.4953  Tot=              3.6129

 Test job not archived.
 1\1\GINC-SE456\SP\RHF\Aug-CC-pVDZ\C6H8O1\OHZDE\09-Apr-2025\0\\#t hf au
 g-cc-pvdz iop(5/13=1,5/36=2,99/5=2) pseudo=read geom=check guess=(read
 ,tcheck) scf=(maxcycle=1)\\title\\0,1\O,0,0.70507449,-0.86143891,2.226
 71874\C,0,0.48182749,-0.92131652,1.05666088\C,0,-0.48428634,-1.2394015
 8,0.00510393\C,0,-1.79406373,-0.49864874,-0.09022846\C,0,1.12885679,1.
 90583761,0.14500223\C,0,0.97281074,0.89453786,-0.69656796\C,0,0.903413
 35,-0.53195939,-0.29399833\H,0,-0.50191812,-2.27241625,-0.32997462\H,0
 ,-2.1645877,-0.49073524,-1.11691414\H,0,-1.68590547,0.53547183,0.23907

 Normal termination of Gaussian 16 at Wed Apr  9 03:58:48 2025.
