 Gaussian 16, Revision C.01,

 ----------------------------------------------------------------------
 #t hf aug-cc-pvdz symm=none int=(grid=ultrafine) guess=(read,tcheck) s
 table=(opt,rrhf)
 ----------------------------------------------------------------------
 -----
 title
 -----
 Symbolic Z-matrix:
 Charge =  0 Multiplicity = 1

 SCF Done:  E(RHF) =  -306.894727724     A.U. after   15 cycles

 1\1\GINC-SE459\Stability\RHF\Aug-CC-pVDZ\C4H10O2\OHZDE\09-Apr-2025\0\\
 #t hf aug-cc-pvdz symm=none int=(grid=ultrafine) guess=(read,tcheck) s
 table=(opt,rrhf)\\title\\0,1\C,0,2.47878505,-0.48275464,-0.43739655\O,
 0,1.58840092,0.51262371,0.04960049\C,0,0.29848632,0.37068777,-0.503734
 28\C,0,-0.80112291,0.55680489,0.38820868\C,0,-2.16823348,0.87193097,-0
 .14014499\O,0,-1.0443627,-1.39809922,0.57068535\H,0,2.10953355,-1.5025
 1494,-0.2196039\H,0,2.62858841,-0.40433874,-1.52962101\H,0,3.44166607,
 -0.32791715,0.06599247\H,0,-0.17375142,-0.91359611,-0.29451744\H,0,0.1

 Normal termination of Gaussian 16 at Wed Apr  9 03:05:57 2025.
 Gaussian 16:  ES64L-G16RevC.01  3-Jul-2019

 ----------------------------------------------------------------------
 #t hf aug-cc-pvdz iop(5/13=1,5/36=2,99/5=2) pseudo=read geom=check gue
 ss=(read,tcheck) scf=(maxcycle=1)
 ----------------------------------------------------------------------
 -----
 title
 -----
 Structure from the checkpoint file:  "Grambow2020_b97d3_006572_forward_mol1.chk"
 Charge =  0 Multiplicity = 1

                         Standard orientation:
 ---------------------------------------------------------------------
 Center     Atomic      Atomic             Coordinates (Angstroms)
 Number     Number       Type             X           Y           Z
 ---------------------------------------------------------------------
      1          6           0        2.497873    0.133486    0.191603
      2          8           0        1.443762   -0.562917   -0.460011
      3          6           0        0.253296   -0.527885    0.296142
      4          6           0       -0.956760   -0.311780   -0.430773
      5          6           0       -2.281212   -0.689757    0.161184
      6          8           0       -0.982617    1.597110    0.088440
      7          1           0        2.231196    1.189545    0.384772
      8          1           0        2.762916   -0.329951    1.159344
      9          1           0        3.370153    0.092990   -0.473231
     10          1           0       -0.082105    0.780051    0.601057
     11          1           0        0.222115   -1.204728    1.161292
     12          1           0       -0.903746   -0.145778   -1.507494
     13          1           0       -3.088777   -0.065560   -0.235036
     14          1           0       -2.260248   -0.576282    1.253318
     15          1           0       -2.500084   -1.744443   -0.068390
     16          1           0       -0.519764    2.106238   -0.612003
 ---------------------------------------------------------------------

 SCF Done:  E(RHF) =  -306.992288919     A.U. after    2 cycles

 The electronic state is 1-A.
 Alpha  occ. eigenvalues --  -20.57570 -20.52675 -11.34401 -11.28407 -11.26533
 Alpha  occ. eigenvalues --  -11.25678  -1.33275  -1.23361  -1.07606  -0.96422
 Alpha  occ. eigenvalues --   -0.89460  -0.79648  -0.69728  -0.67641  -0.65191
 Alpha  occ. eigenvalues --   -0.62194  -0.58951  -0.58217  -0.57546  -0.54287
 Alpha  occ. eigenvalues --   -0.52350  -0.50736  -0.45887  -0.45687  -0.33997
 Alpha virt. eigenvalues --    0.03358   0.04234   0.04459   0.05348   0.06093
 Alpha virt. eigenvalues --    0.06516   0.06752   0.07703   0.09226   0.09509
 Alpha virt. eigenvalues --    0.11247   0.11808   0.13134   0.14228   0.14535

 Mulliken charges:
               1
     1  C    0.689792
     2  O   -0.632400
     3  C    0.445423
     4  C   -0.042572
     5  C    0.367622
     6  O   -0.693335
     7  H   -0.076560
     8  H   -0.038353
     9  H   -0.214327
    10  H    0.659551
    11  H   -0.287455
    12  H   -0.393330
    13  H   -0.000373
    14  H   -0.009263
    15  H    0.092831
    16  H    0.132750
 Sum of Mulliken charges =  -0.00000

 Dipole moment (field-independent basis, Debye):
    X=             -0.1223    Y=             -1.4874    Z=             -0.4644  Tot=              1.5630

 Test job not archived.
 1\1\GINC-SE459\SP\RHF\Aug-CC-pVDZ\C4H10O2\OHZDE\09-Apr-2025\0\\#t hf a
 ug-cc-pvdz iop(5/13=1,5/36=2,99/5=2) pseudo=read geom=check guess=(rea
 d,tcheck) scf=(maxcycle=1)\\title\\0,1\C,0,2.47878505,-0.48275464,-0.4
 3739655\O,0,1.58840092,0.51262371,0.04960049\C,0,0.29848632,0.37068777
 ,-0.50373428\C,0,-0.80112291,0.55680489,0.38820868\C,0,-2.16823348,0.8
 7193097,-0.14014499\O,0,-1.0443627,-1.39809922,0.57068535\H,0,2.109533
 55,-1.50251494,-0.2196039\H,0,2.62858841,-0.40433874,-1.52962101\H,0,3
 .44166607,-0.32791715,0.06599247\H,0,-0.17375142,-0.91359611,-0.294517

 Normal termination of Gaussian 16 at Wed Apr  9 03:06:02 2025.
