 Gaussian 16, Revision C.01,

 ----------------------------------------------------------------------
 #t hf aug-cc-pvdz symm=none int=(grid=ultrafine) guess=(read,tcheck) s
 table=(opt,rrhf)
 ----------------------------------------------------------------------
 -----
 title
 -----
 Symbolic Z-matrix:
 Charge =  0 Multiplicity = 1

 SCF Done:  E(RHF) =  -323.704216262     A.U. after   15 cycles
 Normal termination of Gaussian 16 at Wed Apr  9 15:22:08 2025.
 Gaussian 16:  ES64L-G16RevC.01  3-Jul-2019

 ----------------------------------------------------------------------
 #t hf aug-cc-pvdz iop(5/13=1,5/36=2,99/5=2) pseudo=read geom=check gue
 ss=(read,tcheck) scf=(maxcycle=1)
 ----------------------------------------------------------------------
 -----
 title
 -----
 Structure from the checkpoint file:  "Grambow2020_wb97xd3_006864_forward_mol1.chk"
 Charge =  0 Multiplicity = 1

                         Standard orientation:
 ---------------------------------------------------------------------
 Center     Atomic      Atomic             Coordinates (Angstroms)
 Number     Number       Type             X           Y           Z
 ---------------------------------------------------------------------
      1          6           0        2.220087   -0.811261   -0.559523
      2          7           0        1.195338    0.205428   -0.418315
      3          6           0        1.228395    1.038303    0.743239
      4          6           0        0.180045   -0.038245    0.568375
      5          6           0       -1.504322   -0.216391   -0.063396
      6          8           0       -2.042916   -1.195318    0.363482
      7          6           0       -1.796854    0.986741   -0.676535
      8          1           0        3.088193   -0.374641   -1.053986
      9          1           0        1.834959   -1.619257   -1.181390
     10          1           0        2.535506   -1.230886    0.406239
     11          1           0        1.973085    0.840503    1.511186
     12          1           0        0.974839    2.082842    0.595505
     13          1           0        0.265200   -0.893855    1.231659
     14          1           0       -2.803101    1.193505   -1.021369
     15          1           0       -0.884652    0.846819    0.586128
     16          1           0       -0.972177    1.524634   -1.126581
 ---------------------------------------------------------------------

 SCF Done:  E(RHF) =  -323.804230643     A.U. after    2 cycles

 The electronic state is 1-A.
 Alpha  occ. eigenvalues --  -20.54553 -15.65762 -11.37246 -11.30489 -11.30377
 Alpha  occ. eigenvalues --  -11.27826 -11.24514  -1.35578  -1.29074  -1.06602
 Alpha  occ. eigenvalues --   -1.00680  -0.87952  -0.84696  -0.75089  -0.71101
 Alpha  occ. eigenvalues --   -0.68141  -0.65434  -0.62982  -0.61394  -0.59013
 Alpha  occ. eigenvalues --   -0.57584  -0.54432  -0.51193  -0.49753  -0.44890
 Alpha  occ. eigenvalues --   -0.38467  -0.33886
 Alpha virt. eigenvalues --    0.02803   0.03898   0.04055   0.04631   0.06216
 Alpha virt. eigenvalues --    0.06971   0.07269   0.07404   0.08452   0.10175
 Alpha virt. eigenvalues --    0.11142   0.12399   0.12668   0.13700   0.14108

 Mulliken charges:
               1
     1  C    0.768881
     2  N   -0.554842
     3  C    0.910468
     4  C   -0.081852
     5  C   -0.257106
     6  O   -0.473453
     7  C    0.641170
     8  H   -0.205253
     9  H   -0.158264
    10  H   -0.128913
    11  H   -0.273593
    12  H   -0.245963
    13  H   -0.414641
    14  H   -0.254018
    15  H    0.808232
    16  H   -0.080853
 Sum of Mulliken charges =  -0.00000

 Dipole moment (field-independent basis, Debye):
    X=              4.0036    Y=              2.4625    Z=              0.4016  Tot=              4.7174

 Test job not archived.
 1\1\GINC-SE113\SP\RHF\Aug-CC-pVDZ\C5H9N1O1\OHZDE\09-Apr-2025\0\\#t hf
 aug-cc-pvdz iop(5/13=1,5/36=2,99/5=2) pseudo=read geom=check guess=(re
 ad,tcheck) scf=(maxcycle=1)\\title\\0,1\C,0,1.20328985,-0.06931468,-1.
 86522253\N,0,0.74960325,0.31333916,-0.54179865\C,0,1.25904932,-0.41115
 236,0.58050157\C,0,-0.16751911,-0.58208083,0.10694233\C,0,-1.81124738,
 0.08769028,0.44976135\O,0,-2.68100912,-0.64185575,0.07308794\C,0,-1.60
 298436,1.15932911,1.29667234\H,0,2.12200902,0.4705752,-2.09590084\H,0,
 0.44324013,0.2090224,-2.59512065\H,0,1.39462296,-1.14832849,-1.9512010

 Normal termination of Gaussian 16 at Wed Apr  9 15:22:13 2025.
