 Gaussian 16, Revision C.01,

 ----------------------------------------------------------------------
 #t hf aug-cc-pvdz symm=none int=(grid=ultrafine) guess=(read,tcheck) s
 table=(opt,rrhf)
 ----------------------------------------------------------------------
 -----
 title
 -----
 Symbolic Z-matrix:
 Charge =  0 Multiplicity = 1

 SCF Done:  E(RHF) =  -344.740007553     A.U. after   15 cycles

 1\1\GINC-SE226\Stability\RHF\Aug-CC-pVDZ\C5H10O2\OHZDE\09-Apr-2025\0\\
 #t hf aug-cc-pvdz symm=none int=(grid=ultrafine) guess=(read,tcheck) s
 table=(opt,rrhf)\\title\\0,1\C,0,2.01577742,1.22240283,-0.37199485\O,0
 ,0.65645134,0.94254557,-0.16054213\C,0,0.33450405,-0.40253907,-0.43875
 332\C,0,0.76092357,-1.42660634,0.58476105\O,0,-0.99094983,-1.35220215,
 1.11551758\C,0,-1.14657145,-0.66432487,-0.16701765\C,0,-2.05636258,0.5
 1994927,-0.0018813\H,0,2.66327195,0.6183783,0.27641941\H,0,2.30114738,
 1.03729171,-1.41602801\H,0,2.1744165,2.27427161,-0.14020293\H,0,0.6603

 Normal termination of Gaussian 16 at Wed Apr  9 14:58:06 2025.
 Gaussian 16:  ES64L-G16RevC.01  3-Jul-2019

 ----------------------------------------------------------------------
 #t hf aug-cc-pvdz iop(5/13=1,5/36=2,99/5=2) pseudo=read geom=check gue
 ss=(read,tcheck) scf=(maxcycle=1)
 ----------------------------------------------------------------------
 -----
 title
 -----
 Structure from the checkpoint file:  "Grambow2020_wb97xd3_006656_forward_mol1.chk"
 Charge =  0 Multiplicity = 1

                         Standard orientation:
 ---------------------------------------------------------------------
 Center     Atomic      Atomic             Coordinates (Angstroms)
 Number     Number       Type             X           Y           Z
 ---------------------------------------------------------------------
      1          6           0        2.488197   -0.249161   -0.130359
      2          8           0        1.130962   -0.600092   -0.204916
      3          6           0        0.313684    0.242379    0.577774
      4          6           0        0.043305    1.622726    0.030357
      5          8           0       -1.565426    0.905150   -0.473002
      6          6           0       -1.154222   -0.160960    0.441663
      7          6           0       -1.467507   -1.499767   -0.164096
      8          1           0        2.667959    0.769312   -0.497694
      9          1           0        2.859163   -0.316151    0.900953
     10          1           0        3.042765   -0.947654   -0.754766
     11          1           0        0.689217    0.251671    1.609668
     12          1           0        0.532373    1.815173   -0.926847
     13          1           0       -1.330511    1.795603    0.099913
     14          1           0       -1.683219   -0.032346    1.389997
     15          1           0       -1.130383   -2.297605    0.499046
     16          1           0       -2.545234   -1.593688   -0.305552
     17          1           0       -0.967156   -1.616077   -1.123415
 ---------------------------------------------------------------------

 SCF Done:  E(RHF) =  -344.847799431     A.U. after    2 cycles

 The electronic state is 1-A.
 Alpha  occ. eigenvalues --  -20.59619 -20.57795 -11.30699 -11.29994 -11.28932
 Alpha  occ. eigenvalues --  -11.27505 -11.22828  -1.36212  -1.33491  -1.04950
 Alpha  occ. eigenvalues --   -0.99639  -0.92410  -0.85780  -0.76986  -0.73582
 Alpha  occ. eigenvalues --   -0.69023  -0.66581  -0.64732  -0.61760  -0.58915
 Alpha  occ. eigenvalues --   -0.55616  -0.54475  -0.52619  -0.52102  -0.50239
 Alpha  occ. eigenvalues --   -0.46235  -0.44451  -0.35780
 Alpha virt. eigenvalues --    0.03351   0.04198   0.04742   0.05095   0.06132
 Alpha virt. eigenvalues --    0.06456   0.06592   0.07369   0.08525   0.09134
 Alpha virt. eigenvalues --    0.09940   0.11871   0.13404   0.14046   0.14371

 Mulliken charges:
               1
     1  C    0.672412
     2  O   -0.734578
     3  C    0.771777
     4  C   -0.109172
     5  O   -0.833614
     6  C    0.173266
     7  C    0.468752
     8  H   -0.079913
     9  H   -0.061815
    10  H   -0.265085
    11  H   -0.145798
    12  H   -0.142901
    13  H    0.458027
    14  H   -0.240266
    15  H    0.030833
    16  H   -0.022473
    17  H    0.060549
 Sum of Mulliken charges =  -0.00000

 Dipole moment (field-independent basis, Debye):
    X=              1.4738    Y=             -0.7711    Z=              1.4435  Tot=              2.2024

 Test job not archived.
 1\1\GINC-SE226\SP\RHF\Aug-CC-pVDZ\C5H10O2\OHZDE\09-Apr-2025\0\\#t hf a
 ug-cc-pvdz iop(5/13=1,5/36=2,99/5=2) pseudo=read geom=check guess=(rea
 d,tcheck) scf=(maxcycle=1)\\title\\0,1\C,0,2.01577742,1.22240283,-0.37
 199485\O,0,0.65645134,0.94254557,-0.16054213\C,0,0.33450405,-0.4025390
 7,-0.43875332\C,0,0.76092357,-1.42660634,0.58476105\O,0,-0.99094983,-1
 .35220215,1.11551758\C,0,-1.14657145,-0.66432487,-0.16701765\C,0,-2.05
 636258,0.51994927,-0.0018813\H,0,2.66327195,0.6183783,0.27641941\H,0,2
 .30114738,1.03729171,-1.41602801\H,0,2.1744165,2.27427161,-0.14020293\

 Normal termination of Gaussian 16 at Wed Apr  9 14:58:12 2025.
