 Gaussian 16, Revision C.01,

 ----------------------------------------------------------------------
 #t hf aug-cc-pvdz symm=none int=(grid=ultrafine) guess=(read,tcheck) s
 table=(opt,rrhf)
 ----------------------------------------------------------------------
 -----
 title
 -----
 Symbolic Z-matrix:
 Charge =  0 Multiplicity = 1

 SCF Done:  E(RHF) =  -270.020167757     A.U. after   14 cycles

 1\1\GINC-SE054\Stability\RHF\Aug-CC-pVDZ\C5H10O1\OHZDE\09-Apr-2025\0\\
 #t hf aug-cc-pvdz symm=none int=(grid=ultrafine) guess=(read,tcheck) s
 table=(opt,rrhf)\\title\\0,1\C,0,2.3890721,-0.84159026,-0.41205604\C,0
 ,-0.58172724,1.51103771,0.70787815\C,0,-0.03190517,0.85051497,1.711944
 77\O,0,0.46141812,0.25158471,2.60492989\C,0,-1.3634911,0.84955819,-0.4
 1714438\C,0,-1.5573515,-0.66087266,-0.23656854\H,0,3.46270449,-0.75066
 046,-0.6169037\H,0,2.22079099,-0.84241606,0.67103969\H,0,2.01457168,-1
 .77820843,-0.84356342\H,0,1.85712999,0.00726531,-0.85814567\H,0,-0.434

 Normal termination of Gaussian 16 at Wed Apr  9 13:56:04 2025.
 Gaussian 16:  ES64L-G16RevC.01  3-Jul-2019

 ----------------------------------------------------------------------
 #t hf aug-cc-pvdz iop(5/13=1,5/36=2,99/5=2) pseudo=read geom=check gue
 ss=(read,tcheck) scf=(maxcycle=1)
 ----------------------------------------------------------------------
 -----
 title
 -----
 Structure from the checkpoint file:  "Grambow2020_b97d3_006749_reverse_mol2.chk"
 Charge =  0 Multiplicity = 1

                         Standard orientation:
 ---------------------------------------------------------------------
 Center     Atomic      Atomic             Coordinates (Angstroms)
 Number     Number       Type             X           Y           Z
 ---------------------------------------------------------------------
      1          6           0        2.645489   -0.943247   -0.235386
      2          6           0       -0.948634    0.573232   -0.865731
      3          6           0       -0.199422    1.318505   -0.072009
      4          8           0        0.474928    1.977583    0.642397
      5          6           0       -1.460094   -0.811306   -0.497157
      6          6           0       -1.120007   -1.239940    0.935395
      7          1           0        3.620742   -0.953860   -0.737069
      8          1           0        2.493519    0.027092    0.251196
      9          1           0        2.614848   -1.741215    0.516951
     10          1           0        1.851017   -1.103674   -0.974028
     11          1           0       -1.182842    0.995707   -1.843146
     12          1           0       -1.043292   -1.544022   -1.207780
     13          1           0       -2.553047   -0.829052   -0.636381
     14          1           0       -1.547639   -0.540314    1.667539
     15          1           0       -1.524092   -2.239589    1.143467
     16          1           0       -0.032634   -1.275204    1.089397
 ---------------------------------------------------------------------

 SCF Done:  E(RHF) =  -270.109857306     A.U. after    2 cycles

 The electronic state is 1-A.
 Alpha  occ. eigenvalues --  -20.63344 -11.38795 -11.26261 -11.25381 -11.23892
 Alpha  occ. eigenvalues --  -11.21870  -1.41406  -1.08803  -0.98767  -0.93423
 Alpha  occ. eigenvalues --   -0.86083  -0.74627  -0.67390  -0.65111  -0.63737
 Alpha  occ. eigenvalues --   -0.61902  -0.57855  -0.54404  -0.54338  -0.54092
 Alpha  occ. eigenvalues --   -0.51620  -0.51147  -0.51011  -0.35216
 Alpha virt. eigenvalues --    0.03117   0.04203   0.04441   0.05118   0.06110
 Alpha virt. eigenvalues --    0.06890   0.07258   0.07813   0.08999   0.09725
 Alpha virt. eigenvalues --    0.10827   0.11637   0.13261   0.14059   0.14240

 Mulliken charges:
               1
     1  C    0.722938
     2  C    0.830777
     3  C   -0.391711
     4  O   -0.335739
     5  C    0.037765
     6  C    0.455053
     7  H   -0.192681
     8  H   -0.184717
     9  H   -0.151086
    10  H   -0.189257
    11  H   -0.306179
    12  H   -0.040212
    13  H   -0.031035
    14  H    0.003210
    15  H   -0.078590
    16  H   -0.148535
 Sum of Mulliken charges =  -0.00000

 Dipole moment (field-independent basis, Debye):
    X=             -1.4977    Y=             -1.7130    Z=             -1.3380  Tot=              2.6396

 Test job not archived.
 1\1\GINC-SE054\SP\RHF\Aug-CC-pVDZ\C5H10O1\OHZDE\09-Apr-2025\0\\#t hf a
 ug-cc-pvdz iop(5/13=1,5/36=2,99/5=2) pseudo=read geom=check guess=(rea
 d,tcheck) scf=(maxcycle=1)\\title\\0,1\C,0,2.3890721,-0.84159026,-0.41
 205604\C,0,-0.58172724,1.51103771,0.70787815\C,0,-0.03190517,0.8505149
 7,1.71194477\O,0,0.46141812,0.25158471,2.60492989\C,0,-1.3634911,0.849
 55819,-0.41714438\C,0,-1.5573515,-0.66087266,-0.23656854\H,0,3.4627044
 9,-0.75066046,-0.6169037\H,0,2.22079099,-0.84241606,0.67103969\H,0,2.0
 1457168,-1.77820843,-0.84356342\H,0,1.85712999,0.00726531,-0.85814567\

 Normal termination of Gaussian 16 at Wed Apr  9 13:56:09 2025.
