 Gaussian 16, Revision C.01,

 ----------------------------------------------------------------------
 #t hf aug-cc-pvdz symm=none int=(grid=ultrafine) guess=(read,tcheck) s
 table=(opt,rrhf)
 ----------------------------------------------------------------------
 -----
 title
 -----
 Symbolic Z-matrix:
 Charge =  0 Multiplicity = 1

 SCF Done:  E(RHF) =  -339.738996031     A.U. after   16 cycles
 Normal termination of Gaussian 16 at Wed Apr  9 14:27:46 2025.
 Gaussian 16:  ES64L-G16RevC.01  3-Jul-2019

 ----------------------------------------------------------------------
 #t hf aug-cc-pvdz iop(5/13=1,5/36=2,99/5=2) pseudo=read geom=check gue
 ss=(read,tcheck) scf=(maxcycle=1)
 ----------------------------------------------------------------------
 -----
 title
 -----
 Structure from the checkpoint file:  "Grambow2020_wb97xd3_006548_forward_mol1.chk"
 Charge =  0 Multiplicity = 1

                         Standard orientation:
 ---------------------------------------------------------------------
 Center     Atomic      Atomic             Coordinates (Angstroms)
 Number     Number       Type             X           Y           Z
 ---------------------------------------------------------------------
      1          6           0       -0.216018    1.922503    0.106260
      2          7           0       -0.237646    0.516043   -0.285461
      3          6           0        0.605467   -0.419292    0.472067
      4          6           0       -1.357410   -1.070305   -0.050865
      5          8           0       -2.570095   -0.483271    0.022137
      6          6           0        1.975414   -0.433921    0.104860
      7          7           0        3.066662   -0.494834   -0.276966
      8          1           0        0.818777    2.276175    0.180488
      9          1           0       -0.763285    2.532799   -0.615110
     10          1           0       -0.688161    2.027445    1.083122
     11          1           0       -0.029362    0.413361   -1.269727
     12          1           0        0.422209   -0.352038    1.537684
     13          1           0       -1.250248   -1.712358    0.809087
     14          1           0       -1.061737   -1.510413   -0.996856
     15          1           0       -2.735265    0.048827   -0.762714
 ---------------------------------------------------------------------

 SCF Done:  E(RHF) =  -339.845043531     A.U. after    2 cycles

 The electronic state is 1-A.
 Alpha  occ. eigenvalues --  -20.65144 -15.67807 -15.58266 -11.42870 -11.28160
 Alpha  occ. eigenvalues --  -11.24178 -11.23244  -1.42159  -1.22178  -1.13999
 Alpha  occ. eigenvalues --   -1.00063  -0.94887  -0.88960  -0.79346  -0.73677
 Alpha  occ. eigenvalues --   -0.70662  -0.66551  -0.63879  -0.60911  -0.60010
 Alpha  occ. eigenvalues --   -0.57139  -0.55048  -0.50253  -0.47140  -0.43502
 Alpha  occ. eigenvalues --   -0.41180  -0.27671
 Alpha virt. eigenvalues --    0.01354   0.03384   0.03529   0.04658   0.06203
 Alpha virt. eigenvalues --    0.06375   0.07302   0.08018   0.09428   0.10041
 Alpha virt. eigenvalues --    0.11481   0.12020   0.12652   0.13285   0.14779

 Mulliken charges:
               1
     1  C    0.727089
     2  N   -0.591799
     3  C    1.094185
     4  C    1.264750
     5  O   -0.446525
     6  C   -0.950740
     7  N   -0.215216
     8  H   -0.093420
     9  H   -0.204444
    10  H   -0.138016
    11  H    0.027815
    12  H   -0.444980
    13  H   -0.108188
    14  H   -0.113207
    15  H    0.192696
 Sum of Mulliken charges =  -0.00000

 Dipole moment (field-independent basis, Debye):
    X=             -7.3970    Y=              1.5554    Z=             -1.4623  Tot=              7.6989

 Test job not archived.
 1\1\GINC-SE162\SP\RHF\Aug-CC-pVDZ\C4H8N2O1\OHZDE\09-Apr-2025\0\\#t hf
 aug-cc-pvdz iop(5/13=1,5/36=2,99/5=2) pseudo=read geom=check guess=(re
 ad,tcheck) scf=(maxcycle=1)\\title\\0,1\C,0,-1.41028899,0.75484398,0.6
 6836369\N,0,-0.2349902,-0.0714506,0.40768359\C,0,-0.03031882,-0.5586,-
 0.96356915\C,0,1.68446951,0.13868909,0.0963607\O,0,1.9174316,1.2352213
 7,0.84728567\C,0,-0.79588463,-1.69734039,-1.32271993\N,0,-1.35951228,-
 2.68058419,-1.55910715\H,0,-2.30815155,0.26719457,0.27158294\H,0,-1.52
 906693,0.93046577,1.73952372\H,0,-1.2885749,1.7153361,0.16753179\H,0,-

 Normal termination of Gaussian 16 at Wed Apr  9 14:27:51 2025.
