 Gaussian 16, Revision C.01,

 ----------------------------------------------------------------------
 #t hf aug-cc-pvdz symm=none int=(grid=ultrafine) guess=(read,tcheck) s
 table=(opt,rrhf)
 ----------------------------------------------------------------------
 -----
 title
 -----
 Symbolic Z-matrix:
 Charge =  0 Multiplicity = 1

 SCF Done:  E(RHF) =  -288.036502607     A.U. after   14 cycles

 1\1\GINC-SE058\Stability\RHF\Aug-CC-pVDZ\C6H11N1\OHZDE\09-Apr-2025\0\\
 #t hf aug-cc-pvdz symm=none int=(grid=ultrafine) guess=(read,tcheck) s
 table=(opt,rrhf)\\title\\0,1\C,0,1.80161853,-0.58961993,0.59883324\C,0
 ,0.4554703,0.12153793,0.51919199\C,0,0.49832018,1.30879163,-0.4450804\
 C,0,-0.63779818,-0.78086086,-0.10854436\C,0,-2.02167384,-0.58465866,0.
 51487879\C,0,-0.72552054,-0.41080517,-1.57931567\N,0,-0.09656867,0.728
 83542,-1.66099778\H,0,1.73858697,-1.4726141,1.23783442\H,0,2.57727315,
 0.06396015,1.00414454\H,0,2.12316924,-0.92185288,-0.39216433\H,0,0.162

 Normal termination of Gaussian 16 at Wed Apr  9 03:45:50 2025.
 Gaussian 16:  ES64L-G16RevC.01  3-Jul-2019

 ----------------------------------------------------------------------
 #t hf aug-cc-pvdz iop(5/13=1,5/36=2,99/5=2) pseudo=read geom=check gue
 ss=(read,tcheck) scf=(maxcycle=1)
 ----------------------------------------------------------------------
 -----
 title
 -----
 Structure from the checkpoint file:  "Grambow2020_wb97xd3_007880_reverse_mol2.chk"
 Charge =  0 Multiplicity = 1

                         Standard orientation:
 ---------------------------------------------------------------------
 Center     Atomic      Atomic             Coordinates (Angstroms)
 Number     Number       Type             X           Y           Z
 ---------------------------------------------------------------------
      1          6           0        1.778871   -1.102670   -0.397931
      2          6           0        0.607677   -0.565731    0.417057
      3          6           0        0.813670    0.899371    0.807278
      4          6           0       -0.698284   -0.510160   -0.416604
      5          6           0       -1.953264   -0.841475    0.394270
      6          6           0       -0.832071    0.911818   -0.934179
      7          7           0        0.010273    1.596490   -0.211190
      8          1           0        1.588654   -2.126627   -0.725504
      9          1           0        2.704789   -1.101627    0.181516
     10          1           0        1.939093   -0.494511   -1.292538
     11          1           0        0.475762   -1.181476    1.309682
     12          1           0        0.088822    2.596578   -0.314170
     13          1           0        1.858364    1.214813    0.756177
     14          1           0        0.434587    1.136691    1.804908
     15          1           0       -0.647533   -1.197611   -1.265590
     16          1           0       -2.849783   -0.709951   -0.211808
     17          1           0       -1.921064   -1.872744    0.751352
     18          1           0       -2.043186   -0.185885    1.264956
 ---------------------------------------------------------------------

 SCF Done:  E(RHF) =  -288.123851675     A.U. after    2 cycles

 The electronic state is 1-A.
 Alpha  occ. eigenvalues --  -15.66017 -11.27437 -11.23989 -11.23950 -11.22829
 Alpha  occ. eigenvalues --  -11.22786 -11.22449  -1.24300  -1.06955  -1.01115
 Alpha  occ. eigenvalues --   -0.93917  -0.88594  -0.78583  -0.76558  -0.67578
 Alpha  occ. eigenvalues --   -0.65239  -0.60073  -0.58468  -0.57156  -0.56502
 Alpha  occ. eigenvalues --   -0.51860  -0.50271  -0.49265  -0.48646  -0.46035
 Alpha  occ. eigenvalues --   -0.42205  -0.33131
 Alpha virt. eigenvalues --    0.03055   0.03888   0.04242   0.04678   0.06376
 Alpha virt. eigenvalues --    0.06476   0.06711   0.07243   0.07375   0.08992
 Alpha virt. eigenvalues --    0.09334   0.11809   0.12527   0.12754   0.13665

 Mulliken charges:
               1
     1  C    0.506775
     2  C   -0.388590
     3  C    1.054054
     4  C   -0.287968
     5  C    0.642624
     6  C   -0.186205
     7  N   -0.201843
     8  H   -0.064545
     9  H   -0.103028
    10  H    0.011393
    11  H   -0.225660
    12  H   -0.147084
    13  H   -0.124600
    14  H   -0.148684
    15  H   -0.184548
    16  H   -0.053939
    17  H   -0.031922
    18  H   -0.066229
 Sum of Mulliken charges =  -0.00000

 Dipole moment (field-independent basis, Debye):
    X=              2.1736    Y=             -0.1610    Z=              2.3799  Tot=              3.2271

 Test job not archived.
 1\1\GINC-SE058\SP\RHF\Aug-CC-pVDZ\C6H11N1\OHZDE\09-Apr-2025\0\\#t hf a
 ug-cc-pvdz iop(5/13=1,5/36=2,99/5=2) pseudo=read geom=check guess=(rea
 d,tcheck) scf=(maxcycle=1)\\title\\0,1\C,0,1.80161853,-0.58961993,0.59
 883324\C,0,0.4554703,0.12153793,0.51919199\C,0,0.49832018,1.30879163,-
 0.4450804\C,0,-0.63779818,-0.78086086,-0.10854436\C,0,-2.02167384,-0.5
 8465866,0.51487879\C,0,-0.72552054,-0.41080517,-1.57931567\N,0,-0.0965
 6867,0.72883542,-1.66099778\H,0,1.73858697,-1.4726141,1.23783442\H,0,2
 .57727315,0.06396015,1.00414454\H,0,2.12316924,-0.92185288,-0.39216433

 Normal termination of Gaussian 16 at Wed Apr  9 03:45:58 2025.
