 Gaussian 16, Revision C.01,

 ----------------------------------------------------------------------
 #t hf aug-cc-pvdz symm=none int=(grid=ultrafine) guess=(read,tcheck) s
 table=(opt,rrhf)
 ----------------------------------------------------------------------
 -----
 title
 -----
 Symbolic Z-matrix:
 Charge =  0 Multiplicity = 1

 SCF Done:  E(RHF) =  -306.596735780     A.U. after   15 cycles
 Normal termination of Gaussian 16 at Wed Apr  9 16:25:05 2025.
 Gaussian 16:  ES64L-G16RevC.01  3-Jul-2019

 ----------------------------------------------------------------------
 #t hf aug-cc-pvdz iop(5/13=1,5/36=2,99/5=2) pseudo=read geom=check gue
 ss=(read,tcheck) scf=(maxcycle=1)
 ----------------------------------------------------------------------
 -----
 title
 -----
 Structure from the checkpoint file:  "Grambow2020_wb97xd3_008210_reverse_mol2.chk"
 Charge =  0 Multiplicity = 1

                         Standard orientation:
 ---------------------------------------------------------------------
 Center     Atomic      Atomic             Coordinates (Angstroms)
 Number     Number       Type             X           Y           Z
 ---------------------------------------------------------------------
      1          6           0       -1.468784   -0.170418   -0.612532
      2          8           0       -0.889719   -1.391989   -0.117891
      3          6           0        0.060071   -0.662676    0.663783
      4          6           0        1.439377   -0.730902    0.060495
      5          6           0        2.248527    0.081736   -0.527557
      6          6           0        0.017434    1.908757    0.032272
      7          6           0       -0.711685    0.651525    0.438141
      8          1           0       -1.155909    0.029600   -1.643056
      9          1           0       -2.558237   -0.186904   -0.554153
     10          1           0        0.101818   -1.038069    1.688822
     11          1           0        1.958135   -1.701668    0.053102
     12          1           0        0.708174    1.725711   -0.798328
     13          1           0        0.590157    2.320951    0.864530
     14          1           0       -0.687691    2.674407   -0.298359
     15          1           0       -1.348337    0.843749    1.302962
 ---------------------------------------------------------------------

 SCF Done:  E(RHF) =  -306.689273606     A.U. after    2 cycles

 The electronic state is 1-A.
 Alpha  occ. eigenvalues --  -20.57871 -11.32533 -11.29764 -11.29668 -11.25789
 Alpha  occ. eigenvalues --  -11.24632 -11.24142  -1.36580  -1.08828  -1.04972
 Alpha  occ. eigenvalues --   -0.94620  -0.92579  -0.79116  -0.72217  -0.69153
 Alpha  occ. eigenvalues --   -0.65558  -0.63748  -0.58969  -0.58644  -0.57144
 Alpha  occ. eigenvalues --   -0.52658  -0.48554  -0.47419  -0.45460  -0.43701
 Alpha  occ. eigenvalues --   -0.40598
 Alpha virt. eigenvalues --    0.03005   0.04068   0.04629   0.04875   0.06162
 Alpha virt. eigenvalues --    0.06611   0.06872   0.07433   0.07979   0.09399
 Alpha virt. eigenvalues --    0.11403   0.12540   0.13181   0.13419   0.14364

 Mulliken charges:
               1
     1  C    1.081639
     2  O   -0.829573
     3  C    0.509177
     4  C    0.589233
     5  C   -0.330000
     6  C    0.643442
     7  C   -0.521658
     8  H   -0.242767
     9  H   -0.183706
    10  H   -0.204377
    11  H   -0.287189
    12  H   -0.036926
    13  H   -0.018275
    14  H   -0.022886
    15  H   -0.146135
 Sum of Mulliken charges =  -0.00000

 Dipole moment (field-independent basis, Debye):
    X=             -1.7411    Y=              1.0117    Z=              1.4577  Tot=              2.4859

 Test job not archived.
 1\1\GINC-SE162\SP\RHF\Aug-CC-pVDZ\C6H8O1\OHZDE\09-Apr-2025\0\\#t hf au
 g-cc-pvdz iop(5/13=1,5/36=2,99/5=2) pseudo=read geom=check guess=(read
 ,tcheck) scf=(maxcycle=1)\\title\\0,1\C,0,-1.3030981,-0.54400706,-0.72
 219043\O,0,-0.70908892,-1.7160214,-0.13418077\C,0,0.15100992,-0.911934
 27,0.67741389\C,0,1.57125786,-0.94247946,0.17436099\C,0,2.38473415,-0.
 11922183,-0.39256888\C,0,0.04384931,1.62605595,-0.07092648\C,0,-0.6580
 3836,0.35505152,0.34002108\H,0,-0.9267663,-0.37342349,-1.7366628\H,0,-
 2.39225831,-0.60769606,-0.73838543\H,0,0.13593791,-1.24161149,1.718784

 Normal termination of Gaussian 16 at Wed Apr  9 16:25:11 2025.
