 Gaussian 16, Revision C.01,

 ----------------------------------------------------------------------
 #t hf aug-cc-pvdz symm=none int=(grid=ultrafine) guess=(read,tcheck) s
 table=(opt,rrhf)
 ----------------------------------------------------------------------
 -----
 title
 -----
 Symbolic Z-matrix:
 Charge =  0 Multiplicity = 1

 SCF Done:  E(RHF) =  -341.324466914     A.U. after   17 cycles
 Normal termination of Gaussian 16 at Wed Apr  9 16:58:02 2025.
 Gaussian 16:  ES64L-G16RevC.01  3-Jul-2019

 ----------------------------------------------------------------------
 #t hf aug-cc-pvdz iop(5/13=1,5/36=2,99/5=2) pseudo=read geom=check gue
 ss=(read,tcheck) scf=(maxcycle=1)
 ----------------------------------------------------------------------
 -----
 title
 -----
 Structure from the checkpoint file:  "Grambow2020_wb97xd3_009088_forward_mol1.chk"
 Charge =  0 Multiplicity = 1

                         Standard orientation:
 ---------------------------------------------------------------------
 Center     Atomic      Atomic             Coordinates (Angstroms)
 Number     Number       Type             X           Y           Z
 ---------------------------------------------------------------------
      1          8           0       -0.730233    2.028846   -0.377630
      2          6           0       -0.440748    1.003135   -0.001471
      3          6           0        1.866653    0.355145    0.608699
      4          6           0        1.570115   -0.587182   -0.315827
      5          6           0        0.337079   -1.297642   -0.348524
      6          6           0       -0.832476   -0.713932    0.065176
      7          8           0       -1.968804   -0.896657    0.361783
      8          1           0        2.732359    0.995921    0.493097
      9          1           0        1.344904    0.409126    1.554911
     10          1           0        2.271889   -0.764429   -1.126874
     11          1           0        0.239414   -2.255271   -0.842677
 ---------------------------------------------------------------------

 SCF Done:  E(RHF) =  -341.431010227     A.U. after    2 cycles

 The electronic state is 1-A.
 Alpha  occ. eigenvalues --  -20.70497 -20.58402 -11.43071 -11.39984 -11.28217
 Alpha  occ. eigenvalues --  -11.25991 -11.25281  -1.51402  -1.39088  -1.11982
 Alpha  occ. eigenvalues --   -0.99596  -0.87542  -0.82728  -0.76875  -0.71340
 Alpha  occ. eigenvalues --   -0.69318  -0.68765  -0.66428  -0.65483  -0.60319
 Alpha  occ. eigenvalues --   -0.57704  -0.55373  -0.50065  -0.42177  -0.31868
 Alpha virt. eigenvalues --    0.03193   0.04006   0.04768   0.06074   0.06689
 Alpha virt. eigenvalues --    0.07270   0.08012   0.09313   0.10057   0.11926
 Alpha virt. eigenvalues --    0.12290   0.13194   0.13339   0.14658   0.14818

 Mulliken charges:
               1
     1  O   -0.222019
     2  C    0.271025
     3  C    0.492712
     4  C    0.423902
     5  C    0.835230
     6  C   -0.131641
     7  O   -0.423267
     8  H   -0.309220
     9  H   -0.243078
    10  H   -0.350003
    11  H   -0.343641
 Sum of Mulliken charges =  -0.00000

 Dipole moment (field-independent basis, Debye):
    X=              3.3902    Y=              0.6690    Z=             -0.5532  Tot=              3.4996

 Test job not archived.
 1\1\GINC-SE103\SP\RHF\Aug-CC-pVDZ\C5H4O2\OHZDE\09-Apr-2025\0\\#t hf au
 g-cc-pvdz iop(5/13=1,5/36=2,99/5=2) pseudo=read geom=check guess=(read
 ,tcheck) scf=(maxcycle=1)\\title\\0,1\O,0,-0.68733549,2.21534607,1.130
 31789\C,0,-0.17881075,1.46207663,0.45847903\C,0,-1.33277702,-0.4608301
 9,-0.58415581\C,0,-0.33550067,-1.0883009,0.08096157\C,0,1.01714565,-0.
 64503703,0.07273746\C,0,1.32973655,0.68663897,-0.02026403\O,0,2.193032
 5,1.48061211,-0.21244073\H,0,-2.36952865,-0.72050478,-0.40774731\H,0,-
 1.13344468,0.21063928,-1.40868497\H,0,-0.58224913,-1.93167976,0.720904

 Normal termination of Gaussian 16 at Wed Apr  9 16:58:07 2025.
