 Gaussian 16, Revision C.01,

 ----------------------------------------------------------------------
 #t hf aug-cc-pvdz symm=none int=(grid=ultrafine) guess=(read,tcheck) s
 table=(opt,rrhf)
 ----------------------------------------------------------------------
 -----
 title
 -----
 Symbolic Z-matrix:
 Charge =  0 Multiplicity = 1

 SCF Done:  E(RHF) =  -344.734264932     A.U. after   17 cycles

 1\1\GINC-SE163\Stability\RHF\Aug-CC-pVDZ\C5H10O2\OHZDE\09-Apr-2025\0\\
 #t hf aug-cc-pvdz symm=none int=(grid=ultrafine) guess=(read,tcheck) s
 table=(opt,rrhf)\\title\\0,1\C,0,-2.37108712,-0.5132304,-0.23795889\C,
 0,-1.15224942,0.34168817,-0.55556356\C,0,0.14482361,-0.2889931,-0.0628
 1093\O,0,0.30130362,-1.51598241,-0.72325632\C,0,1.29513213,0.67776302,
 -0.35291008\C,0,2.9148757,0.82698176,0.41044532\O,0,2.54382788,-0.3958
 1953,0.23926044\H,0,-3.28208923,-0.04079633,-0.60796046\H,0,-2.2840058
 ,-1.49605298,-0.70019279\H,0,-2.48099703,-0.65554742,0.83975299\H,0,-1

 Normal termination of Gaussian 16 at Wed Apr  9 16:10:20 2025.
 Gaussian 16:  ES64L-G16RevC.01  3-Jul-2019

 ----------------------------------------------------------------------
 #t hf aug-cc-pvdz iop(5/13=1,5/36=2,99/5=2) pseudo=read geom=check gue
 ss=(read,tcheck) scf=(maxcycle=1)
 ----------------------------------------------------------------------
 -----
 title
 -----
 Structure from the checkpoint file:  "Grambow2020_wb97xd3_007828_reverse_mol1.chk"
 Charge =  0 Multiplicity = 1

                         Standard orientation:
 ---------------------------------------------------------------------
 Center     Atomic      Atomic             Coordinates (Angstroms)
 Number     Number       Type             X           Y           Z
 ---------------------------------------------------------------------
      1          6           0        2.802999   -0.136656    0.332886
      2          6           0        1.522984   -0.703213   -0.265360
      3          6           0        0.284729    0.070701    0.171384
      4          8           0        0.421476    1.389187   -0.285859
      5          6           0       -0.950025   -0.620972   -0.410815
      6          6           0       -2.665988   -0.587551    0.121067
      7          8           0       -2.085266    0.560555    0.203764
      8          1           0        3.671478   -0.705384   -0.002249
      9          1           0        2.940263    0.902806    0.036475
     10          1           0        2.777287   -0.175871    1.424489
     11          1           0        1.577120   -0.678476   -1.358224
     12          1           0        1.405495   -1.750406    0.029349
     13          1           0        0.211418    0.039951    1.268300
     14          1           0       -0.398996    1.852508   -0.098738
     15          1           0       -0.965400   -1.644283   -0.005824
     16          1           0       -1.024236   -0.577575   -1.489204
     17          1           0       -2.852307   -0.995059    1.157412
 ---------------------------------------------------------------------

 SCF Done:  E(RHF) =  -344.842183293     A.U. after    2 cycles

 The electronic state is 1-A.
 Alpha  occ. eigenvalues --  -20.63172 -20.57810 -11.34838 -11.31327 -11.30423
 Alpha  occ. eigenvalues --  -11.24617 -11.22931  -1.39137  -1.33886  -1.07982
 Alpha  occ. eigenvalues --   -1.00293  -0.89292  -0.84358  -0.81109  -0.74555
 Alpha  occ. eigenvalues --   -0.67699  -0.65719  -0.62962  -0.61972  -0.60007
 Alpha  occ. eigenvalues --   -0.58446  -0.57128  -0.55097  -0.52123  -0.50044
 Alpha  occ. eigenvalues --   -0.48260  -0.47093  -0.33046
 Alpha virt. eigenvalues --    0.03139   0.04190   0.04313   0.04890   0.06116
 Alpha virt. eigenvalues --    0.06541   0.06720   0.07272   0.08947   0.09039
 Alpha virt. eigenvalues --    0.09536   0.11206   0.11685   0.12339   0.13706

 Mulliken charges:
               1
     1  C    0.470984
     2  C    0.261762
     3  C    0.423901
     4  O   -0.601757
     5  C    0.277367
     6  C    0.275374
     7  O   -0.563735
     8  H   -0.039464
     9  H   -0.025421
    10  H   -0.070490
    11  H   -0.106233
    12  H   -0.124941
    13  H   -0.158844
    14  H    0.172007
    15  H    0.118262
    16  H   -0.152026
    17  H   -0.156748
 Sum of Mulliken charges =  -0.00000

 Dipole moment (field-independent basis, Debye):
    X=              1.4958    Y=             -1.8927    Z=              0.8454  Tot=              2.5562

 Test job not archived.
 1\1\GINC-SE163\SP\RHF\Aug-CC-pVDZ\C5H10O2\OHZDE\09-Apr-2025\0\\#t hf a
 ug-cc-pvdz iop(5/13=1,5/36=2,99/5=2) pseudo=read geom=check guess=(rea
 d,tcheck) scf=(maxcycle=1)\\title\\0,1\C,0,-2.37108712,-0.5132304,-0.2
 3795889\C,0,-1.15224942,0.34168817,-0.55556356\C,0,0.14482361,-0.28899
 31,-0.06281093\O,0,0.30130362,-1.51598241,-0.72325632\C,0,1.29513213,0
 .67776302,-0.35291008\C,0,2.9148757,0.82698176,0.41044532\O,0,2.543827
 88,-0.39581953,0.23926044\H,0,-3.28208923,-0.04079633,-0.60796046\H,0,
 -2.2840058,-1.49605298,-0.70019279\H,0,-2.48099703,-0.65554742,0.83975

 Normal termination of Gaussian 16 at Wed Apr  9 16:10:26 2025.
