 Gaussian 16, Revision C.01,

 ----------------------------------------------------------------------
 #t hf aug-cc-pvdz symm=none int=(grid=ultrafine) guess=(read,tcheck) s
 table=(opt,rrhf)
 ----------------------------------------------------------------------
 -----
 title
 -----
 Symbolic Z-matrix:
 Charge =  0 Multiplicity = 1

 SCF Done:  E(RHF) =  -337.428393722     A.U. after   16 cycles
 Normal termination of Gaussian 16 at Wed Apr  9 04:04:31 2025.
 Gaussian 16:  ES64L-G16RevC.01  3-Jul-2019

 ----------------------------------------------------------------------
 #t hf aug-cc-pvdz iop(5/13=1,5/36=2,99/5=2) pseudo=read geom=check gue
 ss=(read,tcheck) scf=(maxcycle=1)
 ----------------------------------------------------------------------
 -----
 title
 -----
 Structure from the checkpoint file:  "Grambow2020_wb97xd3_009191_reverse_mol1.chk"
 Charge =  0 Multiplicity = 1

                         Standard orientation:
 ---------------------------------------------------------------------
 Center     Atomic      Atomic             Coordinates (Angstroms)
 Number     Number       Type             X           Y           Z
 ---------------------------------------------------------------------
      1          8           0       -2.278183    0.091643   -0.000501
      2          6           0       -1.074431   -0.001976    0.000024
      3          6           0       -0.216642    1.220745    0.000983
      4          6           0        1.067715    0.878014   -0.000007
      5          7           0        1.760726   -0.185427   -0.000704
      6          6           0        0.899038   -1.255800   -0.000128
      7          7           0       -0.391721   -1.221362    0.000409
      8          1           0       -0.645765    2.208285   -0.000644
      9          1           0        1.922196    2.041238    0.401912
     10          1           0        1.921348    2.042391   -0.401905
     11          1           0        1.390566   -2.223444    0.001486
 ---------------------------------------------------------------------

 SCF Done:  E(RHF) =  -337.529332818     A.U. after    2 cycles

 The electronic state is 1-A.
 Alpha  occ. eigenvalues --  -20.53068 -15.65920 -15.62689 -11.42353 -11.36982
 Alpha  occ. eigenvalues --  -11.35700 -11.29382  -1.35164  -1.31203  -1.17636
 Alpha  occ. eigenvalues --   -1.09647  -0.91761  -0.88839  -0.76666  -0.74562
 Alpha  occ. eigenvalues --   -0.68781  -0.65923  -0.63633  -0.61625  -0.54418
 Alpha  occ. eigenvalues --   -0.51802  -0.45636  -0.45028  -0.41354  -0.34614
 Alpha virt. eigenvalues --    0.00316   0.02916   0.03802   0.04413   0.06079
 Alpha virt. eigenvalues --    0.07067   0.08979   0.09824   0.09867   0.10830
 Alpha virt. eigenvalues --    0.11493   0.12976   0.13799   0.13896   0.15360

 Mulliken charges:
               1
     1  O   -0.485984
     2  C    0.292036
     3  C    1.070556
     4  C   -0.160139
     5  N   -0.467220
     6  C    0.674288
     7  N   -0.439346
     8  H   -0.339540
     9  H    0.057029
    10  H    0.055754
    11  H   -0.257434
 Sum of Mulliken charges =  -0.00000

 Dipole moment (field-independent basis, Debye):
    X=              6.5252    Y=              4.6186    Z=              0.0001  Tot=              7.9944

 Test job not archived.
 1\1\GINC-SE054\SP\RHF\Aug-CC-pVDZ\C4H4N2O1\OHZDE\09-Apr-2025\0\\#t hf
 aug-cc-pvdz iop(5/13=1,5/36=2,99/5=2) pseudo=read geom=check guess=(re
 ad,tcheck) scf=(maxcycle=1)\\title\\0,1\O,0,2.4216083,-1.15616928,-0.0
 0311588\C,0,1.26143447,-0.8219124,-0.01039866\C,0,0.88605611,0.6229273
 7,0.0383682\C,0,-0.43683434,0.7522588,0.02187403\N,0,-1.4581503,-0.000
 05662,-0.02402223\C,0,-1.02576777,-1.30363986,-0.06786956\N,0,0.195197
 88,-1.72372622,-0.06394946\H,0,1.63361203,1.39660369,0.0827629\H,0,-0.
 82312365,2.15582147,-0.33246839\H,0,-0.83558996,2.12541274,0.4706784\H

 Normal termination of Gaussian 16 at Wed Apr  9 04:04:35 2025.
