 Gaussian 16, Revision C.01,

 ----------------------------------------------------------------------
 #t hf aug-cc-pvdz symm=none int=(grid=ultrafine) guess=(read,tcheck) s
 table=(opt,rrhf)
 ----------------------------------------------------------------------
 -----
 title
 -----
 Symbolic Z-matrix:
 Charge =  0 Multiplicity = 1

 SCF Done:  E(RHF) =  -344.713066624     A.U. after   17 cycles

 1\1\GINC-SE094\Stability\RHF\Aug-CC-pVDZ\C5H10O2\OHZDE\09-Apr-2025\0\\
 #t hf aug-cc-pvdz symm=none int=(grid=ultrafine) guess=(read,tcheck) s
 table=(opt,rrhf)\\title\\0,1\C,0,2.38009695,-0.22066011,0.30371238\O,0
 ,1.24898642,-0.05708839,1.12804863\C,0,0.01974413,-0.17269223,0.517590
 3\C,0,-1.36914325,0.91964133,-1.18587293\C,0,-1.05623733,0.24843623,1.
 47767612\C,0,-0.21870368,-1.19838591,-0.40369867\O,0,-1.10683011,-1.09
 867634,-1.28512259\H,0,2.58229959,-1.27566669,0.08938843\H,0,3.2318146
 9,0.19080055,0.84417066\H,0,2.2546384,0.31422347,-0.64345618\H,0,-0.66

 Normal termination of Gaussian 16 at Wed Apr  9 03:53:25 2025.
 Gaussian 16:  ES64L-G16RevC.01  3-Jul-2019

 ----------------------------------------------------------------------
 #t hf aug-cc-pvdz iop(5/13=1,5/36=2,99/5=2) pseudo=read geom=check gue
 ss=(read,tcheck) scf=(maxcycle=1)
 ----------------------------------------------------------------------
 -----
 title
 -----
 Structure from the checkpoint file:  "Grambow2020_wb97xd3_008392_forward_mol1.chk"
 Charge =  0 Multiplicity = 1

                         Standard orientation:
 ---------------------------------------------------------------------
 Center     Atomic      Atomic             Coordinates (Angstroms)
 Number     Number       Type             X           Y           Z
 ---------------------------------------------------------------------
      1          6           0       -2.251895   -0.679016    0.454090
      2          8           0       -1.570960    0.475011    0.017917
      3          6           0       -0.208944    0.359728   -0.151446
      4          6           0        1.839177   -0.063995    1.132940
      5          6           0        0.380911    1.719721   -0.395045
      6          6           0        0.332760   -0.767072   -0.779582
      7          8           0        1.515819   -1.131755   -0.572227
      8          1           0       -2.410581   -1.394048   -0.360408
      9          1           0       -3.224441   -0.355913    0.823653
     10          1           0       -1.701624   -1.177266    1.259024
     11          1           0        1.552458   -0.928811    1.713382
     12          1           0        1.510912    0.888165    1.531107
     13          1           0        2.863011   -0.063162    0.786047
     14          1           0        0.417479    2.323178    0.518281
     15          1           0        1.390769    1.646486   -0.796919
     16          1           0       -0.249891    2.252548   -1.112878
     17          1           0       -0.259024   -1.353424   -1.492552
 ---------------------------------------------------------------------

 SCF Done:  E(RHF) =  -344.824680258     A.U. after    2 cycles

 The electronic state is 1-A.
 Alpha  occ. eigenvalues --  -20.57749 -20.56040 -11.33166 -11.31495 -11.28368
 Alpha  occ. eigenvalues --  -11.27034 -11.23335  -1.35131  -1.32821  -1.03574
 Alpha  occ. eigenvalues --   -0.95755  -0.92266  -0.90596  -0.75004  -0.70340
 Alpha  occ. eigenvalues --   -0.67438  -0.65240  -0.63223  -0.62528  -0.60351
 Alpha  occ. eigenvalues --   -0.56993  -0.54476  -0.53877  -0.51887  -0.51283
 Alpha  occ. eigenvalues --   -0.47648  -0.42848  -0.26815
 Alpha virt. eigenvalues --    0.02698   0.04078   0.04550   0.05105   0.05968
 Alpha virt. eigenvalues --    0.06190   0.06600   0.07093   0.07578   0.08521
 Alpha virt. eigenvalues --    0.09165   0.11035   0.12411   0.12791   0.14125

 Mulliken charges:
               1
     1  C    0.856814
     2  O   -0.651982
     3  C   -0.428844
     4  C    0.770379
     5  C    0.435738
     6  C    0.898333
     7  O   -0.629825
     8  H   -0.125156
     9  H   -0.292973
    10  H   -0.079347
    11  H   -0.072997
    12  H   -0.101638
    13  H   -0.071435
    14  H   -0.045839
    15  H   -0.135058
    16  H   -0.095027
    17  H   -0.231144
 Sum of Mulliken charges =   0.00000

 Dipole moment (field-independent basis, Debye):
    X=             -0.0600    Y=              0.1283    Z=              1.7635  Tot=              1.7692

 Test job not archived.
 1\1\GINC-SE094\SP\RHF\Aug-CC-pVDZ\C5H10O2\OHZDE\09-Apr-2025\0\\#t hf a
 ug-cc-pvdz iop(5/13=1,5/36=2,99/5=2) pseudo=read geom=check guess=(rea
 d,tcheck) scf=(maxcycle=1)\\title\\0,1\C,0,2.38009695,-0.22066011,0.30
 371238\O,0,1.24898642,-0.05708839,1.12804863\C,0,0.01974413,-0.1726922
 3,0.5175903\C,0,-1.36914325,0.91964133,-1.18587293\C,0,-1.05623733,0.2
 4843623,1.47767612\C,0,-0.21870368,-1.19838591,-0.40369867\O,0,-1.1068
 3011,-1.09867634,-1.28512259\H,0,2.58229959,-1.27566669,0.08938843\H,0
 ,3.23181469,0.19080055,0.84417066\H,0,2.2546384,0.31422347,-0.64345618

 Normal termination of Gaussian 16 at Wed Apr  9 03:53:31 2025.
