 Gaussian 16, Revision C.01,

 ----------------------------------------------------------------------
 #t hf aug-cc-pvdz symm=none int=(grid=ultrafine) guess=(read,tcheck) s
 table=(opt,rrhf)
 ----------------------------------------------------------------------
 -----
 title
 -----
 Symbolic Z-matrix:
 Charge =  0 Multiplicity = 1

 SCF Done:  E(RHF) =  -322.773551164     A.U. after   15 cycles
 Normal termination of Gaussian 16 at Wed Apr  9 16:08:01 2025.
 Gaussian 16:  ES64L-G16RevC.01  3-Jul-2019

 ----------------------------------------------------------------------
 #t hf aug-cc-pvdz iop(5/13=1,5/36=2,99/5=2) pseudo=read geom=check gue
 ss=(read,tcheck) scf=(maxcycle=1)
 ----------------------------------------------------------------------
 -----
 title
 -----
 Structure from the checkpoint file:  "Grambow2020_wb97xd3_007787_forward_mol2.chk"
 Charge =  0 Multiplicity = 1

                         Standard orientation:
 ---------------------------------------------------------------------
 Center     Atomic      Atomic             Coordinates (Angstroms)
 Number     Number       Type             X           Y           Z
 ---------------------------------------------------------------------
      1          6           0        2.544347   -0.360112   -0.001398
      2          6           0        1.095684   -0.017004    0.001593
      3          6           0        0.536946    1.190905    0.000990
      4          7           0       -0.864842    1.110070    0.000446
      5          6           0       -1.288944   -0.195497    0.000323
      6          8           0       -2.434849   -0.572919   -0.001432
      7          6           0       -0.013810   -1.033609    0.001595
      8          1           0        2.812927   -0.950902    0.878805
      9          1           0        3.163127    0.537978   -0.006846
     10          1           0        2.806578   -0.956944   -0.879432
     11          1           0        1.019875    2.157500   -0.000606
     12          1           0       -1.500622    1.886217   -0.003360
     13          1           0       -0.006432   -1.683221   -0.877722
     14          1           0       -0.008106   -1.685859    0.878881
 ---------------------------------------------------------------------

 SCF Done:  E(RHF) =  -322.872961683     A.U. after    2 cycles

 The electronic state is 1-A.
 Alpha  occ. eigenvalues --  -20.53810 -15.65820 -11.36426 -11.28720 -11.25377
 Alpha  occ. eigenvalues --  -11.24717 -11.24551  -1.35367  -1.24261  -1.07798
 Alpha  occ. eigenvalues --   -0.98728  -0.94051  -0.81362  -0.76151  -0.70828
 Alpha  occ. eigenvalues --   -0.64797  -0.63652  -0.62048  -0.58153  -0.57871
 Alpha  occ. eigenvalues --   -0.56300  -0.53907  -0.52048  -0.47969  -0.43121
 Alpha  occ. eigenvalues --   -0.32000
 Alpha virt. eigenvalues --    0.02827   0.03495   0.04654   0.04817   0.06167
 Alpha virt. eigenvalues --    0.07297   0.07901   0.09517   0.09756   0.11792
 Alpha virt. eigenvalues --    0.12288   0.12733   0.13530   0.14417   0.15243

 Mulliken charges:
               1
     1  C    0.474886
     2  C   -0.472643
     3  C    1.038777
     4  N   -0.511838
     5  C    0.592749
     6  O   -0.501130
     7  C   -0.299590
     8  H    0.050820
     9  H   -0.094458
    10  H    0.050161
    11  H   -0.350661
    12  H   -0.111977
    13  H    0.068377
    14  H    0.066526
 Sum of Mulliken charges =  -0.00000

 Dipole moment (field-independent basis, Debye):
    X=              3.9374    Y=              1.9337    Z=             -0.0051  Tot=              4.3866

 Test job not archived.
 1\1\GINC-SE131\SP\RHF\Aug-CC-pVDZ\C5H7N1O1\OHZDE\09-Apr-2025\0\\#t hf
 aug-cc-pvdz iop(5/13=1,5/36=2,99/5=2) pseudo=read geom=check guess=(re
 ad,tcheck) scf=(maxcycle=1)\\title\\0,1\C,0,-1.88027004,0.62609219,-0.
 32540168\C,0,-0.46109977,0.26433755,-0.05810991\C,0,0.52464889,1.05577
 599,0.35801115\N,0,1.72867051,0.34753991,0.50040928\C,0,1.5703011,-0.9
 7602507,0.17259161\O,0,2.42721705,-1.82483963,0.20011178\C,0,0.1033289
 ,-1.12099998,-0.22158398\H,0,-2.1524658,0.41933183,-1.36419142\H,0,-2.
 06125011,1.68429355,-0.13320313\H,0,-2.56053516,0.04659255,0.30494528\

 Normal termination of Gaussian 16 at Wed Apr  9 16:08:06 2025.
