 Gaussian 16, Revision C.01,

 ----------------------------------------------------------------------
 #t hf aug-cc-pvdz symm=none int=(grid=ultrafine) guess=(read,tcheck) s
 table=(opt,rrhf)
 ----------------------------------------------------------------------
 -----
 title
 -----
 Symbolic Z-matrix:
 Charge =  0 Multiplicity = 1

 SCF Done:  E(RHF) =  -323.763650594     A.U. after   15 cycles
 Normal termination of Gaussian 16 at Wed Apr  9 03:52:47 2025.
 Gaussian 16:  ES64L-G16RevC.01  3-Jul-2019

 ----------------------------------------------------------------------
 #t hf aug-cc-pvdz iop(5/13=1,5/36=2,99/5=2) pseudo=read geom=check gue
 ss=(read,tcheck) scf=(maxcycle=1)
 ----------------------------------------------------------------------
 -----
 title
 -----
 Structure from the checkpoint file:  "Grambow2020_wb97xd3_008338_forward_mol1.chk"
 Charge =  0 Multiplicity = 1

                         Standard orientation:
 ---------------------------------------------------------------------
 Center     Atomic      Atomic             Coordinates (Angstroms)
 Number     Number       Type             X           Y           Z
 ---------------------------------------------------------------------
      1          7           0       -2.316764    0.070339    0.219755
      2          6           0       -1.096643    0.072595   -0.060386
      3          6           0       -0.286532    1.315957   -0.239418
      4          6           0        1.105404    1.164489    0.361887
      5          6           0        1.734306   -0.103217   -0.194050
      6          6           0        0.876978   -1.338994   -0.154063
      7          8           0       -0.447041   -1.146245   -0.274716
      8          1           0       -2.673337   -0.883008    0.264967
      9          1           0       -0.200429    1.500582   -1.315961
     10          1           0       -0.849838    2.141772    0.190104
     11          1           0        1.036346    1.087342    1.451653
     12          1           0        1.712581    2.043418    0.136005
     13          1           0        1.942902    0.027611   -1.264443
     14          1           0        2.689262   -0.338776    0.276672
     15          1           0        1.022092   -1.522738    1.660659
     16          1           0        1.113017   -2.043595    0.975969
 ---------------------------------------------------------------------

 SCF Done:  E(RHF) =  -323.864028270     A.U. after    2 cycles

 The electronic state is 1-A.
 Alpha  occ. eigenvalues --  -20.63610 -15.61611 -11.36017 -11.32983 -11.26043
 Alpha  occ. eigenvalues --  -11.25616 -11.25550  -1.41744  -1.19590  -1.10266
 Alpha  occ. eigenvalues --   -1.00949  -0.90280  -0.87057  -0.75498  -0.71931
 Alpha  occ. eigenvalues --   -0.71383  -0.63976  -0.63566  -0.61687  -0.59571
 Alpha  occ. eigenvalues --   -0.57024  -0.51741  -0.51127  -0.49305  -0.45441
 Alpha  occ. eigenvalues --   -0.42612  -0.33845
 Alpha virt. eigenvalues --    0.03026   0.04059   0.04599   0.04619   0.06210
 Alpha virt. eigenvalues --    0.06768   0.07014   0.07117   0.08706   0.10544
 Alpha virt. eigenvalues --    0.12033   0.12348   0.13093   0.13540   0.14039

 Mulliken charges:
               1
     1  N   -0.355656
     2  C    0.672732
     3  C    0.098498
     4  C    0.253365
     5  C    0.048621
     6  C    0.101001
     7  O   -0.725012
     8  H    0.014205
     9  H    0.014360
    10  H   -0.045450
    11  H   -0.115855
    12  H   -0.040576
    13  H   -0.011203
    14  H   -0.058029
    15  H   -0.179506
    16  H    0.328505
 Sum of Mulliken charges =  -0.00000

 Dipole moment (field-independent basis, Debye):
    X=              2.2992    Y=              1.6652    Z=              0.0197  Tot=              2.8390

 Test job not archived.
 1\1\GINC-SE135\SP\RHF\Aug-CC-pVDZ\C5H9N1O1\OHZDE\09-Apr-2025\0\\#t hf
 aug-cc-pvdz iop(5/13=1,5/36=2,99/5=2) pseudo=read geom=check guess=(re
 ad,tcheck) scf=(maxcycle=1)\\title\\0,1\N,0,2.56432866,0.62059832,0.25
 574596\C,0,1.40076564,0.32154537,-0.09620241\C,0,0.86166888,-1.0725826
 5,-0.08824768\C,0,-0.58689023,-1.10627645,0.3834909\C,0,-1.38473141,-0
 .10869124,-0.44109067\C,0,-0.78416892,1.26373273,-0.58084619\O,0,0.557
 75152,1.32681214,-0.57812906\H,0,2.72840656,1.61976082,0.14255236\H,0,
 0.92002856,-1.45394165,-1.11372457\H,0,1.52474838,-1.67951172,0.524725

 Normal termination of Gaussian 16 at Wed Apr  9 03:52:52 2025.
