 Gaussian 16, Revision C.01,

 ----------------------------------------------------------------------
 #t hf aug-cc-pvdz symm=none int=(grid=ultrafine) guess=(read,tcheck) s
 table=(opt,rrhf)
 ----------------------------------------------------------------------
 -----
 title
 -----
 Symbolic Z-matrix:
 Charge =  0 Multiplicity = 1

 SCF Done:  E(RHF) =  -308.869337272     A.U. after   15 cycles

 1\1\GINC-SE250\Stability\RHF\Aug-CC-pVDZ\C6H12O1\OHZDE\09-Apr-2025\0\\
 #t hf aug-cc-pvdz symm=none int=(grid=ultrafine) guess=(read,tcheck) s
 table=(opt,rrhf)\\title\\0,1\C,0,2.0968792,-0.35395944,-0.34931653\C,0
 ,0.96608376,0.01220094,0.5986203\O,0,1.5051101,0.04922904,1.90634789\C
 ,0,0.13669504,1.1470983,0.26483759\C,0,-0.75197426,1.12324084,-0.90224
 572\C,0,-1.67624478,0.18429522,-0.1621091\C,0,-1.38168583,-1.2444619,-
 0.15539215\H,0,1.73333984,-0.40462072,-1.37666189\H,0,2.5132216,-1.326
 3699,-0.08068634\H,0,2.88702374,0.39628081,-0.29592722\H,0,0.23119848,

 Normal termination of Gaussian 16 at Wed Apr  9 03:41:24 2025.
 Gaussian 16:  ES64L-G16RevC.01  3-Jul-2019

 ----------------------------------------------------------------------
 #t hf aug-cc-pvdz iop(5/13=1,5/36=2,99/5=2) pseudo=read geom=check gue
 ss=(read,tcheck) scf=(maxcycle=1)
 ----------------------------------------------------------------------
 -----
 title
 -----
 Structure from the checkpoint file:  "Grambow2020_wb97xd3_007565_forward_mol1.chk"
 Charge =  0 Multiplicity = 1

                         Standard orientation:
 ---------------------------------------------------------------------
 Center     Atomic      Atomic             Coordinates (Angstroms)
 Number     Number       Type             X           Y           Z
 ---------------------------------------------------------------------
      1          6           0        1.648491   -0.152125    1.257947
      2          6           0        0.930900    0.092402   -0.059863
      3          8           0        1.905459    0.491229   -1.004979
      4          6           0        0.018390   -0.920579   -0.537861
      5          6           0       -1.231507   -1.214922    0.171720
      6          6           0       -1.810202    0.085273   -0.336516
      7          6           0       -1.509666    1.323163    0.374443
      8          1           0        0.939095   -0.456299    2.028921
      9          1           0        2.149717    0.759299    1.588347
     10          1           0        2.392060   -0.941241    1.137775
     11          1           0        0.227248    1.013739    0.188064
     12          1           0        1.458133    0.651745   -1.837833
     13          1           0        0.124014   -1.282669   -1.553886
     14          1           0       -1.178745   -1.244218    1.261524
     15          1           0       -1.763804   -2.089942   -0.190908
     16          1           0       -2.073136    0.144343   -1.384331
     17          1           0       -1.481862    1.314273    1.457302
     18          1           0       -2.744184    0.642901    0.253842
     19          1           0       -1.570641    2.278967   -0.128203
 ---------------------------------------------------------------------

 SCF Done:  E(RHF) =  -308.965587957     A.U. after    2 cycles

 The electronic state is 1-A.
 Alpha  occ. eigenvalues --  -20.55787 -11.28264 -11.27926 -11.27882 -11.25398
 Alpha  occ. eigenvalues --  -11.21230 -11.21022  -1.31359  -1.12943  -1.02553
 Alpha  occ. eigenvalues --   -0.98009  -0.87614  -0.80019  -0.76063  -0.70151
 Alpha  occ. eigenvalues --   -0.67521  -0.64138  -0.61711  -0.59243  -0.57716
 Alpha  occ. eigenvalues --   -0.53886  -0.52498  -0.52204  -0.51116  -0.49861
 Alpha  occ. eigenvalues --   -0.48145  -0.39945  -0.23426
 Alpha virt. eigenvalues --    0.02913   0.04092   0.04131   0.04710   0.06246
 Alpha virt. eigenvalues --    0.06381   0.06584   0.06590   0.06970   0.09009
 Alpha virt. eigenvalues --    0.09273   0.09597   0.11063   0.12818   0.13550

 Mulliken charges:
               1
     1  C    0.497726
     2  C    0.022608
     3  O   -0.581213
     4  C    0.390655
     5  C    0.732424
     6  C    0.233419
     7  C    0.160458
     8  H   -0.078797
     9  H   -0.015495
    10  H    0.020374
    11  H   -0.025895
    12  H    0.111385
    13  H   -0.485328
    14  H   -0.169773
    15  H   -0.170468
    16  H   -0.315381
    17  H   -0.239106
    18  H    0.180301
    19  H   -0.267895
 Sum of Mulliken charges =  -0.00000

 Dipole moment (field-independent basis, Debye):
    X=             -3.7039    Y=              0.6881    Z=             -0.0017  Tot=              3.7673

 Test job not archived.
 1\1\GINC-SE250\SP\RHF\Aug-CC-pVDZ\C6H12O1\OHZDE\09-Apr-2025\0\\#t hf a
 ug-cc-pvdz iop(5/13=1,5/36=2,99/5=2) pseudo=read geom=check guess=(rea
 d,tcheck) scf=(maxcycle=1)\\title\\0,1\C,0,2.0968792,-0.35395944,-0.34
 931653\C,0,0.96608376,0.01220094,0.5986203\O,0,1.5051101,0.04922904,1.
 90634789\C,0,0.13669504,1.1470983,0.26483759\C,0,-0.75197426,1.1232408
 4,-0.90224572\C,0,-1.67624478,0.18429522,-0.1621091\C,0,-1.38168583,-1
 .2444619,-0.15539215\H,0,1.73333984,-0.40462072,-1.37666189\H,0,2.5132
 216,-1.3263699,-0.08068634\H,0,2.88702374,0.39628081,-0.29592722\H,0,0

 Normal termination of Gaussian 16 at Wed Apr  9 03:41:32 2025.
