 Gaussian 16, Revision C.01,

 ----------------------------------------------------------------------
 #t hf aug-cc-pvdz symm=none int=(grid=ultrafine) guess=(read,tcheck) s
 table=(opt,rrhf)
 ----------------------------------------------------------------------
 -----
 title
 -----
 Symbolic Z-matrix:
 Charge =  0 Multiplicity = 1

 SCF Done:  E(RHF) =  -353.488648458     A.U. after   16 cycles
 Normal termination of Gaussian 16 at Wed Apr  9 16:06:45 2025.
 Gaussian 16:  ES64L-G16RevC.01  3-Jul-2019

 ----------------------------------------------------------------------
 #t hf aug-cc-pvdz iop(5/13=1,5/36=2,99/5=2) pseudo=read geom=check gue
 ss=(read,tcheck) scf=(maxcycle=1)
 ----------------------------------------------------------------------
 -----
 title
 -----
 Structure from the checkpoint file:  "Grambow2020_wb97xd3_007770_forward_mol1.chk"
 Charge =  0 Multiplicity = 1

                         Standard orientation:
 ---------------------------------------------------------------------
 Center     Atomic      Atomic             Coordinates (Angstroms)
 Number     Number       Type             X           Y           Z
 ---------------------------------------------------------------------
      1          8           0        2.355352   -0.009627   -0.229870
      2          6           0        1.220283   -0.078104   -0.458864
      3          7           0       -0.058442   -0.682795    0.799876
      4          6           0       -0.034399    0.700360    0.645595
      5          7           0       -1.038587    1.135417   -0.136810
      6          6           0       -1.616481   -0.005099   -0.486991
      7          7           0       -1.043581   -1.109698    0.032899
      8          1           0        0.638254   -0.299126   -1.371474
      9          1           0        0.558259    1.337955    1.285891
     10          1           0       -2.471469   -0.065229   -1.145655
 ---------------------------------------------------------------------

 SCF Done:  E(RHF) =  -353.590052037     A.U. after    2 cycles

 The electronic state is 1-A.
 Alpha  occ. eigenvalues --  -20.65088 -15.72798 -15.68818 -15.66529 -11.44407
 Alpha  occ. eigenvalues --  -11.35096 -11.33959  -1.46263  -1.40734  -1.19674
 Alpha  occ. eigenvalues --   -1.10349  -0.89964  -0.85464  -0.84283  -0.75220
 Alpha  occ. eigenvalues --   -0.73588  -0.70520  -0.64636  -0.62089  -0.56245
 Alpha  occ. eigenvalues --   -0.55250  -0.48248  -0.46132  -0.43986  -0.41493
 Alpha virt. eigenvalues --    0.03144   0.03615   0.04341   0.04689   0.08017
 Alpha virt. eigenvalues --    0.09347   0.09926   0.10121   0.10942   0.11220
 Alpha virt. eigenvalues --    0.13060   0.14090   0.15274   0.15737   0.16251

 Mulliken charges:
               1
     1  O   -0.349273
     2  C    0.765152
     3  N   -0.560691
     4  C    0.745631
     5  N   -0.555464
     6  C    0.628694
     7  N   -0.390492
     8  H   -0.008970
     9  H   -0.103389
    10  H   -0.171200
 Sum of Mulliken charges =  -0.00000

 Dipole moment (field-independent basis, Debye):
    X=             -1.0475    Y=              1.1089    Z=             -1.0954  Tot=              1.8780

 Test job not archived.
 1\1\GINC-SE219\SP\RHF\Aug-CC-pVDZ\C3H3N3O1\OHZDE\09-Apr-2025\0\\#t hf
 aug-cc-pvdz iop(5/13=1,5/36=2,99/5=2) pseudo=read geom=check guess=(re
 ad,tcheck) scf=(maxcycle=1)\\title\\0,1\O,0,2.47569273,0.25157309,-0.3
 3300604\C,0,1.39667717,-0.1628409,-0.23556475\N,0,0.18530844,0.4000044
 6,1.10645166\C,0,-0.06254268,0.96064424,-0.14324908\N,0,-1.07865,0.346
 63013,-0.77597263\C,0,-1.38680486,-0.613462,0.08462435\N,0,-0.63760804
 ,-0.6266049,1.20585999\H,0,0.93542376,-1.14530089,-0.44167895\H,0,0.34
 275239,1.9200952,-0.43124033\H,0,-2.16471991,-1.34407244,-0.08717321\\

 Normal termination of Gaussian 16 at Wed Apr  9 16:06:49 2025.
