 Gaussian 16, Revision C.01,

 ----------------------------------------------------------------------
 #t hf aug-cc-pvdz symm=none int=(grid=ultrafine) guess=(read,tcheck) s
 table=(opt,rrhf)
 ----------------------------------------------------------------------
 -----
 title
 -----
 Symbolic Z-matrix:
 Charge =  0 Multiplicity = 1

 SCF Done:  E(RHF) =  -304.637419675     A.U. after   13 cycles
 Normal termination of Gaussian 16 at Wed Apr  9 14:26:16 2025.
 Gaussian 16:  ES64L-G16RevC.01  3-Jul-2019

 ----------------------------------------------------------------------
 #t hf aug-cc-pvdz iop(5/13=1,5/36=2,99/5=2) pseudo=read geom=check gue
 ss=(read,tcheck) scf=(maxcycle=1)
 ----------------------------------------------------------------------
 -----
 title
 -----
 Structure from the checkpoint file:  "Grambow2020_wb97xd3_006271_reverse_mol2.chk"
 Charge =  0 Multiplicity = 1

                         Standard orientation:
 ---------------------------------------------------------------------
 Center     Atomic      Atomic             Coordinates (Angstroms)
 Number     Number       Type             X           Y           Z
 ---------------------------------------------------------------------
      1          8           0        1.357097   -1.098671    0.163198
      2          6           0        2.221003   -0.089896    0.084609
      3          8           0        1.933144    1.059842   -0.084501
      4          6           0       -1.394603    0.656348   -0.185992
      5          6           0       -2.571633    0.083358    0.548448
      6          6           0       -1.846025   -0.460053   -0.646104
      7          1           0        3.248419   -0.461757    0.196939
      8          1           0       -0.687629    1.466381   -0.247695
      9          1           0       -2.429073   -0.377135    1.524176
     10          1           0       -3.552067    0.536443    0.414527
     11          1           0        0.454970   -0.745385    0.056608
     12          1           0       -1.808997   -1.246460   -1.379905
 ---------------------------------------------------------------------

 SCF Done:  E(RHF) =  -304.738296891     A.U. after    2 cycles

 The electronic state is 1-A.
 Alpha  occ. eigenvalues --  -20.63038 -20.57566 -11.40595 -11.26822 -11.26575
 Alpha  occ. eigenvalues --  -11.25882  -1.43546  -1.34003  -1.16879  -0.90209
 Alpha  occ. eigenvalues --   -0.83629  -0.77914  -0.73648  -0.72482  -0.69712
 Alpha  occ. eigenvalues --   -0.65090  -0.61779  -0.60736  -0.51088  -0.51029
 Alpha  occ. eigenvalues --   -0.48896  -0.43634  -0.37699
 Alpha virt. eigenvalues --    0.03519   0.04364   0.04609   0.05281   0.06125
 Alpha virt. eigenvalues --    0.08484   0.09095   0.09905   0.10595   0.11030
 Alpha virt. eigenvalues --    0.11643   0.13058   0.15612   0.15734   0.16389

 Mulliken charges:
               1
     1  O   -0.353767
     2  C    0.725092
     3  O   -0.365304
     4  C    0.234395
     5  C    0.562165
     6  C    0.251703
     7  H   -0.177837
     8  H   -0.264931
     9  H   -0.248616
    10  H   -0.213475
    11  H    0.169167
    12  H   -0.318593
 Sum of Mulliken charges =   0.00000

 Dipole moment (field-independent basis, Debye):
    X=             -0.3212    Y=             -1.5443    Z=             -0.1836  Tot=              1.5880

 Test job not archived.
 1\1\GINC-SE043\SP\RHF\Aug-CC-pVDZ\C4H6O2\OHZDE\09-Apr-2025\0\\#t hf au
 g-cc-pvdz iop(5/13=1,5/36=2,99/5=2) pseudo=read geom=check guess=(read
 ,tcheck) scf=(maxcycle=1)\\title\\0,1\O,0,1.64474462,1.26521676,-0.065
 13115\C,0,2.64003534,0.38927041,0.04555583\O,0,2.51293701,-0.78919934,
 0.21411819\C,0,-0.83994688,-0.86111302,0.21577211\C,0,-2.06380335,-0.4
 6269095,-0.55659789\C,0,-1.45840384,0.18127822,0.65482799\H,0,3.607344
 21,0.90268013,-0.03933331\H,0,-0.02757101,-1.56260938,0.3036375\H,0,-1
 .9588283,0.01073322,-1.5309037\H,0,-2.97376961,-1.04978714,-0.44819801

 Normal termination of Gaussian 16 at Wed Apr  9 14:26:20 2025.
