 Gaussian 16, Revision C.01,

 ----------------------------------------------------------------------
 #t hf aug-cc-pvdz symm=none int=(grid=ultrafine) guess=(read,tcheck) s
 table=(opt,rrhf)
 ----------------------------------------------------------------------
 -----
 title
 -----
 Symbolic Z-matrix:
 Charge =  0 Multiplicity = 1

 SCF Done:  E(RHF) =  -302.746392645     A.U. after   17 cycles
 Normal termination of Gaussian 16 at Wed Apr  9 16:46:15 2025.
 Gaussian 16:  ES64L-G16RevC.01  3-Jul-2019

 ----------------------------------------------------------------------
 #t hf aug-cc-pvdz iop(5/13=1,5/36=2,99/5=2) pseudo=read geom=check gue
 ss=(read,tcheck) scf=(maxcycle=1)
 ----------------------------------------------------------------------
 -----
 title
 -----
 Structure from the checkpoint file:  "Grambow2020_wb97xd3_008872_reverse_mol1.chk"
 Charge =  0 Multiplicity = 1

                         Standard orientation:
 ---------------------------------------------------------------------
 Center     Atomic      Atomic             Coordinates (Angstroms)
 Number     Number       Type             X           Y           Z
 ---------------------------------------------------------------------
      1          6           0        2.358596   -0.658299    0.279581
      2          7           0        1.142331    0.031509   -0.273991
      3          6           0        0.675209    1.239994   -0.093729
      4          6           0       -0.726260    1.246184    0.027968
      5          6           0       -1.122279   -0.085900    0.015223
      6          7           0       -2.380525   -0.571262    0.075977
      7          6           0        0.065120   -0.905364   -0.160712
      8          1           0        0.921711   -1.463583    0.626034
      9          1           0        3.092969   -0.805377   -0.515518
     10          1           0        2.787419   -0.026995    1.061465
     11          1           0        1.350410    2.073762    0.050591
     12          1           0       -1.352934    2.114448    0.160256
     13          1           0       -3.141118    0.046382    0.289641
     14          1           0       -2.520817   -1.544284    0.273350
     15          1           0        0.027405   -1.635776   -0.969715
 ---------------------------------------------------------------------

 SCF Done:  E(RHF) =  -302.837275796     A.U. after    2 cycles

 The electronic state is 1-A.
 Alpha  occ. eigenvalues --  -15.67101 -15.65866 -11.33246 -11.31687 -11.24943
 Alpha  occ. eigenvalues --  -11.23734 -11.17904  -1.28493  -1.22116  -1.04837
 Alpha  occ. eigenvalues --   -0.99189  -0.87401  -0.81110  -0.78705  -0.72852
 Alpha  occ. eigenvalues --   -0.69617  -0.64567  -0.61963  -0.58706  -0.55104
 Alpha  occ. eigenvalues --   -0.53055  -0.51315  -0.46996  -0.42551  -0.32581
 Alpha  occ. eigenvalues --   -0.25605
 Alpha virt. eigenvalues --    0.02101   0.03214   0.04464   0.05029   0.06143
 Alpha virt. eigenvalues --    0.06546   0.08028   0.08716   0.09009   0.10821
 Alpha virt. eigenvalues --    0.11705   0.12239   0.12643   0.13805   0.14064

 Mulliken charges:
               1
     1  C    0.390617
     2  N   -0.495739
     3  C    0.251127
     4  C    0.940278
     5  C   -0.207309
     6  N   -0.241534
     7  C    0.687909
     8  H    0.296034
     9  H   -0.336638
    10  H   -0.332289
    11  H   -0.282038
    12  H   -0.408900
    13  H   -0.049767
    14  H   -0.044391
    15  H   -0.167361
 Sum of Mulliken charges =  -0.00000

 Dipole moment (field-independent basis, Debye):
    X=             -5.4669    Y=              1.8768    Z=             -0.1879  Tot=              5.7832

 Test job not archived.
 1\1\GINC-SE273\SP\RHF\Aug-CC-pVDZ\C5H8N2\OHZDE\09-Apr-2025\0\\#t hf au
 g-cc-pvdz iop(5/13=1,5/36=2,99/5=2) pseudo=read geom=check guess=(read
 ,tcheck) scf=(maxcycle=1)\\title\\0,1\C,0,2.32333113,0.38756132,-0.179
 25063\N,0,1.01156377,0.01645433,0.45567025\C,0,0.47475781,-1.14746965,
 0.71692125\C,0,-0.90518422,-1.16005783,0.44385586\C,0,-1.19988652,0.07
 531889,-0.12044462\N,0,-2.40673341,0.53257189,-0.51654017\C,0,0.023197
 66,0.86003808,-0.14636321\H,0,0.99039564,1.02758589,-0.98349067\H,0,2.
 98727942,0.82060576,0.57225723\H,0,2.77651041,-0.51800752,-0.58955501\

 Normal termination of Gaussian 16 at Wed Apr  9 16:46:20 2025.
