 Gaussian 16, Revision C.01,

 ----------------------------------------------------------------------
 #t hf aug-cc-pvdz symm=none int=(grid=ultrafine) guess=(read,tcheck) s
 table=(opt,rrhf)
 ----------------------------------------------------------------------
 -----
 title
 -----
 Symbolic Z-matrix:
 Charge =  0 Multiplicity = 1

 SCF Done:  E(RHF) =  -358.390919864     A.U. after   16 cycles
 Normal termination of Gaussian 16 at Wed Apr  9 03:28:03 2025.
 Gaussian 16:  ES64L-G16RevC.01  3-Jul-2019

 ----------------------------------------------------------------------
 #t hf aug-cc-pvdz iop(5/13=1,5/36=2,99/5=2) pseudo=read geom=check gue
 ss=(read,tcheck) scf=(maxcycle=1)
 ----------------------------------------------------------------------
 -----
 title
 -----
 Structure from the checkpoint file:  "Grambow2020_wb97xd3_006758_reverse_mol1.chk"
 Charge =  0 Multiplicity = 1

                         Standard orientation:
 ---------------------------------------------------------------------
 Center     Atomic      Atomic             Coordinates (Angstroms)
 Number     Number       Type             X           Y           Z
 ---------------------------------------------------------------------
      1          8           0        1.396864   -1.294962    0.236053
      2          6           0        1.197186   -0.327161   -0.543347
      3          6           0        0.153650    0.631432   -0.118263
      4          8           0        0.990619    1.507089    0.224675
      5          7           0       -1.206692    0.747691   -0.320452
      6          6           0       -0.917924   -0.302553    0.836241
      7          6           0       -1.694472   -0.617583   -0.377666
      8          1           0        1.877500   -0.130598   -1.362643
      9          1           0       -1.387739    0.014700    1.757845
     10          1           0        0.460954   -1.162520    0.807959
     11          1           0       -1.259943   -1.296097   -1.111091
     12          1           0       -2.774430   -0.661147   -0.316517
 ---------------------------------------------------------------------

 SCF Done:  E(RHF) =  -358.497007040     A.U. after    2 cycles

 The electronic state is 1-A.
 Alpha  occ. eigenvalues --  -20.66702 -20.54321 -15.67545 -11.42309 -11.39339
 Alpha  occ. eigenvalues --  -11.30416 -11.27966  -1.46544  -1.36180  -1.28870
 Alpha  occ. eigenvalues --   -0.97566  -0.94686  -0.89395  -0.83162  -0.74648
 Alpha  occ. eigenvalues --   -0.71593  -0.69548  -0.66518  -0.63031  -0.59491
 Alpha  occ. eigenvalues --   -0.57797  -0.56485  -0.46550  -0.43239  -0.42413
 Alpha  occ. eigenvalues --   -0.39266
 Alpha virt. eigenvalues --    0.02682   0.03535   0.04525   0.05096   0.06394
 Alpha virt. eigenvalues --    0.07146   0.08372   0.09675   0.11571   0.11590
 Alpha virt. eigenvalues --    0.13024   0.13616   0.14153   0.14416   0.15088

 Mulliken charges:
               1
     1  O   -0.492051
     2  C    0.738719
     3  C    0.639113
     4  O   -0.654187
     5  N   -0.746789
     6  C    0.036980
     7  C    0.899070
     8  H   -0.123677
     9  H   -0.337532
    10  H    0.533932
    11  H   -0.252680
    12  H   -0.240896
 Sum of Mulliken charges =  -0.00000

 Dipole moment (field-independent basis, Debye):
    X=             -1.2338    Y=             -4.0583    Z=             -2.0439  Tot=              4.7085

 Test job not archived.
 1\1\GINC-SE398\SP\RHF\Aug-CC-pVDZ\C4H5N1O2\OHZDE\09-Apr-2025\0\\#t hf
 aug-cc-pvdz iop(5/13=1,5/36=2,99/5=2) pseudo=read geom=check guess=(re
 ad,tcheck) scf=(maxcycle=1)\\title\\0,1\O,0,1.21673171,0.46296463,-1.5
 1077933\C,0,1.52847468,0.18799882,-0.32284617\C,0,0.56761314,-0.666176
 97,0.40906449\O,0,1.29837458,-1.68813101,0.3284545\N,0,-0.53388176,-0.
 43448003,1.20778308\C,0,-0.94301012,-0.33096338,-0.3239607\C,0,-1.1550
 2632,0.75363571,0.65304271\H,0,2.51815872,0.41534674,0.05338273\H,0,-1
 .7100555,-1.05731472,-0.55802166\H,0,0.15881096,0.15989852,-1.41331423

 Normal termination of Gaussian 16 at Wed Apr  9 03:28:07 2025.
