 Gaussian 16, Revision C.01,

 ----------------------------------------------------------------------
 #t hf aug-cc-pvdz symm=none int=(grid=ultrafine) guess=(read,tcheck) s
 table=(opt,rrhf)
 ----------------------------------------------------------------------
 -----
 title
 -----
 Symbolic Z-matrix:
 Charge =  0 Multiplicity = 1

 SCF Done:  E(RHF) =  -343.759814524     A.U. after   14 cycles
 Normal termination of Gaussian 16 at Wed Apr  9 03:34:22 2025.
 Gaussian 16:  ES64L-G16RevC.01  3-Jul-2019

 ----------------------------------------------------------------------
 #t hf aug-cc-pvdz iop(5/13=1,5/36=2,99/5=2) pseudo=read geom=check gue
 ss=(read,tcheck) scf=(maxcycle=1)
 ----------------------------------------------------------------------
 -----
 title
 -----
 Structure from the checkpoint file:  "Grambow2020_wb97xd3_007157_reverse_mol2.chk"
 Charge =  0 Multiplicity = 1

                         Standard orientation:
 ---------------------------------------------------------------------
 Center     Atomic      Atomic             Coordinates (Angstroms)
 Number     Number       Type             X           Y           Z
 ---------------------------------------------------------------------
      1          8           0        0.259698   -0.678727    1.305901
      2          6           0        0.727419   -0.766296    0.030858
      3          6           0        0.223934   -1.590543   -0.883490
      4          6           0       -2.318780    0.902640   -0.616216
      5          8           0       -2.741079    0.275769    0.216085
      6          6           0        1.853904    0.192427   -0.198355
      7          6           0        1.421933    1.650824   -0.054344
      8          1           0       -0.480700   -1.280003    1.418643
      9          1           0        0.634586   -1.616517   -1.881897
     10          1           0       -0.600462   -2.258253   -0.659332
     11          1           0        0.647209    1.898495   -0.782707
     12          1           0        2.265103    0.013460   -1.192453
     13          1           0        2.643085   -0.030581    0.525964
     14          1           0        1.024106    1.842405    0.942623
     15          1           0        2.267663    2.320351   -0.217455
 ---------------------------------------------------------------------

 SCF Done:  E(RHF) =  -343.871153054     A.U. after    2 cycles

 The electronic state is 1-A.
 Alpha  occ. eigenvalues --  -20.67814 -20.60113 -11.37007 -11.30993 -11.23982
 Alpha  occ. eigenvalues --  -11.22584 -11.21680  -1.49002  -1.36801  -1.06701
 Alpha  occ. eigenvalues --   -0.98882  -0.87377  -0.81595  -0.79813  -0.69055
 Alpha  occ. eigenvalues --   -0.65942  -0.65828  -0.65483  -0.61218  -0.60044
 Alpha  occ. eigenvalues --   -0.57100  -0.55322  -0.54962  -0.51770  -0.50098
 Alpha  occ. eigenvalues --   -0.49030  -0.34702
 Alpha virt. eigenvalues --    0.03728   0.04358   0.04933   0.05424   0.06599
 Alpha virt. eigenvalues --    0.06781   0.07470   0.08264   0.08556   0.09799
 Alpha virt. eigenvalues --    0.11510   0.12460   0.13535   0.14058   0.14667

 Mulliken charges:
               1
     1  O   -0.606199
     2  C    0.537906
     3  C    0.678767
     4  C    0.216338
     5  O   -0.230875
     6  C   -0.031409
     7  C    0.363676
     8  H    0.163252
     9  H   -0.332342
    10  H   -0.477409
    11  H   -0.082006
    12  H   -0.099926
    13  H    0.031456
    14  H   -0.042417
    15  H   -0.088812
 Sum of Mulliken charges =   0.00000

 Dipole moment (field-independent basis, Debye):
    X=             -0.0818    Y=             -0.1328    Z=             -0.7138  Tot=              0.7307

 Test job not archived.
 1\1\GINC-SE331\SP\RHF\Aug-CC-pVDZ\C5H8O2\OHZDE\09-Apr-2025\0\\#t hf au
 g-cc-pvdz iop(5/13=1,5/36=2,99/5=2) pseudo=read geom=check guess=(read
 ,tcheck) scf=(maxcycle=1)\\title\\0,1\O,0,0.17425944,-0.65829242,-1.42
 298728\C,0,-0.10229894,-0.83470093,-0.10216835\C,0,0.641831,-1.5760814
 5,0.71363656\C,0,2.69627725,1.30012224,0.20423176\O,0,3.10056386,0.759
 40702,-0.69477249\C,0,-1.32762205,-0.07445867,0.29941741\C,0,-1.156870
 11,1.43625592,0.14826424\H,0,0.97997703,-1.12991433,-1.64842847\H,0,0.
 37501902,-1.67941028,1.75491465\H,0,1.52574939,-2.09837261,0.36490578\

 Normal termination of Gaussian 16 at Wed Apr  9 03:34:27 2025.
