 Gaussian 16, Revision C.01,

 ----------------------------------------------------------------------
 #t hf aug-cc-pvdz symm=none int=(grid=ultrafine) guess=(read,tcheck) s
 table=(opt,rrhf)
 ----------------------------------------------------------------------
 -----
 title
 -----
 Symbolic Z-matrix:
 Charge =  0 Multiplicity = 1

 SCF Done:  E(RHF) =  -305.894046136     A.U. after   13 cycles
 Normal termination of Gaussian 16 at Wed Apr  9 13:57:59 2025.
 Gaussian 16:  ES64L-G16RevC.01  3-Jul-2019

 ----------------------------------------------------------------------
 #t hf aug-cc-pvdz iop(5/13=1,5/36=2,99/5=2) pseudo=read geom=check gue
 ss=(read,tcheck) scf=(maxcycle=1)
 ----------------------------------------------------------------------
 -----
 title
 -----
 Structure from the checkpoint file:  "Grambow2020_b97d3_006752_forward_mol2.chk"
 Charge =  0 Multiplicity = 1

                         Standard orientation:
 ---------------------------------------------------------------------
 Center     Atomic      Atomic             Coordinates (Angstroms)
 Number     Number       Type             X           Y           Z
 ---------------------------------------------------------------------
      1          6           0        2.510345    0.145622    0.031670
      2          6           0        1.259122   -0.732525   -0.032963
      3          6           0       -0.041853    0.049087   -0.012518
      4          8           0       -0.089940    1.275645   -0.019239
      5          6           0       -1.352787   -0.737400    0.015773
      6          8           0       -2.465248    0.115691    0.009691
      7          1           0        2.535845    0.847815   -0.810470
      8          1           0        3.415950   -0.474002   -0.000664
      9          1           0        2.525001    0.736655    0.955874
     10          1           0        1.233754   -1.455814    0.799500
     11          1           0        1.258360   -1.350998   -0.947072
     12          1           0       -1.362163   -1.420363   -0.855935
     13          1           0       -1.340213   -1.382437    0.916648
     14          1           0       -2.073994    1.019755    0.006731
 ---------------------------------------------------------------------

 SCF Done:  E(RHF) =  -305.990373564     A.U. after    2 cycles

 The electronic state is 1-A.
 Alpha  occ. eigenvalues --  -20.58320 -20.57437 -11.36036 -11.30943 -11.26799
 Alpha  occ. eigenvalues --  -11.24249  -1.37323  -1.31857  -1.06595  -0.97995
 Alpha  occ. eigenvalues --   -0.88001  -0.76922  -0.72371  -0.67155  -0.66807
 Alpha  occ. eigenvalues --   -0.62770  -0.61066  -0.57857  -0.54194  -0.54016
 Alpha  occ. eigenvalues --   -0.52603  -0.50771  -0.46782  -0.44512
 Alpha virt. eigenvalues --    0.02864   0.04302   0.04412   0.05022   0.06629
 Alpha virt. eigenvalues --    0.06980   0.07157   0.08333   0.10092   0.11778
 Alpha virt. eigenvalues --    0.12236   0.13304   0.14340   0.15035   0.15206

 Mulliken charges:
               1
     1  C    0.429078
     2  C    0.115972
     3  C   -0.350151
     4  O   -0.585418
     5  C    0.780203
     6  O   -0.545525
     7  H   -0.038124
     8  H   -0.032735
     9  H   -0.043492
    10  H    0.024542
    11  H    0.039469
    12  H    0.006911
    13  H    0.013609
    14  H    0.185660
 Sum of Mulliken charges =   0.00000

 Dipole moment (field-independent basis, Debye):
    X=              2.5800    Y=             -2.8864    Z=              0.0038  Tot=              3.8714

 Test job not archived.
 1\1\GINC-SE054\SP\RHF\Aug-CC-pVDZ\C4H8O2\OHZDE\09-Apr-2025\0\\#t hf au
 g-cc-pvdz iop(5/13=1,5/36=2,99/5=2) pseudo=read geom=check guess=(read
 ,tcheck) scf=(maxcycle=1)\\title\\0,1\C,0,-2.08052044,0.31926786,-0.25
 258028\C,0,-0.821522,-0.50384531,0.02721704\C,0,0.46390437,0.3014706,-
 0.0276981\O,0,0.4899443,1.51573699,-0.20568797\C,0,1.78724539,-0.44350
 11,0.15033586\O,0,2.88155911,0.43122496,0.09833573\H,0,-2.17611927,1.1
 3999238,0.46866646\H,0,-2.97522446,-0.31321101,-0.18493936\H,0,-2.0419
 6811,0.76277571,-1.25532716\H,0,-0.7263507,-1.34395152,-0.68126706\H,0

 Normal termination of Gaussian 16 at Wed Apr  9 13:58:03 2025.
