 Gaussian 16, Revision C.01,

 ----------------------------------------------------------------------
 #t hf aug-cc-pvdz symm=none int=(grid=ultrafine) guess=(read,tcheck) s
 table=(opt,rrhf)
 ----------------------------------------------------------------------
 -----
 title
 -----
 Symbolic Z-matrix:
 Charge =  0 Multiplicity = 1

 SCF Done:  E(RHF) =  -323.923631775     A.U. after   14 cycles
 Normal termination of Gaussian 16 at Wed Apr  9 15:39:08 2025.
 Gaussian 16:  ES64L-G16RevC.01  3-Jul-2019

 ----------------------------------------------------------------------
 #t hf aug-cc-pvdz iop(5/13=1,5/36=2,99/5=2) pseudo=read geom=check gue
 ss=(read,tcheck) scf=(maxcycle=1)
 ----------------------------------------------------------------------
 -----
 title
 -----
 Structure from the checkpoint file:  "Grambow2020_wb97xd3_007249_reverse_mol2.chk"
 Charge =  0 Multiplicity = 1

                         Standard orientation:
 ---------------------------------------------------------------------
 Center     Atomic      Atomic             Coordinates (Angstroms)
 Number     Number       Type             X           Y           Z
 ---------------------------------------------------------------------
      1          6           0       -1.122534    1.418484   -0.592308
      2          6           0       -1.569808    0.070552   -0.106491
      3          6           0       -1.816810   -0.041280    1.369378
      4          6           0       -1.730065   -0.961095   -0.931454
      5          8           0        3.086156    0.635844    0.113936
      6          6           0        2.281904   -0.200823    0.042565
      7          7           0        1.539183   -1.148936    0.008772
      8          1           0       -0.210523    1.734311   -0.076990
      9          1           0       -1.881153    2.174426   -0.372164
     10          1           0       -0.934552    1.421750   -1.665504
     11          1           0       -2.587478    0.668191    1.682662
     12          1           0       -2.134095   -1.044289    1.652793
     13          1           0       -0.911873    0.207195    1.931238
     14          1           0       -2.064095   -1.927255   -0.570005
     15          1           0       -1.555581   -0.866561   -1.997485
     16          1           0        0.559699   -1.126998   -0.247589
 ---------------------------------------------------------------------

 SCF Done:  E(RHF) =  -324.029334918     A.U. after    2 cycles

 The electronic state is 1-A.
 Alpha  occ. eigenvalues --  -20.62772 -15.64473 -11.41829 -11.26875 -11.24513
 Alpha  occ. eigenvalues --  -11.24355 -11.23829  -1.43484  -1.22316  -1.10352
 Alpha  occ. eigenvalues --   -0.95555  -0.94474  -0.80024  -0.73880  -0.73562
 Alpha  occ. eigenvalues --   -0.66288  -0.65094  -0.64266  -0.63223  -0.61044
 Alpha  occ. eigenvalues --   -0.55511  -0.54042  -0.53591  -0.50044  -0.47566
 Alpha  occ. eigenvalues --   -0.44459  -0.37352
 Alpha virt. eigenvalues --    0.03100   0.04175   0.04374   0.05143   0.06164
 Alpha virt. eigenvalues --    0.06603   0.07398   0.07968   0.09115   0.09323
 Alpha virt. eigenvalues --    0.11144   0.12090   0.12587   0.13785   0.14045

 Mulliken charges:
               1
     1  C    0.466474
     2  C   -0.857601
     3  C    0.432152
     4  C    1.083127
     5  O   -0.171750
     6  C   -0.156379
     7  N    0.175361
     8  H   -0.012255
     9  H    0.003157
    10  H   -0.151499
    11  H    0.015756
    12  H   -0.143925
    13  H   -0.002885
    14  H   -0.446247
    15  H   -0.441003
    16  H    0.207517
 Sum of Mulliken charges =  -0.00000

 Dipole moment (field-independent basis, Debye):
    X=             -3.1072    Y=              0.0718    Z=             -0.1530  Tot=              3.1118

 Test job not archived.
 1\1\GINC-SE232\SP\RHF\Aug-CC-pVDZ\C5H9N1O1\OHZDE\09-Apr-2025\0\\#t hf
 aug-cc-pvdz iop(5/13=1,5/36=2,99/5=2) pseudo=read geom=check guess=(re
 ad,tcheck) scf=(maxcycle=1)\\title\\0,1\C,0,0.85854571,0.83967185,0.99
 564248\C,0,0.64034482,-0.51342553,0.38367256\C,0,1.31460359,-0.7481797
 7,-0.93616508\C,0,-0.10917813,-1.44274293,0.97114707\O,0,-2.46555317,2
 .68078423,-1.09840829\C,0,-2.34444904,1.53113321,-0.97365301\N,0,-2.31
 632396,0.32751316,-0.92674566\H,0,0.53787585,1.6315703,0.31217209\H,0,
 1.92243362,1.00546084,1.18556859\H,0,0.31940063,0.95215114,1.93573228\

 Normal termination of Gaussian 16 at Wed Apr  9 15:39:13 2025.
