 Gaussian 16, Revision C.01,

 ----------------------------------------------------------------------
 #t hf aug-cc-pvdz symm=none int=(grid=ultrafine) guess=(read,tcheck) s
 table=(opt,rrhf)
 ----------------------------------------------------------------------
 -----
 title
 -----
 Symbolic Z-matrix:
 Charge =  0 Multiplicity = 1

 SCF Done:  E(RHF) =  -309.048708819     A.U. after   13 cycles

 1\1\GINC-SE042\Stability\RHF\Aug-CC-pVDZ\C6H12O1\OHZDE\09-Apr-2025\0\\
 #t hf aug-cc-pvdz symm=none int=(grid=ultrafine) guess=(read,tcheck) s
 table=(opt,rrhf)\\title\\0,1\C,0,1.45739263,-0.5923332,-0.23207447\C,0
 ,0.01720523,-0.98356984,-0.1276746\O,0,-0.84978022,0.03363953,0.154909
 7\C,0,0.35059486,3.15564511,-0.25434568\C,0,0.59141139,2.96271891,1.03
 344055\C,0,-1.87032538,-2.63322434,-0.18479647\C,0,-0.43544385,-2.2234
 4093,-0.28705235\H,0,1.60199854,0.15677575,-1.01648817\H,0,2.07808848,
 -1.45519431,-0.46590011\H,0,1.81156544,-0.15911959,0.70826886\H,0,-0.3

 Normal termination of Gaussian 16 at Wed Apr  9 16:36:20 2025.
 Gaussian 16:  ES64L-G16RevC.01  3-Jul-2019

 ----------------------------------------------------------------------
 #t hf aug-cc-pvdz iop(5/13=1,5/36=2,99/5=2) pseudo=read geom=check gue
 ss=(read,tcheck) scf=(maxcycle=1)
 ----------------------------------------------------------------------
 -----
 title
 -----
 Structure from the checkpoint file:  "Grambow2020_wb97xd3_008673_reverse_mol2.chk"
 Charge =  0 Multiplicity = 1

                         Standard orientation:
 ---------------------------------------------------------------------
 Center     Atomic      Atomic             Coordinates (Angstroms)
 Number     Number       Type             X           Y           Z
 ---------------------------------------------------------------------
      1          6           0       -0.118203    1.672676    0.015825
      2          6           0       -0.896821    0.395391   -0.004276
      3          8           0       -0.150642   -0.747732   -0.056422
      4          6           0        3.122242   -0.411102    0.671740
      5          6           0        3.147423   -0.298513   -0.647463
      6          6           0       -3.019262   -0.939756    0.000335
      7          6           0       -2.224316    0.327083    0.021444
      8          1           0        0.551555    1.707410    0.880462
      9          1           0       -0.783813    2.532319    0.065250
     10          1           0        0.497824    1.766487   -0.883657
     11          1           0        0.787980   -0.532993   -0.052400
     12          1           0        3.108471    0.460664    1.316288
     13          1           0        3.119496   -1.378663    1.160523
     14          1           0        3.155624    0.670022   -1.134816
     15          1           0        3.167555   -1.169623   -1.292531
     16          1           0       -3.633734   -1.037184    0.899764
     17          1           0       -2.369065   -1.811516   -0.059113
     18          1           0       -2.763354    1.266351    0.061190
     19          1           0       -3.699784   -0.966091   -0.855210
 ---------------------------------------------------------------------

 SCF Done:  E(RHF) =  -309.150797069     A.U. after    2 cycles

 The electronic state is 1-A.
 Alpha  occ. eigenvalues --  -20.57912 -11.28874 -11.25975 -11.25799 -11.23749
 Alpha  occ. eigenvalues --  -11.21191 -11.20710  -1.34574  -1.05308  -1.04994
 Alpha  occ. eigenvalues --   -0.98004  -0.88289  -0.80965  -0.76872  -0.67809
 Alpha  occ. eigenvalues --   -0.66543  -0.62569  -0.61116  -0.61027  -0.58316
 Alpha  occ. eigenvalues --   -0.54942  -0.53609  -0.53244  -0.52364  -0.50544
 Alpha  occ. eigenvalues --   -0.48772  -0.40350  -0.31745
 Alpha virt. eigenvalues --    0.03330   0.04360   0.04603   0.04638   0.05757
 Alpha virt. eigenvalues --    0.06290   0.06553   0.06723   0.08027   0.08309
 Alpha virt. eigenvalues --    0.08462   0.10342   0.10822   0.11545   0.12911

 Mulliken charges:
               1
     1  C    0.397125
     2  C    0.084737
     3  O   -0.539741
     4  C    0.610370
     5  C    0.610336
     6  C    0.185105
     7  C    0.358031
     8  H    0.023784
     9  H   -0.168457
    10  H    0.024430
    11  H    0.095872
    12  H   -0.310007
    13  H   -0.301970
    14  H   -0.312650
    15  H   -0.302108
    16  H    0.050972
    17  H   -0.122870
    18  H   -0.429103
    19  H    0.046143
 Sum of Mulliken charges =  -0.00000

 Dipole moment (field-independent basis, Debye):
    X=              2.0117    Y=              1.3522    Z=              0.0567  Tot=              2.4246

 Test job not archived.
 1\1\GINC-SE042\SP\RHF\Aug-CC-pVDZ\C6H12O1\OHZDE\09-Apr-2025\0\\#t hf a
 ug-cc-pvdz iop(5/13=1,5/36=2,99/5=2) pseudo=read geom=check guess=(rea
 d,tcheck) scf=(maxcycle=1)\\title\\0,1\C,0,1.45739263,-0.5923332,-0.23
 207447\C,0,0.01720523,-0.98356984,-0.1276746\O,0,-0.84978022,0.0336395
 3,0.1549097\C,0,0.35059486,3.15564511,-0.25434568\C,0,0.59141139,2.962
 71891,1.03344055\C,0,-1.87032538,-2.63322434,-0.18479647\C,0,-0.435443
 85,-2.22344093,-0.28705235\H,0,1.60199854,0.15677575,-1.01648817\H,0,2
 .07808848,-1.45519431,-0.46590011\H,0,1.81156544,-0.15911959,0.7082688

 Normal termination of Gaussian 16 at Wed Apr  9 16:36:27 2025.
