 Gaussian 16, Revision C.01,

 ----------------------------------------------------------------------
 #t hf aug-cc-pvdz symm=none int=(grid=ultrafine) guess=(read,tcheck) s
 table=(opt,rrhf)
 ----------------------------------------------------------------------
 -----
 title
 -----
 Symbolic Z-matrix:
 Charge =  0 Multiplicity = 1

 SCF Done:  E(RHF) =  -301.932817953     A.U. after   15 cycles
 Normal termination of Gaussian 16 at Wed Apr  9 03:15:32 2025.
 Gaussian 16:  ES64L-G16RevC.01  3-Jul-2019

 ----------------------------------------------------------------------
 #t hf aug-cc-pvdz iop(5/13=1,5/36=2,99/5=2) pseudo=read geom=check gue
 ss=(read,tcheck) scf=(maxcycle=1)
 ----------------------------------------------------------------------
 -----
 title
 -----
 Structure from the checkpoint file:  "Grambow2020_b97d3_007041_reverse_mol2.chk"
 Charge =  0 Multiplicity = 1

                         Standard orientation:
 ---------------------------------------------------------------------
 Center     Atomic      Atomic             Coordinates (Angstroms)
 Number     Number       Type             X           Y           Z
 ---------------------------------------------------------------------
      1          6           0       -3.197422    0.194627    0.188494
      2          7           0        1.411503    0.459929   -0.454269
      3          6           0        0.633461    1.662682   -0.154310
      4          6           0        0.787967   -0.736755   -0.116602
      5          8           0        1.598282   -0.427697    0.905141
      6          7           0       -0.051959   -1.554334   -0.574707
      7          1           0       -3.419757   -0.350643    1.114258
      8          1           0       -2.853161    1.206645    0.438763
      9          1           0       -4.107509    0.263848   -0.419733
     10          1           0       -0.189778    1.501044    0.555561
     11          1           0        1.308950    2.449116    0.200395
     12          1           0        0.214785    1.969722   -1.125870
     13          1           0       -0.184572   -2.346684    0.063218
     14          1           0       -2.416049   -0.333956   -0.370379
 ---------------------------------------------------------------------

 SCF Done:  E(RHF) =  -302.026990677     A.U. after    2 cycles

 The electronic state is 1-A.
 Alpha  occ. eigenvalues --  -20.65423 -15.74944 -15.63692 -11.41619 -11.30479
 Alpha  occ. eigenvalues --  -11.22050  -1.44848  -1.19143  -1.15151  -0.95173
 Alpha  occ. eigenvalues --   -0.93561  -0.78529  -0.71801  -0.69534  -0.66435
 Alpha  occ. eigenvalues --   -0.63499  -0.57707  -0.54562  -0.54510  -0.54410
 Alpha  occ. eigenvalues --   -0.51022  -0.49214  -0.45392  -0.43809
 Alpha virt. eigenvalues --    0.03069   0.03984   0.04675   0.05273   0.06656
 Alpha virt. eigenvalues --    0.07319   0.08198   0.09111   0.09123   0.10869
 Alpha virt. eigenvalues --    0.11828   0.13582   0.14063   0.14692   0.15196

 Mulliken charges:
               1
     1  C    0.652001
     2  N   -0.520229
     3  C    0.783166
     4  C    0.717539
     5  O   -0.555513
     6  N   -0.280898
     7  H   -0.135941
     8  H   -0.173193
     9  H   -0.142520
    10  H   -0.132109
    11  H   -0.094235
    12  H   -0.036886
    13  H    0.099129
    14  H   -0.180312
 Sum of Mulliken charges =  -0.00000

 Dipole moment (field-independent basis, Debye):
    X=             -1.0640    Y=              1.7858    Z=              0.2738  Tot=              2.0967

 Test job not archived.
 1\1\GINC-SE186\SP\RHF\Aug-CC-pVDZ\C3H8N2O1\OHZDE\09-Apr-2025\0\\#t hf
 aug-cc-pvdz iop(5/13=1,5/36=2,99/5=2) pseudo=read geom=check guess=(re
 ad,tcheck) scf=(maxcycle=1)\\title\\0,1\C,0,-1.19385644,-1.07134343,1.
 98417675\N,0,0.80185506,0.69014845,-1.84204933\C,0,-0.40544749,1.30239
 399,-1.28570805\C,0,1.50605804,-0.1189915,-0.95646398\O,0,2.09321727,1
 .08521845,-0.92168614\N,0,1.50386922,-1.29460399,-0.50735087\H,0,-0.54
 4474,-0.91718769,2.85499716\H,0,-1.68109527,-0.12252478,1.72403685\H,0
 ,-1.96161481,-1.81481328,2.23073033\H,0,-0.44747922,1.29803813,-0.1875

 Normal termination of Gaussian 16 at Wed Apr  9 03:15:36 2025.
