 Gaussian 16, Revision C.01,

 ----------------------------------------------------------------------
 #t hf aug-cc-pvdz symm=none int=(grid=ultrafine) guess=(read,tcheck) s
 table=(opt,rrhf)
 ----------------------------------------------------------------------
 -----
 title
 -----
 Symbolic Z-matrix:
 Charge =  0 Multiplicity = 1

 SCF Done:  E(RHF) =  -358.550110300     A.U. after   14 cycles
 Normal termination of Gaussian 16 at Wed Apr  9 03:33:07 2025.
 Gaussian 16:  ES64L-G16RevC.01  3-Jul-2019

 ----------------------------------------------------------------------
 #t hf aug-cc-pvdz iop(5/13=1,5/36=2,99/5=2) pseudo=read geom=check gue
 ss=(read,tcheck) scf=(maxcycle=1)
 ----------------------------------------------------------------------
 -----
 title
 -----
 Structure from the checkpoint file:  "Grambow2020_wb97xd3_007072_reverse_mol2.chk"
 Charge =  0 Multiplicity = 1

                         Standard orientation:
 ---------------------------------------------------------------------
 Center     Atomic      Atomic             Coordinates (Angstroms)
 Number     Number       Type             X           Y           Z
 ---------------------------------------------------------------------
      1          8           0       -2.165504   -0.353602   -0.013915
      2          6           0       -0.891406    0.038411   -0.054483
      3          7           0       -0.491151    1.215837    0.179505
      4          6           0        0.957374    1.262041   -0.028702
      5          6           0        1.391284   -0.154981   -0.352780
      6          8           0        1.097961   -1.074640    0.687670
      7          6           0        0.171433   -0.957710   -0.387075
      8          1           0       -2.697376    0.420421    0.207838
      9          1           0        1.454637    1.641212    0.866912
     10          1           0        1.187391    1.942398   -0.852750
     11          1           0        2.272666   -0.374726   -0.944455
     12          1           0       -0.011029   -1.840795   -0.985880
 ---------------------------------------------------------------------

 SCF Done:  E(RHF) =  -358.659920764     A.U. after    2 cycles

 The electronic state is 1-A.
 Alpha  occ. eigenvalues --  -20.62671 -20.60376 -15.61648 -11.35829 -11.31714
 Alpha  occ. eigenvalues --  -11.31219 -11.27638  -1.41826  -1.39723  -1.21288
 Alpha  occ. eigenvalues --   -0.99138  -0.96877  -0.84807  -0.82175  -0.75600
 Alpha  occ. eigenvalues --   -0.68999  -0.67710  -0.64296  -0.61939  -0.57902
 Alpha  occ. eigenvalues --   -0.56518  -0.56158  -0.52173  -0.45838  -0.41879
 Alpha  occ. eigenvalues --   -0.39618
 Alpha virt. eigenvalues --    0.03161   0.03900   0.04560   0.05401   0.05970
 Alpha virt. eigenvalues --    0.10119   0.10596   0.11166   0.11350   0.12969
 Alpha virt. eigenvalues --    0.13166   0.13966   0.14629   0.14882   0.15734

 Mulliken charges:
               1
     1  O   -0.473457
     2  C    0.286413
     3  N   -0.482763
     4  C    0.890440
     5  C    0.299001
     6  O   -0.745784
     7  C    0.675177
     8  H    0.141680
     9  H   -0.030649
    10  H   -0.110746
    11  H   -0.206990
    12  H   -0.242320
 Sum of Mulliken charges =  -0.00000

 Dipole moment (field-independent basis, Debye):
    X=              0.4664    Y=              0.5515    Z=             -2.2580  Tot=              2.3707

 Test job not archived.
 1\1\GINC-SE247\SP\RHF\Aug-CC-pVDZ\C4H5N1O2\OHZDE\09-Apr-2025\0\\#t hf
 aug-cc-pvdz iop(5/13=1,5/36=2,99/5=2) pseudo=read geom=check guess=(re
 ad,tcheck) scf=(maxcycle=1)\\title\\0,1\O,0,1.28083887,2.00905908,0.38
 262922\C,0,0.67532509,0.84646014,0.13694324\N,0,1.25902898,-0.19797747
 ,-0.27503589\C,0,0.25096723,-1.23861962,-0.48618245\C,0,-1.07321332,-0
 .65386363,-0.0324619\O,0,-1.07106539,-0.27624265,1.33565578\C,0,-0.796
 88139,0.72527546,0.36149592\H,0,2.21630805,1.89536536,0.17491258\H,0,0
 .51112573,-2.13543846,0.08056159\H,0,0.21985768,-1.50892882,-1.5448672

 Normal termination of Gaussian 16 at Wed Apr  9 03:33:11 2025.
