 Gaussian 16, Revision C.01,

 ----------------------------------------------------------------------
 #t hf aug-cc-pvdz symm=none int=(grid=ultrafine) guess=(read,tcheck) s
 table=(opt,rrhf)
 ----------------------------------------------------------------------
 -----
 title
 -----
 Symbolic Z-matrix:
 Charge =  0 Multiplicity = 1

 SCF Done:  E(RHF) =  -307.909318110     A.U. after   13 cycles

 1\1\GINC-SE041\Stability\RHF\Aug-CC-pVDZ\C6H10O1\OHZDE\09-Apr-2025\0\\
 #t hf aug-cc-pvdz symm=none int=(grid=ultrafine) guess=(read,tcheck) s
 table=(opt,rrhf)\\title\\0,1\C,0,2.0434661,-0.07251394,0.05838036\C,0,
 0.62103887,-0.45662654,-0.32000195\C,0,-0.19041609,-1.11295128,0.77213
 234\C,0,-1.46448271,-0.7434214,0.72692367\C,0,-1.71054505,0.22411211,-
 0.40256963\C,0,-0.29325912,0.72353874,-0.73284898\O,0,0.00595836,1.913
 7868,-0.02865756\H,0,2.0628525,0.58171962,0.93080721\H,0,2.53773131,0.
 45455069,-0.75936284\H,0,2.63105486,-0.96283648,0.29189909\H,0,0.22983

 Normal termination of Gaussian 16 at Wed Apr  9 16:05:12 2025.
 Gaussian 16:  ES64L-G16RevC.01  3-Jul-2019

 ----------------------------------------------------------------------
 #t hf aug-cc-pvdz iop(5/13=1,5/36=2,99/5=2) pseudo=read geom=check gue
 ss=(read,tcheck) scf=(maxcycle=1)
 ----------------------------------------------------------------------
 -----
 title
 -----
 Structure from the checkpoint file:  "Grambow2020_wb97xd3_007739_reverse_mol2.chk"
 Charge =  0 Multiplicity = 1

                         Standard orientation:
 ---------------------------------------------------------------------
 Center     Atomic      Atomic             Coordinates (Angstroms)
 Number     Number       Type             X           Y           Z
 ---------------------------------------------------------------------
      1          6           0       -2.118770   -0.317419   -0.021779
      2          6           0       -0.694822   -0.457934    0.494597
      3          6           0        0.187600   -1.412226   -0.275232
      4          6           0        1.439920   -0.977466   -0.342461
      5          6           0        1.596756    0.341816    0.369805
      6          6           0        0.145778    0.842885    0.473747
      7          8           0       -0.183372    1.684178   -0.615286
      8          1           0       -2.136630   -0.019652   -1.070846
      9          1           0       -2.668088    0.436931    0.543911
     10          1           0       -2.653880   -1.265029    0.068540
     11          1           0       -0.171443   -2.350715   -0.681723
     12          1           0        2.261643   -1.505554   -0.810105
     13          1           0       -0.740052   -0.801974    1.536890
     14          1           0        2.035057    0.191696    1.362925
     15          1           0        2.226585    1.064708   -0.152686
     16          1           0       -0.027926    1.451258    1.362040
     17          1           0        0.002935    1.206975   -1.428730
 ---------------------------------------------------------------------

 SCF Done:  E(RHF) =  -308.003494040     A.U. after    2 cycles

 The electronic state is 1-A.
 Alpha  occ. eigenvalues --  -20.56518 -11.28617 -11.23851 -11.23823 -11.23563
 Alpha  occ. eigenvalues --  -11.23357 -11.22233  -1.32345  -1.12662  -1.00976
 Alpha  occ. eigenvalues --   -0.95739  -0.88751  -0.79476  -0.73697  -0.69848
 Alpha  occ. eigenvalues --   -0.65037  -0.63426  -0.61746  -0.57326  -0.55247
 Alpha  occ. eigenvalues --   -0.52798  -0.52050  -0.51019  -0.48331  -0.47476
 Alpha  occ. eigenvalues --   -0.43171  -0.35589
 Alpha virt. eigenvalues --    0.03363   0.04205   0.04417   0.04998   0.06067
 Alpha virt. eigenvalues --    0.06381   0.06628   0.06785   0.08627   0.09384
 Alpha virt. eigenvalues --    0.11855   0.12346   0.12651   0.13924   0.14469

 Mulliken charges:
               1
     1  C    0.677749
     2  C   -0.771698
     3  C    0.523342
     4  C    0.117011
     5  C    0.495779
     6  C    0.509728
     7  O   -0.581641
     8  H   -0.008474
     9  H   -0.040014
    10  H   -0.050664
    11  H   -0.365326
    12  H   -0.285526
    13  H   -0.086551
    14  H   -0.024257
    15  H   -0.074332
    16  H   -0.180310
    17  H    0.145184
 Sum of Mulliken charges =  -0.00000

 Dipole moment (field-independent basis, Debye):
    X=              0.6181    Y=             -1.6403    Z=              0.2336  Tot=              1.7684

 Test job not archived.
 1\1\GINC-SE041\SP\RHF\Aug-CC-pVDZ\C6H10O1\OHZDE\09-Apr-2025\0\\#t hf a
 ug-cc-pvdz iop(5/13=1,5/36=2,99/5=2) pseudo=read geom=check guess=(rea
 d,tcheck) scf=(maxcycle=1)\\title\\0,1\C,0,2.0434661,-0.07251394,0.058
 38036\C,0,0.62103887,-0.45662654,-0.32000195\C,0,-0.19041609,-1.112951
 28,0.77213234\C,0,-1.46448271,-0.7434214,0.72692367\C,0,-1.71054505,0.
 22411211,-0.40256963\C,0,-0.29325912,0.72353874,-0.73284898\O,0,0.0059
 5836,1.9137868,-0.02865756\H,0,2.0628525,0.58171962,0.93080721\H,0,2.5
 3773131,0.45455069,-0.75936284\H,0,2.63105486,-0.96283648,0.29189909\H

 Normal termination of Gaussian 16 at Wed Apr  9 16:05:18 2025.
