 Gaussian 16, Revision C.01,

 ----------------------------------------------------------------------
 #t hf aug-cc-pvdz symm=none int=(grid=ultrafine) guess=(read,tcheck) s
 table=(opt,rrhf)
 ----------------------------------------------------------------------
 -----
 title
 -----
 Symbolic Z-matrix:
 Charge =  0 Multiplicity = 1

 SCF Done:  E(RHF) =  -271.823097287     A.U. after   17 cycles
 Normal termination of Gaussian 16 at Wed Apr  9 15:53:31 2025.
 Gaussian 16:  ES64L-G16RevC.01  3-Jul-2019

 ----------------------------------------------------------------------
 #t hf aug-cc-pvdz iop(5/13=1,5/36=2,99/5=2) pseudo=read geom=check gue
 ss=(read,tcheck) scf=(maxcycle=1)
 ----------------------------------------------------------------------
 -----
 title
 -----
 Structure from the checkpoint file:  "Grambow2020_wb97xd3_007430_forward_mol1.chk"
 Charge =  0 Multiplicity = 1

                         Standard orientation:
 ---------------------------------------------------------------------
 Center     Atomic      Atomic             Coordinates (Angstroms)
 Number     Number       Type             X           Y           Z
 ---------------------------------------------------------------------
      1          6           0       -2.775358    0.297902    0.189209
      2          6           0       -1.594060   -0.658036    0.286648
      3          6           0       -0.372710   -0.194219   -0.409627
      4          6           0        0.361119    1.128639   -0.210023
      5          6           0        1.725777    0.391911   -0.300861
      6          6           0        2.316230   -0.094460    0.920493
      7          6           0        0.865210   -0.890711   -0.658080
      8          1           0       -3.627090   -0.071086    0.761723
      9          1           0       -3.090905    0.421344   -0.848188
     10          1           0       -2.514521    1.284646    0.577876
     11          1           0       -1.306246   -0.800973    1.345800
     12          1           0       -1.869458   -1.652547   -0.074760
     13          1           0        0.356615   -0.578586   -1.683065
     14          1           0        0.187124    1.487480    0.806619
     15          1           0        0.156381    1.947453   -0.901700
     16          1           0        2.416561    0.706013   -1.079806
     17          1           0        3.257683   -0.623644    0.887735
     18          1           0        1.777392   -0.060162    1.858445
     19          1           0        1.099215   -1.946090   -0.557226
 ---------------------------------------------------------------------

 SCF Done:  E(RHF) =  -271.905761961     A.U. after    2 cycles

 The electronic state is 1-A.
 Alpha  occ. eigenvalues --  -11.30578 -11.27464 -11.26228 -11.25778 -11.25617
 Alpha  occ. eigenvalues --  -11.24378 -11.17087  -1.18462  -1.06065  -0.96325
 Alpha  occ. eigenvalues --   -0.92898  -0.88358  -0.77086  -0.72150  -0.67334
 Alpha  occ. eigenvalues --   -0.66412  -0.62705  -0.59080  -0.56356  -0.54917
 Alpha  occ. eigenvalues --   -0.53141  -0.52474  -0.50529  -0.48605  -0.46714
 Alpha  occ. eigenvalues --   -0.44602  -0.19088
 Alpha virt. eigenvalues --    0.02804   0.03462   0.04010   0.04655   0.05369
 Alpha virt. eigenvalues --    0.05935   0.06164   0.06632   0.07064   0.07584
 Alpha virt. eigenvalues --    0.08499   0.08781   0.09680   0.12257   0.13177

 Mulliken charges:
               1
     1  C    0.561808
     2  C    0.217012
     3  C   -1.077843
     4  C    0.461599
     5  C    0.592738
     6  C    0.668019
     7  C    0.095635
     8  H   -0.060339
     9  H   -0.053524
    10  H   -0.071828
    11  H    0.149512
    12  H    0.012918
    13  H    0.376451
    14  H   -0.170658
    15  H   -0.211363
    16  H   -0.312668
    17  H   -0.429333
    18  H   -0.387233
    19  H   -0.360902
 Sum of Mulliken charges =  -0.00000

 Dipole moment (field-independent basis, Debye):
    X=             -3.8155    Y=             -0.2752    Z=             -2.1023  Tot=              4.3650

 Test job not archived.
 1\1\GINC-SE138\SP\RHF\Aug-CC-pVDZ\C7H12\OHZDE\09-Apr-2025\0\\#t hf aug
 -cc-pvdz iop(5/13=1,5/36=2,99/5=2) pseudo=read geom=check guess=(read,
 tcheck) scf=(maxcycle=1)\\title\\0,1\C,0,2.51831358,0.50415579,-0.6653
 4677\C,0,1.38079519,-0.50818288,-0.66534788\C,0,0.33763711,-0.25623634
 ,0.35443819\C,0,-0.46850123,1.02322217,0.55797181\C,0,-1.74855433,0.18
 219938,0.81769501\C,0,-2.58753028,-0.14091089,-0.30863388\C,0,-0.78421
 086,-1.07397133,0.74436345\H,0,3.22730775,0.29784334,-1.46792624\H,0,3
 .06027938,0.47979983,0.28158438\H,0,2.14026426,1.51894007,-0.8069587\H

 Normal termination of Gaussian 16 at Wed Apr  9 15:53:39 2025.
