 Gaussian 16, Revision C.01,

 ----------------------------------------------------------------------
 #t hf aug-cc-pvdz symm=none int=(grid=ultrafine) guess=(read,tcheck) s
 table=(opt,rrhf)
 ----------------------------------------------------------------------
 -----
 title
 -----
 Symbolic Z-matrix:
 Charge =  0 Multiplicity = 1

 SCF Done:  E(RHF) =  -306.500220104     A.U. after   17 cycles
 Normal termination of Gaussian 16 at Wed Apr  9 16:23:11 2025.
 Gaussian 16:  ES64L-G16RevC.01  3-Jul-2019

 ----------------------------------------------------------------------
 #t hf aug-cc-pvdz iop(5/13=1,5/36=2,99/5=2) pseudo=read geom=check gue
 ss=(read,tcheck) scf=(maxcycle=1)
 ----------------------------------------------------------------------
 -----
 title
 -----
 Structure from the checkpoint file:  "Grambow2020_wb97xd3_008171_forward_mol1.chk"
 Charge =  0 Multiplicity = 1

                         Standard orientation:
 ---------------------------------------------------------------------
 Center     Atomic      Atomic             Coordinates (Angstroms)
 Number     Number       Type             X           Y           Z
 ---------------------------------------------------------------------
      1          6           0       -2.061520   -0.209101    0.095994
      2          6           0       -0.922574    0.348268   -0.515978
      3          8           0       -0.058971    1.301440    0.198084
      4          6           0        1.034101    0.497051    0.614833
      5          6           0        1.505775   -0.148460   -0.708034
      6          6           0        0.204382   -0.971922   -0.491552
      7          6           0        0.386911   -0.822653    0.912866
      8          1           0       -3.053791    0.147043   -0.157963
      9          1           0       -1.994666   -1.070282    0.743617
     10          1           0       -1.126235    0.844891   -1.468705
     11          1           0        1.683736    1.034468    1.299051
     12          1           0        1.550414    0.499507   -1.583454
     13          1           0        2.405454   -0.751286   -0.608302
     14          1           0       -0.121622   -1.840704   -1.048298
     15          1           0        0.246032   -1.434257    1.790613
 ---------------------------------------------------------------------

 SCF Done:  E(RHF) =  -306.591630329     A.U. after    2 cycles

 The electronic state is 1-A.
 Alpha  occ. eigenvalues --  -20.56289 -11.30978 -11.30683 -11.29092 -11.27133
 Alpha  occ. eigenvalues --  -11.25584 -11.22957  -1.34925  -1.14379  -1.02570
 Alpha  occ. eigenvalues --   -0.91239  -0.88324  -0.77768  -0.76216  -0.72291
 Alpha  occ. eigenvalues --   -0.66273  -0.64867  -0.59056  -0.58449  -0.54568
 Alpha  occ. eigenvalues --   -0.53075  -0.51933  -0.48687  -0.44420  -0.41807
 Alpha  occ. eigenvalues --   -0.25366
 Alpha virt. eigenvalues --    0.02004   0.03149   0.04074   0.04345   0.04872
 Alpha virt. eigenvalues --    0.06024   0.06284   0.06689   0.08833   0.11262
 Alpha virt. eigenvalues --    0.11589   0.12284   0.12499   0.13537   0.14308

 Mulliken charges:
               1
     1  C    0.548590
     2  C    0.764711
     3  O   -0.798015
     4  C    0.805116
     5  C    0.766299
     6  C    0.446168
     7  C    0.133684
     8  H   -0.271310
     9  H   -0.357393
    10  H   -0.434179
    11  H   -0.298661
    12  H   -0.195824
    13  H   -0.275259
    14  H   -0.457448
    15  H   -0.376479
 Sum of Mulliken charges =  -0.00000

 Dipole moment (field-independent basis, Debye):
    X=              1.9041    Y=             -2.4491    Z=             -0.2548  Tot=              3.1127

 Test job not archived.
 1\1\GINC-SE138\SP\RHF\Aug-CC-pVDZ\C6H8O1\OHZDE\09-Apr-2025\0\\#t hf au
 g-cc-pvdz iop(5/13=1,5/36=2,99/5=2) pseudo=read geom=check guess=(read
 ,tcheck) scf=(maxcycle=1)\\title\\0,1\C,0,-2.01109722,-0.30322553,0.21
 075041\C,0,-0.70711572,-0.61807904,0.63837978\O,0,0.1750758,-1.4787868
 7,-0.16483444\C,0,1.0282241,-0.54899109,-0.81533028\C,0,1.59721517,0.2
 734619,0.36321159\C,0,0.15620139,0.85778908,0.33833841\C,0,0.12343578,
 0.62066114,-1.06547192\H,0,-2.87063671,-0.78992522,0.65824168\H,0,-2.2
 0264895,0.49940984,-0.48538314\H,0,-0.65976817,-1.057993,1.63839696\H,

 Normal termination of Gaussian 16 at Wed Apr  9 16:23:16 2025.
