 Gaussian 16, Revision C.01,

 ----------------------------------------------------------------------
 #t hf aug-cc-pvdz symm=none int=(grid=ultrafine) guess=(read,tcheck) s
 table=(opt,rrhf)
 ----------------------------------------------------------------------
 -----
 title
 -----
 Symbolic Z-matrix:
 Charge =  0 Multiplicity = 1

 SCF Done:  E(RHF) =  -322.610493972     A.U. after   16 cycles
 Normal termination of Gaussian 16 at Wed Apr  9 15:36:01 2025.
 Gaussian 16:  ES64L-G16RevC.01  3-Jul-2019

 ----------------------------------------------------------------------
 #t hf aug-cc-pvdz iop(5/13=1,5/36=2,99/5=2) pseudo=read geom=check gue
 ss=(read,tcheck) scf=(maxcycle=1)
 ----------------------------------------------------------------------
 -----
 title
 -----
 Structure from the checkpoint file:  "Grambow2020_wb97xd3_007026_forward_mol1.chk"
 Charge =  0 Multiplicity = 1

                         Standard orientation:
 ---------------------------------------------------------------------
 Center     Atomic      Atomic             Coordinates (Angstroms)
 Number     Number       Type             X           Y           Z
 ---------------------------------------------------------------------
      1          6           0        1.859414   -0.874882    0.323416
      2          6           0        0.567308   -0.512808   -0.392597
      3          6           0       -0.624426   -1.370646   -0.212067
      4          6           0       -1.683568   -0.525689    0.074774
      5          7           0       -1.329629    0.858334    0.192447
      6          6           0        0.027868    0.908490   -0.072862
      7          8           0        0.718494    1.900255   -0.089143
      8          1           0        2.273028   -1.817490   -0.036936
      9          1           0        1.693599   -0.960412    1.399147
     10          1           0        2.587882   -0.081425    0.158318
     11          1           0        0.747801   -0.477492   -1.479187
     12          1           0       -0.677539   -2.447822   -0.284117
     13          1           0       -2.727788   -0.804321    0.141162
     14          1           0       -1.217107   -0.368202    1.143651
 ---------------------------------------------------------------------

 SCF Done:  E(RHF) =  -322.705999888     A.U. after    2 cycles

 The electronic state is 1-A.
 Alpha  occ. eigenvalues --  -20.52043 -15.62035 -11.34305 -11.32749 -11.32627
 Alpha  occ. eigenvalues --  -11.27772 -11.25270  -1.33430  -1.24639  -1.08383
 Alpha  occ. eigenvalues --   -1.01267  -0.92333  -0.80828  -0.74428  -0.71988
 Alpha  occ. eigenvalues --   -0.67293  -0.63018  -0.62034  -0.60288  -0.56144
 Alpha  occ. eigenvalues --   -0.54022  -0.53692  -0.51148  -0.45771  -0.39886
 Alpha  occ. eigenvalues --   -0.31856
 Alpha virt. eigenvalues --    0.01722   0.02982   0.03847   0.04079   0.04596
 Alpha virt. eigenvalues --    0.05989   0.07052   0.07708   0.10194   0.11227
 Alpha virt. eigenvalues --    0.11498   0.12357   0.12871   0.13477   0.13962

 Mulliken charges:
               1
     1  C    0.663216
     2  C   -1.018785
     3  C    0.555265
     4  C    0.433215
     5  N   -0.867982
     6  C    0.556384
     7  O   -0.548544
     8  H   -0.028772
     9  H    0.000691
    10  H    0.000512
    11  H    0.102009
    12  H   -0.259395
    13  H   -0.131103
    14  H    0.543290
 Sum of Mulliken charges =  -0.00000

 Dipole moment (field-independent basis, Debye):
    X=             -1.0616    Y=             -7.5679    Z=             -0.0424  Tot=              7.6421

 Test job not archived.
 1\1\GINC-SE041\SP\RHF\Aug-CC-pVDZ\C5H7N1O1\OHZDE\09-Apr-2025\0\\#t hf
 aug-cc-pvdz iop(5/13=1,5/36=2,99/5=2) pseudo=read geom=check guess=(re
 ad,tcheck) scf=(maxcycle=1)\\title\\0,1\C,0,-1.74752576,0.09998496,0.2
 6194881\C,0,-0.39692707,0.17280937,-0.43367383\C,0,0.66999107,1.018647
 77,0.14507558\C,0,1.81744673,0.24395977,0.1799464\N,0,1.6378171,-1.110
 80259,-0.2524778\C,0,0.30714935,-1.19896382,-0.62295509\O,0,-0.2514719
 ,-2.17754769,-1.06015453\H,0,-2.26492183,1.05992424,0.24587975\H,0,-1.
 62968042,-0.21036644,1.30204546\H,0,-2.36382203,-0.64391002,-0.2423293

 Normal termination of Gaussian 16 at Wed Apr  9 15:36:07 2025.
