 Gaussian 16, Revision C.01,

 ----------------------------------------------------------------------
 #t hf aug-cc-pvdz symm=none int=(grid=ultrafine) guess=(read,tcheck) s
 table=(opt,rrhf)
 ----------------------------------------------------------------------
 -----
 title
 -----
 Symbolic Z-matrix:
 Charge =  0 Multiplicity = 1

 SCF Done:  E(RHF) =  -343.649519820     A.U. after   15 cycles
 Normal termination of Gaussian 16 at Wed Apr  9 17:00:23 2025.
 Gaussian 16:  ES64L-G16RevC.01  3-Jul-2019

 ----------------------------------------------------------------------
 #t hf aug-cc-pvdz iop(5/13=1,5/36=2,99/5=2) pseudo=read geom=check gue
 ss=(read,tcheck) scf=(maxcycle=1)
 ----------------------------------------------------------------------
 -----
 title
 -----
 Structure from the checkpoint file:  "Grambow2020_wb97xd3_009104_reverse_mol2.chk"
 Charge =  0 Multiplicity = 1

                         Standard orientation:
 ---------------------------------------------------------------------
 Center     Atomic      Atomic             Coordinates (Angstroms)
 Number     Number       Type             X           Y           Z
 ---------------------------------------------------------------------
      1          6           0       -0.133566    1.480434    0.365852
      2          6           0        1.200093    1.233633   -0.306874
      3          8           0        1.610575    0.003900   -0.265505
      4          6           0        0.916054   -1.099278    0.385949
      5          6           0       -0.422225   -1.428860   -0.238232
      6          8           0       -1.465362   -0.592590    0.181803
      7          6           0       -1.330364    0.743594   -0.245775
      8          1           0       -0.067373    1.231244    1.434332
      9          1           0       -0.324540    2.552035    0.301501
     10          1           0       -1.274812    0.785065   -1.343147
     11          1           0        0.805209   -0.876436    1.449068
     12          1           0        1.599071   -1.939682    0.268946
     13          1           0       -0.325333   -1.421819   -1.333634
     14          1           0       -0.702742   -2.438620    0.068356
     15          1           0       -2.251140    1.240592    0.058673
 ---------------------------------------------------------------------

 SCF Done:  E(RHF) =  -343.756626047     A.U. after    2 cycles

 The electronic state is 1-A.
 Alpha  occ. eigenvalues --  -20.63275 -20.58664 -11.31256 -11.30635 -11.30348
 Alpha  occ. eigenvalues --  -11.30062 -11.24026  -1.40417  -1.35786  -1.07311
 Alpha  occ. eigenvalues --   -1.01584  -0.94753  -0.84164  -0.77864  -0.72296
 Alpha  occ. eigenvalues --   -0.69149  -0.68644  -0.65272  -0.64293  -0.58890
 Alpha  occ. eigenvalues --   -0.56635  -0.54535  -0.53265  -0.51642  -0.49706
 Alpha  occ. eigenvalues --   -0.44679  -0.33702
 Alpha virt. eigenvalues --    0.03256   0.04084   0.04410   0.05375   0.06136
 Alpha virt. eigenvalues --    0.06200   0.06543   0.09084   0.09478   0.10244
 Alpha virt. eigenvalues --    0.11858   0.12667   0.13330   0.13767   0.14870

 Mulliken charges:
               1
     1  C    0.152827
     2  C   -0.042340
     3  O   -0.487325
     4  C    0.705202
     5  C    0.591082
     6  O   -0.640969
     7  C    0.669252
     8  H    0.036156
     9  H   -0.110347
    10  H   -0.085134
    11  H   -0.063791
    12  H   -0.237532
    13  H   -0.042280
    14  H   -0.205059
    15  H   -0.239742
 Sum of Mulliken charges =  -0.00000

 Dipole moment (field-independent basis, Debye):
    X=             -1.5377    Y=             -1.8537    Z=              1.0899  Tot=              2.6436

 Test job not archived.
 1\1\GINC-SE232\SP\RHF\Aug-CC-pVDZ\C5H8O2\OHZDE\09-Apr-2025\0\\#t hf au
 g-cc-pvdz iop(5/13=1,5/36=2,99/5=2) pseudo=read geom=check guess=(read
 ,tcheck) scf=(maxcycle=1)\\title\\0,1\C,0,-1.46438396,0.09089445,0.467
 912\C,0,-1.42300601,0.90398969,-0.80852078\O,0,-0.2452303,1.33321553,-
 1.14177469\C,0,0.98022639,1.11917228,-0.38269989\C,0,1.39193404,-0.333
 75189,-0.28928917\O,0,0.71300178,-1.05298683,0.70351662\C,0,-0.6633192
 1,-1.21570928,0.4472008\H,0,-1.12736925,0.704344,1.31539447\H,0,-2.511
 00511,-0.15440697,0.65054215\H,0,-0.81022806,-1.72996313,-0.51352377\H

 Normal termination of Gaussian 16 at Wed Apr  9 17:00:28 2025.
