 Gaussian 16, Revision C.01,

 ----------------------------------------------------------------------
 #t hf aug-cc-pvdz symm=none int=(grid=ultrafine) guess=(read,tcheck) s
 table=(opt,rrhf)
 ----------------------------------------------------------------------
 -----
 title
 -----
 Symbolic Z-matrix:
 Charge =  0 Multiplicity = 1

 SCF Done:  E(RHF) =  -152.428366197     A.U. after   15 cycles
 Normal termination of Gaussian 16 at Wed Apr  9 03:07:34 2025.
 Gaussian 16:  ES64L-G16RevC.01  3-Jul-2019

 ----------------------------------------------------------------------
 #t hf aug-cc-pvdz iop(5/13=1,5/36=2,99/5=2) pseudo=read geom=check gue
 ss=(read,tcheck) scf=(maxcycle=1)
 ----------------------------------------------------------------------
 -----
 title
 -----
 Structure from the checkpoint file:  "Grambow2020_b97d3_006639_reverse_mol1.chk"
 Charge =  0 Multiplicity = 1

                         Standard orientation:
 ---------------------------------------------------------------------
 Center     Atomic      Atomic             Coordinates (Angstroms)
 Number     Number       Type             X           Y           Z
 ---------------------------------------------------------------------
      1          6           0        0.371566    0.091332    0.000007
      2          6           0        1.599576   -0.019473   -0.000304
      3          6           0       -1.155603   -0.805397   -0.000070
      4          6           0       -1.022221    0.503874    0.000290
      5          1           0        2.664232   -0.134077    0.001187
      6          1           0       -1.424143    1.512069   -0.000725
 ---------------------------------------------------------------------

 SCF Done:  E(RHF) =  -152.473378284     A.U. after    2 cycles

 The electronic state is 1-A.
 Alpha  occ. eigenvalues --  -11.31504 -11.30051 -11.28887 -11.28634  -1.15900
 Alpha  occ. eigenvalues --   -1.01056  -0.76601  -0.75379  -0.65227  -0.51309
 Alpha  occ. eigenvalues --   -0.48034  -0.41547  -0.36100
 Alpha virt. eigenvalues --    0.03139   0.03605   0.04312   0.08619   0.09437
 Alpha virt. eigenvalues --    0.09476   0.10193   0.11178   0.12367   0.13772
 Alpha virt. eigenvalues --    0.14699   0.15686   0.16690   0.17133   0.17589

 Mulliken charges:
               1
     1  C   -0.305480
     2  C    0.481732
     3  C   -0.191259
     4  C    0.585738
     5  H   -0.366572
     6  H   -0.204159
 Sum of Mulliken charges =  -0.00000

 Dipole moment (field-independent basis, Debye):
    X=              1.2059    Y=              2.3724    Z=              0.0012  Tot=              2.6612

 Test job not archived.
 1\1\GINC-SE344\SP\RHF\Aug-CC-pVDZ\C4H2\OHZDE\09-Apr-2025\0\\#t hf aug-
 cc-pvdz iop(5/13=1,5/36=2,99/5=2) pseudo=read geom=check guess=(read,t
 check) scf=(maxcycle=1)\\title\\0,1\C,0,0.23076534,0.0084987,-0.099682
 44\C,0,1.37315917,-0.01725031,0.36352279\C,0,-0.74652972,0.48679452,-1
 .49699969\C,0,-1.18879063,-0.08580774,-0.39767527\H,0,2.3717912,-0.033
 16974,0.7496687\H,0,-1.97948835,-0.49525144,0.22293091\\Version=ES64L-
 G16RevC.01\State=1-A\HF=-152.4733783\RMSD=9.401e-03\Dipole=0.0229804,-
 0.4311773,0.9538271\Quadrupole=5.1569756,-2.432109,-2.7248666,0.934120

 Normal termination of Gaussian 16 at Wed Apr  9 03:07:36 2025.
