 Gaussian 16, Revision C.01,

 ----------------------------------------------------------------------
 #t hf aug-cc-pvdz symm=none int=(grid=ultrafine) guess=(read,tcheck) s
 table=(opt,rrhf)
 ----------------------------------------------------------------------
 -----
 title
 -----
 Symbolic Z-matrix:
 Charge =  0 Multiplicity = 1

 SCF Done:  E(RHF) =  -322.710974614     A.U. after   13 cycles
 Normal termination of Gaussian 16 at Wed Apr  9 15:46:59 2025.
 Gaussian 16:  ES64L-G16RevC.01  3-Jul-2019

 ----------------------------------------------------------------------
 #t hf aug-cc-pvdz iop(5/13=1,5/36=2,99/5=2) pseudo=read geom=check gue
 ss=(read,tcheck) scf=(maxcycle=1)
 ----------------------------------------------------------------------
 -----
 title
 -----
 Structure from the checkpoint file:  "Grambow2020_wb97xd3_007390_reverse_mol2.chk"
 Charge =  0 Multiplicity = 1

                         Standard orientation:
 ---------------------------------------------------------------------
 Center     Atomic      Atomic             Coordinates (Angstroms)
 Number     Number       Type             X           Y           Z
 ---------------------------------------------------------------------
      1          6           0       -1.397926    0.560580    0.344576
      2          6           0       -0.341050    1.403007   -0.373341
      3          6           0        0.996694    0.719193   -0.327693
      4          8           0        1.306953    0.038477    0.878424
      5          6           0        1.011795   -0.743604   -0.270471
      6          7           0       -0.197387   -1.502798   -0.286145
      7          6           0       -1.271158   -0.896554    0.000476
      8          1           0       -1.278225    0.662475    1.426723
      9          1           0       -2.404222    0.907190    0.104250
     10          1           0       -0.615197    1.542280   -1.423704
     11          1           0       -0.278638    2.396278    0.075502
     12          1           0        1.835189    1.237820   -0.786416
     13          1           0        1.862250   -1.298215   -0.650368
     14          1           0       -2.185205   -1.491793   -0.011652
 ---------------------------------------------------------------------

 SCF Done:  E(RHF) =  -322.808609950     A.U. after    2 cycles

 The electronic state is 1-A.
 Alpha  occ. eigenvalues --  -20.58658 -15.62357 -11.31998 -11.29974 -11.29871
 Alpha  occ. eigenvalues --  -11.25332 -11.25266  -1.39535  -1.20514  -1.06670
 Alpha  occ. eigenvalues --   -0.97034  -0.88874  -0.84766  -0.74558  -0.71485
 Alpha  occ. eigenvalues --   -0.66997  -0.64251  -0.62045  -0.59498  -0.56174
 Alpha  occ. eigenvalues --   -0.52337  -0.50727  -0.49313  -0.47407  -0.41724
 Alpha  occ. eigenvalues --   -0.38191
 Alpha virt. eigenvalues --    0.03057   0.03850   0.04537   0.04955   0.05956
 Alpha virt. eigenvalues --    0.06838   0.07074   0.10096   0.10402   0.12043
 Alpha virt. eigenvalues --    0.12297   0.12923   0.14257   0.14747   0.14941

 Mulliken charges:
               1
     1  C    0.213747
     2  C    0.080938
     3  C    0.493143
     4  O   -0.745556
     5  C    0.899731
     6  N   -0.468295
     7  C    0.371609
     8  H    0.026398
     9  H   -0.013680
    10  H   -0.021475
    11  H    0.002533
    12  H   -0.283314
    13  H   -0.260242
    14  H   -0.295537
 Sum of Mulliken charges =  -0.00000

 Dipole moment (field-independent basis, Debye):
    X=             -1.6017    Y=              2.3355    Z=             -1.4683  Tot=              3.1899

 Test job not archived.
 1\1\GINC-SE220\SP\RHF\Aug-CC-pVDZ\C5H7N1O1\OHZDE\09-Apr-2025\0\\#t hf
 aug-cc-pvdz iop(5/13=1,5/36=2,99/5=2) pseudo=read geom=check guess=(re
 ad,tcheck) scf=(maxcycle=1)\\title\\0,1\C,0,-1.26942953,-0.26194333,0.
 13657148\C,0,-0.54627718,1.02844776,-0.25587743\C,0,0.91344962,0.93984
 927,0.09138715\O,0,1.2252461,0.27280809,1.30472725\C,0,1.53556146,-0.3
 8537029,0.08438525\N,0,0.79521132,-1.55461854,-0.26701428\C,0,-0.46794
 991,-1.47875013,-0.23047973\H,0,-1.43191252,-0.27954984,1.21779351\H,0
 ,-2.25351332,-0.3170027,-0.33148326\H,0,-0.62885184,1.19759026,-1.3340

 Normal termination of Gaussian 16 at Wed Apr  9 15:47:04 2025.
