 Gaussian 16, Revision C.01,

 ----------------------------------------------------------------------
 #t hf aug-cc-pvdz symm=none int=(grid=ultrafine) guess=(read,tcheck) s
 table=(opt,rrhf)
 ----------------------------------------------------------------------
 -----
 title
 -----
 Symbolic Z-matrix:
 Charge =  0 Multiplicity = 1

 SCF Done:  E(RHF) =  -304.578255143     A.U. after   17 cycles
 Normal termination of Gaussian 16 at Wed Apr  9 03:14:50 2025.
 Gaussian 16:  ES64L-G16RevC.01  3-Jul-2019

 ----------------------------------------------------------------------
 #t hf aug-cc-pvdz iop(5/13=1,5/36=2,99/5=2) pseudo=read geom=check gue
 ss=(read,tcheck) scf=(maxcycle=1)
 ----------------------------------------------------------------------
 -----
 title
 -----
 Structure from the checkpoint file:  "Grambow2020_b97d3_007014_reverse_mol1.chk"
 Charge =  0 Multiplicity = 1

                         Standard orientation:
 ---------------------------------------------------------------------
 Center     Atomic      Atomic             Coordinates (Angstroms)
 Number     Number       Type             X           Y           Z
 ---------------------------------------------------------------------
      1          8           0       -1.754266   -1.041888    0.143944
      2          6           0       -1.536372    0.145530   -0.476306
      3          6           0       -0.813991    1.089766    0.461927
      4          6           0        0.417710    0.691652   -0.345755
      5          6           0        1.337315   -0.309464    0.230255
      6          8           0        2.526031   -0.399879   -0.051710
      7          1           0       -2.074952   -1.665785   -0.537573
      8          1           0       -0.367142    0.122073   -1.261857
      9          1           0       -1.090969    2.140787    0.350401
     10          1           0       -0.794935    0.782197    1.513965
     11          1           0        0.875009    1.461139   -0.973700
     12          1           0        0.850890   -1.011179    0.950166
 ---------------------------------------------------------------------

 SCF Done:  E(RHF) =  -304.671016903     A.U. after    2 cycles

 The electronic state is 1-A.
 Alpha  occ. eigenvalues --  -20.63641 -20.57653 -11.35676 -11.33657 -11.29076
 Alpha  occ. eigenvalues --  -11.26844  -1.39375  -1.35118  -1.12111  -0.94213
 Alpha  occ. eigenvalues --   -0.84053  -0.81206  -0.73278  -0.68738  -0.66419
 Alpha  occ. eigenvalues --   -0.64361  -0.60948  -0.58382  -0.56119  -0.52693
 Alpha  occ. eigenvalues --   -0.48441  -0.44709  -0.35774
 Alpha virt. eigenvalues --    0.03105   0.03878   0.04609   0.05318   0.06884
 Alpha virt. eigenvalues --    0.07158   0.07886   0.09658   0.10815   0.11735
 Alpha virt. eigenvalues --    0.13109   0.14001   0.14532   0.14929   0.15549

 Mulliken charges:
               1
     1  O   -0.486132
     2  C   -0.009389
     3  C    0.628852
     4  C   -0.137485
     5  C    0.541823
     6  O   -0.477928
     7  H    0.235443
     8  H    0.392496
     9  H   -0.155714
    10  H   -0.203193
    11  H   -0.240839
    12  H   -0.087934
 Sum of Mulliken charges =  -0.00000

 Dipole moment (field-independent basis, Debye):
    X=             -3.0884    Y=              0.2957    Z=              0.2161  Tot=              3.1100

 Test job not archived.
 1\1\GINC-SE340\SP\RHF\Aug-CC-pVDZ\C4H6O2\OHZDE\09-Apr-2025\0\\#t hf au
 g-cc-pvdz iop(5/13=1,5/36=2,99/5=2) pseudo=read geom=check guess=(read
 ,tcheck) scf=(maxcycle=1)\\title\\0,1\O,0,-1.58449822,1.16153839,0.072
 96828\C,0,-1.26494151,0.03961398,-0.62080337\C,0,0.13908481,0.1615011,
 -1.17537772\C,0,0.50968716,-0.72856766,0.00714745\C,0,1.10972493,-0.09
 452575,1.19779335\O,0,1.83759669,-0.67198398,1.99621072\H,0,-2.4240548
 4,0.97921171,0.54035841\H,0,-0.78250566,-0.98082629,0.22222589\H,0,0.2
 8652091,-0.31587694,-2.14706313\H,0,0.56894776,1.16953436,-1.14652708\

 Normal termination of Gaussian 16 at Wed Apr  9 03:14:54 2025.
