 Gaussian 16, Revision C.01,

 ----------------------------------------------------------------------
 #t hf aug-cc-pvdz symm=none int=(grid=ultrafine) guess=(read,tcheck) s
 table=(opt,rrhf)
 ----------------------------------------------------------------------
 -----
 title
 -----
 Symbolic Z-matrix:
 Charge =  0 Multiplicity = 1

 SCF Done:  E(RHF) =  -379.298213388     A.U. after   22 cycles
 Normal termination of Gaussian 16 at Wed Apr  9 16:32:07 2025.
 Gaussian 16:  ES64L-G16RevC.01  3-Jul-2019

 ----------------------------------------------------------------------
 #t hf aug-cc-pvdz iop(5/13=1,5/36=2,99/5=2) pseudo=read geom=check gue
 ss=(read,tcheck) scf=(maxcycle=1)
 ----------------------------------------------------------------------
 -----
 title
 -----
 Structure from the checkpoint file:  "Grambow2020_wb97xd3_008538_reverse_mol1.chk"
 Charge =  0 Multiplicity = 1

                         Standard orientation:
 ---------------------------------------------------------------------
 Center     Atomic      Atomic             Coordinates (Angstroms)
 Number     Number       Type             X           Y           Z
 ---------------------------------------------------------------------
      1          8           0       -1.571724    1.300866   -0.223087
      2          6           0        0.254323   -0.404181   -0.085086
      3          6           0        0.763374    0.921850    0.295269
      4          8           0        2.122947    0.505866    0.082147
      5          6           0        1.682169   -0.801368   -0.292758
      6          6           0       -0.932328   -1.113411    0.169793
      7          8           0       -2.085925   -0.726271    0.029349
      8          1           0       -2.514584    1.495783   -0.263039
      9          1           0        0.563968    1.268360    1.311863
     10          1           0        0.381810    1.711152   -0.390615
     11          1           0        1.957328   -1.063963   -1.320046
     12          1           0        2.052292   -1.576430    0.388441
     13          1           0       -0.768421   -2.095940    0.642822
 ---------------------------------------------------------------------

 SCF Done:  E(RHF) =  -379.415225266     A.U. after    2 cycles

 The electronic state is 1-A.
 Alpha  occ. eigenvalues --  -20.63596 -20.60061 -20.51523 -11.36184 -11.35499
 Alpha  occ. eigenvalues --  -11.34596 -11.32384  -1.39823  -1.38948  -1.17449
 Alpha  occ. eigenvalues --   -1.09115  -0.98462  -0.92466  -0.77655  -0.74966
 Alpha  occ. eigenvalues --   -0.72715  -0.70657  -0.66446  -0.60778  -0.59258
 Alpha  occ. eigenvalues --   -0.57105  -0.55620  -0.52883  -0.49388  -0.46886
 Alpha  occ. eigenvalues --   -0.44043  -0.32561
 Alpha virt. eigenvalues --   -0.04980   0.02504   0.03965   0.04567   0.05054
 Alpha virt. eigenvalues --    0.07048   0.07460   0.08756   0.09285   0.10656
 Alpha virt. eigenvalues --    0.11883   0.11935   0.14131   0.14197   0.14585

 Mulliken charges:
               1
     1  O   -0.624628
     2  C   -0.778353
     3  C    0.726288
     4  O   -0.718219
     5  C    0.785972
     6  C    0.943542
     7  O   -0.342934
     8  H    0.106029
     9  H   -0.059972
    10  H    0.123584
    11  H   -0.022797
    12  H   -0.016603
    13  H   -0.121910
 Sum of Mulliken charges =  -0.00000

 Dipole moment (field-independent basis, Debye):
    X=              2.8832    Y=             -4.2239    Z=              0.6614  Tot=              5.1567

 Test job not archived.
 1\1\GINC-SE219\SP\RHF\Aug-CC-pVDZ\C4H6O3\OHZDE\09-Apr-2025\0\\#t hf au
 g-cc-pvdz iop(5/13=1,5/36=2,99/5=2) pseudo=read geom=check guess=(read
 ,tcheck) scf=(maxcycle=1)\\title\\0,1\O,0,1.5149715,-0.69230633,-1.431
 5329\C,0,-0.04583752,0.29180611,0.25845966\C,0,-0.76289009,-0.65356621
 ,-0.6100257\O,0,-2.03387272,-0.09359763,-0.23862039\C,0,-1.38730092,0.
 84571328,0.62355172\C,0,1.21724754,0.29818465,0.87545744\O,0,2.3072661
 7,0.07781462,0.36195382\H,0,2.41982467,-0.87315419,-1.70921808\H,0,-0.
 66928696,-1.7185137,-0.38548298\H,0,-0.46631927,-0.52562518,-1.6752499

 Normal termination of Gaussian 16 at Wed Apr  9 16:32:11 2025.
