 Gaussian 16, Revision C.01,

 ----------------------------------------------------------------------
 #t hf aug-cc-pvdz symm=none int=(grid=ultrafine) guess=(read,tcheck) s
 table=(opt,rrhf)
 ----------------------------------------------------------------------
 -----
 title
 -----
 Symbolic Z-matrix:
 Charge =  0 Multiplicity = 1

 SCF Done:  E(RHF) =  -245.655641055     A.U. after   16 cycles
 Normal termination of Gaussian 16 at Wed Apr  9 03:20:50 2025.
 Gaussian 16:  ES64L-G16RevC.01  3-Jul-2019

 ----------------------------------------------------------------------
 #t hf aug-cc-pvdz iop(5/13=1,5/36=2,99/5=2) pseudo=read geom=check gue
 ss=(read,tcheck) scf=(maxcycle=1)
 ----------------------------------------------------------------------
 -----
 title
 -----
 Structure from the checkpoint file:  "Grambow2020_wb97xd3_006110_reverse_mol1.chk"
 Charge =  0 Multiplicity = 1

                         Standard orientation:
 ---------------------------------------------------------------------
 Center     Atomic      Atomic             Coordinates (Angstroms)
 Number     Number       Type             X           Y           Z
 ---------------------------------------------------------------------
      1          6           0       -1.540168   -0.874748   -0.000008
      2          6           0        2.014668   -0.471715    0.000083
      3          7           0        0.960561    0.225973   -0.000118
      4          6           0       -0.083635    0.958255   -0.000068
      5          8           0       -1.323372    0.378850   -0.000088
      6          1           0       -2.577875   -1.170111    0.000613
      7          1           0       -0.706096   -1.564253    0.000294
      8          1           0        1.978004   -1.566125   -0.000655
      9          1           0        3.010199   -0.017621    0.000647
     10          1           0       -0.186371    2.034748    0.000591
 ---------------------------------------------------------------------

 SCF Done:  E(RHF) =  -245.736595275     A.U. after    2 cycles

 The electronic state is 1-A.
 Alpha  occ. eigenvalues --  -20.70897 -15.62006 -11.35030 -11.30856 -11.27048
 Alpha  occ. eigenvalues --   -1.47312  -1.19386  -1.03548  -0.93036  -0.80039
 Alpha  occ. eigenvalues --   -0.76789  -0.70499  -0.67305  -0.64615  -0.60184
 Alpha  occ. eigenvalues --   -0.57628  -0.48558  -0.35786  -0.24135
 Alpha virt. eigenvalues --    0.02603   0.03092   0.04530   0.04594   0.06336
 Alpha virt. eigenvalues --    0.07956   0.08178   0.10749   0.12175   0.13852
 Alpha virt. eigenvalues --    0.14207   0.14947   0.15663   0.15962   0.17178

 Mulliken charges:
               1
     1  C    0.716786
     2  C    0.534075
     3  N   -0.088983
     4  C    0.541951
     5  O   -0.207124
     6  H   -0.280927
     7  H   -0.173801
     8  H   -0.313548
     9  H   -0.310014
    10  H   -0.418413
 Sum of Mulliken charges =   0.00000

 Dipole moment (field-independent basis, Debye):
    X=             -1.8458    Y=             -1.4643    Z=              0.0014  Tot=              2.3561

 Test job not archived.
 1\1\GINC-SE041\SP\RHF\Aug-CC-pVDZ\C3H5N1O1\OHZDE\09-Apr-2025\0\\#t hf
 aug-cc-pvdz iop(5/13=1,5/36=2,99/5=2) pseudo=read geom=check guess=(re
 ad,tcheck) scf=(maxcycle=1)\\title\\0,1\C,0,-0.49160289,-1.72894545,-0
 .29574027\C,0,-0.44362814,1.81627507,0.18217656\N,0,0.34825034,0.83128
 142,0.15715915\C,0,1.17331189,-0.14108074,0.13800106\O,0,0.72367941,-1
 .41305818,-0.09125944\H,0,-0.68082703,-2.77817513,-0.46122713\H,0,-1.2
 5375657,-0.96069002,-0.29568556\H,0,-1.51970283,1.69118099,0.02250823\
 H,0,-0.09352023,2.83686092,0.36414441\H,0,2.24541105,-0.15519086,0.278

 Normal termination of Gaussian 16 at Wed Apr  9 03:20:54 2025.
