 Gaussian 16, Revision C.01,

 ----------------------------------------------------------------------
 #t hf aug-cc-pvdz symm=none int=(grid=ultrafine) guess=(read,tcheck) s
 table=(opt,rrhf)
 ----------------------------------------------------------------------
 -----
 title
 -----
 Symbolic Z-matrix:
 Charge =  0 Multiplicity = 1

 SCF Done:  E(RHF) =  -284.762016495     A.U. after   15 cycles
 Normal termination of Gaussian 16 at Wed Apr  9 14:25:19 2025.
 Gaussian 16:  ES64L-G16RevC.01  3-Jul-2019

 ----------------------------------------------------------------------
 #t hf aug-cc-pvdz iop(5/13=1,5/36=2,99/5=2) pseudo=read geom=check gue
 ss=(read,tcheck) scf=(maxcycle=1)
 ----------------------------------------------------------------------
 -----
 title
 -----
 Structure from the checkpoint file:  "Grambow2020_wb97xd3_006246_reverse_mol2.chk"
 Charge =  0 Multiplicity = 1

                         Standard orientation:
 ---------------------------------------------------------------------
 Center     Atomic      Atomic             Coordinates (Angstroms)
 Number     Number       Type             X           Y           Z
 ---------------------------------------------------------------------
      1          8           0        1.807969   -0.937988   -0.013277
      2          6           0        1.314398    0.162598   -0.125410
      3          7           0        0.005650    0.440442    0.076775
      4          6           0       -0.882440   -0.629157    0.494537
      5          6           0       -1.795657   -1.287760   -0.391353
      6          6           0       -0.537880    1.771633   -0.045295
      7          1           0        1.902227    1.051587   -0.411623
      8          1           0       -0.265266   -1.576844    0.521754
      9          1           0       -1.223468   -0.493328    1.524772
     10          1           0       -1.480122   -1.046996   -1.424988
     11          1           0       -0.978455    2.103050    0.898990
     12          1           0        0.258878    2.464723   -0.314670
     13          1           0       -1.307616    1.814730   -0.820325
 ---------------------------------------------------------------------

 SCF Done:  E(RHF) =  -284.850662463     A.U. after    2 cycles

 The electronic state is 1-A.
 Alpha  occ. eigenvalues --  -20.54981 -15.66952 -11.37289 -11.29920 -11.29639
 Alpha  occ. eigenvalues --  -11.28306  -1.36422  -1.24147  -1.05622  -0.97008
 Alpha  occ. eigenvalues --   -0.85706  -0.76965  -0.72593  -0.68766  -0.65282
 Alpha  occ. eigenvalues --   -0.61403  -0.58805  -0.57906  -0.56334  -0.53380
 Alpha  occ. eigenvalues --   -0.46097  -0.40564  -0.36968
 Alpha virt. eigenvalues --    0.02461   0.03910   0.04220   0.05146   0.06291
 Alpha virt. eigenvalues --    0.07187   0.07745   0.08273   0.09588   0.09858
 Alpha virt. eigenvalues --    0.12104   0.13676   0.13739   0.14902   0.15029

 Mulliken charges:
               1
     1  O   -0.483085
     2  C    0.601397
     3  N   -0.157970
     4  C    0.521510
     5  C   -0.247433
     6  C    0.694055
     7  H   -0.261125
     8  H    0.081187
     9  H   -0.165002
    10  H   -0.099253
    11  H   -0.112751
    12  H   -0.246757
    13  H   -0.124773
 Sum of Mulliken charges =   0.00000

 Dipole moment (field-independent basis, Debye):
    X=             -0.8518    Y=              4.8109    Z=             -0.0931  Tot=              4.8866

 Test job not archived.
 1\1\GINC-SE232\SP\RHF\Aug-CC-pVDZ\C4H7N1O1\OHZDE\09-Apr-2025\0\\#t hf
 aug-cc-pvdz iop(5/13=1,5/36=2,99/5=2) pseudo=read geom=check guess=(re
 ad,tcheck) scf=(maxcycle=1)\\title\\0,1\O,0,1.95352839,1.4056654,-0.32
 98687\C,0,1.56225221,0.26013846,-0.37621584\N,0,0.26281172,-0.11001873
 ,-0.30317727\C,0,-0.75540396,0.9194782,-0.2000111\C,0,-1.42188336,1.25
 01625,1.02431564\C,0,-0.16279374,-1.48642263,-0.38544907\H,0,2.2474590
 8,-0.59852458,-0.48086974\H,0,-0.21490444,1.91168845,-0.14402253\H,0,-
 1.35821134,0.98561184,-1.11016634\H,0,-0.82475518,0.81626673,1.8496057

 Normal termination of Gaussian 16 at Wed Apr  9 14:25:23 2025.
