 Gaussian 16, Revision C.01,

 ----------------------------------------------------------------------
 #t hf aug-cc-pvdz symm=none int=(grid=ultrafine) guess=(read,tcheck) s
 table=(opt,rrhf)
 ----------------------------------------------------------------------
 -----
 title
 -----
 Symbolic Z-matrix:
 Charge =  0 Multiplicity = 1

 SCF Done:  E(RHF) =  -186.889909507     A.U. after   14 cycles
 Normal termination of Gaussian 16 at Wed Apr  9 03:06:34 2025.
 Gaussian 16:  ES64L-G16RevC.01  3-Jul-2019

 ----------------------------------------------------------------------
 #t hf aug-cc-pvdz iop(5/13=1,5/36=2,99/5=2) pseudo=read geom=check gue
 ss=(read,tcheck) scf=(maxcycle=1)
 ----------------------------------------------------------------------
 -----
 title
 -----
 Structure from the checkpoint file:  "Grambow2020_b97d3_006607_reverse_mol1.chk"
 Charge =  0 Multiplicity = 1

                         Standard orientation:
 ---------------------------------------------------------------------
 Center     Atomic      Atomic             Coordinates (Angstroms)
 Number     Number       Type             X           Y           Z
 ---------------------------------------------------------------------
      1          7           0       -1.481619   -0.266926   -0.168902
      2          6           0       -0.499593    0.502355    0.380092
      3          6           0        1.296986    0.330567   -0.572001
      4          7           0        1.370982   -0.520077    0.269425
      5          1           0       -1.661432   -0.136690   -1.161446
      6          1           0       -1.484508   -1.248397    0.097200
      7          1           0       -0.343817    0.353046    1.442414
      8          1           0       -0.520140    1.543532    0.069628
 ---------------------------------------------------------------------

 SCF Done:  E(RHF) =  -186.944693782     A.U. after    2 cycles

 The electronic state is 1-A.
 Alpha  occ. eigenvalues --  -15.68171 -15.62960 -11.38547 -11.24077  -1.23858
 Alpha  occ. eigenvalues --   -1.16205  -0.93116  -0.76130  -0.69070  -0.62516
 Alpha  occ. eigenvalues --   -0.57304  -0.56147  -0.44414  -0.43031  -0.41023
 Alpha virt. eigenvalues --    0.02745   0.03747   0.03990   0.07417   0.08747
 Alpha virt. eigenvalues --    0.09933   0.11169   0.12143   0.12829   0.13387
 Alpha virt. eigenvalues --    0.16017   0.16422   0.17624   0.19351   0.20480

 Mulliken charges:
               1
     1  N   -0.243102
     2  C    0.703198
     3  C   -0.063441
     4  N   -0.388550
     5  H    0.047145
     6  H    0.067522
     7  H   -0.086001
     8  H   -0.036771
 Sum of Mulliken charges =  -0.00000

 Dipole moment (field-independent basis, Debye):
    X=             -4.5702    Y=              0.2944    Z=              0.5087  Tot=              4.6078

 Test job not archived.
 1\1\GINC-SE073\SP\RHF\Aug-CC-pVDZ\C2H4N2\OHZDE\09-Apr-2025\0\\#t hf au
 g-cc-pvdz iop(5/13=1,5/36=2,99/5=2) pseudo=read geom=check guess=(read
 ,tcheck) scf=(maxcycle=1)\\title\\0,1\N,0,-1.01978723,-0.4896858,0.080
 46618\C,0,-0.12193851,0.53535455,0.05357425\C,0,1.66406909,0.03104827,
 -0.7946821\N,0,1.85086321,-0.21905648,0.36273931\H,0,-1.23215496,-0.93
 31429,-0.80986054\H,0,-0.90533429,-1.1670974,0.83021179\H,0,0.07006392
 ,0.99853755,1.0146591\H,0,-0.26734122,1.2367032,-0.763633\\Version=ES6
 4L-G16RevC.01\State=1-A\HF=-186.9446938\RMSD=1.758e-03\Dipole=-1.79535

 Normal termination of Gaussian 16 at Wed Apr  9 03:06:36 2025.
