 Gaussian 16, Revision C.01,

 ----------------------------------------------------------------------
 #t hf aug-cc-pvdz symm=none int=(grid=ultrafine) guess=(read,tcheck) s
 table=(opt,rrhf)
 ----------------------------------------------------------------------
 -----
 title
 -----
 Symbolic Z-matrix:
 Charge =  0 Multiplicity = 1

 SCF Done:  E(RHF) =  -321.494944783     A.U. after   14 cycles
 Normal termination of Gaussian 16 at Wed Apr  9 16:22:47 2025.
 Gaussian 16:  ES64L-G16RevC.01  3-Jul-2019

 ----------------------------------------------------------------------
 #t hf aug-cc-pvdz iop(5/13=1,5/36=2,99/5=2) pseudo=read geom=check gue
 ss=(read,tcheck) scf=(maxcycle=1)
 ----------------------------------------------------------------------
 -----
 title
 -----
 Structure from the checkpoint file:  "Grambow2020_wb97xd3_008183_reverse_mol2.chk"
 Charge =  0 Multiplicity = 1

                         Standard orientation:
 ---------------------------------------------------------------------
 Center     Atomic      Atomic             Coordinates (Angstroms)
 Number     Number       Type             X           Y           Z
 ---------------------------------------------------------------------
      1          8           0        3.170153    0.065417   -0.219743
      2          6           0        1.946223   -0.632802   -0.165354
      3          6           0        0.924249    0.098211    0.668360
      4          6           0       -0.257208    0.420137    0.240828
      5          6           0       -1.434790    0.752249   -0.214735
      6          6           0       -3.499451   -0.731189   -0.026770
      7          7           0       -2.540418   -0.071758   -0.098707
      8          1           0        3.029538    0.896632   -0.677717
      9          1           0        1.540988   -0.831129   -1.162841
     10          1           0        2.170841   -1.592849    0.303230
     11          1           0        1.219616    0.366416    1.679683
     12          1           0       -1.613426    1.700265   -0.707439
 ---------------------------------------------------------------------

 SCF Done:  E(RHF) =  -321.596123733     A.U. after    2 cycles

 The electronic state is 1-A.
 Alpha  occ. eigenvalues --  -20.59313 -15.67623 -11.33260 -11.31743 -11.29845
 Alpha  occ. eigenvalues --  -11.29586 -11.28445  -1.34791  -1.25810  -1.11535
 Alpha  occ. eigenvalues --   -1.04015  -0.92785  -0.83189  -0.73495  -0.72632
 Alpha  occ. eigenvalues --   -0.69753  -0.64296  -0.62450  -0.56685  -0.53825
 Alpha  occ. eigenvalues --   -0.49899  -0.49604  -0.48454  -0.41561  -0.38358
 Alpha virt. eigenvalues --    0.02628   0.03784   0.04395   0.05032   0.06491
 Alpha virt. eigenvalues --    0.08403   0.08439   0.09447   0.09810   0.10824
 Alpha virt. eigenvalues --    0.11298   0.12160   0.12540   0.13243   0.14111

 Mulliken charges:
               1
     1  O   -0.526277
     2  C    0.725101
     3  C    0.565565
     4  C   -0.689555
     5  C    1.233484
     6  C   -0.289857
     7  N   -0.422360
     8  H    0.154571
     9  H   -0.178896
    10  H   -0.082068
    11  H   -0.310952
    12  H   -0.178757
 Sum of Mulliken charges =   0.00000

 Dipole moment (field-independent basis, Debye):
    X=              2.0075    Y=              2.1312    Z=             -0.6811  Tot=              3.0060

 Test job not archived.
 1\1\GINC-SE041\SP\RHF\Aug-CC-pVDZ\C5H5N1O1\OHZDE\09-Apr-2025\0\\#t hf
 aug-cc-pvdz iop(5/13=1,5/36=2,99/5=2) pseudo=read geom=check guess=(re
 ad,tcheck) scf=(maxcycle=1)\\title\\0,1\O,0,-2.72350286,-0.05123949,-0
 .42386225\C,0,-1.55199208,-0.6855701,0.03837154\C,0,-0.34137623,-0.269
 07322,-0.75839127\C,0,0.73670912,0.21971873,-0.22822562\C,0,1.80555993
 ,0.72789604,0.3229984\C,0,3.78713461,-0.66184119,1.1234589\N,0,2.86849
 734,-0.0494534,0.74815359\H,0,-2.64249767,0.89246492,-0.2712428\H,0,-1
 .37823623,-0.50300977,1.10373996\H,0,-1.71908927,-1.75590959,-0.096409

 Normal termination of Gaussian 16 at Wed Apr  9 16:22:51 2025.
