 Gaussian 16, Revision C.01,

 ----------------------------------------------------------------------
 #t hf aug-cc-pvdz symm=none int=(grid=ultrafine) guess=(read,tcheck) s
 table=(opt,rrhf)
 ----------------------------------------------------------------------
 -----
 title
 -----
 Symbolic Z-matrix:
 Charge =  0 Multiplicity = 1

 SCF Done:  E(RHF) =  -286.807636947     A.U. after   16 cycles
 Normal termination of Gaussian 16 at Wed Apr  9 16:34:15 2025.
 Gaussian 16:  ES64L-G16RevC.01  3-Jul-2019

 ----------------------------------------------------------------------
 #t hf aug-cc-pvdz iop(5/13=1,5/36=2,99/5=2) pseudo=read geom=check gue
 ss=(read,tcheck) scf=(maxcycle=1)
 ----------------------------------------------------------------------
 -----
 title
 -----
 Structure from the checkpoint file:  "Grambow2020_wb97xd3_008583_reverse_mol1.chk"
 Charge =  0 Multiplicity = 1

                         Standard orientation:
 ---------------------------------------------------------------------
 Center     Atomic      Atomic             Coordinates (Angstroms)
 Number     Number       Type             X           Y           Z
 ---------------------------------------------------------------------
      1          6           0       -2.523734   -0.544896   -0.131361
      2          6           0       -1.090116   -0.187149    0.127594
      3          6           0        0.058361   -1.059222    0.007669
      4          6           0        1.156271   -0.120636   -0.014283
      5          6           0        2.600187   -0.515109   -0.047730
      6          6           0        0.674561    1.158998   -0.041927
      7          7           0       -0.679434    1.148741    0.027470
      8          1           0       -2.755333   -0.411157   -1.189059
      9          1           0       -2.677892   -1.593466    0.116144
     10          1           0       -3.215041    0.063668    0.455786
     11          1           0       -0.724426   -0.665973    1.170201
     12          1           0        3.255054    0.345737   -0.198634
     13          1           0        2.784039   -1.228709   -0.852289
     14          1           0        2.891700   -1.002948    0.884957
     15          1           0        1.211003    2.099113   -0.072101
     16          1           0       -1.266241    1.960627    0.092937
 ---------------------------------------------------------------------

 SCF Done:  E(RHF) =  -286.893248620     A.U. after    2 cycles

 The electronic state is 1-A.
 Alpha  occ. eigenvalues --  -15.66662 -11.29251 -11.29047 -11.24361 -11.21829
 Alpha  occ. eigenvalues --  -11.21672 -11.21622  -1.27483  -1.05667  -1.04788
 Alpha  occ. eigenvalues --   -0.94854  -0.90728  -0.76480  -0.75461  -0.71530
 Alpha  occ. eigenvalues --   -0.63895  -0.60134  -0.57848  -0.56470  -0.54832
 Alpha  occ. eigenvalues --   -0.53775  -0.52772  -0.49328  -0.40876  -0.33465
 Alpha  occ. eigenvalues --   -0.32339
 Alpha virt. eigenvalues --    0.02475   0.03573   0.04553   0.04819   0.06059
 Alpha virt. eigenvalues --    0.06596   0.07349   0.07781   0.08527   0.09807
 Alpha virt. eigenvalues --    0.11742   0.12412   0.13016   0.13381   0.13632

 Mulliken charges:
               1
     1  C    0.726123
     2  C    0.230456
     3  C   -1.479452
     4  C   -0.167228
     5  C    0.635251
     6  C    0.794377
     7  N   -0.540932
     8  H    0.054346
     9  H   -0.023821
    10  H   -0.022887
    11  H    0.296754
    12  H   -0.109531
    13  H    0.029881
    14  H    0.066523
    15  H   -0.356398
    16  H   -0.133463
 Sum of Mulliken charges =  -0.00000

 Dipole moment (field-independent basis, Debye):
    X=             -1.7058    Y=              4.2356    Z=              0.4663  Tot=              4.5899

 Test job not archived.
 1\1\GINC-SE026\SP\RHF\Aug-CC-pVDZ\C6H9N1\OHZDE\09-Apr-2025\0\\#t hf au
 g-cc-pvdz iop(5/13=1,5/36=2,99/5=2) pseudo=read geom=check guess=(read
 ,tcheck) scf=(maxcycle=1)\\title\\0,1\C,0,2.50081718,-0.53263598,0.191
 90399\C,0,1.07652211,-0.15283605,-0.0863717\C,0,-0.08024836,-1.0206139
 1,-0.03405374\C,0,-1.17224398,-0.07560442,0.00247043\C,0,-2.61907636,-
 0.46017672,-0.01760612\C,0,-0.68308217,1.19783393,0.09914751\N,0,0.672
 13528,1.18036945,0.06302743\H,0,2.70659257,-0.4478052,1.25994396\H,0,2
 .65434086,-1.57031217,-0.09823731\H,0,3.21061612,0.09614552,-0.3501444

 Normal termination of Gaussian 16 at Wed Apr  9 16:34:21 2025.
