 Gaussian 16, Revision C.01,

 ----------------------------------------------------------------------
 #t hf aug-cc-pvdz symm=none int=(grid=ultrafine) guess=(read,tcheck) s
 table=(opt,rrhf)
 ----------------------------------------------------------------------
 -----
 title
 -----
 Symbolic Z-matrix:
 Charge =  0 Multiplicity = 1

 SCF Done:  E(RHF) =  -353.382271930     A.U. after   18 cycles
 Normal termination of Gaussian 16 at Wed Apr  9 03:46:15 2025.
 Gaussian 16:  ES64L-G16RevC.01  3-Jul-2019

 ----------------------------------------------------------------------
 #t hf aug-cc-pvdz iop(5/13=1,5/36=2,99/5=2) pseudo=read geom=check gue
 ss=(read,tcheck) scf=(maxcycle=1)
 ----------------------------------------------------------------------
 -----
 title
 -----
 Structure from the checkpoint file:  "Grambow2020_wb97xd3_007950_forward_mol1.chk"
 Charge =  0 Multiplicity = 1

                         Standard orientation:
 ---------------------------------------------------------------------
 Center     Atomic      Atomic             Coordinates (Angstroms)
 Number     Number       Type             X           Y           Z
 ---------------------------------------------------------------------
      1          8           0       -2.368854   -0.052515   -0.001904
      2          6           0       -1.093444   -0.406918    0.000463
      3          6           0       -0.333043   -1.391671    0.003065
      4          7           0        1.703725   -1.033805   -0.001304
      5          7           0        2.100118    0.015811   -0.002087
      6          6           0        0.768713    1.515062    0.001737
      7          7           0       -0.366030    1.206629    0.000894
      8          1           0       -2.400066    0.914288   -0.004523
      9          1           0       -0.222937   -2.450826    0.003275
     10          1           0        1.455794    2.337372    0.002370
 ---------------------------------------------------------------------

 SCF Done:  E(RHF) =  -353.490404004     A.U. after    2 cycles

 The electronic state is 1-A.
 Alpha  occ. eigenvalues --  -20.61638 -15.74585 -15.72658 -15.68922 -11.34519
 Alpha  occ. eigenvalues --  -11.34337 -11.22662  -1.39484  -1.38974  -1.23804
 Alpha  occ. eigenvalues --   -1.02459  -0.85066  -0.80937  -0.76854  -0.73184
 Alpha  occ. eigenvalues --   -0.67852  -0.64676  -0.62172  -0.60044  -0.58618
 Alpha  occ. eigenvalues --   -0.57520  -0.51587  -0.47431  -0.36746  -0.30279
 Alpha virt. eigenvalues --    0.02641   0.04231   0.05012   0.07118   0.08515
 Alpha virt. eigenvalues --    0.08957   0.11219   0.11534   0.12179   0.12713
 Alpha virt. eigenvalues --    0.13302   0.14691   0.15029   0.15127   0.16279

 Mulliken charges:
               1
     1  O   -0.417137
     2  C    0.215820
     3  C    0.871411
     4  N   -0.164757
     5  N   -0.238264
     6  C    0.099452
     7  N   -0.120603
     8  H    0.190620
     9  H   -0.334080
    10  H   -0.102463
 Sum of Mulliken charges =  -0.00000

 Dipole moment (field-independent basis, Debye):
    X=              1.5199    Y=              2.8714    Z=             -0.0021  Tot=              3.2488

 Test job not archived.
 1\1\GINC-SE453\SP\RHF\Aug-CC-pVDZ\C3H3N3O1\OHZDE\09-Apr-2025\0\\#t hf
 aug-cc-pvdz iop(5/13=1,5/36=2,99/5=2) pseudo=read geom=check guess=(re
 ad,tcheck) scf=(maxcycle=1)\\title\\0,1\O,0,2.24906134,-0.50189362,0.1
 2196894\C,0,1.11493771,0.17431384,0.02823137\C,0,0.64467287,1.32142532
 ,-0.07636044\N,0,-1.41213964,1.51218058,-0.17458202\N,0,-2.07336879,0.
 60683666,-0.1304175\C,0,-1.19038516,-1.18465191,0.0465513\N,0,-0.01531
 185,-1.18629833,0.09097379\H,0,2.02179585,-1.44011099,0.18351547\H,0,0
 .8206336,2.36900774,-0.15079455\H,0,-2.07111792,-1.7948833,0.06077265\

 Normal termination of Gaussian 16 at Wed Apr  9 03:46:18 2025.
