 Gaussian 16, Revision C.01,

 ----------------------------------------------------------------------
 #t hf aug-cc-pvdz symm=none int=(grid=ultrafine) guess=(read,tcheck) s
 table=(opt,rrhf)
 ----------------------------------------------------------------------
 -----
 title
 -----
 Symbolic Z-matrix:
 Charge =  0 Multiplicity = 1

 SCF Done:  E(RHF) =  -323.897330312     A.U. after   15 cycles
 Normal termination of Gaussian 16 at Wed Apr  9 15:39:06 2025.
 Gaussian 16:  ES64L-G16RevC.01  3-Jul-2019

 ----------------------------------------------------------------------
 #t hf aug-cc-pvdz iop(5/13=1,5/36=2,99/5=2) pseudo=read geom=check gue
 ss=(read,tcheck) scf=(maxcycle=1)
 ----------------------------------------------------------------------
 -----
 title
 -----
 Structure from the checkpoint file:  "Grambow2020_wb97xd3_007251_reverse_mol2.chk"
 Charge =  0 Multiplicity = 1

                         Standard orientation:
 ---------------------------------------------------------------------
 Center     Atomic      Atomic             Coordinates (Angstroms)
 Number     Number       Type             X           Y           Z
 ---------------------------------------------------------------------
      1          6           0        0.928377    1.510976    0.332581
      2          6           0        0.880385    0.021644    0.089197
      3          6           0        2.104743   -0.562124   -0.568340
      4          6           0        0.073402   -0.822693    1.023763
      5          8           0       -2.572140    0.024568    0.004731
      6          6           0       -1.537864    0.124959   -0.601690
      7          7           0       -0.384646   -0.567697   -0.316228
      8          1           0        1.055632    2.056400   -0.605378
      9          1           0        1.774780    1.757756    0.975994
     10          1           0        0.017899    1.868168    0.816791
     11          1           0        2.986320   -0.403903    0.056456
     12          1           0        1.980685   -1.631742   -0.735346
     13          1           0        2.284530   -0.084524   -1.534130
     14          1           0        0.385214   -1.840298    1.230639
     15          1           0       -0.471090   -0.331618    1.823768
     16          1           0       -1.438588    0.750527   -1.506102
 ---------------------------------------------------------------------

 SCF Done:  E(RHF) =  -323.998560838     A.U. after    2 cycles

 The electronic state is 1-A.
 Alpha  occ. eigenvalues --  -20.55568 -15.64611 -11.36449 -11.30306 -11.27970
 Alpha  occ. eigenvalues --  -11.24878 -11.24171  -1.36394  -1.27464  -1.04398
 Alpha  occ. eigenvalues --   -0.97034  -0.95401  -0.81220  -0.76480  -0.69884
 Alpha  occ. eigenvalues --   -0.66936  -0.66331  -0.61973  -0.59424  -0.56678
 Alpha  occ. eigenvalues --   -0.55683  -0.54677  -0.51719  -0.49442  -0.48396
 Alpha  occ. eigenvalues --   -0.43782  -0.39362
 Alpha virt. eigenvalues --    0.02888   0.03899   0.04070   0.04996   0.06529
 Alpha virt. eigenvalues --    0.06804   0.06908   0.07348   0.09158   0.09686
 Alpha virt. eigenvalues --    0.11668   0.12223   0.13311   0.13905   0.14211

 Mulliken charges:
               1
     1  C    0.475380
     2  C   -0.935122
     3  C    0.522197
     4  C    1.141628
     5  O   -0.481916
     6  C    0.695842
     7  N   -0.695701
     8  H    0.058466
     9  H    0.029197
    10  H   -0.072450
    11  H    0.042041
    12  H   -0.051970
    13  H    0.032879
    14  H   -0.290302
    15  H   -0.281046
    16  H   -0.189122
 Sum of Mulliken charges =  -0.00000

 Dipole moment (field-independent basis, Debye):
    X=              4.2699    Y=              0.9761    Z=             -0.2009  Tot=              4.3847

 Test job not archived.
 1\1\GINC-SE114\SP\RHF\Aug-CC-pVDZ\C5H9N1O1\OHZDE\09-Apr-2025\0\\#t hf
 aug-cc-pvdz iop(5/13=1,5/36=2,99/5=2) pseudo=read geom=check guess=(re
 ad,tcheck) scf=(maxcycle=1)\\title\\0,1\C,0,0.77678833,1.14105943,0.55
 651453\C,0,0.34259845,-0.1925523,-0.00259997\C,0,1.3495943,-0.87510412
 ,-0.8926969\C,0,-0.61090522,-1.01992506,0.79978783\O,0,-2.99687269,0.6
 4622218,0.26473314\C,0,-1.99804126,0.64088557,-0.40598212\N,0,-1.04673
 075,-0.35214841,-0.39793395\H,0,0.99751676,1.84829609,-0.24631997\H,0,
 1.68502128,1.02017856,1.14962427\H,0,0.00825557,1.57730652,1.1968756\H

 Normal termination of Gaussian 16 at Wed Apr  9 15:39:12 2025.
