 Gaussian 16, Revision C.01,

 ----------------------------------------------------------------------
 #t hf aug-cc-pvdz symm=none int=(grid=ultrafine) guess=(read,tcheck) s
 table=(opt,rrhf)
 ----------------------------------------------------------------------
 -----
 title
 -----
 Symbolic Z-matrix:
 Charge =  0 Multiplicity = 1

 SCF Done:  E(RHF) =  -353.499790856     A.U. after   15 cycles
 Normal termination of Gaussian 16 at Wed Apr  9 14:26:14 2025.
 Gaussian 16:  ES64L-G16RevC.01  3-Jul-2019

 ----------------------------------------------------------------------
 #t hf aug-cc-pvdz iop(5/13=1,5/36=2,99/5=2) pseudo=read geom=check gue
 ss=(read,tcheck) scf=(maxcycle=1)
 ----------------------------------------------------------------------
 -----
 title
 -----
 Structure from the checkpoint file:  "Grambow2020_wb97xd3_006537_reverse_mol2.chk"
 Charge =  0 Multiplicity = 1

                         Standard orientation:
 ---------------------------------------------------------------------
 Center     Atomic      Atomic             Coordinates (Angstroms)
 Number     Number       Type             X           Y           Z
 ---------------------------------------------------------------------
      1          8           0        2.211379   -0.006851   -0.008545
      2          6           0        1.010564    0.055447    0.001446
      3          7           0        0.242343   -1.085529    0.013246
      4          7           0       -1.135973   -1.037923   -0.002799
      5          6           0       -1.869719    0.028364   -0.008404
      6          6           0       -0.991414    1.223225    0.000942
      7          7           0        0.290014    1.261876    0.005425
      8          1           0        0.690355   -1.986530   -0.005587
      9          1           0       -1.557375   -1.956907   -0.004148
     10          1           0       -1.495289    2.187068    0.003086
 ---------------------------------------------------------------------

 SCF Done:  E(RHF) =  -353.604535661     A.U. after    2 cycles

 The electronic state is 1-A.
 Alpha  occ. eigenvalues --  -20.55544 -15.77349 -15.72810 -15.67125 -11.41738
 Alpha  occ. eigenvalues --  -11.33702 -11.29191  -1.40807  -1.35069  -1.23472
 Alpha  occ. eigenvalues --   -1.15984  -0.96193  -0.93242  -0.81121  -0.76005
 Alpha  occ. eigenvalues --   -0.74935  -0.67843  -0.66606  -0.63272  -0.56817
 Alpha  occ. eigenvalues --   -0.50008  -0.48354  -0.46130  -0.40327  -0.38732
 Alpha virt. eigenvalues --    0.01504   0.03207   0.03830   0.04750   0.08129
 Alpha virt. eigenvalues --    0.09366   0.10135   0.11102   0.11740   0.13335
 Alpha virt. eigenvalues --    0.13576   0.13912   0.14451   0.15380   0.15420

 Mulliken charges:
               1
     1  O   -0.416011
     2  C    0.704242
     3  N   -0.002770
     4  N   -0.060987
     5  C   -0.050770
     6  C    0.478191
     7  N   -0.456426
     8  H   -0.041474
     9  H    0.032327
    10  H   -0.186323
 Sum of Mulliken charges =  -0.00000

 Dipole moment (field-independent basis, Debye):
    X=             -3.0404    Y=             -3.7509    Z=              0.0017  Tot=              4.8283

 Test job not archived.
 1\1\GINC-SE220\SP\RHF\Aug-CC-pVDZ\C3H3N3O1\OHZDE\09-Apr-2025\0\\#t hf
 aug-cc-pvdz iop(5/13=1,5/36=2,99/5=2) pseudo=read geom=check guess=(re
 ad,tcheck) scf=(maxcycle=1)\\title\\0,1\O,0,2.01972843,-1.30270135,0.4
 828644\C,0,0.96478396,-0.78838298,0.22112605\N,0,0.81049482,0.5774773,
 0.27356915\N,0,-0.39719314,1.1867203,0.00413799\C,0,-1.49699328,0.5976
 3537,-0.34053748\C,0,-1.26633012,-0.86601562,-0.40154855\N,0,-0.182762
 73,-1.50599087,-0.15683416\H,0,1.58598919,1.154857,0.55305434\H,0,-0.3
 5503624,2.19262382,0.09629486\H,0,-2.12181688,-1.47337798,-0.68815059\

 Normal termination of Gaussian 16 at Wed Apr  9 14:26:18 2025.
