 Gaussian 16, Revision C.01,

 ----------------------------------------------------------------------
 #t hf aug-cc-pvdz symm=none int=(grid=ultrafine) guess=(read,tcheck) s
 table=(opt,rrhf)
 ----------------------------------------------------------------------
 -----
 title
 -----
 Symbolic Z-matrix:
 Charge =  0 Multiplicity = 1

 SCF Done:  E(RHF) =  -306.644798632     A.U. after   13 cycles
 Normal termination of Gaussian 16 at Wed Apr  9 04:04:44 2025.
 Gaussian 16:  ES64L-G16RevC.01  3-Jul-2019

 ----------------------------------------------------------------------
 #t hf aug-cc-pvdz iop(5/13=1,5/36=2,99/5=2) pseudo=read geom=check gue
 ss=(read,tcheck) scf=(maxcycle=1)
 ----------------------------------------------------------------------
 -----
 title
 -----
 Structure from the checkpoint file:  "Grambow2020_wb97xd3_009277_reverse_mol2.chk"
 Charge =  0 Multiplicity = 1

                         Standard orientation:
 ---------------------------------------------------------------------
 Center     Atomic      Atomic             Coordinates (Angstroms)
 Number     Number       Type             X           Y           Z
 ---------------------------------------------------------------------
      1          6           0       -1.613642    1.282393   -0.418949
      2          6           0       -0.926473    0.000161   -0.040898
      3          6           0       -1.616933   -1.279629   -0.421457
      4          6           0        0.485528   -0.001365    0.233337
      5          8           0       -0.350714   -0.002403    1.309239
      6          6           0        1.742251    0.000243   -0.045143
      7          6           0        3.005008   -0.000180   -0.365122
      8          1           0       -2.622924    1.306744   -0.002306
      9          1           0       -1.693348    1.357092   -1.505104
     10          1           0       -1.055614    2.141503   -0.050368
     11          1           0        3.555495    0.925914   -0.496437
     12          1           0       -2.627958   -1.299062   -0.008766
     13          1           0       -1.692692   -1.355429   -1.507756
     14          1           0       -1.064342   -2.140596   -0.048890
     15          1           0        3.552665   -0.926678   -0.504891
 ---------------------------------------------------------------------

 SCF Done:  E(RHF) =  -306.743707438     A.U. after    2 cycles

 The electronic state is 1-A.
 Alpha  occ. eigenvalues --  -20.60335 -11.32491 -11.31462 -11.25828 -11.25527
 Alpha  occ. eigenvalues --  -11.24315 -11.24308  -1.40730  -1.05762  -1.05409
 Alpha  occ. eigenvalues --   -0.96097  -0.93553  -0.83693  -0.71659  -0.66823
 Alpha  occ. eigenvalues --   -0.66549  -0.63067  -0.61054  -0.60906  -0.56042
 Alpha  occ. eigenvalues --   -0.54501  -0.54090  -0.49256  -0.48290  -0.37643
 Alpha  occ. eigenvalues --   -0.35739
 Alpha virt. eigenvalues --    0.03322   0.04034   0.04524   0.05296   0.05847
 Alpha virt. eigenvalues --    0.06503   0.07469   0.08521   0.09644   0.09893
 Alpha virt. eigenvalues --    0.11520   0.12139   0.12949   0.14277   0.14708

 Mulliken charges:
               1
     1  C    0.434237
     2  C   -0.774686
     3  C    0.434884
     4  C    0.455372
     5  O   -0.793761
     6  C   -0.444018
     7  C    0.935056
     8  H    0.025461
     9  H    0.076097
    10  H   -0.020772
    11  H   -0.204178
    12  H    0.025219
    13  H    0.076179
    14  H   -0.020545
    15  H   -0.204546
 Sum of Mulliken charges =   0.00000

 Dipole moment (field-independent basis, Debye):
    X=             -0.7542    Y=              0.0034    Z=             -2.3485  Tot=              2.4666

 Test job not archived.
 1\1\GINC-SE461\SP\RHF\Aug-CC-pVDZ\C6H8O1\OHZDE\09-Apr-2025\0\\#t hf au
 g-cc-pvdz iop(5/13=1,5/36=2,99/5=2) pseudo=read geom=check guess=(read
 ,tcheck) scf=(maxcycle=1)\\title\\0,1\C,0,-1.06877325,0.87897048,-1.42
 498325\C,0,-0.63855216,0.49353713,-0.03732549\C,0,-1.65758923,-0.19993
 309,0.82295731\C,0,0.76128043,0.3714699,0.27011938\O,0,0.14291812,1.52
 108691,0.6611159\C,0,1.91876047,-0.19089121,0.30003699\C,0,3.07448598,
 -0.7917771,0.31335741\H,0,-1.9595924,1.50942146,-1.38247552\H,0,-1.313
 2853,-0.01494215,-2.00187264\H,0,-0.27481091,1.41886033,-1.93826815\H,

 Normal termination of Gaussian 16 at Wed Apr  9 04:04:48 2025.
