 Gaussian 16, Revision C.01,

 ----------------------------------------------------------------------
 #t hf aug-cc-pvdz symm=none int=(grid=ultrafine) guess=(read,tcheck) s
 table=(opt,rrhf)
 ----------------------------------------------------------------------
 -----
 title
 -----
 Symbolic Z-matrix:
 Charge =  0 Multiplicity = 1

 SCF Done:  E(RHF) =  -304.586919052     A.U. after   18 cycles
 Normal termination of Gaussian 16 at Wed Apr  9 03:14:53 2025.
 Gaussian 16:  ES64L-G16RevC.01  3-Jul-2019

 ----------------------------------------------------------------------
 #t hf aug-cc-pvdz iop(5/13=1,5/36=2,99/5=2) pseudo=read geom=check gue
 ss=(read,tcheck) scf=(maxcycle=1)
 ----------------------------------------------------------------------
 -----
 title
 -----
 Structure from the checkpoint file:  "Grambow2020_b97d3_007010_reverse_mol1.chk"
 Charge =  0 Multiplicity = 1

                         Standard orientation:
 ---------------------------------------------------------------------
 Center     Atomic      Atomic             Coordinates (Angstroms)
 Number     Number       Type             X           Y           Z
 ---------------------------------------------------------------------
      1          8           0       -1.735547   -1.178479    0.069180
      2          6           0       -1.872892    0.124283   -0.049980
      3          6           0       -0.753518    1.061305    0.165785
      4          6           0        0.447414    0.451302   -0.497184
      5          6           0        1.555991    0.056266    0.292548
      6          8           0        2.621758   -0.455907   -0.093952
      7          1           0       -0.756213   -1.325807    0.239127
      8          1           0       -2.866405    0.404202   -0.406698
      9          1           0       -1.054578    2.068955   -0.163290
     10          1           0       -0.545139    1.122276    1.259048
     11          1           0        0.450300    0.320356   -1.578756
     12          1           0        1.420380    0.326165    1.381729
 ---------------------------------------------------------------------

 SCF Done:  E(RHF) =  -304.680936952     A.U. after    2 cycles

 The electronic state is 1-A.
 Alpha  occ. eigenvalues --  -20.72733 -20.47359 -11.47384 -11.30348 -11.28650
 Alpha  occ. eigenvalues --  -11.19781  -1.48925  -1.25293  -1.11373  -0.98640
 Alpha  occ. eigenvalues --   -0.89955  -0.79116  -0.77157  -0.74668  -0.68301
 Alpha  occ. eigenvalues --   -0.62854  -0.62108  -0.60337  -0.54888  -0.52003
 Alpha  occ. eigenvalues --   -0.48549  -0.36853  -0.28250
 Alpha virt. eigenvalues --   -0.00807   0.01046   0.03514   0.03839   0.04911
 Alpha virt. eigenvalues --    0.06606   0.07027   0.09275   0.10262   0.11050
 Alpha virt. eigenvalues --    0.11565   0.13564   0.13796   0.14464   0.15426

 Mulliken charges:
               1
     1  O   -0.455136
     2  C    0.750355
     3  C    0.178621
     4  C    0.314373
     5  C    0.283623
     6  O   -0.635179
     7  H    0.309371
     8  H   -0.140422
     9  H   -0.036554
    10  H    0.091219
    11  H   -0.469488
    12  H   -0.190782
 Sum of Mulliken charges =  -0.00000

 Dipole moment (field-independent basis, Debye):
    X=            -10.3857    Y=              2.0915    Z=              1.3143  Tot=             10.6754

 Test job not archived.
 1\1\GINC-SE058\SP\RHF\Aug-CC-pVDZ\C4H6O2\OHZDE\09-Apr-2025\0\\#t hf au
 g-cc-pvdz iop(5/13=1,5/36=2,99/5=2) pseudo=read geom=check guess=(read
 ,tcheck) scf=(maxcycle=1)\\title\\0,1\O,0,-1.99602508,0.09153316,0.444
 01705\C,0,-1.4358097,-0.13330973,-0.72468048\C,0,0.01222248,0.03474558
 ,-0.95385993\C,0,0.70433972,-0.54892172,0.24371118\C,0,1.45994987,0.29
 597822,1.09451734\O,0,2.09357194,-0.02313581,2.11640341\H,0,-1.2342069
 2,0.29610551,1.06648482\H,0,-2.14439842,-0.53481822,-1.45225447\H,0,0.
 27447897,-0.37995618,-1.94053651\H,0,0.24438251,1.12448919,-0.98423504

 Normal termination of Gaussian 16 at Wed Apr  9 03:14:57 2025.
