 Gaussian 16, Revision C.01,

 ----------------------------------------------------------------------
 #t hf aug-cc-pvdz symm=none int=(grid=ultrafine) guess=(read,tcheck) s
 table=(opt,rrhf)
 ----------------------------------------------------------------------
 -----
 title
 -----
 Symbolic Z-matrix:
 Charge =  0 Multiplicity = 1

 SCF Done:  E(RHF) =  -307.758656346     A.U. after   15 cycles

 1\1\GINC-SE057\Stability\RHF\Aug-CC-pVDZ\C6H10O1\OHZDE\09-Apr-2025\0\\
 #t hf aug-cc-pvdz symm=none int=(grid=ultrafine) guess=(read,tcheck) s
 table=(opt,rrhf)\\title\\0,1\C,0,-2.27786797,0.09881317,0.36530589\C,0
 ,-0.79145483,-0.03548828,0.49239693\C,0,-0.1290765,-1.2338381,0.000590
 7\C,0,1.31054028,-1.17725332,0.21353733\C,0,1.94846875,0.00606789,0.21
 278142\C,0,1.24856414,1.24992309,-0.27383177\O,0,-0.11792691,0.9549535
 4,-0.65667602\H,0,-2.75029913,-0.48028997,1.16191176\H,0,-2.62836953,-
 0.28656758,-0.59223202\H,0,-2.59080899,1.13763866,0.46787155\H,0,-0.38

 Normal termination of Gaussian 16 at Wed Apr  9 16:53:27 2025.
 Gaussian 16:  ES64L-G16RevC.01  3-Jul-2019

 ----------------------------------------------------------------------
 #t hf aug-cc-pvdz iop(5/13=1,5/36=2,99/5=2) pseudo=read geom=check gue
 ss=(read,tcheck) scf=(maxcycle=1)
 ----------------------------------------------------------------------
 -----
 title
 -----
 Structure from the checkpoint file:  "Grambow2020_wb97xd3_009037_forward_mol1.chk"
 Charge =  0 Multiplicity = 1

                         Standard orientation:
 ---------------------------------------------------------------------
 Center     Atomic      Atomic             Coordinates (Angstroms)
 Number     Number       Type             X           Y           Z
 ---------------------------------------------------------------------
      1          6           0        2.397655   -0.104914    0.167708
      2          6           0        0.929590    0.117716    0.364769
      3          6           0        0.263781    1.208015   -0.331369
      4          6           0       -1.156167    1.261134   -0.012041
      5          6           0       -1.823852    0.134524    0.291521
      6          6           0       -1.197195   -1.214315    0.042985
      7          8           0        0.143201   -1.068725   -0.489007
      8          1           0        2.945418    0.612500    0.782854
      9          1           0        2.683631    0.047781   -0.873037
     10          1           0        2.689513   -1.109148    0.474210
     11          1           0        0.578890   -0.122616    1.373952
     12          1           0        0.105308   -0.121197   -1.123362
     13          1           0        0.816950    2.099726   -0.592273
     14          1           0       -1.684168    2.210459   -0.025944
     15          1           0       -2.870261    0.141192    0.569456
     16          1           0       -1.158254   -1.863016    0.923054
     17          1           0       -1.735505   -1.758839   -0.738290
 ---------------------------------------------------------------------

 SCF Done:  E(RHF) =  -307.853160405     A.U. after    2 cycles

 The electronic state is 1-A.
 Alpha  occ. eigenvalues --  -20.62035 -11.31877 -11.30262 -11.24077 -11.23732
 Alpha  occ. eigenvalues --  -11.21050 -11.18279  -1.36862  -1.07893  -1.05063
 Alpha  occ. eigenvalues --   -0.96183  -0.87446  -0.81637  -0.76974  -0.69049
 Alpha  occ. eigenvalues --   -0.65210  -0.65005  -0.61177  -0.59123  -0.57582
 Alpha  occ. eigenvalues --   -0.55678  -0.53942  -0.51246  -0.49924  -0.47372
 Alpha  occ. eigenvalues --   -0.39309  -0.26282
 Alpha virt. eigenvalues --    0.03441   0.04204   0.04560   0.04898   0.06100
 Alpha virt. eigenvalues --    0.06142   0.06421   0.07357   0.08439   0.09641
 Alpha virt. eigenvalues --    0.11076   0.12833   0.13489   0.13663   0.14340

 Mulliken charges:
               1
     1  C    0.502384
     2  C   -0.054994
     3  C    0.020925
     4  C    0.481977
     5  C    0.050473
     6  C    0.853486
     7  O   -0.777584
     8  H    0.098223
     9  H   -0.010926
    10  H    0.001386
    11  H   -0.391908
    12  H    0.754050
    13  H   -0.477346
    14  H   -0.388987
    15  H   -0.393924
    16  H   -0.105209
    17  H   -0.162024
 Sum of Mulliken charges =  -0.00000

 Dipole moment (field-independent basis, Debye):
    X=              0.6059    Y=             -0.7794    Z=              0.9584  Tot=              1.3759

 Test job not archived.
 1\1\GINC-SE057\SP\RHF\Aug-CC-pVDZ\C6H10O1\OHZDE\09-Apr-2025\0\\#t hf a
 ug-cc-pvdz iop(5/13=1,5/36=2,99/5=2) pseudo=read geom=check guess=(rea
 d,tcheck) scf=(maxcycle=1)\\title\\0,1\C,0,-2.27786797,0.09881317,0.36
 530589\C,0,-0.79145483,-0.03548828,0.49239693\C,0,-0.1290765,-1.233838
 1,0.0005907\C,0,1.31054028,-1.17725332,0.21353733\C,0,1.94846875,0.006
 06789,0.21278142\C,0,1.24856414,1.24992309,-0.27383177\O,0,-0.11792691
 ,0.95495354,-0.65667602\H,0,-2.75029913,-0.48028997,1.16191176\H,0,-2.
 62836953,-0.28656758,-0.59223202\H,0,-2.59080899,1.13763866,0.46787155

 Normal termination of Gaussian 16 at Wed Apr  9 16:53:34 2025.
