 Gaussian 16, Revision C.01,

 ----------------------------------------------------------------------
 #t hf aug-cc-pvdz symm=none int=(grid=ultrafine) guess=(read,tcheck) s
 table=(opt,rrhf)
 ----------------------------------------------------------------------
 -----
 title
 -----
 Symbolic Z-matrix:
 Charge =  0 Multiplicity = 1

 SCF Done:  E(RHF) =  -306.536537399     A.U. after   17 cycles
 Normal termination of Gaussian 16 at Wed Apr  9 04:05:24 2025.
 Gaussian 16:  ES64L-G16RevC.01  3-Jul-2019

 ----------------------------------------------------------------------
 #t hf aug-cc-pvdz iop(5/13=1,5/36=2,99/5=2) pseudo=read geom=check gue
 ss=(read,tcheck) scf=(maxcycle=1)
 ----------------------------------------------------------------------
 -----
 title
 -----
 Structure from the checkpoint file:  "Grambow2020_wb97xd3_009279_forward_mol1.chk"
 Charge =  0 Multiplicity = 1

                         Standard orientation:
 ---------------------------------------------------------------------
 Center     Atomic      Atomic             Coordinates (Angstroms)
 Number     Number       Type             X           Y           Z
 ---------------------------------------------------------------------
      1          6           0       -3.066366   -0.479997    0.087696
      2          6           0       -0.485412    0.674555    0.578558
      3          6           0       -0.412081    1.873144   -0.363426
      4          6           0        0.299913   -0.504631    0.067741
      5          8           0       -0.203367   -1.532614   -0.310987
      6          6           0        1.749891   -0.325301    0.035443
      7          6           0        2.935843   -0.157901    0.020622
      8          1           0       -2.802605   -0.533897   -0.987145
      9          1           0       -1.543674    0.373852    0.723948
     10          1           0       -2.849396   -1.512355    0.422607
     11          1           0       -0.104112    0.946547    1.567333
     12          1           0       -0.797308    1.616402   -1.351378
     13          1           0       -1.014152    2.691855    0.029097
     14          1           0        0.614632    2.224940   -0.476323
     15          1           0        3.992821   -0.025646   -0.000053
 ---------------------------------------------------------------------

 SCF Done:  E(RHF) =  -306.633135177     A.U. after    2 cycles

 The electronic state is 1-A.
 Alpha  occ. eigenvalues --  -20.58837 -11.37975 -11.28728 -11.27937 -11.26932
 Alpha  occ. eigenvalues --  -11.26433 -11.24753  -1.38385  -1.08697  -1.04824
 Alpha  occ. eigenvalues --   -0.92247  -0.88825  -0.84551  -0.74246  -0.70563
 Alpha  occ. eigenvalues --   -0.67479  -0.63076  -0.60026  -0.55899  -0.55293
 Alpha  occ. eigenvalues --   -0.52843  -0.51826  -0.46344  -0.43427  -0.43129
 Alpha  occ. eigenvalues --   -0.38114
 Alpha virt. eigenvalues --    0.02858   0.03705   0.04129   0.04806   0.06021
 Alpha virt. eigenvalues --    0.06356   0.07103   0.07454   0.08154   0.09106
 Alpha virt. eigenvalues --    0.09932   0.11013   0.11727   0.12086   0.13878

 Mulliken charges:
               1
     1  C    0.039807
     2  C    0.174971
     3  C    0.407748
     4  C   -0.018808
     5  O   -0.510419
     6  C   -0.128884
     7  C    0.973625
     8  H   -0.068745
     9  H   -0.162731
    10  H   -0.038373
    11  H    0.041089
    12  H   -0.080355
    13  H   -0.065457
    14  H   -0.079716
    15  H   -0.483751
 Sum of Mulliken charges =  -0.00000

 Dipole moment (field-independent basis, Debye):
    X=              2.4978    Y=              1.9544    Z=              0.1137  Tot=              3.1736

 Test job not archived.
 1\1\GINC-SE041\SP\RHF\Aug-CC-pVDZ\C6H8O1\OHZDE\09-Apr-2025\0\\#t hf au
 g-cc-pvdz iop(5/13=1,5/36=2,99/5=2) pseudo=read geom=check guess=(read
 ,tcheck) scf=(maxcycle=1)\\title\\0,1\C,0,-2.17425815,1.06902548,-1.72
 55092\C,0,-0.08763041,-0.43189049,-0.44938298\C,0,-0.74743057,-1.03915
 68,0.7856144\C,0,0.76560001,0.76300493,-0.11416653\O,0,0.49722092,1.89
 196692,-0.44110992\C,0,1.96478078,0.47643122,0.67035982\C,0,2.94365317
 ,0.21841324,1.3106411\H,0,-2.33470587,1.60063501,-0.76665178\H,0,-0.86
 470583,-0.13220171,-1.18274451\H,0,-1.54185548,1.79048516,-2.27738535\

 Normal termination of Gaussian 16 at Wed Apr  9 04:05:30 2025.
