 Gaussian 16, Revision C.01,

 ----------------------------------------------------------------------
 #t hf aug-cc-pvdz symm=none int=(grid=ultrafine) guess=(read,tcheck) s
 table=(opt,rrhf)
 ----------------------------------------------------------------------
 -----
 title
 -----
 Symbolic Z-matrix:
 Charge =  0 Multiplicity = 1

 SCF Done:  E(RHF) =  -322.547896515     A.U. after   16 cycles
 Normal termination of Gaussian 16 at Wed Apr  9 15:47:01 2025.
 Gaussian 16:  ES64L-G16RevC.01  3-Jul-2019

 ----------------------------------------------------------------------
 #t hf aug-cc-pvdz iop(5/13=1,5/36=2,99/5=2) pseudo=read geom=check gue
 ss=(read,tcheck) scf=(maxcycle=1)
 ----------------------------------------------------------------------
 -----
 title
 -----
 Structure from the checkpoint file:  "Grambow2020_wb97xd3_007383_forward_mol1.chk"
 Charge =  0 Multiplicity = 1

                         Standard orientation:
 ---------------------------------------------------------------------
 Center     Atomic      Atomic             Coordinates (Angstroms)
 Number     Number       Type             X           Y           Z
 ---------------------------------------------------------------------
      1          6           0       -1.855097   -0.135630    0.424079
      2          6           0       -0.935924    0.688856   -0.462796
      3          6           0        0.249033    1.354383    0.179206
      4          8           0        1.498340    0.650117   -0.065143
      5          6           0        1.465577   -0.661849    0.074447
      6          7           0        0.377250   -1.343399    0.145309
      7          6           0       -0.854505   -0.796279   -0.442764
      8          1           0       -1.675772   -0.074556    1.494396
      9          1           0       -2.898485   -0.206397    0.143596
     10          1           0       -1.352496    1.183467   -1.331341
     11          1           0        0.136398    1.406445    1.264791
     12          1           0        0.431702    2.354409   -0.205537
     13          1           0        2.442005   -1.129319    0.116881
     14          1           0       -0.125322   -2.028065   -0.611835
 ---------------------------------------------------------------------

 SCF Done:  E(RHF) =  -322.646620000     A.U. after    2 cycles

 The electronic state is 1-A.
 Alpha  occ. eigenvalues --  -20.63448 -15.65762 -11.38142 -11.31011 -11.23215
 Alpha  occ. eigenvalues --  -11.23149 -11.22792  -1.41975  -1.23331  -1.12404
 Alpha  occ. eigenvalues --   -0.98491  -0.91417  -0.81471  -0.76664  -0.74150
 Alpha  occ. eigenvalues --   -0.70241  -0.65682  -0.62038  -0.61229  -0.57462
 Alpha  occ. eigenvalues --   -0.52391  -0.50993  -0.48065  -0.43844  -0.38411
 Alpha  occ. eigenvalues --   -0.28155
 Alpha virt. eigenvalues --    0.03228   0.04038   0.04661   0.04881   0.06488
 Alpha virt. eigenvalues --    0.07143   0.07539   0.08532   0.09282   0.11365
 Alpha virt. eigenvalues --    0.12365   0.12909   0.14447   0.14725   0.14950

 Mulliken charges:
               1
     1  C    0.656742
     2  C    0.352539
     3  C    0.759325
     4  O   -0.517127
     5  C    0.625639
     6  N   -0.425135
     7  C   -0.190685
     8  H   -0.331904
     9  H   -0.321388
    10  H   -0.341300
    11  H   -0.096067
    12  H   -0.226568
    13  H   -0.275408
    14  H    0.331337
 Sum of Mulliken charges =  -0.00000

 Dipole moment (field-independent basis, Debye):
    X=              1.6850    Y=              0.8359    Z=              0.8792  Tot=              2.0763

 Test job not archived.
 1\1\GINC-SE113\SP\RHF\Aug-CC-pVDZ\C5H7N1O1\OHZDE\09-Apr-2025\0\\#t hf
 aug-cc-pvdz iop(5/13=1,5/36=2,99/5=2) pseudo=read geom=check guess=(re
 ad,tcheck) scf=(maxcycle=1)\\title\\0,1\C,0,-1.64680746,-0.22991885,0.
 24313293\C,0,-0.65910536,0.52926559,-0.62823796\C,0,0.44701793,1.28278
 413,0.05580693\O,0,1.72528316,0.59030654,0.00123573\C,0,1.70012933,-0.
 70277839,0.26412888\N,0,0.62112786,-1.40181957,0.29706711\C,0,-0.55623
 565,-0.94465058,-0.45606027\H,0,-1.57337505,-0.06254142,1.31460756\H,0
 ,-2.65672074,-0.35351944,-0.12718351\H,0,-0.99714674,0.92809174,-1.576

 Normal termination of Gaussian 16 at Wed Apr  9 15:47:06 2025.
