 Gaussian 16, Revision C.01,

 ----------------------------------------------------------------------
 #t hf aug-cc-pvdz symm=none int=(grid=ultrafine) guess=(read,tcheck) s
 table=(opt,rrhf)
 ----------------------------------------------------------------------
 -----
 title
 -----
 Symbolic Z-matrix:
 Charge =  0 Multiplicity = 1

 SCF Done:  E(RHF) =  -268.806904681     A.U. after   13 cycles
 Normal termination of Gaussian 16 at Wed Apr  9 14:21:15 2025.
 Gaussian 16:  ES64L-G16RevC.01  3-Jul-2019

 ----------------------------------------------------------------------
 #t hf aug-cc-pvdz iop(5/13=1,5/36=2,99/5=2) pseudo=read geom=check gue
 ss=(read,tcheck) scf=(maxcycle=1)
 ----------------------------------------------------------------------
 -----
 title
 -----
 Structure from the checkpoint file:  "Grambow2020_wb97xd3_006052_reverse_mol2.chk"
 Charge =  0 Multiplicity = 1

                         Standard orientation:
 ---------------------------------------------------------------------
 Center     Atomic      Atomic             Coordinates (Angstroms)
 Number     Number       Type             X           Y           Z
 ---------------------------------------------------------------------
      1          6           0       -2.435734   -0.519048   -0.126038
      2          8           0       -1.531716    0.476592   -0.527336
      3          6           0       -0.497903    0.720442    0.397695
      4          6           0        0.528819   -0.383623    0.465976
      5          6           0        1.758154   -0.225735    0.072345
      6          6           0        2.983855   -0.043937   -0.319971
      7          1           0       -2.864134   -0.295113    0.860361
      8          1           0       -3.238495   -0.541205   -0.861822
      9          1           0       -1.972668   -1.512572   -0.089385
     10          1           0       -0.016112    1.644825    0.080456
     11          1           0       -0.927203    0.882442    1.397589
     12          1           0        3.744381    0.311590    0.365284
     13          1           0        3.275307   -0.245169   -1.344123
     14          1           0        0.229513   -1.346134    0.870297
 ---------------------------------------------------------------------

 SCF Done:  E(RHF) =  -268.895302626     A.U. after    2 cycles

 The electronic state is 1-A.
 Alpha  occ. eigenvalues --  -20.57201 -11.29585 -11.28285 -11.27007 -11.24930
 Alpha  occ. eigenvalues --  -11.24833  -1.34093  -1.08466  -1.00181  -0.94212
 Alpha  occ. eigenvalues --   -0.85795  -0.72246  -0.67792  -0.67045  -0.65392
 Alpha  occ. eigenvalues --   -0.61912  -0.61287  -0.56932  -0.52836  -0.49310
 Alpha  occ. eigenvalues --   -0.45046  -0.37935  -0.37748
 Alpha virt. eigenvalues --    0.03472   0.04224   0.04832   0.05194   0.06003
 Alpha virt. eigenvalues --    0.06375   0.07441   0.08128   0.10613   0.10791
 Alpha virt. eigenvalues --    0.11762   0.12309   0.13287   0.14426   0.14952

 Mulliken charges:
               1
     1  C    0.741319
     2  O   -0.659116
     3  C    0.545139
     4  C    0.883194
     5  C   -0.749211
     6  C    0.806372
     7  H   -0.084462
     8  H   -0.243168
     9  H   -0.091604
    10  H   -0.298617
    11  H    0.000297
    12  H   -0.223133
    13  H   -0.227485
    14  H   -0.399525
 Sum of Mulliken charges =  -0.00000

 Dipole moment (field-independent basis, Debye):
    X=              0.0711    Y=             -0.7018    Z=              1.2384  Tot=              1.4252

 Test job not archived.
 1\1\GINC-SE168\SP\RHF\Aug-CC-pVDZ\C5H8O1\OHZDE\09-Apr-2025\0\\#t hf au
 g-cc-pvdz iop(5/13=1,5/36=2,99/5=2) pseudo=read geom=check guess=(read
 ,tcheck) scf=(maxcycle=1)\\title\\0,1\C,0,-2.37092124,-0.17674247,0.13
 431813\O,0,-1.35153962,-0.994741,-0.37688301\C,0,-0.39870069,-0.307356
 31,-1.15374503\C,0,0.52050688,0.57590254,-0.34585202\C,0,1.79189718,0.
 3353289,-0.21612431\C,0,3.06154504,0.0801828,-0.10566362\H,0,-2.875656
 34,0.37983816,-0.66700454\H,0,-3.09513071,-0.82948834,0.61984479\H,0,-
 1.99820679,0.53916478,0.87689816\H,0,0.1877046,-1.07104818,-1.66379376

 Normal termination of Gaussian 16 at Wed Apr  9 14:21:19 2025.
