 Gaussian 16, Revision C.01,

 ----------------------------------------------------------------------
 #t hf aug-cc-pvdz symm=none int=(grid=ultrafine) guess=(read,tcheck) s
 table=(opt,rrhf)
 ----------------------------------------------------------------------
 -----
 title
 -----
 Symbolic Z-matrix:
 Charge =  0 Multiplicity = 1

 SCF Done:  E(RHF) =  -269.858116598     A.U. after   15 cycles

 1\1\GINC-SE462\Stability\RHF\Aug-CC-pVDZ\C5H10O1\OHZDE\09-Apr-2025\0\\
 #t hf aug-cc-pvdz symm=none int=(grid=ultrafine) guess=(read,tcheck) s
 table=(opt,rrhf)\\title\\0,1\O,0,2.34801634,0.6156782,0.98261677\C,0,1
 .64701791,-0.52507439,1.06589825\C,0,0.31489347,-0.5291452,-0.71054805
 \C,0,-1.04035246,-1.03177959,-0.21325781\C,0,-1.43721232,0.43509627,0.
 08548222\C,0,-0.19446289,0.90535633,-0.70825367\H,0,1.84368883,1.38640
 717,1.27271824\H,0,1.33766359,-1.00907759,-0.02217642\H,0,0.72814765,-
 0.41149018,1.65391124\H,0,0.73065532,-0.93021186,-1.63792828\H,0,-1.02

 Normal termination of Gaussian 16 at Wed Apr  9 03:21:12 2025.
 Gaussian 16:  ES64L-G16RevC.01  3-Jul-2019

 ----------------------------------------------------------------------
 #t hf aug-cc-pvdz iop(5/13=1,5/36=2,99/5=2) pseudo=read geom=check gue
 ss=(read,tcheck) scf=(maxcycle=1)
 ----------------------------------------------------------------------
 -----
 title
 -----
 Structure from the checkpoint file:  "Grambow2020_wb97xd3_006161_reverse_mol1.chk"
 Charge =  0 Multiplicity = 1

                         Standard orientation:
 ---------------------------------------------------------------------
 Center     Atomic      Atomic             Coordinates (Angstroms)
 Number     Number       Type             X           Y           Z
 ---------------------------------------------------------------------
      1          8           0       -2.317976    0.328802   -0.050957
      2          6           0       -1.572341   -0.759226   -0.295650
      3          6           0        0.324952   -0.434484    0.811219
      4          6           0        1.438849   -0.898277   -0.127269
      5          6           0        1.517344    0.541823   -0.691554
      6          6           0        0.623020    1.020512    0.477475
      7          1           0       -2.055824    1.089492   -0.584956
      8          1           0       -0.818556   -1.073130    0.624752
      9          1           0       -0.965698   -0.657205   -1.203703
     10          1           0        0.342585   -0.739935    1.860092
     11          1           0        1.184169   -1.695954   -0.828950
     12          1           0        2.344990   -1.194931    0.404531
     13          1           0        2.510220    0.985801   -0.749731
     14          1           0        1.042154    0.644003   -1.667503
     15          1           0       -0.223712    1.673042    0.241548
     16          1           0        1.192537    1.516318    1.266257
 ---------------------------------------------------------------------

 SCF Done:  E(RHF) =  -269.942257506     A.U. after    2 cycles

 The electronic state is 1-A.
 Alpha  occ. eigenvalues --  -20.60494 -11.29564 -11.25973 -11.24330 -11.24035
 Alpha  occ. eigenvalues --  -11.23977  -1.36574  -1.13442  -0.93384  -0.91158
 Alpha  occ. eigenvalues --   -0.87155  -0.75808  -0.73729  -0.67741  -0.66200
 Alpha  occ. eigenvalues --   -0.60807  -0.59393  -0.54793  -0.52111  -0.50732
 Alpha  occ. eigenvalues --   -0.48477  -0.46006  -0.45620  -0.30548
 Alpha virt. eigenvalues --    0.03110   0.03953   0.04469   0.04829   0.06391
 Alpha virt. eigenvalues --    0.06520   0.06980   0.07371   0.09032   0.09670
 Alpha virt. eigenvalues --    0.11764   0.12643   0.13048   0.13347   0.13938

 Mulliken charges:
               1
     1  O   -0.418206
     2  C    0.267364
     3  C   -0.320219
     4  C    0.668823
     5  C    0.339789
     6  C    0.807380
     7  H    0.171128
     8  H    0.222303
     9  H   -0.123349
    10  H   -0.320867
    11  H   -0.250209
    12  H   -0.167338
    13  H   -0.218819
    14  H   -0.232555
    15  H   -0.277102
    16  H   -0.148122
 Sum of Mulliken charges =  -0.00000

 Dipole moment (field-independent basis, Debye):
    X=              2.7190    Y=              1.7728    Z=             -0.7406  Tot=              3.3293

 Test job not archived.
 1\1\GINC-SE462\SP\RHF\Aug-CC-pVDZ\C5H10O1\OHZDE\09-Apr-2025\0\\#t hf a
 ug-cc-pvdz iop(5/13=1,5/36=2,99/5=2) pseudo=read geom=check guess=(rea
 d,tcheck) scf=(maxcycle=1)\\title\\0,1\O,0,2.34801634,0.6156782,0.9826
 1677\C,0,1.64701791,-0.52507439,1.06589825\C,0,0.31489347,-0.5291452,-
 0.71054805\C,0,-1.04035246,-1.03177959,-0.21325781\C,0,-1.43721232,0.4
 3509627,0.08548222\C,0,-0.19446289,0.90535633,-0.70825367\H,0,1.843688
 83,1.38640717,1.27271824\H,0,1.33766359,-1.00907759,-0.02217642\H,0,0.
 72814765,-0.41149018,1.65391124\H,0,0.73065532,-0.93021186,-1.63792828

 Normal termination of Gaussian 16 at Wed Apr  9 03:21:16 2025.
