 Gaussian 16, Revision C.01,

 ----------------------------------------------------------------------
 #t hf aug-cc-pvdz symm=none int=(grid=ultrafine) guess=(read,tcheck) s
 table=(opt,rrhf)
 ----------------------------------------------------------------------
 -----
 title
 -----
 Symbolic Z-matrix:
 Charge =  0 Multiplicity = 1

 SCF Done:  E(RHF) =  -306.554659792     A.U. after   15 cycles
 Normal termination of Gaussian 16 at Wed Apr  9 15:04:00 2025.
 Gaussian 16:  ES64L-G16RevC.01  3-Jul-2019

 ----------------------------------------------------------------------
 #t hf aug-cc-pvdz iop(5/13=1,5/36=2,99/5=2) pseudo=read geom=check gue
 ss=(read,tcheck) scf=(maxcycle=1)
 ----------------------------------------------------------------------
 -----
 title
 -----
 Structure from the checkpoint file:  "Grambow2020_wb97xd3_006667_reverse_mol1.chk"
 Charge =  0 Multiplicity = 1

                         Standard orientation:
 ---------------------------------------------------------------------
 Center     Atomic      Atomic             Coordinates (Angstroms)
 Number     Number       Type             X           Y           Z
 ---------------------------------------------------------------------
      1          6           0        2.203738   -0.067783   -0.226735
      2          6           0        0.740905   -0.074477   -0.602853
      3          6           0       -0.201487   -0.925463    0.304952
      4          8           0       -0.172977    0.137279    1.276385
      5          6           0       -0.151824    0.994827    0.096754
      6          6           0       -1.499459    0.756317   -0.620898
      7          6           0       -1.530846   -0.622316   -0.386685
      8          1           0        2.689615   -0.993380   -0.542496
      9          1           0        2.329777    0.040276    0.850608
     10          1           0        2.719786    0.759217   -0.718522
     11          1           0        0.594073   -0.190249   -1.678132
     12          1           0        0.034007   -1.914583    0.692613
     13          1           0        0.171952    2.011759    0.299576
     14          1           0       -2.277386    0.151684    0.293859
     15          1           0       -2.244177   -1.329585   -0.795800
 ---------------------------------------------------------------------

 SCF Done:  E(RHF) =  -306.644735877     A.U. after    2 cycles

 The electronic state is 1-A.
 Alpha  occ. eigenvalues --  -20.57926 -11.31671 -11.30209 -11.28945 -11.26311
 Alpha  occ. eigenvalues --  -11.24792 -11.23417  -1.38177  -1.12177  -1.04219
 Alpha  occ. eigenvalues --   -0.95207  -0.91471  -0.76291  -0.74970  -0.70381
 Alpha  occ. eigenvalues --   -0.68594  -0.60990  -0.59820  -0.57214  -0.55560
 Alpha  occ. eigenvalues --   -0.53454  -0.50294  -0.46721  -0.45690  -0.44313
 Alpha  occ. eigenvalues --   -0.35598
 Alpha virt. eigenvalues --    0.02981   0.03912   0.04563   0.04819   0.06048
 Alpha virt. eigenvalues --    0.06662   0.06976   0.07477   0.09469   0.10089
 Alpha virt. eigenvalues --    0.11645   0.12410   0.13110   0.14351   0.14589

 Mulliken charges:
               1
     1  C    0.561742
     2  C   -0.490290
     3  C    0.832620
     4  O   -0.867303
     5  C    0.945230
     6  C   -0.762317
     7  C    0.730774
     8  H    0.021216
     9  H    0.007156
    10  H    0.025564
    11  H   -0.456531
    12  H   -0.333913
    13  H   -0.334650
    14  H    0.372621
    15  H   -0.251919
 Sum of Mulliken charges =  -0.00000

 Dipole moment (field-independent basis, Debye):
    X=              1.2894    Y=             -2.5623    Z=             -0.7116  Tot=              2.9553

 Test job not archived.
 1\1\GINC-SE100\SP\RHF\Aug-CC-pVDZ\C6H8O1\OHZDE\09-Apr-2025\0\\#t hf au
 g-cc-pvdz iop(5/13=1,5/36=2,99/5=2) pseudo=read geom=check guess=(read
 ,tcheck) scf=(maxcycle=1)\\title\\0,1\C,0,1.92936596,0.39692819,-0.154
 99755\C,0,0.55884789,-0.19889976,-0.37422504\C,0,-0.31252497,-0.414607
 35,0.9027127\O,0,-0.62016811,0.99221568,0.89176124\C,0,-0.60934458,0.8
 1699536,-0.5561848\C,0,-1.77752343,-0.14395797,-0.87234914\C,0,-1.5715
 3768,-0.97063229,0.23699752\H,0,2.62322968,-0.35578478,0.22511647\H,0,
 1.88775813,1.22147606,0.55677413\H,0,2.33574193,0.77407564,-1.09558619

 Normal termination of Gaussian 16 at Wed Apr  9 15:04:06 2025.
