 Gaussian 16, Revision C.01,

 ----------------------------------------------------------------------
 #t hf aug-cc-pvdz symm=none int=(grid=ultrafine) guess=(read,tcheck) s
 table=(opt,rrhf)
 ----------------------------------------------------------------------
 -----
 title
 -----
 Symbolic Z-matrix:
 Charge =  0 Multiplicity = 1

 SCF Done:  E(RHF) =  -355.850473806     A.U. after   15 cycles
 Normal termination of Gaussian 16 at Wed Apr  9 03:58:11 2025.
 Gaussian 16:  ES64L-G16RevC.01  3-Jul-2019

 ----------------------------------------------------------------------
 #t hf aug-cc-pvdz iop(5/13=1,5/36=2,99/5=2) pseudo=read geom=check gue
 ss=(read,tcheck) scf=(maxcycle=1)
 ----------------------------------------------------------------------
 -----
 title
 -----
 Structure from the checkpoint file:  "Grambow2020_wb97xd3_008711_reverse_mol1.chk"
 Charge =  0 Multiplicity = 1

                         Standard orientation:
 ---------------------------------------------------------------------
 Center     Atomic      Atomic             Coordinates (Angstroms)
 Number     Number       Type             X           Y           Z
 ---------------------------------------------------------------------
      1          6           0       -1.997476   -0.977933    0.440639
      2          7           0       -1.434148    0.186542   -0.198014
      3          6           0       -0.188644    0.614472   -0.108464
      4          7           0       -0.230962    1.917116   -0.254223
      5          6           0        1.074900   -0.197348    0.071211
      6          8           0        1.976867    0.172663    0.784580
      7          7           0        1.091098   -1.341852   -0.651167
      8          1           0       -2.498901   -0.704358    1.373794
      9          1           0       -1.237375   -1.727401    0.679031
     10          1           0       -2.741140   -1.437472   -0.212988
     11          1           0       -1.500778    1.538909   -0.354542
     12          1           0        0.579993    2.449886   -0.532489
     13          1           0        0.349443   -1.558133   -1.291797
     14          1           0        1.919223   -1.910520   -0.634146
 ---------------------------------------------------------------------

 SCF Done:  E(RHF) =  -355.960131772     A.U. after    2 cycles

 The electronic state is 1-A.
 Alpha  occ. eigenvalues --  -20.56349 -15.67243 -15.61768 -15.61487 -11.39499
 Alpha  occ. eigenvalues --  -11.35113 -11.27019  -1.38006  -1.27179  -1.20489
 Alpha  occ. eigenvalues --   -1.11060  -0.94454  -0.91034  -0.78794  -0.74434
 Alpha  occ. eigenvalues --   -0.71839  -0.66948  -0.64301  -0.61719  -0.59716
 Alpha  occ. eigenvalues --   -0.58598  -0.54249  -0.50539  -0.46333  -0.44030
 Alpha  occ. eigenvalues --   -0.41287  -0.34278
 Alpha virt. eigenvalues --    0.02522   0.03917   0.04242   0.04799   0.06690
 Alpha virt. eigenvalues --    0.07359   0.07895   0.09523   0.10452   0.11805
 Alpha virt. eigenvalues --    0.13259   0.13400   0.14348   0.14521   0.14860

 Mulliken charges:
               1
     1  C    0.848415
     2  N   -0.842055
     3  C    0.576626
     4  N   -0.512371
     5  C    0.626688
     6  O   -0.493354
     7  N   -0.150798
     8  H   -0.138097
     9  H   -0.184905
    10  H   -0.178901
    11  H    0.461718
    12  H   -0.047950
    13  H    0.033914
    14  H    0.001069
 Sum of Mulliken charges =  -0.00000

 Dipole moment (field-independent basis, Debye):
    X=             -1.0094    Y=             -3.0285    Z=             -2.4299  Tot=              4.0119

 Test job not archived.
 1\1\GINC-SE090\SP\RHF\Aug-CC-pVDZ\C3H7N3O1\OHZDE\09-Apr-2025\0\\#t hf
 aug-cc-pvdz iop(5/13=1,5/36=2,99/5=2) pseudo=read geom=check guess=(re
 ad,tcheck) scf=(maxcycle=1)\\title\\0,1\C,0,1.52467425,0.97899834,-0.5
 5216651\N,0,0.96679872,-0.35141153,-0.55078471\C,0,0.0064611,-0.806849
 98,0.23199978\N,0,0.22607914,-2.09100955,0.38240283\C,0,-1.16568653,-0
 .05292544,0.81983081\O,0,-1.554331,-0.2521162,1.9461641\N,0,-1.7276592
 8,0.82995726,-0.03847327\H,0,2.43792763,1.01748751,0.04911001\H,0,0.82
 894035,1.71974053,-0.14776357\H,0,1.78574933,1.27180485,-1.57076555\H,

 Normal termination of Gaussian 16 at Wed Apr  9 03:58:16 2025.
