 Gaussian 16, Revision C.01,

 ----------------------------------------------------------------------
 #t hf aug-cc-pvdz symm=none int=(grid=ultrafine) guess=(read,tcheck) s
 table=(opt,rrhf)
 ----------------------------------------------------------------------
 -----
 title
 -----
 Symbolic Z-matrix:
 Charge =  0 Multiplicity = 1

 SCF Done:  E(RHF) =  -295.619943263     A.U. after   17 cycles
 Normal termination of Gaussian 16 at Wed Apr  9 14:08:55 2025.
 Gaussian 16:  ES64L-G16RevC.01  3-Jul-2019

 ----------------------------------------------------------------------
 #t hf aug-cc-pvdz iop(5/13=1,5/36=2,99/5=2) pseudo=read geom=check gue
 ss=(read,tcheck) scf=(maxcycle=1)
 ----------------------------------------------------------------------
 -----
 title
 -----
 Structure from the checkpoint file:  "Grambow2020_b97d3_006790_forward_mol1.chk"
 Charge =  0 Multiplicity = 1

                         Standard orientation:
 ---------------------------------------------------------------------
 Center     Atomic      Atomic             Coordinates (Angstroms)
 Number     Number       Type             X           Y           Z
 ---------------------------------------------------------------------
      1          7           0        1.883640   -0.152751    0.264760
      2          6           0        0.720207   -0.022866   -0.330975
      3          7           0       -0.089814   -1.164488   -0.338604
      4          7           0       -1.184150   -0.644178    0.160838
      5          6           0       -1.149779    0.777864    0.121749
      6          7           0       -0.011802    1.176232   -0.351172
      7          1           0        2.241373    0.799838    0.425073
      8          1           0        0.177175    0.038687    1.968966
      9          1           0       -1.998578   -1.235374    0.330466
     10          1           0       -2.027646    1.363157    0.380093
 ---------------------------------------------------------------------

 SCF Done:  E(RHF) =  -295.702717001     A.U. after    2 cycles

 The electronic state is 1-A.
 Alpha  occ. eigenvalues --  -15.80004 -15.72911 -15.68442 -15.65573 -11.38366
 Alpha  occ. eigenvalues --  -11.36601  -1.42648  -1.23557  -1.18789  -1.06654
 Alpha  occ. eigenvalues --   -0.89123  -0.82564  -0.79445  -0.69375  -0.67764
 Alpha  occ. eigenvalues --   -0.63704  -0.54197  -0.51557  -0.47649  -0.46026
 Alpha  occ. eigenvalues --   -0.42467  -0.28840
 Alpha virt. eigenvalues --   -0.02481   0.01679   0.03856   0.05180   0.06924
 Alpha virt. eigenvalues --    0.09159   0.10086   0.10397   0.10913   0.12814
 Alpha virt. eigenvalues --    0.13292   0.14493   0.15446   0.16099   0.17250

 Mulliken charges:
               1
     1  N   -0.378614
     2  C    0.920078
     3  N   -0.325177
     4  N   -0.276159
     5  C    0.659684
     6  N   -0.496645
     7  H    0.120828
     8  H   -0.111330
     9  H    0.046954
    10  H   -0.159620
 Sum of Mulliken charges =  -0.00000

 Dipole moment (field-independent basis, Debye):
    X=             -4.5916    Y=              0.3692    Z=             -1.1927  Tot=              4.7583

 Test job not archived.
 1\1\GINC-SE054\SP\RHF\Aug-CC-pVDZ\C2H4N4\OHZDE\09-Apr-2025\0\\#t hf au
 g-cc-pvdz iop(5/13=1,5/36=2,99/5=2) pseudo=read geom=check guess=(read
 ,tcheck) scf=(maxcycle=1)\\title\\0,1\N,0,1.9568134,-0.25235125,-0.466
 98696\C,0,0.70083929,-0.00342649,-0.76009603\N,0,-0.14697823,-1.116666
 44,-0.79744136\N,0,-1.08278254,-0.69050934,0.01520623\C,0,-0.98806437,
 0.71324408,0.2283182\N,0,0.04089279,1.18405286,-0.40170477\H,0,2.38664
 463,0.65023667,-0.21863529\H,0,0.66468785,-0.37046696,1.57493624\H,0,-
 1.87017236,-1.29638817,0.24867553\H,0,-1.76091147,1.24673904,0.7742572

 Normal termination of Gaussian 16 at Wed Apr  9 14:08:58 2025.
