 Gaussian 16, Revision C.01,

 ----------------------------------------------------------------------
 #t hf aug-cc-pvdz symm=none int=(grid=ultrafine) guess=(read,tcheck) s
 table=(opt,rrhf)
 ----------------------------------------------------------------------
 -----
 title
 -----
 Symbolic Z-matrix:
 Charge =  0 Multiplicity = 1

 SCF Done:  E(RHF) =  -353.411570154     A.U. after   17 cycles
 Normal termination of Gaussian 16 at Wed Apr  9 03:46:16 2025.
 Gaussian 16:  ES64L-G16RevC.01  3-Jul-2019

 ----------------------------------------------------------------------
 #t hf aug-cc-pvdz iop(5/13=1,5/36=2,99/5=2) pseudo=read geom=check gue
 ss=(read,tcheck) scf=(maxcycle=1)
 ----------------------------------------------------------------------
 -----
 title
 -----
 Structure from the checkpoint file:  "Grambow2020_wb97xd3_007943_reverse_mol1.chk"
 Charge =  0 Multiplicity = 1

                         Standard orientation:
 ---------------------------------------------------------------------
 Center     Atomic      Atomic             Coordinates (Angstroms)
 Number     Number       Type             X           Y           Z
 ---------------------------------------------------------------------
      1          8           0        1.706567   -0.461354   -0.507415
      2          6           0        0.629814   -0.186528    0.163270
      3          6           0       -0.331107   -1.263210    0.498608
      4          7           0       -1.384636   -0.875680   -0.092213
      5          7           0       -1.008128    0.340408   -0.773635
      6          6           0       -0.534552    1.349688    0.036199
      7          7           0        0.497753    1.064464    0.773664
      8          1           0        2.215578    0.355511   -0.621498
      9          1           0       -0.231728   -2.122566    1.149925
     10          1           0       -0.956232    2.353842   -0.012290
 ---------------------------------------------------------------------

 SCF Done:  E(RHF) =  -353.512749434     A.U. after    2 cycles

 The electronic state is 1-A.
 Alpha  occ. eigenvalues --  -20.68903 -15.69812 -15.64707 -15.61813 -11.46178
 Alpha  occ. eigenvalues --  -11.36278 -11.30886  -1.48090  -1.34574  -1.23075
 Alpha  occ. eigenvalues --   -1.06956  -0.95783  -0.87160  -0.82234  -0.75954
 Alpha  occ. eigenvalues --   -0.72034  -0.69352  -0.66242  -0.61078  -0.58236
 Alpha  occ. eigenvalues --   -0.53140  -0.46936  -0.44434  -0.39680  -0.33523
 Alpha virt. eigenvalues --    0.02561   0.03441   0.04208   0.06098   0.07954
 Alpha virt. eigenvalues --    0.09197   0.10361   0.10695   0.11579   0.12422
 Alpha virt. eigenvalues --    0.13668   0.13854   0.14281   0.15111   0.16696

 Mulliken charges:
               1
     1  O   -0.444932
     2  C    0.729697
     3  C    0.643987
     4  N   -0.246923
     5  N   -0.864230
     6  C    0.919186
     7  N   -0.672151
     8  H    0.173187
     9  H   -0.102345
    10  H   -0.135475
 Sum of Mulliken charges =  -0.00000

 Dipole moment (field-independent basis, Debye):
    X=              3.1519    Y=              0.3841    Z=              1.1545  Tot=              3.3786

 Test job not archived.
 1\1\GINC-SE253\SP\RHF\Aug-CC-pVDZ\C3H3N3O1\OHZDE\09-Apr-2025\0\\#t hf
 aug-cc-pvdz iop(5/13=1,5/36=2,99/5=2) pseudo=read geom=check guess=(re
 ad,tcheck) scf=(maxcycle=1)\\title\\0,1\O,0,1.66945652,-0.3539732,0.62
 095851\C,0,0.62143786,-0.03093125,-0.07333575\C,0,0.26588293,1.3950302
 4,-0.26116307\N,0,-0.87926651,1.45927503,0.28075805\N,0,-1.1259854,0.1
 3359416,0.79715227\C,0,-1.11378187,-0.87742655,-0.1390318\N,0,-0.02569
 82,-1.00523742,-0.83946\H,0,1.75045498,-1.31978544,0.62558552\H,0,0.77
 519988,2.18656426,-0.79656258\H,0,-1.9434612,-1.58017084,-0.21823015\\

 Normal termination of Gaussian 16 at Wed Apr  9 03:46:20 2025.
