 Gaussian 16, Revision C.01,

 ----------------------------------------------------------------------
 #t hf aug-cc-pvdz symm=none int=(grid=ultrafine) guess=(read,tcheck) s
 table=(opt,rrhf)
 ----------------------------------------------------------------------
 -----
 title
 -----
 Symbolic Z-matrix:
 Charge =  0 Multiplicity = 1

 SCF Done:  E(RHF) =  -270.052564644     A.U. after   13 cycles

 1\1\GINC-SE083\Stability\RHF\Aug-CC-pVDZ\C5H10O1\OHZDE\09-Apr-2025\0\\
 #t hf aug-cc-pvdz symm=none int=(grid=ultrafine) guess=(read,tcheck) s
 table=(opt,rrhf)\\title\\0,1\C,0,1.50640541,0.09662493,-1.40901731\C,0
 ,0.83245509,0.58535372,-0.12080271\C,0,-0.68607461,0.07549893,1.791343
 79\O,0,-1.81376698,0.34414978,2.16246073\C,0,-0.29505963,-0.35027999,0
 .38499222\C,0,-1.50302587,-0.4276129,-0.55200632\H,0,1.92625913,-0.910
 98047,-1.27254654\H,0,2.32607941,0.76896412,-1.6983707\H,0,0.79736294,
 0.0555929,-2.24639106\H,0,1.59559425,0.68499486,0.66845815\H,0,0.40966

 Normal termination of Gaussian 16 at Wed Apr  9 03:07:31 2025.
 Gaussian 16:  ES64L-G16RevC.01  3-Jul-2019

 ----------------------------------------------------------------------
 #t hf aug-cc-pvdz iop(5/13=1,5/36=2,99/5=2) pseudo=read geom=check gue
 ss=(read,tcheck) scf=(maxcycle=1)
 ----------------------------------------------------------------------
 -----
 title
 -----
 Structure from the checkpoint file:  "Grambow2020_b97d3_006615_reverse_mol2.chk"
 Charge =  0 Multiplicity = 1

                         Standard orientation:
 ---------------------------------------------------------------------
 Center     Atomic      Atomic             Coordinates (Angstroms)
 Number     Number       Type             X           Y           Z
 ---------------------------------------------------------------------
      1          6           0       -2.457487   -0.152023    0.021676
      2          6           0       -1.059441   -0.684743   -0.316320
      3          6           0        1.378266   -0.700071    0.212393
      4          8           0        2.416932   -0.256698   -0.241683
      5          6           0        0.086399    0.081318    0.392714
      6          6           0        0.225943    1.539003   -0.053167
      7          1           0       -2.636740   -0.185216    1.106543
      8          1           0       -3.233143   -0.756670   -0.468621
      9          1           0       -2.585727    0.887011   -0.309357
     10          1           0       -1.003712   -1.749854   -0.037619
     11          1           0       -0.891988   -0.636579   -1.404021
     12          1           0        1.303807   -1.771640    0.535905
     13          1           0       -0.129445    0.041695    1.478612
     14          1           0        0.387749    1.593338   -1.138349
     15          1           0        1.086120    2.015165    0.433499
     16          1           0       -0.674449    2.115421    0.193101
 ---------------------------------------------------------------------

 SCF Done:  E(RHF) =  -270.137794262     A.U. after    2 cycles

 The electronic state is 1-A.
 Alpha  occ. eigenvalues --  -20.57361 -11.34494 -11.25839 -11.25193 -11.23937
 Alpha  occ. eigenvalues --  -11.23133  -1.35169  -1.09200  -0.99143  -0.91400
 Alpha  occ. eigenvalues --   -0.83455  -0.76211  -0.68707  -0.65010  -0.63913
 Alpha  occ. eigenvalues --   -0.59946  -0.56085  -0.54704  -0.53420  -0.51881
 Alpha  occ. eigenvalues --   -0.51468  -0.48436  -0.47373  -0.42653
 Alpha virt. eigenvalues --    0.03142   0.04248   0.04343   0.04986   0.06337
 Alpha virt. eigenvalues --    0.06620   0.07023   0.07362   0.08106   0.09599
 Alpha virt. eigenvalues --    0.11248   0.12049   0.13011   0.13977   0.14505

 Mulliken charges:
               1
     1  C    0.345686
     2  C    0.327607
     3  C    0.896686
     4  O   -0.501717
     5  C   -0.957809
     6  C    0.626171
     7  H   -0.052928
     8  H   -0.046193
     9  H   -0.092688
    10  H   -0.162439
    11  H   -0.091372
    12  H   -0.124698
    13  H   -0.039252
    14  H    0.000649
    15  H   -0.060413
    16  H   -0.067289
 Sum of Mulliken charges =  -0.00000

 Dipole moment (field-independent basis, Debye):
    X=             -3.2971    Y=             -0.7183    Z=              1.0868  Tot=              3.5451

 Test job not archived.
 1\1\GINC-SE083\SP\RHF\Aug-CC-pVDZ\C5H10O1\OHZDE\09-Apr-2025\0\\#t hf a
 ug-cc-pvdz iop(5/13=1,5/36=2,99/5=2) pseudo=read geom=check guess=(rea
 d,tcheck) scf=(maxcycle=1)\\title\\0,1\C,0,1.50640541,0.09662493,-1.40
 901731\C,0,0.83245509,0.58535372,-0.12080271\C,0,-0.68607461,0.0754989
 3,1.79134379\O,0,-1.81376698,0.34414978,2.16246073\C,0,-0.29505963,-0.
 35027999,0.38499222\C,0,-1.50302587,-0.4276129,-0.55200632\H,0,1.92625
 913,-0.91098047,-1.27254654\H,0,2.32607941,0.76896412,-1.6983707\H,0,0
 .79736294,0.0555929,-2.24639106\H,0,1.59559425,0.68499486,0.66845815\H

 Normal termination of Gaussian 16 at Wed Apr  9 03:07:38 2025.
