 Gaussian 16, Revision C.01,

 ----------------------------------------------------------------------
 #t hf aug-cc-pvdz symm=none int=(grid=ultrafine) guess=(read,tcheck) s
 table=(opt,rrhf)
 ----------------------------------------------------------------------
 -----
 title
 -----
 Symbolic Z-matrix:
 Charge =  0 Multiplicity = 1

 SCF Done:  E(RHF) =  -268.866830340     A.U. after   15 cycles
 Normal termination of Gaussian 16 at Wed Apr  9 03:03:22 2025.
 Gaussian 16:  ES64L-G16RevC.01  3-Jul-2019

 ----------------------------------------------------------------------
 #t hf aug-cc-pvdz iop(5/13=1,5/36=2,99/5=2) pseudo=read geom=check gue
 ss=(read,tcheck) scf=(maxcycle=1)
 ----------------------------------------------------------------------
 -----
 title
 -----
 Structure from the checkpoint file:  "Grambow2020_b97d3_006485_reverse_mol2.chk"
 Charge =  0 Multiplicity = 1

                         Standard orientation:
 ---------------------------------------------------------------------
 Center     Atomic      Atomic             Coordinates (Angstroms)
 Number     Number       Type             X           Y           Z
 ---------------------------------------------------------------------
      1          8           0       -0.859118    1.761442   -0.074314
      2          6           0       -0.625895    0.587119    0.106346
      3          6           0       -1.429689   -0.717155   -0.095938
      4          6           0       -0.065115   -1.472340   -0.110988
      5          6           0        0.661794   -0.201502    0.440084
      6          6           0        1.968992    0.271107   -0.185593
      7          1           0       -2.040147   -0.956067    0.787690
      8          1           0       -2.067461   -0.768666   -0.987892
      9          1           0        0.000060   -2.374357    0.507670
     10          1           0        0.261569   -1.711648   -1.131100
     11          1           0        2.794897   -0.412581    0.055311
     12          1           0        0.759503   -0.270458    1.536767
     13          1           0        2.228464    1.272993    0.182013
     14          1           0        1.875534    0.325880   -1.279412
 ---------------------------------------------------------------------

 SCF Done:  E(RHF) =  -268.948778160     A.U. after    2 cycles

 The electronic state is 1-A.
 Alpha  occ. eigenvalues --  -20.56910 -11.34485 -11.25778 -11.25414 -11.25227
 Alpha  occ. eigenvalues --  -11.23954  -1.34995  -1.13074  -0.99505  -0.87411
 Alpha  occ. eigenvalues --   -0.85712  -0.72454  -0.67412  -0.64678  -0.63489
 Alpha  occ. eigenvalues --   -0.58494  -0.56041  -0.54772  -0.52918  -0.50354
 Alpha  occ. eigenvalues --   -0.48340  -0.46827  -0.40345
 Alpha virt. eigenvalues --    0.03093   0.04291   0.04352   0.05004   0.06430
 Alpha virt. eigenvalues --    0.06712   0.07015   0.07839   0.10053   0.11732
 Alpha virt. eigenvalues --    0.13033   0.13403   0.13620   0.13975   0.14636

 Mulliken charges:
               1
     1  O   -0.477575
     2  C    0.244455
     3  C    0.294034
     4  C    0.543547
     5  C   -0.625020
     6  C    0.525836
     7  H   -0.036762
     8  H   -0.128188
     9  H   -0.144306
    10  H   -0.142168
    11  H   -0.004646
    12  H   -0.062875
    13  H    0.010084
    14  H    0.003585
 Sum of Mulliken charges =  -0.00000

 Dipole moment (field-independent basis, Debye):
    X=              0.9522    Y=             -3.5598    Z=              0.5132  Tot=              3.7206

 Test job not archived.
 1\1\GINC-SE127\SP\RHF\Aug-CC-pVDZ\C5H8O1\OHZDE\09-Apr-2025\0\\#t hf au
 g-cc-pvdz iop(5/13=1,5/36=2,99/5=2) pseudo=read geom=check guess=(read
 ,tcheck) scf=(maxcycle=1)\\title\\0,1\O,0,-0.56966331,2.20002465,0.697
 64111\C,0,-0.59528094,1.00152622,0.52731558\C,0,-1.70839562,-0.019204,
 0.19987007\C,0,-0.58521928,-0.97406649,-0.30934989\C,0,0.50528792,-0.0
 7126894,0.35612386\C,0,1.76240712,0.31444841,-0.41489484\H,0,-2.199942
 69,-0.38695394,1.11293001\H,0,-2.48128541,0.30607854,-0.50852313\H,0,-
 0.63289162,-2.01217671,0.03803272\H,0,-0.50185653,-0.96460723,-1.40369

 Normal termination of Gaussian 16 at Wed Apr  9 03:03:25 2025.
