 Gaussian 16, Revision C.01,

 ----------------------------------------------------------------------
 #t hf aug-cc-pvdz symm=none int=(grid=ultrafine) guess=(read,tcheck) s
 table=(opt,rrhf)
 ----------------------------------------------------------------------
 -----
 title
 -----
 Symbolic Z-matrix:
 Charge =  0 Multiplicity = 1

 SCF Done:  E(RHF) =  -323.736404201     A.U. after   15 cycles
 Normal termination of Gaussian 16 at Wed Apr  9 16:20:09 2025.
 Gaussian 16:  ES64L-G16RevC.01  3-Jul-2019

 ----------------------------------------------------------------------
 #t hf aug-cc-pvdz iop(5/13=1,5/36=2,99/5=2) pseudo=read geom=check gue
 ss=(read,tcheck) scf=(maxcycle=1)
 ----------------------------------------------------------------------
 -----
 title
 -----
 Structure from the checkpoint file:  "Grambow2020_wb97xd3_008089_forward_mol1.chk"
 Charge =  0 Multiplicity = 1

                         Standard orientation:
 ---------------------------------------------------------------------
 Center     Atomic      Atomic             Coordinates (Angstroms)
 Number     Number       Type             X           Y           Z
 ---------------------------------------------------------------------
      1          6           0       -2.606901   -0.834925    0.003974
      2          6           0       -1.837498    0.397375    0.001410
      3          7           0       -1.512800    1.513226    0.000360
      4          8           0        0.045948   -0.796302   -0.015884
      5          6           0        1.051050   -0.057949   -0.004061
      6          6           0        2.326323   -0.035635   -0.767772
      7          6           0        2.314501   -0.047220    0.779540
      8          1           0       -2.358737   -1.407214   -0.887360
      9          1           0       -2.326017   -1.424167    0.874104
     10          1           0       -3.670581   -0.598084    0.025448
     11          1           0       -0.129373    1.585496    0.001220
     12          1           0        0.721613    1.306394    0.000718
     13          1           0        2.592304   -0.955495   -1.274214
     14          1           0        2.676615    0.867581   -1.249487
     15          1           0        2.572692   -0.974877    1.275821
     16          1           0        2.658656    0.848320    1.279757
 ---------------------------------------------------------------------

 SCF Done:  E(RHF) =  -323.839117058     A.U. after    2 cycles

 The electronic state is 1-A.
 Alpha  occ. eigenvalues --  -20.52253 -15.64798 -11.33973 -11.33693 -11.28333
 Alpha  occ. eigenvalues --  -11.23871 -11.23834  -1.30971  -1.22337  -1.11532
 Alpha  occ. eigenvalues --   -1.03532  -0.83579  -0.77748  -0.72264  -0.70338
 Alpha  occ. eigenvalues --   -0.65441  -0.63637  -0.62671  -0.60374  -0.57508
 Alpha  occ. eigenvalues --   -0.56207  -0.52476  -0.47944  -0.47340  -0.45486
 Alpha  occ. eigenvalues --   -0.39477  -0.36483
 Alpha virt. eigenvalues --    0.03273   0.03923   0.04915   0.04959   0.06167
 Alpha virt. eigenvalues --    0.06556   0.07153   0.07551   0.09635   0.10288
 Alpha virt. eigenvalues --    0.11863   0.12529   0.12579   0.13206   0.14141

 Mulliken charges:
               1
     1  C    0.390816
     2  C   -0.280406
     3  N   -0.357673
     4  O   -0.571578
     5  C   -0.033193
     6  C    0.689224
     7  C    0.688129
     8  H    0.088662
     9  H    0.089140
    10  H    0.040481
    11  H    0.293429
    12  H    0.122425
    13  H   -0.295356
    14  H   -0.284036
    15  H   -0.294319
    16  H   -0.285746
 Sum of Mulliken charges =  -0.00000

 Dipole moment (field-independent basis, Debye):
    X=             -0.7289    Y=             -0.5485    Z=              0.0413  Tot=              0.9131

 Test job not archived.
 1\1\GINC-SE163\SP\RHF\Aug-CC-pVDZ\C5H9N1O1\OHZDE\09-Apr-2025\0\\#t hf
 aug-cc-pvdz iop(5/13=1,5/36=2,99/5=2) pseudo=read geom=check guess=(re
 ad,tcheck) scf=(maxcycle=1)\\title\\0,1\C,0,2.64553267,-0.3760485,-1.0
 4340897\C,0,2.03661703,0.22920127,0.12853233\N,0,1.85353467,0.77632731
 ,1.13733705\O,0,0.02459142,-0.35991712,-0.63121944\C,0,-0.87989538,0.0
 1735812,0.14020977\C,0,-2.09154897,-0.63065421,0.70770389\C,0,-2.17938
 279,0.71280304,-0.05509083\H,0,2.38532783,-1.43205755,-1.07011823\H,0,
 2.23914183,0.09574758,-1.93530765\H,0,3.72685455,-0.24720827,-0.997451

 Normal termination of Gaussian 16 at Wed Apr  9 16:20:15 2025.
