 Gaussian 16, Revision C.01,

 ----------------------------------------------------------------------
 #t hf aug-cc-pvdz symm=none int=(grid=ultrafine) guess=(read,tcheck) s
 table=(opt,rrhf)
 ----------------------------------------------------------------------
 -----
 title
 -----
 Symbolic Z-matrix:
 Charge =  0 Multiplicity = 1

 SCF Done:  E(RHF) =  -353.590656868     A.U. after   15 cycles
 Normal termination of Gaussian 16 at Wed Apr  9 16:05:47 2025.
 Gaussian 16:  ES64L-G16RevC.01  3-Jul-2019

 ----------------------------------------------------------------------
 #t hf aug-cc-pvdz iop(5/13=1,5/36=2,99/5=2) pseudo=read geom=check gue
 ss=(read,tcheck) scf=(maxcycle=1)
 ----------------------------------------------------------------------
 -----
 title
 -----
 Structure from the checkpoint file:  "Grambow2020_wb97xd3_007765_forward_mol2.chk"
 Charge =  0 Multiplicity = 1

                         Standard orientation:
 ---------------------------------------------------------------------
 Center     Atomic      Atomic             Coordinates (Angstroms)
 Number     Number       Type             X           Y           Z
 ---------------------------------------------------------------------
      1          8           0       -2.449088    0.347794    0.000251
      2          6           0       -1.594072   -0.482797    0.000838
      3          7           0       -0.227937   -0.166794   -0.001981
      4          6           0        0.378513    1.048588   -0.000710
      5          7           0        1.670704    0.899109    0.000813
      6          6           0        1.823325   -0.460886    0.000386
      7          7           0        0.711695   -1.142405   -0.000902
      8          1           0       -1.747653   -1.571117    0.004360
      9          1           0       -0.175859    1.973642    0.001448
     10          1           0        2.788389   -0.943680    0.003589
 ---------------------------------------------------------------------

 SCF Done:  E(RHF) =  -353.695432968     A.U. after    2 cycles

 The electronic state is 1-A.
 Alpha  occ. eigenvalues --  -20.60365 -15.74449 -15.68777 -15.65143 -11.41386
 Alpha  occ. eigenvalues --  -11.35666 -11.32820  -1.43163  -1.39349  -1.20583
 Alpha  occ. eigenvalues --   -1.13307  -0.95218  -0.86630  -0.82249  -0.76262
 Alpha  occ. eigenvalues --   -0.71180  -0.68575  -0.66636  -0.62278  -0.58418
 Alpha  occ. eigenvalues --   -0.52724  -0.50332  -0.46621  -0.43968  -0.40185
 Alpha virt. eigenvalues --    0.03518   0.03852   0.04251   0.05977   0.06706
 Alpha virt. eigenvalues --    0.09794   0.10145   0.10814   0.11124   0.13017
 Alpha virt. eigenvalues --    0.14487   0.14893   0.15353   0.16121   0.16943

 Mulliken charges:
               1
     1  O   -0.373450
     2  C    0.803695
     3  N   -0.242900
     4  C    0.518085
     5  N   -0.532488
     6  C    0.716462
     7  N   -0.371644
     8  H   -0.142436
     9  H   -0.174389
    10  H   -0.200934
 Sum of Mulliken charges =  -0.00000

 Dipole moment (field-independent basis, Debye):
    X=              0.5928    Y=             -1.1154    Z=              0.0064  Tot=              1.2631

 Test job not archived.
 1\1\GINC-SE092\SP\RHF\Aug-CC-pVDZ\C3H3N3O1\OHZDE\09-Apr-2025\0\\#t hf
 aug-cc-pvdz iop(5/13=1,5/36=2,99/5=2) pseudo=read geom=check guess=(re
 ad,tcheck) scf=(maxcycle=1)\\title\\0,1\O,0,2.55138886,0.4866979,-0.02
 424061\C,0,1.71980116,-0.32943882,0.22738611\N,0,0.34795119,-0.0931935
 8,0.05884821\C,0,-0.28898492,1.0177549,-0.39396865\N,0,-1.57462607,0.8
 1980248,-0.40064283\C,0,-1.69143254,-0.46061561,0.06814875\N,0,-0.5642
 6827,-1.04908925,0.35692077\H,0,1.90171778,-1.34317009,0.61117798\H,0,
 0.2402423,1.90805436,-0.6945423\H,0,-2.64178948,-0.95680229,0.19091256

 Normal termination of Gaussian 16 at Wed Apr  9 16:05:50 2025.
