 Gaussian 16, Revision C.01,

 ----------------------------------------------------------------------
 #t hf aug-cc-pvdz symm=none int=(grid=ultrafine) guess=(read,tcheck) s
 table=(opt,rrhf)
 ----------------------------------------------------------------------
 -----
 title
 -----
 Symbolic Z-matrix:
 Charge =  0 Multiplicity = 1

 SCF Done:  E(RHF) =  -302.722263706     A.U. after   17 cycles
 Normal termination of Gaussian 16 at Wed Apr  9 15:33:07 2025.
 Gaussian 16:  ES64L-G16RevC.01  3-Jul-2019

 ----------------------------------------------------------------------
 #t hf aug-cc-pvdz iop(5/13=1,5/36=2,99/5=2) pseudo=read geom=check gue
 ss=(read,tcheck) scf=(maxcycle=1)
 ----------------------------------------------------------------------
 -----
 title
 -----
 Structure from the checkpoint file:  "Grambow2020_wb97xd3_006963_reverse_mol1.chk"
 Charge =  0 Multiplicity = 1

                         Standard orientation:
 ---------------------------------------------------------------------
 Center     Atomic      Atomic             Coordinates (Angstroms)
 Number     Number       Type             X           Y           Z
 ---------------------------------------------------------------------
      1          6           0        0.240099    1.432847    0.465578
      2          6           0        0.876495    0.167477    0.316949
      3          6           0        1.811343   -0.038899   -0.855010
      4          7           0        0.307947   -0.990405    0.910680
      5          6           0       -0.687153   -1.328456   -0.085727
      6          6           0       -1.499509   -0.270453   -0.398610
      7          7           0       -1.956353    0.813176   -0.442430
      8          1           0        0.596777    2.283317   -0.103172
      9          1           0        1.425249    0.888842    1.149181
     10          1           0       -0.433594    1.603173    1.293031
     11          1           0        2.226463   -1.043532   -0.811636
     12          1           0        1.281284    0.089616   -1.797764
     13          1           0        2.630526    0.682106   -0.826900
     14          1           0       -0.066263   -0.817199    1.836445
     15          1           0       -0.569249   -2.220807   -0.676021
 ---------------------------------------------------------------------

 SCF Done:  E(RHF) =  -302.811850037     A.U. after    2 cycles

 The electronic state is 1-A.
 Alpha  occ. eigenvalues --  -15.64839 -15.58719 -11.36738 -11.35806 -11.26457
 Alpha  occ. eigenvalues --  -11.25373 -11.21888  -1.25210  -1.14362  -1.10294
 Alpha  occ. eigenvalues --   -0.99416  -0.91542  -0.81772  -0.72577  -0.70884
 Alpha  occ. eigenvalues --   -0.66905  -0.65400  -0.59681  -0.57622  -0.56977
 Alpha  occ. eigenvalues --   -0.53401  -0.50945  -0.46236  -0.41606  -0.41164
 Alpha  occ. eigenvalues --   -0.26076
 Alpha virt. eigenvalues --    0.01696   0.03342   0.03969   0.05020   0.05584
 Alpha virt. eigenvalues --    0.06214   0.06681   0.07065   0.07648   0.10907
 Alpha virt. eigenvalues --    0.11497   0.12512   0.13124   0.13526   0.13902

 Mulliken charges:
               1
     1  C    0.675401
     2  C   -0.114479
     3  C    0.471687
     4  N   -0.631381
     5  C    0.926914
     6  C   -0.340089
     7  N   -0.384773
     8  H   -0.272778
     9  H    0.194009
    10  H   -0.235287
    11  H   -0.046894
    12  H    0.095436
    13  H   -0.003994
    14  H    0.035809
    15  H   -0.369579
 Sum of Mulliken charges =  -0.00000

 Dipole moment (field-independent basis, Debye):
    X=              5.6980    Y=              2.5349    Z=              1.7960  Tot=              6.4899

 Test job not archived.
 1\1\GINC-SE168\SP\RHF\Aug-CC-pVDZ\C5H8N2\OHZDE\09-Apr-2025\0\\#t hf au
 g-cc-pvdz iop(5/13=1,5/36=2,99/5=2) pseudo=read geom=check guess=(read
 ,tcheck) scf=(maxcycle=1)\\title\\0,1\C,0,-0.20896628,1.41671781,0.082
 31095\C,0,-0.47208634,0.06667784,-0.28703046\C,0,-1.24567993,-0.808816
 15,0.67478212\N,0,0.35019005,-0.58338987,-1.24501174\C,0,1.45699183,-0
 .98699526,-0.40274085\C,0,1.97244725,0.05387606,0.32395013\N,0,2.12321
 187,1.12200373,0.794324\H,0,-0.74646455,1.86098162,0.91160029\H,0,-1.2
 4295081,0.86953095,-0.8117228\H,0,0.34373649,2.06037709,-0.58684883\H,

 Normal termination of Gaussian 16 at Wed Apr  9 15:33:12 2025.
