 Gaussian 16, Revision C.01,

 ----------------------------------------------------------------------
 #t hf aug-cc-pvdz symm=none int=(grid=ultrafine) guess=(read,tcheck) s
 table=(opt,rrhf)
 ----------------------------------------------------------------------
 -----
 title
 -----
 Symbolic Z-matrix:
 Charge =  0 Multiplicity = 1

 SCF Done:  E(RHF) =  -317.622950210     A.U. after   15 cycles
 Normal termination of Gaussian 16 at Wed Apr  9 16:17:49 2025.
 Gaussian 16:  ES64L-G16RevC.01  3-Jul-2019

 ----------------------------------------------------------------------
 #t hf aug-cc-pvdz iop(5/13=1,5/36=2,99/5=2) pseudo=read geom=check gue
 ss=(read,tcheck) scf=(maxcycle=1)
 ----------------------------------------------------------------------
 -----
 title
 -----
 Structure from the checkpoint file:  "Grambow2020_wb97xd3_008061_forward_mol1.chk"
 Charge =  0 Multiplicity = 1

                         Standard orientation:
 ---------------------------------------------------------------------
 Center     Atomic      Atomic             Coordinates (Angstroms)
 Number     Number       Type             X           Y           Z
 ---------------------------------------------------------------------
      1          7           0        2.625690    0.012414   -0.578052
      2          6           0        1.622533    0.018169   -0.022105
      3          6           0        0.345012    0.016420    0.709921
      4          6           0       -0.585931    1.177594    0.306248
      5          7           0       -1.567438    0.553109   -0.610197
      6          6           0       -1.479642   -0.775853   -0.499507
      7          7           0       -0.497179   -1.129552    0.361274
      8          1           0        0.576397    0.025864    1.775725
      9          1           0       -1.107351    1.577709    1.176550
     10          1           0       -0.069644    1.992099   -0.197480
     11          1           0       -2.583409   -0.193412   -0.350211
     12          1           0       -0.155333   -2.072037    0.416894
 ---------------------------------------------------------------------

 SCF Done:  E(RHF) =  -317.714862951     A.U. after    2 cycles

 The electronic state is 1-A.
 Alpha  occ. eigenvalues --  -15.67214 -15.67065 -15.65238 -11.34804 -11.31334
 Alpha  occ. eigenvalues --  -11.30644 -11.29632  -1.32056  -1.21033  -1.16439
 Alpha  occ. eigenvalues --   -1.06582  -0.91883  -0.80218  -0.75848  -0.75111
 Alpha  occ. eigenvalues --   -0.64713  -0.62536  -0.59313  -0.56434  -0.55874
 Alpha  occ. eigenvalues --   -0.50183  -0.48483  -0.47092  -0.41423  -0.37764
 Alpha virt. eigenvalues --    0.02158   0.03729   0.04236   0.05031   0.06665
 Alpha virt. eigenvalues --    0.08847   0.09746   0.10084   0.10319   0.11851
 Alpha virt. eigenvalues --    0.12670   0.13095   0.13649   0.14183   0.14901

 Mulliken charges:
               1
     1  N   -0.120366
     2  C   -0.483821
     3  C    0.842311
     4  C    0.844106
     5  N   -0.639384
     6  C    0.123203
     7  N   -0.380062
     8  H   -0.116679
     9  H   -0.066454
    10  H   -0.176576
    11  H    0.273092
    12  H   -0.099371
 Sum of Mulliken charges =   0.00000

 Dipole moment (field-independent basis, Debye):
    X=             -1.7373    Y=              0.3466    Z=              3.8510  Tot=              4.2390

 Test job not archived.
 1\1\GINC-SE026\SP\RHF\Aug-CC-pVDZ\C4H5N3\OHZDE\09-Apr-2025\0\\#t hf au
 g-cc-pvdz iop(5/13=1,5/36=2,99/5=2) pseudo=read geom=check guess=(read
 ,tcheck) scf=(maxcycle=1)\\title\\0,1\N,0,2.48828654,-1.14662962,1.152
 6239\C,0,1.67978065,-0.68922301,0.47991963\C,0,0.65808285,-0.09556378,
 -0.39850483\C,0,-0.69424995,-0.83428244,-0.3400376\N,0,-1.53151229,0.0
 1207683,0.54080196\C,0,-0.94012036,1.2013024,0.68945571\N,0,0.24834943
 ,1.23895471,0.04339007\H,0,1.06848562,-0.06765631,-1.40863167\H,0,-1.1
 5008767,-0.88855711,-1.32931134\H,0,-0.62133114,-1.84045659,0.06740541

 Normal termination of Gaussian 16 at Wed Apr  9 16:17:54 2025.
