 Gaussian 16, Revision C.01,

 ----------------------------------------------------------------------
 #t hf aug-cc-pvdz symm=none int=(grid=ultrafine) guess=(read,tcheck) s
 table=(opt,rrhf)
 ----------------------------------------------------------------------
 -----
 title
 -----
 Symbolic Z-matrix:
 Charge =  0 Multiplicity = 1

 SCF Done:  E(RHF) =  -267.488683871     A.U. after   17 cycles
 Normal termination of Gaussian 16 at Wed Apr  9 14:22:09 2025.
 Gaussian 16:  ES64L-G16RevC.01  3-Jul-2019

 ----------------------------------------------------------------------
 #t hf aug-cc-pvdz iop(5/13=1,5/36=2,99/5=2) pseudo=read geom=check gue
 ss=(read,tcheck) scf=(maxcycle=1)
 ----------------------------------------------------------------------
 -----
 title
 -----
 Structure from the checkpoint file:  "Grambow2020_wb97xd3_006080_forward_mol1.chk"
 Charge =  0 Multiplicity = 1

                         Standard orientation:
 ---------------------------------------------------------------------
 Center     Atomic      Atomic             Coordinates (Angstroms)
 Number     Number       Type             X           Y           Z
 ---------------------------------------------------------------------
      1          8           0       -2.324924   -0.827271   -0.244775
      2          6           0       -2.273905    0.298799    0.042666
      3          6           0       -0.330172    0.940225   -0.114661
      4          6           0        0.454661   -0.213175    0.471612
      5          6           0        1.864024   -0.202804    0.081746
      6          6           0        3.014206   -0.170233   -0.251346
      7          1           0       -1.895828    1.300723    0.295373
      8          1           0       -0.061793    1.907081    0.322433
      9          1           0       -0.258231    0.999122   -1.202393
     10          1           0        0.394815   -0.200237    1.564160
     11          1           0        0.011139   -1.160388    0.144208
     12          1           0        4.036403   -0.144997   -0.545684
 ---------------------------------------------------------------------

 SCF Done:  E(RHF) =  -267.575120381     A.U. after    2 cycles

 The electronic state is 1-A.
 Alpha  occ. eigenvalues --  -20.64746 -11.39626 -11.26416 -11.24249 -11.24238
 Alpha  occ. eigenvalues --  -11.22780  -1.44192  -1.07496  -0.99489  -0.91176
 Alpha  occ. eigenvalues --   -0.81456  -0.73359  -0.71761  -0.67355  -0.64170
 Alpha  occ. eigenvalues --   -0.61546  -0.60657  -0.55420  -0.52347  -0.39383
 Alpha  occ. eigenvalues --   -0.38576  -0.31370
 Alpha virt. eigenvalues --    0.03324   0.04047   0.04719   0.05480   0.05952
 Alpha virt. eigenvalues --    0.07390   0.07710   0.09334   0.11221   0.11344
 Alpha virt. eigenvalues --    0.11961   0.12318   0.13814   0.14484   0.14929

 Mulliken charges:
               1
     1  O   -0.246818
     2  C    0.324861
     3  C    0.015024
     4  C   -0.086061
     5  C   -0.461228
     6  C    0.941820
     7  H    0.375357
     8  H   -0.239849
     9  H   -0.114886
    10  H   -0.012157
    11  H    0.028002
    12  H   -0.524066
 Sum of Mulliken charges =  -0.00000

 Dipole moment (field-independent basis, Debye):
    X=             -0.5606    Y=              2.1795    Z=              0.6578  Tot=              2.3446

 Test job not archived.
 1\1\GINC-SE163\SP\RHF\Aug-CC-pVDZ\C5H6O1\OHZDE\09-Apr-2025\0\\#t hf au
 g-cc-pvdz iop(5/13=1,5/36=2,99/5=2) pseudo=read geom=check guess=(read
 ,tcheck) scf=(maxcycle=1)\\title\\0,1\O,0,-2.52044909,0.7195499,-0.712
 53866\C,0,-2.49434064,-0.03994695,0.16822362\C,0,-0.57043185,-0.181833
 01,0.87016405\C,0,0.25265561,-0.19062292,-0.39966204\C,0,1.65531534,0.
 15617281,-0.17453068\C,0,2.79918057,0.44179354,0.03741925\H,0,-2.13862
 171,-0.71239767,0.9631627\H,0,-0.32070747,-1.00385781,1.5482517\H,0,-0
 .51624458,0.76552396,1.40996354\H,0,0.20876859,-1.17431499,-0.87698327

 Normal termination of Gaussian 16 at Wed Apr  9 14:22:12 2025.
