 Gaussian 16, Revision C.01,

 ----------------------------------------------------------------------
 #t hf aug-cc-pvdz symm=none int=(grid=ultrafine) guess=(read,tcheck) s
 table=(opt,rrhf)
 ----------------------------------------------------------------------
 -----
 title
 -----
 Symbolic Z-matrix:
 Charge =  0 Multiplicity = 1

 SCF Done:  E(RHF) =  -343.669871935     A.U. after   15 cycles
 Normal termination of Gaussian 16 at Wed Apr  9 03:34:23 2025.
 Gaussian 16:  ES64L-G16RevC.01  3-Jul-2019

 ----------------------------------------------------------------------
 #t hf aug-cc-pvdz iop(5/13=1,5/36=2,99/5=2) pseudo=read geom=check gue
 ss=(read,tcheck) scf=(maxcycle=1)
 ----------------------------------------------------------------------
 -----
 title
 -----
 Structure from the checkpoint file:  "Grambow2020_wb97xd3_007147_reverse_mol2.chk"
 Charge =  0 Multiplicity = 1

                         Standard orientation:
 ---------------------------------------------------------------------
 Center     Atomic      Atomic             Coordinates (Angstroms)
 Number     Number       Type             X           Y           Z
 ---------------------------------------------------------------------
      1          8           0        2.896228   -1.352212   -0.152739
      2          6           0       -1.438014   -0.119047    0.070223
      3          6           0       -0.030717   -0.095389    0.508914
      4          6           0        0.652649    1.204626    0.178059
      5          8           0        1.820012    1.308883   -0.096308
      6          6           0       -2.694312   -0.933449    0.059190
      7          6           0       -2.441280    0.426805   -0.523715
      8          1           0        2.769972   -0.393144   -0.174227
      9          1           0        0.011285   -0.214690    1.599472
     10          1           0        0.539906   -0.931673    0.095614
     11          1           0        0.010080    2.105502    0.214698
     12          1           0       -3.281691   -1.028338    0.972378
     13          1           0       -2.763880   -1.798580   -0.599358
     14          1           0        3.567130   -1.544066   -0.808068
     15          1           0       -2.872679    1.250337   -1.064165
 ---------------------------------------------------------------------

 SCF Done:  E(RHF) =  -343.779973847     A.U. after    2 cycles

 The electronic state is 1-A.
 Alpha  occ. eigenvalues --  -20.59472 -20.55677 -11.36550 -11.27234 -11.27121
 Alpha  occ. eigenvalues --  -11.25895 -11.25604  -1.38589  -1.29229  -1.17415
 Alpha  occ. eigenvalues --   -1.04497  -0.83714  -0.82929  -0.75690  -0.71901
 Alpha  occ. eigenvalues --   -0.70737  -0.66855  -0.65320  -0.62481  -0.59574
 Alpha  occ. eigenvalues --   -0.57827  -0.54286  -0.50905  -0.50474  -0.46782
 Alpha  occ. eigenvalues --   -0.42279  -0.36426
 Alpha virt. eigenvalues --    0.03161   0.04149   0.04453   0.04684   0.06111
 Alpha virt. eigenvalues --    0.06516   0.08042   0.08387   0.09770   0.10398
 Alpha virt. eigenvalues --    0.11123   0.11792   0.12812   0.13228   0.14025

 Mulliken charges:
               1
     1  O   -0.341510
     2  C   -0.683547
     3  C   -0.012578
     4  C    0.750573
     5  O   -0.454153
     6  C    0.683691
     7  C    0.367975
     8  H    0.189880
     9  H    0.129201
    10  H    0.042671
    11  H   -0.181685
    12  H   -0.126220
    13  H   -0.120917
    14  H    0.163678
    15  H   -0.407058
 Sum of Mulliken charges =  -0.00000

 Dipole moment (field-independent basis, Debye):
    X=             -1.9988    Y=              1.0553    Z=             -0.2868  Tot=              2.2784

 Test job not archived.
 1\1\GINC-SE398\SP\RHF\Aug-CC-pVDZ\C5H8O2\OHZDE\09-Apr-2025\0\\#t hf au
 g-cc-pvdz iop(5/13=1,5/36=2,99/5=2) pseudo=read geom=check guess=(read
 ,tcheck) scf=(maxcycle=1)\\title\\0,1\O,0,1.50342104,-0.94750757,-2.76
 9605\C,0,-0.83513293,0.06270438,0.95419658\C,0,0.37721756,-0.34914964,
 0.22339152\C,0,1.43296854,0.72403048,0.21057816\O,0,2.20793709,0.90508
 371,-0.69248811\C,0,-2.18509702,-0.38679848,1.42024709\C,0,-1.51439992
 ,0.9441542,1.60142421\H,0,1.92678942,-0.26947948,-2.22439904\H,0,0.815
 2989,-1.22824368,0.71389504\H,0,0.15088773,-0.66098973,-0.79999959\H,0

 Normal termination of Gaussian 16 at Wed Apr  9 03:34:28 2025.
