 Gaussian 16, Revision C.01,

 ----------------------------------------------------------------------
 #t hf aug-cc-pvdz symm=none int=(grid=ultrafine) guess=(read,tcheck) s
 table=(opt,rrhf)
 ----------------------------------------------------------------------
 -----
 title
 -----
 Symbolic Z-matrix:
 Charge =  0 Multiplicity = 1

 SCF Done:  E(RHF) =  -336.677397325     A.U. after   14 cycles
 Normal termination of Gaussian 16 at Wed Apr  9 14:18:03 2025.
 Gaussian 16:  ES64L-G16RevC.01  3-Jul-2019

 ----------------------------------------------------------------------
 #t hf aug-cc-pvdz iop(5/13=1,5/36=2,99/5=2) pseudo=read geom=check gue
 ss=(read,tcheck) scf=(maxcycle=1)
 ----------------------------------------------------------------------
 -----
 title
 -----
 Structure from the checkpoint file:  "Grambow2020_b97d3_007116_forward_mol1.chk"
 Charge =  0 Multiplicity = 1

                         Standard orientation:
 ---------------------------------------------------------------------
 Center     Atomic      Atomic             Coordinates (Angstroms)
 Number     Number       Type             X           Y           Z
 ---------------------------------------------------------------------
      1          7           0        1.499370   -0.987236    0.024707
      2          6           0        0.810138    0.185220   -0.005720
      3          8           0        1.298837    1.312104   -0.025352
      4          6           0       -0.691676   -0.026588   -0.005027
      5          8           0       -1.269238   -1.194522   -0.028584
      6          7           0       -1.614045    0.895232    0.027774
      7          1           0        1.004459   -1.872474    0.036592
      8          1           0        2.512964   -0.970193    0.033776
      9          1           0       -2.260587   -0.298488    0.006267
     10          1           0       -1.401684    1.892740    0.051971
 ---------------------------------------------------------------------

 SCF Done:  E(RHF) =  -336.781101803     A.U. after    2 cycles

 The electronic state is 1-A.
 Alpha  occ. eigenvalues --  -20.58872 -20.57523 -15.68091 -15.65091 -11.41106
 Alpha  occ. eigenvalues --  -11.39766  -1.39705  -1.36719  -1.20794  -1.16487
 Alpha  occ. eigenvalues --   -0.93725  -0.79774  -0.79096  -0.72097  -0.68586
 Alpha  occ. eigenvalues --   -0.64072  -0.63916  -0.58523  -0.57876  -0.48848
 Alpha  occ. eigenvalues --   -0.47636  -0.44504  -0.42166
 Alpha virt. eigenvalues --    0.03019   0.04138   0.05129   0.06807   0.06961
 Alpha virt. eigenvalues --    0.10047   0.10185   0.12523   0.12886   0.13840
 Alpha virt. eigenvalues --    0.14386   0.15766   0.16456   0.17043   0.19304

 Mulliken charges:
               1
     1  N   -0.176973
     2  C    0.719614
     3  O   -0.511867
     4  C    0.594121
     5  O   -0.741092
     6  N   -0.485270
     7  H    0.048399
     8  H    0.027779
     9  H    0.520048
    10  H    0.005240
 Sum of Mulliken charges =   0.00000

 Dipole moment (field-independent basis, Debye):
    X=              0.6662    Y=             -1.4479    Z=              0.1625  Tot=              1.6021

 Test job not archived.
 1\1\GINC-SE220\SP\RHF\Aug-CC-pVDZ\C2H4N2O2\OHZDE\09-Apr-2025\0\\#t hf
 aug-cc-pvdz iop(5/13=1,5/36=2,99/5=2) pseudo=read geom=check guess=(re
 ad,tcheck) scf=(maxcycle=1)\\title\\0,1\N,0,-1.71255567,0.08710715,0.3
 4361845\C,0,-0.52672753,0.69015692,0.05942793\O,0,-0.34382071,1.896466
 7,-0.08354201\C,0,0.60902468,-0.30506254,-0.08168023\O,0,0.48752721,-1
 .5896687,0.10060407\N,0,1.84515136,-0.04405664,-0.40642757\H,0,-1.7634
 2834,-0.92069739,0.44591708\H,0,-2.546345,0.653049,0.45430173\H,0,1.76
 707572,-1.38794121,-0.22943406\H,0,2.18108627,0.89951671,-0.6001304\\V

 Normal termination of Gaussian 16 at Wed Apr  9 14:18:06 2025.
