 Gaussian 16, Revision C.01,

 ----------------------------------------------------------------------
 #t hf aug-cc-pvdz symm=none int=(grid=ultrafine) guess=(read,tcheck) s
 table=(opt,rrhf)
 ----------------------------------------------------------------------
 -----
 title
 -----
 Symbolic Z-matrix:
 Charge =  0 Multiplicity = 1

 SCF Done:  E(RHF) =  -283.640916696     A.U. after   15 cycles
 Normal termination of Gaussian 16 at Wed Apr  9 14:19:04 2025.
 Gaussian 16:  ES64L-G16RevC.01  3-Jul-2019

 ----------------------------------------------------------------------
 #t hf aug-cc-pvdz iop(5/13=1,5/36=2,99/5=2) pseudo=read geom=check gue
 ss=(read,tcheck) scf=(maxcycle=1)
 ----------------------------------------------------------------------
 -----
 title
 -----
 Structure from the checkpoint file:  "Grambow2020_b97d3_007170_reverse_mol2.chk"
 Charge =  0 Multiplicity = 1

                         Standard orientation:
 ---------------------------------------------------------------------
 Center     Atomic      Atomic             Coordinates (Angstroms)
 Number     Number       Type             X           Y           Z
 ---------------------------------------------------------------------
      1          6           0        2.634372    0.703146    0.038373
      2          7           0        1.823551   -0.515092   -0.086368
      3          6           0        0.501534   -0.479921   -0.015941
      4          8           0       -2.808735    0.742524   -0.029308
      5          6           0       -0.727222   -0.375075    0.003225
      6          6           0       -2.151041   -0.295860    0.038721
      7          1           0        3.633486    0.505017   -0.368328
      8          1           0        2.724525    1.034442    1.084401
      9          1           0        2.162373    1.498202   -0.548383
     10          1           0        2.281765   -1.392427    0.146668
     11          1           0       -2.642992   -1.293513    0.138414
 ---------------------------------------------------------------------

 SCF Done:  E(RHF) =  -283.730429725     A.U. after    2 cycles

 The electronic state is 1-A.
 Alpha  occ. eigenvalues --  -20.56090 -15.68863 -11.36082 -11.31818 -11.30098
 Alpha  occ. eigenvalues --  -11.25057  -1.33461  -1.24332  -1.04260  -0.96218
 Alpha  occ. eigenvalues --   -0.88693  -0.77748  -0.70622  -0.66724  -0.64672
 Alpha  occ. eigenvalues --   -0.63799  -0.57942  -0.55084  -0.49823  -0.45054
 Alpha  occ. eigenvalues --   -0.40897  -0.35035
 Alpha virt. eigenvalues --    0.02240   0.03586   0.04579   0.04962   0.06658
 Alpha virt. eigenvalues --    0.08539   0.09794   0.10198   0.11184   0.11773
 Alpha virt. eigenvalues --    0.12821   0.13961   0.14606   0.14902   0.15728

 Mulliken charges:
               1
     1  C    0.733248
     2  N   -0.269834
     3  C   -0.367275
     4  O   -0.513086
     5  C    0.175486
     6  C    0.571953
     7  H   -0.154710
     8  H   -0.037452
     9  H   -0.094746
    10  H   -0.005827
    11  H   -0.037755
 Sum of Mulliken charges =   0.00000

 Dipole moment (field-independent basis, Debye):
    X=              5.6850    Y=             -2.6264    Z=              0.5791  Tot=              6.2891

 Test job not archived.
 1\1\GINC-SE232\SP\RHF\Aug-CC-pVDZ\C4H5N1O1\OHZDE\09-Apr-2025\0\\#t hf
 aug-cc-pvdz iop(5/13=1,5/36=2,99/5=2) pseudo=read geom=check guess=(re
 ad,tcheck) scf=(maxcycle=1)\\title\\0,1\C,0,-2.08795047,0.06738743,-0.
 41826084\N,0,-0.73344981,0.09220848,-0.98554237\C,0,0.34305173,0.08116
 58,-0.21421341\O,0,2.41764451,-0.31383149,2.61288262\C,0,1.30554269,0.
 01380235,0.55408062\C,0,2.44370763,-0.04443766,1.41197527\H,0,-2.79169
 657,-0.24539727,-1.19915555\H,0,-2.3901112,1.05084241,-0.02637394\H,0,
 -2.11187948,-0.66408759,0.39632512\H,0,-0.63771634,0.48733948,-1.91757

 Normal termination of Gaussian 16 at Wed Apr  9 14:19:08 2025.
