 Gaussian 16, Revision C.01,

 ----------------------------------------------------------------------
 #t hf aug-cc-pvdz symm=none int=(grid=ultrafine) guess=(read,tcheck) s
 table=(opt,rrhf)
 ----------------------------------------------------------------------
 -----
 title
 -----
 Symbolic Z-matrix:
 Charge =  0 Multiplicity = 1

 SCF Done:  E(RHF) =  -359.664851224     A.U. after   15 cycles
 Normal termination of Gaussian 16 at Wed Apr  9 17:12:27 2025.
 Gaussian 16:  ES64L-G16RevC.01  3-Jul-2019

 ----------------------------------------------------------------------
 #t hf aug-cc-pvdz iop(5/13=1,5/36=2,99/5=2) pseudo=read geom=check gue
 ss=(read,tcheck) scf=(maxcycle=1)
 ----------------------------------------------------------------------
 -----
 title
 -----
 Structure from the checkpoint file:  "Grambow2020_wb97xd3_009392_forward_mol1.chk"
 Charge =  0 Multiplicity = 1

                         Standard orientation:
 ---------------------------------------------------------------------
 Center     Atomic      Atomic             Coordinates (Angstroms)
 Number     Number       Type             X           Y           Z
 ---------------------------------------------------------------------
      1          6           0       -0.784496    1.588270   -0.106261
      2          7           0       -0.312095    0.210243   -0.021048
      3          6           0       -1.248072   -0.819292    0.076707
      4          8           0       -2.430102   -0.633182    0.048658
      5          6           0        1.010671   -0.073420    0.015430
      6          8           0        1.859482    0.881605    0.147729
      7          6           0        1.716635   -1.302095   -0.158957
      8          1           0       -1.743659    1.588052   -0.618083
      9          1           0       -0.911961    2.012372    0.889520
     10          1           0       -0.052215    2.176032   -0.652982
     11          1           0       -0.777374   -1.805387    0.188315
     12          1           0        2.199934   -1.620303    0.762810
     13          1           0        2.567742   -0.054856   -0.214314
     14          1           0        1.298729   -2.115768   -0.740538
 ---------------------------------------------------------------------

 SCF Done:  E(RHF) =  -359.780359398     A.U. after    2 cycles

 The electronic state is 1-A.
 Alpha  occ. eigenvalues --  -20.60174 -20.58880 -15.71039 -11.40995 -11.39858
 Alpha  occ. eigenvalues --  -11.29184 -11.21842  -1.41513  -1.39719  -1.26243
 Alpha  occ. eigenvalues --   -1.03128  -0.96596  -0.91513  -0.79484  -0.73580
 Alpha  occ. eigenvalues --   -0.70533  -0.69334  -0.66588  -0.65312  -0.61146
 Alpha  occ. eigenvalues --   -0.58759  -0.57664  -0.56047  -0.52318  -0.48778
 Alpha  occ. eigenvalues --   -0.44925  -0.35228
 Alpha virt. eigenvalues --    0.03305   0.03945   0.04487   0.05053   0.06485
 Alpha virt. eigenvalues --    0.07147   0.07655   0.09456   0.09673   0.11134
 Alpha virt. eigenvalues --    0.11730   0.12636   0.13371   0.14391   0.15278

 Mulliken charges:
               1
     1  C    0.766960
     2  N   -0.305677
     3  C    0.650655
     4  O   -0.414356
     5  C    0.070898
     6  O   -0.662121
     7  C    0.343824
     8  H   -0.135409
     9  H   -0.068900
    10  H   -0.137147
    11  H   -0.226419
    12  H   -0.076804
    13  H    0.472399
    14  H   -0.277903
 Sum of Mulliken charges =  -0.00000

 Dipole moment (field-independent basis, Debye):
    X=              0.5002    Y=             -0.1543    Z=              0.0705  Tot=              0.5282

 Test job not archived.
 1\1\GINC-SE174\SP\RHF\Aug-CC-pVDZ\C4H7N1O2\OHZDE\09-Apr-2025\0\\#t hf
 aug-cc-pvdz iop(5/13=1,5/36=2,99/5=2) pseudo=read geom=check guess=(re
 ad,tcheck) scf=(maxcycle=1)\\title\\0,1\C,0,-1.61869542,-0.84977821,-0
 .3118489\N,0,-0.52161507,0.03672985,0.06218122\C,0,-0.81202548,1.22236
 163,0.73708179\O,0,-1.91983188,1.53169239,1.06828995\C,0,0.75587304,-0
 .2505734,-0.27985261\O,0,0.99206823,-1.22212346,-1.08630001\C,0,1.9972
 7157,0.29282929,0.16968137\H,0,-2.4048825,-0.75088379,0.43252019\H,0,-
 2.01658308,-0.57657591,-1.28895492\H,0,-1.2464854,-1.86984061,-0.35104

 Normal termination of Gaussian 16 at Wed Apr  9 17:12:32 2025.
