 Gaussian 16, Revision C.01,

 ----------------------------------------------------------------------
 #t hf aug-cc-pvdz symm=none int=(grid=ultrafine) guess=(read,tcheck) s
 table=(opt,rrhf)
 ----------------------------------------------------------------------
 -----
 title
 -----
 Symbolic Z-matrix:
 Charge =  0 Multiplicity = 1

 SCF Done:  E(RHF) =  -338.568931977     A.U. after   16 cycles
 Normal termination of Gaussian 16 at Wed Apr  9 16:30:03 2025.
 Gaussian 16:  ES64L-G16RevC.01  3-Jul-2019

 ----------------------------------------------------------------------
 #t hf aug-cc-pvdz iop(5/13=1,5/36=2,99/5=2) pseudo=read geom=check gue
 ss=(read,tcheck) scf=(maxcycle=1)
 ----------------------------------------------------------------------
 -----
 title
 -----
 Structure from the checkpoint file:  "Grambow2020_wb97xd3_008479_forward_mol1.chk"
 Charge =  0 Multiplicity = 1

                         Standard orientation:
 ---------------------------------------------------------------------
 Center     Atomic      Atomic             Coordinates (Angstroms)
 Number     Number       Type             X           Y           Z
 ---------------------------------------------------------------------
      1          7           0        0.584102    1.564055    0.559128
      2          6           0        0.222571    0.732645   -0.426452
      3          6           0       -0.854210   -0.207652   -0.211261
      4          8           0       -2.137371    0.193062   -0.179032
      5          6           0       -0.232606   -1.302496    0.292299
      6          6           0        1.187322   -1.010615    0.285871
      7          7           0        1.351694   -0.025229   -0.731805
      8          1           0        1.082208    0.366252    1.203895
      9          1           0       -0.221107    1.963556    1.035562
     10          1           0       -2.682760   -0.506432    0.189114
     11          1           0       -0.680214   -2.148232    0.795479
     12          1           0        1.928445   -1.800042    0.382247
     13          1           0        2.183354    0.537330   -0.608049
 ---------------------------------------------------------------------

 SCF Done:  E(RHF) =  -338.668512267     A.U. after    2 cycles

 The electronic state is 1-A.
 Alpha  occ. eigenvalues --  -20.62582 -15.64449 -15.64412 -11.32054 -11.31825
 Alpha  occ. eigenvalues --  -11.29503 -11.25456  -1.39278  -1.29975  -1.12864
 Alpha  occ. eigenvalues --   -1.06004  -0.93526  -0.82691  -0.80285  -0.73069
 Alpha  occ. eigenvalues --   -0.69103  -0.65918  -0.64817  -0.61333  -0.57874
 Alpha  occ. eigenvalues --   -0.56093  -0.54956  -0.46163  -0.42313  -0.36936
 Alpha  occ. eigenvalues --   -0.29931
 Alpha virt. eigenvalues --    0.02626   0.03780   0.04698   0.05701   0.06741
 Alpha virt. eigenvalues --    0.07133   0.08006   0.10326   0.10507   0.11104
 Alpha virt. eigenvalues --    0.12370   0.13212   0.13683   0.14437   0.15346

 Mulliken charges:
               1
     1  N   -0.467963
     2  C    0.161986
     3  C    0.277451
     4  O   -0.546184
     5  C    0.811357
     6  C    0.143111
     7  N   -0.469996
     8  H    0.482303
     9  H    0.003823
    10  H    0.149232
    11  H   -0.322260
    12  H   -0.296881
    13  H    0.074021
 Sum of Mulliken charges =  -0.00000

 Dipole moment (field-independent basis, Debye):
    X=             -1.1465    Y=             -2.1027    Z=              1.5459  Tot=              2.8506

 Test job not archived.
 1\1\GINC-SE220\SP\RHF\Aug-CC-pVDZ\C4H6N2O1\OHZDE\09-Apr-2025\0\\#t hf
 aug-cc-pvdz iop(5/13=1,5/36=2,99/5=2) pseudo=read geom=check guess=(re
 ad,tcheck) scf=(maxcycle=1)\\title\\0,1\N,0,1.51166243,0.90425474,-0.2
 6872466\C,0,0.62944522,0.5203969,0.6627584\C,0,0.12422859,-0.83408823,
 0.65560038\O,0,0.8855218,-1.86718923,1.05715494\C,0,-0.96646177,-0.768
 91618,-0.14739041\C,0,-1.1195193,0.62261724,-0.52374041\N,0,-0.4780253
 5,1.35425187,0.51878706\H,0,0.39330038,0.78824425,-1.18216589\H,0,2.22
 764287,0.19957017,-0.42917242\H,0,0.47953344,-2.69194399,0.77926017\H,

 Normal termination of Gaussian 16 at Wed Apr  9 16:30:07 2025.
