 Gaussian 16, Revision C.01,

 ----------------------------------------------------------------------
 #t hf aug-cc-pvdz symm=none int=(grid=ultrafine) guess=(read,tcheck) s
 table=(opt,rrhf)
 ----------------------------------------------------------------------
 -----
 title
 -----
 Symbolic Z-matrix:
 Charge =  0 Multiplicity = 1

 SCF Done:  E(RHF) =  -358.434760782     A.U. after   17 cycles
 Normal termination of Gaussian 16 at Wed Apr  9 03:28:04 2025.
 Gaussian 16:  ES64L-G16RevC.01  3-Jul-2019

 ----------------------------------------------------------------------
 #t hf aug-cc-pvdz iop(5/13=1,5/36=2,99/5=2) pseudo=read geom=check gue
 ss=(read,tcheck) scf=(maxcycle=1)
 ----------------------------------------------------------------------
 -----
 title
 -----
 Structure from the checkpoint file:  "Grambow2020_wb97xd3_006748_reverse_mol1.chk"
 Charge =  0 Multiplicity = 1

                         Standard orientation:
 ---------------------------------------------------------------------
 Center     Atomic      Atomic             Coordinates (Angstroms)
 Number     Number       Type             X           Y           Z
 ---------------------------------------------------------------------
      1          8           0        1.935857   -1.096050   -0.114883
      2          6           0        1.703419    0.056528    0.093442
      3          6           0        0.310084    0.676398   -0.037218
      4          8           0        0.160139    1.868821    0.060487
      5          7           0       -0.675746   -0.221712   -0.368433
      6          6           0       -2.047416    0.073701   -0.038763
      7          6           0       -0.953927   -1.400572    0.394094
      8          1           0        2.470701    0.791825    0.396394
      9          1           0       -2.736141   -0.034353   -0.868484
     10          1           0       -2.139082    0.991255    0.537033
     11          1           0       -2.266744   -0.727702    0.802014
     12          1           0       -1.439440   -2.087548   -0.322083
 ---------------------------------------------------------------------

 SCF Done:  E(RHF) =  -358.543550284     A.U. after    2 cycles

 The electronic state is 1-A.
 Alpha  occ. eigenvalues --  -20.61438 -20.59189 -15.68250 -11.39600 -11.37264
 Alpha  occ. eigenvalues --  -11.33148 -11.32393  -1.41234  -1.39162  -1.28545
 Alpha  occ. eigenvalues --   -1.02181  -0.91493  -0.91006  -0.77215  -0.71799
 Alpha  occ. eigenvalues --   -0.71652  -0.69632  -0.67618  -0.61429  -0.59518
 Alpha  occ. eigenvalues --   -0.57585  -0.55506  -0.53576  -0.47003  -0.45714
 Alpha  occ. eigenvalues --   -0.36757
 Alpha virt. eigenvalues --    0.02850   0.04265   0.04406   0.04655   0.05420
 Alpha virt. eigenvalues --    0.07457   0.09234   0.09976   0.10382   0.10717
 Alpha virt. eigenvalues --    0.11532   0.13343   0.13613   0.14349   0.15071

 Mulliken charges:
               1
     1  O   -0.397589
     2  C    0.675295
     3  C    0.268775
     4  O   -0.436928
     5  N   -0.619797
     6  C    0.637821
     7  C    0.025233
     8  H   -0.082654
     9  H   -0.137321
    10  H   -0.114960
    11  H    0.212002
    12  H   -0.029878
 Sum of Mulliken charges =  -0.00000

 Dipole moment (field-independent basis, Debye):
    X=             -2.5903    Y=              0.2904    Z=             -0.4357  Tot=              2.6426

 Test job not archived.
 1\1\GINC-SE090\SP\RHF\Aug-CC-pVDZ\C4H5N1O2\OHZDE\09-Apr-2025\0\\#t hf
 aug-cc-pvdz iop(5/13=1,5/36=2,99/5=2) pseudo=read geom=check guess=(re
 ad,tcheck) scf=(maxcycle=1)\\title\\0,1\O,0,1.86850229,1.38486244,1.16
 569335\C,0,2.07479242,0.42590726,0.48472978\C,0,0.97278942,-0.51359558
 ,-0.0108685\O,0,1.25384666,-1.53519684,-0.58640357\N,0,-0.29632718,-0.
 132199,0.35251192\C,0,-1.4243511,-0.58326057,-0.4230748\C,0,-0.8501494
 4,1.15115091,0.04455325\H,0,3.08126761,0.11776139,0.14825192\H,0,-2.21
 767614,-1.0287925,0.16564487\H,0,-1.11587788,-1.14215661,-1.30303331\H

 Normal termination of Gaussian 16 at Wed Apr  9 03:28:09 2025.
