 Gaussian 16, Revision C.01,

 ----------------------------------------------------------------------
 #t hf aug-cc-pvdz symm=none int=(grid=ultrafine) guess=(read,tcheck) s
 table=(opt,rrhf)
 ----------------------------------------------------------------------
 -----
 title
 -----
 Symbolic Z-matrix:
 Charge =  0 Multiplicity = 1

 SCF Done:  E(RHF) =  -302.215987226     A.U. after   17 cycles
 Normal termination of Gaussian 16 at Wed Apr  9 03:09:09 2025.
 Gaussian 16:  ES64L-G16RevC.01  3-Jul-2019

 ----------------------------------------------------------------------
 #t hf aug-cc-pvdz iop(5/13=1,5/36=2,99/5=2) pseudo=read geom=check gue
 ss=(read,tcheck) scf=(maxcycle=1)
 ----------------------------------------------------------------------
 -----
 title
 -----
 Structure from the checkpoint file:  "Grambow2020_b97d3_006711_forward_mol1.chk"
 Charge =  0 Multiplicity = 1

                         Standard orientation:
 ---------------------------------------------------------------------
 Center     Atomic      Atomic             Coordinates (Angstroms)
 Number     Number       Type             X           Y           Z
 ---------------------------------------------------------------------
      1          8           0       -1.791075   -0.806608    0.095486
      2          6           0       -1.427360    0.343667   -0.060983
      3          6           0       -0.041566    0.831721    0.002952
      4          6           0        0.956707    1.625955   -0.158736
      5          6           0        1.207585   -0.280639    0.380854
      6          8           0        1.334753   -1.209870   -0.359186
      7          1           0       -2.133084    1.178146   -0.272585
      8          1           0        1.611468   -0.170538    1.397667
 ---------------------------------------------------------------------

 SCF Done:  E(RHF) =  -302.306245434     A.U. after    2 cycles

 The electronic state is 1-A.
 Alpha  occ. eigenvalues --  -20.64237 -20.61609 -11.42706 -11.40594 -11.33896
 Alpha  occ. eigenvalues --  -11.30222  -1.42602  -1.39319  -1.13079  -0.93950
 Alpha  occ. eigenvalues --   -0.86059  -0.76902  -0.72830  -0.70299  -0.66520
 Alpha  occ. eigenvalues --   -0.60219  -0.59112  -0.52415  -0.47952  -0.46605
 Alpha  occ. eigenvalues --   -0.44482
 Alpha virt. eigenvalues --    0.00943   0.03437   0.03830   0.04127   0.06799
 Alpha virt. eigenvalues --    0.08156   0.09728   0.10261   0.10767   0.12231
 Alpha virt. eigenvalues --    0.12862   0.13852   0.15088   0.15691   0.16121

 Mulliken charges:
               1
     1  O   -0.420556
     2  C    0.659350
     3  C    0.069372
     4  C   -0.257653
     5  C    0.427775
     6  O   -0.397307
     7  H   -0.027189
     8  H   -0.053794
 Sum of Mulliken charges =  -0.00000

 Dipole moment (field-independent basis, Debye):
    X=             -0.3878    Y=              2.8117    Z=              1.5948  Tot=              3.2557

 Test job not archived.
 1\1\GINC-SE021\SP\RHF\Aug-CC-pVDZ\C4H2O2\OHZDE\09-Apr-2025\0\\#t hf au
 g-cc-pvdz iop(5/13=1,5/36=2,99/5=2) pseudo=read geom=check guess=(read
 ,tcheck) scf=(maxcycle=1)\\title\\0,1\O,0,-1.61852282,0.27184205,1.120
 65038\C,0,-1.39928049,-0.27508518,0.0563636\C,0,-0.10157148,-0.3452604
 5,-0.63192176\C,0,0.79210167,-0.74848223,-1.46394315\C,0,1.24755426,0.
 4474126,0.06954822\O,0,1.56057084,0.09481919,1.16727333\H,0,-2.1891125
 3,-0.79510102,-0.53094084\H,0,1.54426055,1.36958304,-0.45075778\\Versi
 on=ES64L-G16RevC.01\State=1-A\HF=-302.3062454\RMSD=4.989e-03\Dipole=-0

 Normal termination of Gaussian 16 at Wed Apr  9 03:09:12 2025.
