 Gaussian 16, Revision C.01,

 ----------------------------------------------------------------------
 #t hf aug-cc-pvdz symm=none int=(grid=ultrafine) guess=(read,tcheck) s
 table=(opt,rrhf)
 ----------------------------------------------------------------------
 -----
 title
 -----
 Symbolic Z-matrix:
 Charge =  0 Multiplicity = 1

 SCF Done:  E(RHF) =  -338.988763576     A.U. after   19 cycles
 Normal termination of Gaussian 16 at Wed Apr  9 14:11:55 2025.
 Gaussian 16:  ES64L-G16RevC.01  3-Jul-2019

 ----------------------------------------------------------------------
 #t hf aug-cc-pvdz iop(5/13=1,5/36=2,99/5=2) pseudo=read geom=check gue
 ss=(read,tcheck) scf=(maxcycle=1)
 ----------------------------------------------------------------------
 -----
 title
 -----
 Structure from the checkpoint file:  "Grambow2020_b97d3_006816_reverse_mol1.chk"
 Charge =  0 Multiplicity = 1

                         Standard orientation:
 ---------------------------------------------------------------------
 Center     Atomic      Atomic             Coordinates (Angstroms)
 Number     Number       Type             X           Y           Z
 ---------------------------------------------------------------------
      1          8           0        1.560162    0.292440   -0.373836
      2          6           0       -0.248509    1.619079    0.206126
      3          6           0       -0.901990    0.534520    0.179319
      4          8           0       -1.437752   -0.528674   -0.519866
      5          6           0       -0.299848   -0.860779    0.368716
      6          8           0        1.029170   -0.861014    0.151149
      7          1           0        0.068452    2.637541    0.313086
      8          1           0       -0.579009   -1.616471    1.102382
 ---------------------------------------------------------------------

 SCF Done:  E(RHF) =  -339.093979423     A.U. after    2 cycles

 The electronic state is 1-A.
 Alpha  occ. eigenvalues --  -20.69630 -20.65990 -20.56304 -11.44188 -11.38256
 Alpha  occ. eigenvalues --  -11.37502  -1.47965  -1.42035  -1.14000  -1.09152
 Alpha  occ. eigenvalues --   -0.91147  -0.83655  -0.76301  -0.75226  -0.71237
 Alpha  occ. eigenvalues --   -0.66267  -0.62489  -0.57894  -0.49147  -0.47733
 Alpha  occ. eigenvalues --   -0.40406  -0.38688
 Alpha virt. eigenvalues --   -0.02410   0.02876   0.03599   0.06933   0.08305
 Alpha virt. eigenvalues --    0.08796   0.10715   0.11334   0.12086   0.12934
 Alpha virt. eigenvalues --    0.13560   0.14864   0.15453   0.16147   0.20130

 Mulliken charges:
               1
     1  O   -0.528075
     2  C    0.697703
     3  C    0.157619
     4  O   -0.604356
     5  C    1.013578
     6  O   -0.321825
     7  H   -0.234068
     8  H   -0.180576
 Sum of Mulliken charges =  -0.00000

 Dipole moment (field-independent basis, Debye):
    X=             -3.9148    Y=              2.0107    Z=              2.5304  Tot=              5.0766

 Test job not archived.
 1\1\GINC-SE138\SP\RHF\Aug-CC-pVDZ\C3H2O3\OHZDE\09-Apr-2025\0\\#t hf au
 g-cc-pvdz iop(5/13=1,5/36=2,99/5=2) pseudo=read geom=check guess=(read
 ,tcheck) scf=(maxcycle=1)\\title\\0,1\O,0,0.03209639,-0.78509737,1.579
 44562\C,0,-1.07209743,0.90991582,0.45015264\C,0,-0.17111266,0.75246315
 ,-0.42589451\O,0,1.14760669,0.84670228,-0.8238665\C,0,0.63693292,-0.53
 127706,-0.63656084\O,0,0.5971953,-1.32610949,0.44984946\H,0,-1.9314825
 7,1.21941674,1.01125567\H,0,0.73688536,-1.11715906,-1.54980655\\Versio
 n=ES64L-G16RevC.01\State=1-A\HF=-339.0939794\RMSD=5.549e-03\Dipole=-1.

 Normal termination of Gaussian 16 at Wed Apr  9 14:11:57 2025.
