 Gaussian 16, Revision C.01,

 ----------------------------------------------------------------------
 #t hf aug-cc-pvdz symm=none int=(grid=ultrafine) guess=(read,tcheck) s
 table=(opt,rrhf)
 ----------------------------------------------------------------------
 -----
 title
 -----
 Symbolic Z-matrix:
 Charge =  0 Multiplicity = 1

 SCF Done:  E(RHF) =  -344.649774804     A.U. after   16 cycles

 1\1\GINC-SE071\Stability\RHF\Aug-CC-pVDZ\C5H10O2\OHZDE\09-Apr-2025\0\\
 #t hf aug-cc-pvdz symm=none int=(grid=ultrafine) guess=(read,tcheck) s
 table=(opt,rrhf)\\title\\0,1\O,0,2.24878088,0.86093256,0.28330181\C,0,
 1.90688202,-0.42727815,-0.18725888\C,0,0.44057013,-0.66237309,-0.02504
 937\C,0,-0.5339062,0.36299289,-0.10522483\C,0,-1.88017134,0.34207996,-
 0.93857663\O,0,-2.70215655,0.54655574,0.20373474\C,0,-1.5904722,0.1194
 8221,0.95055836\H,0,3.17335823,1.02350778,0.09338591\H,0,2.46559728,-1
 .20742692,0.34471013\H,0,2.16832104,-0.51717967,-1.25601527\H,0,0.3199

 Normal termination of Gaussian 16 at Wed Apr  9 03:40:44 2025.
 Gaussian 16:  ES64L-G16RevC.01  3-Jul-2019

 ----------------------------------------------------------------------
 #t hf aug-cc-pvdz iop(5/13=1,5/36=2,99/5=2) pseudo=read geom=check gue
 ss=(read,tcheck) scf=(maxcycle=1)
 ----------------------------------------------------------------------
 -----
 title
 -----
 Structure from the checkpoint file:  "Grambow2020_wb97xd3_007549_forward_mol1.chk"
 Charge =  0 Multiplicity = 1

                         Standard orientation:
 ---------------------------------------------------------------------
 Center     Atomic      Atomic             Coordinates (Angstroms)
 Number     Number       Type             X           Y           Z
 ---------------------------------------------------------------------
      1          8           0        2.420130    0.133227   -0.843133
      2          6           0        2.132705   -0.263691    0.482632
      3          6           0        0.683188   -0.057273    0.779183
      4          6           0       -0.341858   -0.167708   -0.192668
      5          6           0       -1.701624   -0.968851   -0.064024
      6          8           0       -2.510000    0.179576   -0.287605
      7          6           0       -1.364190    0.922249    0.046365
      8          1           0        3.331688   -0.085158   -1.039889
      9          1           0        2.739428    0.294633    1.206474
     10          1           0        2.377143   -1.332050    0.615045
     11          1           0        0.580733    1.777902    0.313635
     12          1           0        0.406672   -0.123276    1.826324
     13          1           0        0.011952   -0.193451   -1.221187
     14          1           0       -1.842316   -1.363918    0.942695
     15          1           0       -1.843467   -1.733525   -0.826430
     16          1           0       -0.057581    2.090307   -0.123178
     17          1           0       -1.434617    1.377767    1.043483
 ---------------------------------------------------------------------

 SCF Done:  E(RHF) =  -344.760098936     A.U. after    2 cycles

 The electronic state is 1-A.
 Alpha  occ. eigenvalues --  -20.59254 -20.57960 -11.32655 -11.32379 -11.30121
 Alpha  occ. eigenvalues --  -11.25914 -11.25415  -1.38755  -1.33410  -1.08758
 Alpha  occ. eigenvalues --   -0.98044  -0.93173  -0.83487  -0.78313  -0.72979
 Alpha  occ. eigenvalues --   -0.68626  -0.67692  -0.65922  -0.63745  -0.61286
 Alpha  occ. eigenvalues --   -0.56239  -0.55395  -0.53359  -0.49430  -0.47644
 Alpha  occ. eigenvalues --   -0.46961  -0.45652  -0.26713
 Alpha virt. eigenvalues --    0.02834   0.03663   0.04232   0.05025   0.05333
 Alpha virt. eigenvalues --    0.06055   0.06688   0.07136   0.07929   0.09116
 Alpha virt. eigenvalues --    0.09619   0.11313   0.12562   0.13435   0.14470

 Mulliken charges:
               1
     1  O   -0.579887
     2  C    0.947211
     3  C   -0.193303
     4  C    0.148952
     5  C    0.978418
     6  O   -0.728352
     7  C    0.510594
     8  H    0.159280
     9  H   -0.127117
    10  H   -0.061555
    11  H    0.100931
    12  H   -0.345510
    13  H   -0.347182
    14  H   -0.215427
    15  H   -0.138350
    16  H    0.245283
    17  H   -0.353986
 Sum of Mulliken charges =   0.00000

 Dipole moment (field-independent basis, Debye):
    X=              2.5648    Y=             -2.8990    Z=              1.7036  Tot=              4.2290

 Test job not archived.
 1\1\GINC-SE071\SP\RHF\Aug-CC-pVDZ\C5H10O2\OHZDE\09-Apr-2025\0\\#t hf a
 ug-cc-pvdz iop(5/13=1,5/36=2,99/5=2) pseudo=read geom=check guess=(rea
 d,tcheck) scf=(maxcycle=1)\\title\\0,1\O,0,2.24878088,0.86093256,0.283
 30181\C,0,1.90688202,-0.42727815,-0.18725888\C,0,0.44057013,-0.6623730
 9,-0.02504937\C,0,-0.5339062,0.36299289,-0.10522483\C,0,-1.88017134,0.
 34207996,-0.93857663\O,0,-2.70215655,0.54655574,0.20373474\C,0,-1.5904
 722,0.11948221,0.95055836\H,0,3.17335823,1.02350778,0.09338591\H,0,2.4
 6559728,-1.20742692,0.34471013\H,0,2.16832104,-0.51717967,-1.25601527\

 Normal termination of Gaussian 16 at Wed Apr  9 03:40:50 2025.
