 Gaussian 16, Revision C.01,

 ----------------------------------------------------------------------
 #t hf aug-cc-pvdz symm=none int=(grid=ultrafine) guess=(read,tcheck) s
 table=(opt,rrhf)
 ----------------------------------------------------------------------
 -----
 title
 -----
 Symbolic Z-matrix:
 Charge =  0 Multiplicity = 1

 SCF Done:  E(RHF) =  -325.008389595     A.U. after   14 cycles
 Normal termination of Gaussian 16 at Wed Apr  9 16:20:17 2025.
 Gaussian 16:  ES64L-G16RevC.01  3-Jul-2019

 ----------------------------------------------------------------------
 #t hf aug-cc-pvdz iop(5/13=1,5/36=2,99/5=2) pseudo=read geom=check gue
 ss=(read,tcheck) scf=(maxcycle=1)
 ----------------------------------------------------------------------
 -----
 title
 -----
 Structure from the checkpoint file:  "Grambow2020_wb97xd3_008098_reverse_mol2.chk"
 Charge =  0 Multiplicity = 1

                         Standard orientation:
 ---------------------------------------------------------------------
 Center     Atomic      Atomic             Coordinates (Angstroms)
 Number     Number       Type             X           Y           Z
 ---------------------------------------------------------------------
      1          6           0        2.740244   -0.217621   -0.034073
      2          6           0        1.432712    0.470806   -0.378748
      3          7           0        0.335844   -0.481819   -0.282654
      4          6           0       -1.332259    1.447091    0.091750
      5          6           0       -0.972873   -0.016160    0.032460
      6          8           0       -0.198791   -0.527648    1.085295
      7          6           0       -2.082247   -0.918574   -0.438964
      8          1           0        3.579452    0.468789   -0.158760
      9          1           0        2.897985   -1.084889   -0.675982
     10          1           0        2.727230   -0.557884    1.002374
     11          1           0        1.438884    0.807957   -1.420317
     12          1           0        1.288674    1.344120    0.261995
     13          1           0       -1.482417    1.840670   -0.916101
     14          1           0       -2.270329    1.562952    0.636879
     15          1           0       -0.576076    2.040594    0.597852
     16          1           0       -1.722148   -1.944246   -0.485221
     17          1           0       -2.426811   -0.614297   -1.429645
     18          1           0       -2.928488   -0.863107    0.248598
 ---------------------------------------------------------------------

 SCF Done:  E(RHF) =  -325.109172896     A.U. after    2 cycles

 The electronic state is 1-A.
 Alpha  occ. eigenvalues --  -20.59869 -15.67697 -11.33225 -11.26540 -11.24125
 Alpha  occ. eigenvalues --  -11.23040 -11.22238  -1.41787  -1.09653  -1.04705
 Alpha  occ. eigenvalues --   -0.96491  -0.95405  -0.83955  -0.76958  -0.67754
 Alpha  occ. eigenvalues --   -0.67089  -0.62782  -0.61880  -0.58054  -0.55715
 Alpha  occ. eigenvalues --   -0.55457  -0.54034  -0.53119  -0.51893  -0.49596
 Alpha  occ. eigenvalues --   -0.46972  -0.45696  -0.39866
 Alpha virt. eigenvalues --    0.03264   0.04089   0.04418   0.04788   0.06374
 Alpha virt. eigenvalues --    0.06560   0.06837   0.07466   0.08072   0.08864
 Alpha virt. eigenvalues --    0.09826   0.11408   0.12271   0.13781   0.14494

 Mulliken charges:
               1
     1  C    0.321515
     2  C    0.740221
     3  N   -0.734206
     4  C    0.466593
     5  C   -0.056847
     6  O   -0.755150
     7  C    0.584291
     8  H   -0.040909
     9  H   -0.051253
    10  H   -0.038810
    11  H   -0.224246
    12  H   -0.229361
    13  H    0.053698
    14  H   -0.003002
    15  H   -0.045548
    16  H   -0.064916
    17  H    0.041013
    18  H    0.036916
 Sum of Mulliken charges =  -0.00000

 Dipole moment (field-independent basis, Debye):
    X=             -0.7435    Y=              2.1685    Z=             -1.6185  Tot=              2.8062

 Test job not archived.
 1\1\GINC-SE454\SP\RHF\Aug-CC-pVDZ\C5H11N1O1\OHZDE\09-Apr-2025\0\\#t hf
  aug-cc-pvdz iop(5/13=1,5/36=2,99/5=2) pseudo=read geom=check guess=(r
 ead,tcheck) scf=(maxcycle=1)\\title\\0,1\C,0,-2.51894302,-0.06468331,-
 1.0810684\C,0,-1.44337801,-0.24555369,-0.02616701\N,0,-0.13300329,-0.2
 7190773,-0.66025926\C,0,0.97109446,0.47427153,1.54601004\C,0,1.0099151
 7,0.16047041,0.07162874\O,0,0.41014022,1.08676165,-0.79528536\C,0,2.31
 27133,-0.41640995,-0.41543247\H,0,-3.51088123,-0.10199628,-0.62759028\
 H,0,-2.44946057,-0.84677152,-1.83776679\H,0,-2.40493682,0.90064249,-1.

 Normal termination of Gaussian 16 at Wed Apr  9 16:20:24 2025.
