 Gaussian 16, Revision C.01,

 ----------------------------------------------------------------------
 #t hf aug-cc-pvdz symm=none int=(grid=ultrafine) guess=(read,tcheck) s
 table=(opt,rrhf)
 ----------------------------------------------------------------------
 -----
 title
 -----
 Symbolic Z-matrix:
 Charge =  0 Multiplicity = 1

 SCF Done:  E(RHF) =  -320.752917175     A.U. after   13 cycles
 Normal termination of Gaussian 16 at Wed Apr  9 14:19:04 2025.
 Gaussian 16:  ES64L-G16RevC.01  3-Jul-2019

 ----------------------------------------------------------------------
 #t hf aug-cc-pvdz iop(5/13=1,5/36=2,99/5=2) pseudo=read geom=check gue
 ss=(read,tcheck) scf=(maxcycle=1)
 ----------------------------------------------------------------------
 -----
 title
 -----
 Structure from the checkpoint file:  "Grambow2020_b97d3_007133_forward_mol2.chk"
 Charge =  0 Multiplicity = 1

                         Standard orientation:
 ---------------------------------------------------------------------
 Center     Atomic      Atomic             Coordinates (Angstroms)
 Number     Number       Type             X           Y           Z
 ---------------------------------------------------------------------
      1          8           0        2.076496   -0.019089    0.037445
      2          6           0        0.867322   -0.005393   -0.014506
      3          7           0        0.024445    1.086819   -0.194927
      4          6           0       -1.345584    0.744843    0.157976
      5          6           0       -1.300054   -0.772038   -0.113795
      6          8           0        0.079204   -1.139719    0.085523
      7          1           0        0.411650    1.992740    0.046146
      8          1           0       -1.576555    0.963773    1.214855
      9          1           0       -2.079564    1.255697   -0.478701
     10          1           0       -1.580927   -0.997900   -1.152664
     11          1           0       -1.921418   -1.356051    0.573056
 ---------------------------------------------------------------------

 SCF Done:  E(RHF) =  -320.853306628     A.U. after    2 cycles

 The electronic state is 1-A.
 Alpha  occ. eigenvalues --  -20.62235 -20.55054 -15.66692 -11.42516 -11.32485
 Alpha  occ. eigenvalues --  -11.30790  -1.42369  -1.32941  -1.21176  -1.02598
 Alpha  occ. eigenvalues --   -0.88841  -0.83129  -0.72786  -0.72451  -0.67456
 Alpha  occ. eigenvalues --   -0.63127  -0.61192  -0.60146  -0.58564  -0.53993
 Alpha  occ. eigenvalues --   -0.47844  -0.47447  -0.41982
 Alpha virt. eigenvalues --    0.02471   0.03792   0.04091   0.05270   0.06590
 Alpha virt. eigenvalues --    0.09285   0.10572   0.11316   0.11589   0.13434
 Alpha virt. eigenvalues --    0.14041   0.14353   0.14954   0.16068   0.16938

 Mulliken charges:
               1
     1  O   -0.441512
     2  C    0.759167
     3  N   -0.431418
     4  C    0.595858
     5  C    0.753072
     6  O   -0.638622
     7  H   -0.051121
     8  H   -0.165307
     9  H   -0.098086
    10  H   -0.148741
    11  H   -0.133290
 Sum of Mulliken charges =  -0.00000

 Dipole moment (field-independent basis, Debye):
    X=             -5.5600    Y=              2.2414    Z=              0.2997  Tot=              6.0023

 Test job not archived.
 1\1\GINC-SE087\SP\RHF\Aug-CC-pVDZ\C3H5N1O2\OHZDE\09-Apr-2025\0\\#t hf
 aug-cc-pvdz iop(5/13=1,5/36=2,99/5=2) pseudo=read geom=check guess=(re
 ad,tcheck) scf=(maxcycle=1)\\title\\0,1\O,0,2.64948849,0.04785102,-0.2
 2445092\C,0,1.44498314,0.10535583,-0.12029972\N,0,0.60340609,-0.718248
 99,0.62087678\C,0,-0.78088635,-0.550461,0.20368467\C,0,-0.70640903,0.8
 9552635,-0.32587603\O,0,0.66299099,1.064079,-0.74253075\H,0,0.96829866
 ,-1.63615589,0.85117244\H,0,-1.07212573,-1.261296,-0.58888298\H,0,-1.4
 8308764,-0.6466391,1.04196826\H,0,-0.92713923,1.6216549,0.46984132\H,0

 Normal termination of Gaussian 16 at Wed Apr  9 14:19:08 2025.
