 Gaussian 16, Revision C.01,

 ----------------------------------------------------------------------
 #t hf aug-cc-pvdz symm=none int=(grid=ultrafine) guess=(read,tcheck) s
 table=(opt,rrhf)
 ----------------------------------------------------------------------
 -----
 title
 -----
 Symbolic Z-matrix:
 Charge =  0 Multiplicity = 1

 SCF Done:  E(RHF) =  -358.382502477     A.U. after   16 cycles
 Normal termination of Gaussian 16 at Wed Apr  9 03:28:03 2025.
 Gaussian 16:  ES64L-G16RevC.01  3-Jul-2019

 ----------------------------------------------------------------------
 #t hf aug-cc-pvdz iop(5/13=1,5/36=2,99/5=2) pseudo=read geom=check gue
 ss=(read,tcheck) scf=(maxcycle=1)
 ----------------------------------------------------------------------
 -----
 title
 -----
 Structure from the checkpoint file:  "Grambow2020_wb97xd3_006784_forward_mol1.chk"
 Charge =  0 Multiplicity = 1

                         Standard orientation:
 ---------------------------------------------------------------------
 Center     Atomic      Atomic             Coordinates (Angstroms)
 Number     Number       Type             X           Y           Z
 ---------------------------------------------------------------------
      1          8           0        3.043188   -0.389284    0.081755
      2          6           0        2.059983    0.269650   -0.108338
      3          6           0        0.678830   -0.259412    0.054664
      4          6           0       -0.380598    0.613248    0.546663
      5          7           0       -0.370314    0.375400   -0.774417
      6          6           0       -1.925067   -0.500801    0.080255
      7          8           0       -2.983566   -0.011320   -0.076048
      8          1           0        2.113513    1.327196   -0.436124
      9          1           0        0.625496   -1.328253    0.278700
     10          1           0       -0.536294    1.515597    1.126532
     11          1           0       -1.250222   -0.242499    1.176068
     12          1           0       -1.436153   -1.431124   -0.209376
 ---------------------------------------------------------------------

 SCF Done:  E(RHF) =  -358.490171881     A.U. after    2 cycles

 The electronic state is 1-A.
 Alpha  occ. eigenvalues --  -20.60361 -20.59234 -15.66225 -11.44138 -11.37624
 Alpha  occ. eigenvalues --  -11.36464 -11.31945  -1.42021  -1.38496  -1.32217
 Alpha  occ. eigenvalues --   -0.98672  -0.92377  -0.87433  -0.82199  -0.72096
 Alpha  occ. eigenvalues --   -0.71790  -0.70677  -0.67239  -0.65090  -0.62351
 Alpha  occ. eigenvalues --   -0.56981  -0.54328  -0.49891  -0.46158  -0.44051
 Alpha  occ. eigenvalues --   -0.38764
 Alpha virt. eigenvalues --    0.02370   0.02916   0.04421   0.05323   0.06469
 Alpha virt. eigenvalues --    0.06728   0.09106   0.10109   0.10780   0.11436
 Alpha virt. eigenvalues --    0.11984   0.12793   0.13235   0.13717   0.14625

 Mulliken charges:
               1
     1  O   -0.423925
     2  C    0.558178
     3  C    1.073461
     4  C   -0.021772
     5  N   -0.821254
     6  C    0.520312
     7  O   -0.382965
     8  H   -0.104796
     9  H   -0.491559
    10  H   -0.255539
    11  H    0.339858
    12  H    0.010003
 Sum of Mulliken charges =  -0.00000

 Dipole moment (field-independent basis, Debye):
    X=             -0.3967    Y=              0.0779    Z=              2.4303  Tot=              2.4637

 Test job not archived.
 1\1\GINC-SE460\SP\RHF\Aug-CC-pVDZ\C4H5N1O2\OHZDE\09-Apr-2025\0\\#t hf
 aug-cc-pvdz iop(5/13=1,5/36=2,99/5=2) pseudo=read geom=check guess=(re
 ad,tcheck) scf=(maxcycle=1)\\title\\0,1\O,0,3.08365618,0.0411153,0.036
 92458\C,0,2.03984541,-0.01992615,-0.54938078\C,0,0.72383512,-0.1296500
 2,0.13628553\C,0,-0.45088663,0.51601928,-0.43740932\N,0,-0.35412161,-0
 .8109784,-0.61528965\C,0,-1.83275922,-0.37944128,0.62682834\O,0,-2.933
 04425,-0.46463678,0.21871572\H,0,1.9843826,-0.01275976,-1.65644187\H,0
 ,0.78543077,-0.23888011,1.22243986\H,0,-0.73630317,1.32433614,-1.10064

 Normal termination of Gaussian 16 at Wed Apr  9 03:28:08 2025.
