 Gaussian 16, Revision C.01,

 ----------------------------------------------------------------------
 #t hf aug-cc-pvdz symm=none int=(grid=ultrafine) guess=(read,tcheck) s
 table=(opt,rrhf)
 ----------------------------------------------------------------------
 -----
 title
 -----
 Symbolic Z-matrix:
 Charge =  0 Multiplicity = 1

 SCF Done:  E(RHF) =  -358.483527927     A.U. after   15 cycles
 Normal termination of Gaussian 16 at Wed Apr  9 15:09:42 2025.
 Gaussian 16:  ES64L-G16RevC.01  3-Jul-2019

 ----------------------------------------------------------------------
 #t hf aug-cc-pvdz iop(5/13=1,5/36=2,99/5=2) pseudo=read geom=check gue
 ss=(read,tcheck) scf=(maxcycle=1)
 ----------------------------------------------------------------------
 -----
 title
 -----
 Structure from the checkpoint file:  "Grambow2020_wb97xd3_006800_reverse_mol2.chk"
 Charge =  0 Multiplicity = 1

                         Standard orientation:
 ---------------------------------------------------------------------
 Center     Atomic      Atomic             Coordinates (Angstroms)
 Number     Number       Type             X           Y           Z
 ---------------------------------------------------------------------
      1          8           0       -0.262245    2.002203    0.276224
      2          6           0        0.221266    1.246185   -0.517808
      3          6           0        1.043798    0.082999   -0.085847
      4          6           0        1.851418   -1.087158   -0.338164
      5          7           0        1.356895   -0.491251    0.975531
      6          6           0       -2.093381   -0.756489    0.455632
      7          8           0       -1.666310   -0.795491   -0.665266
      8          1           0        0.092538    1.360159   -1.605513
      9          1           0       -1.612780   -0.145984    1.241609
     10          1           0        2.913250   -0.990666   -0.537712
     11          1           0        1.386449   -2.017820   -0.646239
     12          1           0       -2.987887   -1.333853    0.748595
 ---------------------------------------------------------------------

 SCF Done:  E(RHF) =  -358.593986592     A.U. after    2 cycles

 The electronic state is 1-A.
 Alpha  occ. eigenvalues --  -20.60303 -20.60293 -15.67107 -11.37760 -11.36269
 Alpha  occ. eigenvalues --  -11.31505 -11.29311  -1.39479  -1.38749  -1.30062
 Alpha  occ. eigenvalues --   -0.94294  -0.88617  -0.87493  -0.75726  -0.71938
 Alpha  occ. eigenvalues --   -0.70162  -0.68174  -0.66077  -0.65317  -0.57748
 Alpha  occ. eigenvalues --   -0.56561  -0.55716  -0.48634  -0.46651  -0.42823
 Alpha  occ. eigenvalues --   -0.41348
 Alpha virt. eigenvalues --    0.03230   0.03761   0.04550   0.05153   0.05743
 Alpha virt. eigenvalues --    0.06827   0.07185   0.09144   0.10054   0.10931
 Alpha virt. eigenvalues --    0.11394   0.13596   0.14620   0.15171   0.15485

 Mulliken charges:
               1
     1  O   -0.502338
     2  C    0.785511
     3  C   -0.258430
     4  C    1.010729
     5  N   -0.508946
     6  C    0.656015
     7  O   -0.377534
     8  H   -0.138994
     9  H   -0.109757
    10  H   -0.188267
    11  H   -0.195800
    12  H   -0.172191
 Sum of Mulliken charges =  -0.00000

 Dipole moment (field-independent basis, Debye):
    X=             -0.3738    Y=             -1.5059    Z=             -1.0693  Tot=              1.8843

 Test job not archived.
 1\1\GINC-SE114\SP\RHF\Aug-CC-pVDZ\C4H5N1O2\OHZDE\09-Apr-2025\0\\#t hf
 aug-cc-pvdz iop(5/13=1,5/36=2,99/5=2) pseudo=read geom=check guess=(re
 ad,tcheck) scf=(maxcycle=1)\\title\\0,1\O,0,1.38437033,-1.14127167,-1.
 31849577\C,0,1.37096723,-0.13694453,-0.66505708\C,0,0.22189398,0.80834
 729,-0.71201065\C,0,-0.46540297,2.01922532,-0.32915524\N,0,-0.92351994
 ,0.85573321,-1.20200571\C,0,-0.74637362,-1.72529852,1.15425066\O,0,-0.
 01226695,-0.90205047,1.62719088\H,0,2.19692573,0.15100355,0.0039291\H,
 0,-0.83845665,-1.86537408,0.0618435\H,0,-0.26377527,2.95279681,-0.8433

 Normal termination of Gaussian 16 at Wed Apr  9 15:09:46 2025.
