 Gaussian 16, Revision C.01,

 ----------------------------------------------------------------------
 #t hf aug-cc-pvdz symm=none int=(grid=ultrafine) guess=(read,tcheck) s
 table=(opt,rrhf)
 ----------------------------------------------------------------------
 -----
 title
 -----
 Symbolic Z-matrix:
 Charge =  0 Multiplicity = 1

 SCF Done:  E(RHF) =  -302.859479714     A.U. after   14 cycles
 Normal termination of Gaussian 16 at Wed Apr  9 03:59:53 2025.
 Gaussian 16:  ES64L-G16RevC.01  3-Jul-2019

 ----------------------------------------------------------------------
 #t hf aug-cc-pvdz iop(5/13=1,5/36=2,99/5=2) pseudo=read geom=check gue
 ss=(read,tcheck) scf=(maxcycle=1)
 ----------------------------------------------------------------------
 -----
 title
 -----
 Structure from the checkpoint file:  "Grambow2020_wb97xd3_008836_reverse_mol2.chk"
 Charge =  0 Multiplicity = 1

                         Standard orientation:
 ---------------------------------------------------------------------
 Center     Atomic      Atomic             Coordinates (Angstroms)
 Number     Number       Type             X           Y           Z
 ---------------------------------------------------------------------
      1          6           0       -0.613829    1.640221    0.012320
      2          6           0       -0.610977    0.138376    0.123742
      3          6           0        0.600614   -0.460030    0.806983
      4          6           0        2.765960   -0.014533   -0.538919
      5          7           0        1.799172   -0.219912    0.074552
      6          6           0       -1.875039   -0.615032    0.262979
      7          7           0       -1.170434   -0.575580   -1.016333
      8          1           0       -0.589766    2.106032    1.000313
      9          1           0        0.254122    1.984370   -0.553197
     10          1           0       -1.510029    1.971777   -0.510076
     11          1           0        0.483676   -1.540011    0.919185
     12          1           0        0.722068   -0.031434    1.804210
     13          1           0       -2.815117   -0.076393    0.286613
     14          1           0       -1.868002   -1.536479    0.836568
     15          1           0       -0.678491   -1.443427   -1.193772
 ---------------------------------------------------------------------

 SCF Done:  E(RHF) =  -302.951086204     A.U. after    2 cycles

 The electronic state is 1-A.
 Alpha  occ. eigenvalues --  -15.66232 -15.63414 -11.32220 -11.29473 -11.28602
 Alpha  occ. eigenvalues --  -11.27894 -11.23621  -1.27072  -1.23716  -1.05196
 Alpha  occ. eigenvalues --   -0.98327  -0.89267  -0.80431  -0.75084  -0.69613
 Alpha  occ. eigenvalues --   -0.67330  -0.62015  -0.58855  -0.56995  -0.54390
 Alpha  occ. eigenvalues --   -0.49987  -0.48033  -0.47424  -0.46963  -0.45957
 Alpha  occ. eigenvalues --   -0.39953
 Alpha virt. eigenvalues --    0.02637   0.03703   0.04225   0.04869   0.06551
 Alpha virt. eigenvalues --    0.06800   0.07089   0.08088   0.09578   0.10615
 Alpha virt. eigenvalues --    0.11859   0.12171   0.13254   0.13642   0.14282

 Mulliken charges:
               1
     1  C    0.411745
     2  C   -0.557010
     3  C    0.873173
     4  C   -0.503808
     5  N   -0.057235
     6  C    1.229312
     7  N   -0.680363
     8  H    0.049614
     9  H    0.076412
    10  H   -0.013774
    11  H   -0.190588
    12  H   -0.078915
    13  H   -0.302146
    14  H   -0.272215
    15  H    0.015799
 Sum of Mulliken charges =   0.00000

 Dipole moment (field-independent basis, Debye):
    X=             -2.6419    Y=             -1.1182    Z=              3.0929  Tot=              4.2185

 Test job not archived.
 1\1\GINC-SE336\SP\RHF\Aug-CC-pVDZ\C5H8N2\OHZDE\09-Apr-2025\0\\#t hf au
 g-cc-pvdz iop(5/13=1,5/36=2,99/5=2) pseudo=read geom=check guess=(read
 ,tcheck) scf=(maxcycle=1)\\title\\0,1\C,0,-0.51669335,1.13850988,1.019
 34183\C,0,-0.17711748,-0.09282302,0.22155279\C,0,1.28022941,-0.2356593
 9,-0.16393261\C,0,2.03173836,1.66248272,-1.75482315\N,0,1.70509638,0.8
 052089,-1.03956661\C,0,-0.92595144,-1.35261522,0.41399197\N,0,-1.18104
 05,-0.50676331,-0.74967781\H,0,0.02729479,1.15339791,1.96673032\H,0,-0
 .2611291,2.04035698,0.45992661\H,0,-1.5852841,1.16235306,1.22802004\H,

 Normal termination of Gaussian 16 at Wed Apr  9 03:59:58 2025.
