 Gaussian 16, Revision C.01,

 ----------------------------------------------------------------------
 #t hf aug-cc-pvdz symm=none int=(grid=ultrafine) guess=(read,tcheck) s
 table=(opt,rrhf)
 ----------------------------------------------------------------------
 -----
 title
 -----
 Symbolic Z-matrix:
 Charge =  0 Multiplicity = 1

 SCF Done:  E(RHF) =  -323.773637989     A.U. after   16 cycles
 Normal termination of Gaussian 16 at Wed Apr  9 15:39:09 2025.
 Gaussian 16:  ES64L-G16RevC.01  3-Jul-2019

 ----------------------------------------------------------------------
 #t hf aug-cc-pvdz iop(5/13=1,5/36=2,99/5=2) pseudo=read geom=check gue
 ss=(read,tcheck) scf=(maxcycle=1)
 ----------------------------------------------------------------------
 -----
 title
 -----
 Structure from the checkpoint file:  "Grambow2020_wb97xd3_007250_reverse_mol1.chk"
 Charge =  0 Multiplicity = 1

                         Standard orientation:
 ---------------------------------------------------------------------
 Center     Atomic      Atomic             Coordinates (Angstroms)
 Number     Number       Type             X           Y           Z
 ---------------------------------------------------------------------
      1          6           0       -1.571159   -1.030070    0.792850
      2          6           0       -0.749509    0.008667    0.043578
      3          6           0       -1.595363    1.103767   -0.577215
      4          6           0        1.211048    1.029182    0.940318
      5          8           0        1.903170   -0.001903    0.373513
      6          6           0        1.346832   -0.605391   -0.714356
      7          7           0        0.107952   -0.627473   -0.903113
      8          1           0       -2.209162   -1.568187    0.089450
      9          1           0       -2.201078   -0.551408    1.543570
     10          1           0       -0.920984   -1.749958    1.290223
     11          1           0       -2.165727    1.625900    0.191738
     12          1           0       -0.979993    1.826868   -1.111616
     13          1           0       -2.296141    0.662739   -1.288814
     14          1           0        1.001095    1.738514    0.109103
     15          1           0       -0.122456    0.512592    0.939055
     16          1           0        2.062323   -1.126456   -1.340068
 ---------------------------------------------------------------------

 SCF Done:  E(RHF) =  -323.873971400     A.U. after    2 cycles

 The electronic state is 1-A.
 Alpha  occ. eigenvalues --  -20.63211 -15.63787 -11.36707 -11.31985 -11.31453
 Alpha  occ. eigenvalues --  -11.24398 -11.24174  -1.42327  -1.22457  -1.07581
 Alpha  occ. eigenvalues --   -0.95631  -0.95236  -0.83629  -0.80122  -0.72295
 Alpha  occ. eigenvalues --   -0.70564  -0.64110  -0.61736  -0.59663  -0.59034
 Alpha  occ. eigenvalues --   -0.55901  -0.54399  -0.52255  -0.50324  -0.44812
 Alpha  occ. eigenvalues --   -0.41600  -0.36126
 Alpha virt. eigenvalues --    0.03266   0.03890   0.04367   0.05127   0.06359
 Alpha virt. eigenvalues --    0.07007   0.07368   0.07813   0.09098   0.09954
 Alpha virt. eigenvalues --    0.10384   0.11171   0.12216   0.13350   0.14442

 Mulliken charges:
               1
     1  C    0.751324
     2  C   -1.172408
     3  C    0.728098
     4  C    0.072081
     5  O   -0.501364
     6  C    0.518699
     7  N   -0.317516
     8  H    0.026042
     9  H   -0.020503
    10  H   -0.064494
    11  H   -0.002692
    12  H   -0.109284
    13  H    0.037643
    14  H    0.008310
    15  H    0.350351
    16  H   -0.304287
 Sum of Mulliken charges =   0.00000

 Dipole moment (field-independent basis, Debye):
    X=             -1.4502    Y=             -0.1986    Z=             -1.5801  Tot=              2.1539

 Test job not archived.
 1\1\GINC-SE113\SP\RHF\Aug-CC-pVDZ\C5H9N1O1\OHZDE\09-Apr-2025\0\\#t hf
 aug-cc-pvdz iop(5/13=1,5/36=2,99/5=2) pseudo=read geom=check guess=(re
 ad,tcheck) scf=(maxcycle=1)\\title\\0,1\C,0,1.01870909,1.29485456,0.63
 714233\C,0,0.30760002,0.12389069,-0.02517052\C,0,1.25923722,-0.858734,
 -0.68009975\C,0,-1.4166077,-1.1367345,1.03657857\O,0,-2.28911853,-0.23
 575543,0.4976925\C,0,-1.90311345,0.40405082,-0.64196444\N,0,-0.6967005
 6,0.59755743,-0.92136166\H,0,1.52136394,1.8948356,-0.12361379\H,0,1.76
 196486,0.93755548,1.35086856\H,0,0.30638692,1.93031161,1.16358109\H,0,

 Normal termination of Gaussian 16 at Wed Apr  9 15:39:15 2025.
