 Gaussian 16, Revision C.01,

 ----------------------------------------------------------------------
 #t hf aug-cc-pvdz symm=none int=(grid=ultrafine) guess=(read,tcheck) s
 table=(opt,rrhf)
 ----------------------------------------------------------------------
 -----
 title
 -----
 Symbolic Z-matrix:
 Charge =  0 Multiplicity = 1

 SCF Done:  E(RHF) =  -307.718124904     A.U. after   14 cycles

 1\1\GINC-SE168\Stability\RHF\Aug-CC-pVDZ\C6H10O1\OHZDE\09-Apr-2025\0\\
 #t hf aug-cc-pvdz symm=none int=(grid=ultrafine) guess=(read,tcheck) s
 table=(opt,rrhf)\\title\\0,1\C,0,1.70770852,0.37835693,-0.02443354\C,0
 ,0.52036663,-0.36726829,-0.50006379\C,0,0.31684357,-1.78074972,-0.3729
 4409\C,0,-0.68797133,-0.88587969,0.50834294\C,0,-0.82680961,0.19050424
 ,-0.60362036\C,0,-1.03858698,1.55438297,0.12555065\O,0,-0.68102262,1.3
 9811406,1.42402005\H,0,2.4695657,-0.284415,0.38262735\H,0,2.11899421,0
 .90957941,-0.88745404\H,0,1.38524322,1.11613517,0.71680027\H,0,-0.2368

 Normal termination of Gaussian 16 at Wed Apr  9 15:36:13 2025.
 Gaussian 16:  ES64L-G16RevC.01  3-Jul-2019

 ----------------------------------------------------------------------
 #t hf aug-cc-pvdz iop(5/13=1,5/36=2,99/5=2) pseudo=read geom=check gue
 ss=(read,tcheck) scf=(maxcycle=1)
 ----------------------------------------------------------------------
 -----
 title
 -----
 Structure from the checkpoint file:  "Grambow2020_wb97xd3_007045_forward_mol1.chk"
 Charge =  0 Multiplicity = 1

                         Standard orientation:
 ---------------------------------------------------------------------
 Center     Atomic      Atomic             Coordinates (Angstroms)
 Number     Number       Type             X           Y           Z
 ---------------------------------------------------------------------
      1          6           0       -0.637693    1.705672    0.020007
      2          6           0       -0.849779    0.286486    0.384551
      3          6           0       -1.898195   -0.555082   -0.113545
      4          6           0       -0.424299   -0.975751   -0.601170
      5          6           0        0.210667   -0.640021    0.776671
      6          6           0        1.663266   -0.148069    0.485734
      7          8           0        1.750261    0.152268   -0.833556
      8          1           0       -1.424552    2.081396   -0.631972
      9          1           0       -0.639796    2.279160    0.951277
     10          1           0        0.346977    1.804749   -0.447258
     11          1           0       -2.305216   -1.324397    0.534011
     12          1           0       -2.593097   -0.140620   -0.836368
     13          1           0        0.404550   -0.341774   -1.223972
     14          1           0       -0.408709   -2.004759   -0.935695
     15          1           0        0.020521   -1.346284    1.577863
     16          1           0        2.334299   -0.967988    0.803521
     17          1           0        1.879131    0.702968    1.163547
 ---------------------------------------------------------------------

 SCF Done:  E(RHF) =  -307.812083856     A.U. after    2 cycles

 The electronic state is 1-A.
 Alpha  occ. eigenvalues --  -20.43614 -11.36160 -11.29957 -11.26526 -11.26479
 Alpha  occ. eigenvalues --  -11.25609 -11.24731  -1.25528  -1.18570  -1.01691
 Alpha  occ. eigenvalues --   -0.97953  -0.86638  -0.82484  -0.75639  -0.68895
 Alpha  occ. eigenvalues --   -0.66709  -0.64406  -0.60326  -0.58400  -0.55977
 Alpha  occ. eigenvalues --   -0.55044  -0.52262  -0.48574  -0.46630  -0.45132
 Alpha  occ. eigenvalues --   -0.34691  -0.33785
 Alpha virt. eigenvalues --    0.02208   0.03535   0.03715   0.04814   0.05799
 Alpha virt. eigenvalues --    0.06145   0.07135   0.07283   0.07840   0.09215
 Alpha virt. eigenvalues --    0.09407   0.10661   0.12361   0.12661   0.13135

 Mulliken charges:
               1
     1  C    0.566476
     2  C   -0.795249
     3  C    0.772947
     4  C   -0.129482
     5  C    0.067821
     6  C    1.014782
     7  O   -0.982077
     8  H    0.038297
     9  H    0.141549
    10  H    0.107136
    11  H   -0.220012
    12  H   -0.252356
    13  H    0.478445
    14  H   -0.267806
    15  H   -0.355808
    16  H   -0.146638
    17  H   -0.038025
 Sum of Mulliken charges =  -0.00000

 Dipole moment (field-independent basis, Debye):
    X=             -6.6167    Y=             -0.7949    Z=              2.7538  Tot=              7.2108

 Test job not archived.
 1\1\GINC-SE168\SP\RHF\Aug-CC-pVDZ\C6H10O1\OHZDE\09-Apr-2025\0\\#t hf a
 ug-cc-pvdz iop(5/13=1,5/36=2,99/5=2) pseudo=read geom=check guess=(rea
 d,tcheck) scf=(maxcycle=1)\\title\\0,1\C,0,1.70770852,0.37835693,-0.02
 443354\C,0,0.52036663,-0.36726829,-0.50006379\C,0,0.31684357,-1.780749
 72,-0.37294409\C,0,-0.68797133,-0.88587969,0.50834294\C,0,-0.82680961,
 0.19050424,-0.60362036\C,0,-1.03858698,1.55438297,0.12555065\O,0,-0.68
 102262,1.39811406,1.42402005\H,0,2.4695657,-0.284415,0.38262735\H,0,2.
 11899421,0.90957941,-0.88745404\H,0,1.38524322,1.11613517,0.71680027\H

 Normal termination of Gaussian 16 at Wed Apr  9 15:36:19 2025.
