 Gaussian 16, Revision C.01,

 ----------------------------------------------------------------------
 #t hf aug-cc-pvdz symm=none int=(grid=ultrafine) guess=(read,tcheck) s
 table=(opt,rrhf)
 ----------------------------------------------------------------------
 -----
 title
 -----
 Symbolic Z-matrix:
 Charge =  0 Multiplicity = 1

 SCF Done:  E(RHF) =  -306.544621477     A.U. after   15 cycles
 Normal termination of Gaussian 16 at Wed Apr  9 15:47:04 2025.
 Gaussian 16:  ES64L-G16RevC.01  3-Jul-2019

 ----------------------------------------------------------------------
 #t hf aug-cc-pvdz iop(5/13=1,5/36=2,99/5=2) pseudo=read geom=check gue
 ss=(read,tcheck) scf=(maxcycle=1)
 ----------------------------------------------------------------------
 -----
 title
 -----
 Structure from the checkpoint file:  "Grambow2020_wb97xd3_007362_reverse_mol1.chk"
 Charge =  0 Multiplicity = 1

                         Standard orientation:
 ---------------------------------------------------------------------
 Center     Atomic      Atomic             Coordinates (Angstroms)
 Number     Number       Type             X           Y           Z
 ---------------------------------------------------------------------
      1          6           0       -1.691081   -0.351831    0.776664
      2          6           0       -1.840894    0.089765   -0.654579
      3          6           0       -0.495794    0.061890   -0.011191
      4          6           0        0.428695    1.256062    0.171352
      5          6           0        1.731522    0.531817   -0.282849
      6          8           0        1.661271   -0.669156    0.473139
      7          6           0        0.617867   -0.851065   -0.436241
      8          1           0       -2.030994    0.320734    1.553581
      9          1           0       -1.818891   -1.403121    1.002926
     10          1           0       -2.068065   -0.667016   -1.395842
     11          1           0       -2.288331    1.055794   -0.850819
     12          1           0        0.186706    2.108000   -0.462767
     13          1           0        0.561082    1.590139    1.202405
     14          1           0        1.121228   -0.212878   -1.374124
     15          1           0        0.545217   -1.858233   -0.839400
 ---------------------------------------------------------------------

 SCF Done:  E(RHF) =  -306.636695028     A.U. after    2 cycles

 The electronic state is 1-A.
 Alpha  occ. eigenvalues --  -20.59911 -11.34070 -11.31958 -11.26598 -11.25154
 Alpha  occ. eigenvalues --  -11.24868 -11.24404  -1.40864  -1.16546  -1.03436
 Alpha  occ. eigenvalues --   -0.94024  -0.84566  -0.82795  -0.77213  -0.70412
 Alpha  occ. eigenvalues --   -0.68388  -0.63063  -0.62338  -0.58735  -0.53969
 Alpha  occ. eigenvalues --   -0.52674  -0.50534  -0.48663  -0.44872  -0.43382
 Alpha  occ. eigenvalues --   -0.34788
 Alpha virt. eigenvalues --    0.03110   0.04026   0.04358   0.04922   0.06345
 Alpha virt. eigenvalues --    0.06365   0.06896   0.07885   0.09448   0.11115
 Alpha virt. eigenvalues --    0.11910   0.12603   0.13102   0.13465   0.13782

 Mulliken charges:
               1
     1  C    0.543782
     2  C    0.622170
     3  C   -0.034797
     4  C    0.397916
     5  C   -0.142141
     6  O   -0.691506
     7  C    0.320540
     8  H   -0.250081
     9  H   -0.264586
    10  H   -0.258803
    11  H   -0.271984
    12  H   -0.101644
    13  H   -0.074035
    14  H    0.430042
    15  H   -0.224873
 Sum of Mulliken charges =  -0.00000

 Dipole moment (field-independent basis, Debye):
    X=             -3.5473    Y=             -0.2917    Z=             -0.7801  Tot=              3.6438

 Test job not archived.
 1\1\GINC-SE037\SP\RHF\Aug-CC-pVDZ\C6H8O1\OHZDE\09-Apr-2025\0\\#t hf au
 g-cc-pvdz iop(5/13=1,5/36=2,99/5=2) pseudo=read geom=check guess=(read
 ,tcheck) scf=(maxcycle=1)\\title\\0,1\C,0,-1.42054569,0.31620194,-0.75
 772734\C,0,-1.43592092,-0.05613637,0.70070822\C,0,-0.14795673,0.002323
 41,-0.04879162\C,0,0.82041773,-1.15408168,-0.24633718\C,0,2.11510793,-
 0.34528347,0.06640808\O,0,1.92421279,0.80948529,-0.73910766\C,0,0.9463
 2874,0.9887454,0.24087372\H,0,-1.78419636,-0.41184719,-1.47130208\H,0,
 -1.61994813,1.34678576,-1.02395378\H,0,-1.64401965,0.7268389,1.4200416

 Normal termination of Gaussian 16 at Wed Apr  9 15:47:09 2025.
