 Gaussian 16, Revision C.01,

 ----------------------------------------------------------------------
 #t hf aug-cc-pvdz symm=none int=(grid=ultrafine) guess=(read,tcheck) s
 table=(opt,rrhf)
 ----------------------------------------------------------------------
 -----
 title
 -----
 Symbolic Z-matrix:
 Charge =  0 Multiplicity = 1

 SCF Done:  E(RHF) =  -338.731912124     A.U. after   14 cycles
 Normal termination of Gaussian 16 at Wed Apr  9 16:26:55 2025.
 Gaussian 16:  ES64L-G16RevC.01  3-Jul-2019

 ----------------------------------------------------------------------
 #t hf aug-cc-pvdz iop(5/13=1,5/36=2,99/5=2) pseudo=read geom=check gue
 ss=(read,tcheck) scf=(maxcycle=1)
 ----------------------------------------------------------------------
 -----
 title
 -----
 Structure from the checkpoint file:  "Grambow2020_wb97xd3_008303_reverse_mol2.chk"
 Charge =  0 Multiplicity = 1

                         Standard orientation:
 ---------------------------------------------------------------------
 Center     Atomic      Atomic             Coordinates (Angstroms)
 Number     Number       Type             X           Y           Z
 ---------------------------------------------------------------------
      1          6           0        1.836074   -0.926815    0.001079
      2          8           0        0.928877    1.789528   -0.000739
      3          6           0        0.089108    0.895248   -0.000048
      4          6           0       -1.312511    0.840134    0.001217
      5          7           0       -1.686517   -0.488832    0.000752
      6          6           0       -0.626939   -1.276483   -0.001153
      7          7           0        0.458109   -0.502671   -0.001025
      8          1           0        2.429986   -0.014122   -0.040507
      9          1           0        2.057315   -1.544197   -0.869887
     10          1           0        2.076761   -1.473228    0.913546
     11          1           0       -2.030919    1.637943   -0.000383
     12          1           0       -2.632670   -0.822022   -0.000066
     13          1           0       -0.647023   -2.352581   -0.001455
 ---------------------------------------------------------------------

 SCF Done:  E(RHF) =  -338.836021180     A.U. after    2 cycles

 The electronic state is 1-A.
 Alpha  occ. eigenvalues --  -20.47971 -15.71926 -15.68665 -11.35368 -11.32539
 Alpha  occ. eigenvalues --  -11.28080 -11.24008  -1.35625  -1.27829  -1.19532
 Alpha  occ. eigenvalues --   -1.00511  -0.98644  -0.83923  -0.80437  -0.76097
 Alpha  occ. eigenvalues --   -0.66984  -0.66713  -0.63340  -0.60874  -0.58676
 Alpha  occ. eigenvalues --   -0.58662  -0.54963  -0.50489  -0.41608  -0.40753
 Alpha  occ. eigenvalues --   -0.27131
 Alpha virt. eigenvalues --    0.01560   0.02965   0.04582   0.04740   0.06408
 Alpha virt. eigenvalues --    0.08129   0.08602   0.09917   0.11430   0.12018
 Alpha virt. eigenvalues --    0.12761   0.13162   0.14458   0.14493   0.14680

 Mulliken charges:
               1
     1  C    0.739417
     2  O   -0.575884
     3  C    0.110307
     4  C    0.971044
     5  N   -0.351920
     6  C    0.668808
     7  N   -0.528386
     8  H   -0.204680
     9  H   -0.090142
    10  H   -0.079444
    11  H   -0.291963
    12  H   -0.088741
    13  H   -0.278419
 Sum of Mulliken charges =  -0.00000

 Dipole moment (field-independent basis, Debye):
    X=             -3.4016    Y=             -7.0699    Z=             -0.0048  Tot=              7.8457

 Test job not archived.
 1\1\GINC-SE037\SP\RHF\Aug-CC-pVDZ\C4H6N2O1\OHZDE\09-Apr-2025\0\\#t hf
 aug-cc-pvdz iop(5/13=1,5/36=2,99/5=2) pseudo=read geom=check guess=(re
 ad,tcheck) scf=(maxcycle=1)\\title\\0,1\C,0,1.56111623,0.99676043,-0.3
 7151237\O,0,1.08269248,-1.78093617,-0.87850895\C,0,0.1746473,-1.112492
 7,-0.39520193\C,0,-1.14512011,-1.36277509,0.00871382\N,0,-1.67608165,-
 0.18086257,0.48536116\C,0,-0.7910592,0.79618921,0.41318118\N,0,0.32987
 748,0.29541849,-0.10531933\H,0,2.25483949,0.24850892,-0.75405435\H,0,1
 .96688062,1.43589767,0.54019122\H,0,1.41566216,1.77266881,-1.12377721\

 Normal termination of Gaussian 16 at Wed Apr  9 16:27:00 2025.
