 Gaussian 16, Revision C.01,

 ----------------------------------------------------------------------
 #t hf aug-cc-pvdz symm=none int=(grid=ultrafine) guess=(read,tcheck) s
 table=(opt,rrhf)
 ----------------------------------------------------------------------
 -----
 title
 -----
 Symbolic Z-matrix:
 Charge =  0 Multiplicity = 1

 SCF Done:  E(RHF) =  -324.863137765     A.U. after   15 cycles
 Normal termination of Gaussian 16 at Wed Apr  9 04:05:08 2025.
 Gaussian 16:  ES64L-G16RevC.01  3-Jul-2019

 ----------------------------------------------------------------------
 #t hf aug-cc-pvdz iop(5/13=1,5/36=2,99/5=2) pseudo=read geom=check gue
 ss=(read,tcheck) scf=(maxcycle=1)
 ----------------------------------------------------------------------
 -----
 title
 -----
 Structure from the checkpoint file:  "Grambow2020_wb97xd3_009234_forward_mol1.chk"
 Charge =  0 Multiplicity = 1

                         Standard orientation:
 ---------------------------------------------------------------------
 Center     Atomic      Atomic             Coordinates (Angstroms)
 Number     Number       Type             X           Y           Z
 ---------------------------------------------------------------------
      1          6           0        2.770184   -0.417260   -0.062291
      2          8           0        1.778494    0.532250    0.235264
      3          6           0        0.568232    0.230387   -0.346735
      4          6           0       -0.360086   -0.916431    0.113810
      5          7           0       -1.393369   -0.061617   -0.135996
      6          6           0       -2.812242   -0.247898   -0.005251
      7          6           0       -0.652918    1.073834   -0.039160
      8          1           0        3.695822   -0.072665    0.395479
      9          1           0        2.922459   -0.512927   -1.145877
     10          1           0        2.511674   -1.401369    0.346369
     11          1           0        0.658361    0.143662   -1.440109
     12          1           0       -0.392786   -1.974246   -0.118109
     13          1           0       -0.162512   -0.185007    1.701525
     14          1           0       -3.097549   -0.182748    1.047965
     15          1           0       -3.091288   -1.224808   -0.396885
     16          1           0       -3.335311    0.525788   -0.566355
     17          1           0       -0.290586    0.665514    1.645262
     18          1           0       -0.971673    2.056325   -0.361638
 ---------------------------------------------------------------------

 SCF Done:  E(RHF) =  -324.967822086     A.U. after    2 cycles

 The electronic state is 1-A.
 Alpha  occ. eigenvalues --  -20.57019 -15.68721 -11.30038 -11.28715 -11.28008
 Alpha  occ. eigenvalues --  -11.26784 -11.26406  -1.35090  -1.29407  -1.05303
 Alpha  occ. eigenvalues --   -0.94916  -0.91251  -0.86014  -0.74623  -0.70855
 Alpha  occ. eigenvalues --   -0.70085  -0.66618  -0.64406  -0.61892  -0.60868
 Alpha  occ. eigenvalues --   -0.57466  -0.54809  -0.51605  -0.51226  -0.47759
 Alpha  occ. eigenvalues --   -0.43094  -0.40239  -0.27522
 Alpha virt. eigenvalues --    0.03052   0.03877   0.04197   0.05014   0.06186
 Alpha virt. eigenvalues --    0.06437   0.06813   0.07754   0.08581   0.09251
 Alpha virt. eigenvalues --    0.09969   0.10363   0.11733   0.13245   0.14283

 Mulliken charges:
               1
     1  C    0.662998
     2  O   -0.729859
     3  C    0.681149
     4  C    0.122968
     5  N   -0.377564
     6  C    0.832573
     7  C    0.340076
     8  H   -0.238724
     9  H   -0.029259
    10  H   -0.079119
    11  H   -0.237987
    12  H   -0.432695
    13  H    0.137737
    14  H   -0.075222
    15  H   -0.192018
    16  H   -0.190157
    17  H    0.165401
    18  H   -0.360300
 Sum of Mulliken charges =   0.00000

 Dipole moment (field-independent basis, Debye):
    X=             -1.9312    Y=             -1.4335    Z=             -2.5257  Tot=              3.4876

 Test job not archived.
 1\1\GINC-SE328\SP\RHF\Aug-CC-pVDZ\C5H11N1O1\OHZDE\09-Apr-2025\0\\#t hf
  aug-cc-pvdz iop(5/13=1,5/36=2,99/5=2) pseudo=read geom=check guess=(r
 ead,tcheck) scf=(maxcycle=1)\\title\\0,1\C,0,2.84779182,0.39835306,-0.
 04920246\O,0,1.67363797,0.91010199,-0.62629358\C,0,0.64034419,0.000864
 46,-0.61323089\C,0,-0.13848706,-0.41743105,0.65464752\N,0,-1.25043871,
 -0.41659868,-0.13550824\C,0,-2.61893905,-0.72366597,0.17740198\C,0,-0.
 74034693,0.41466061,-1.08192775\H,0,3.61658465,1.16276195,-0.14790363\
 H,0,3.18334593,-0.51302453,-0.56232132\H,0,2.70061485,0.17164246,1.013

 Normal termination of Gaussian 16 at Wed Apr  9 04:05:14 2025.
