 Gaussian 16, Revision C.01,

 ----------------------------------------------------------------------
 #t hf aug-cc-pvdz symm=none int=(grid=ultrafine) guess=(read,tcheck) s
 table=(opt,rrhf)
 ----------------------------------------------------------------------
 -----
 title
 -----
 Symbolic Z-matrix:
 Charge =  0 Multiplicity = 1

 SCF Done:  E(RHF) =  -295.794808391     A.U. after   15 cycles
 Normal termination of Gaussian 16 at Wed Apr  9 14:06:55 2025.
 Gaussian 16:  ES64L-G16RevC.01  3-Jul-2019

 ----------------------------------------------------------------------
 #t hf aug-cc-pvdz iop(5/13=1,5/36=2,99/5=2) pseudo=read geom=check gue
 ss=(read,tcheck) scf=(maxcycle=1)
 ----------------------------------------------------------------------
 -----
 title
 -----
 Structure from the checkpoint file:  "Grambow2020_b97d3_006781_forward_mol1.chk"
 Charge =  0 Multiplicity = 1

                         Standard orientation:
 ---------------------------------------------------------------------
 Center     Atomic      Atomic             Coordinates (Angstroms)
 Number     Number       Type             X           Y           Z
 ---------------------------------------------------------------------
      1          7           0       -2.013808    0.027638    0.095635
      2          6           0       -0.647217    0.022393   -0.003946
      3          7           0        0.063736   -1.138757   -0.082153
      4          7           0        1.494735   -0.654695   -0.069747
      5          6           0        1.351980    0.684725    0.016906
      6          7           0        0.099575    1.152651   -0.012865
      7          1           0       -2.446966    0.896981   -0.197013
      8          1           0       -2.470391   -0.812032   -0.244368
      9          1           0        0.947480   -1.358903    0.783462
     10          1           0        2.231634    1.323397    0.064071
 ---------------------------------------------------------------------

 SCF Done:  E(RHF) =  -295.876934934     A.U. after    2 cycles

 The electronic state is 1-A.
 Alpha  occ. eigenvalues --  -15.67845 -15.67368 -15.66268 -15.64027 -11.37542
 Alpha  occ. eigenvalues --  -11.33830  -1.35635  -1.21575  -1.15779  -1.05139
 Alpha  occ. eigenvalues --   -0.84708  -0.82081  -0.73884  -0.69473  -0.64142
 Alpha  occ. eigenvalues --   -0.62191  -0.51356  -0.51198  -0.48994  -0.44735
 Alpha  occ. eigenvalues --   -0.43295  -0.35166
 Alpha virt. eigenvalues --    0.02917   0.03714   0.04498   0.06317   0.08637
 Alpha virt. eigenvalues --    0.09913   0.11709   0.12217   0.13540   0.14579
 Alpha virt. eigenvalues --    0.14780   0.15880   0.16392   0.17337   0.17721

 Mulliken charges:
               1
     1  N   -0.300146
     2  C    0.926087
     3  N   -0.639882
     4  N   -0.582500
     5  C    0.782574
     6  N   -0.528931
     7  H    0.031751
     8  H    0.012207
     9  H    0.449615
    10  H   -0.150776
 Sum of Mulliken charges =  -0.00000

 Dipole moment (field-independent basis, Debye):
    X=             -1.4779    Y=              0.4902    Z=              0.3704  Tot=              1.6006

 Test job not archived.
 1\1\GINC-SE099\SP\RHF\Aug-CC-pVDZ\C2H4N4\OHZDE\09-Apr-2025\0\\#t hf au
 g-cc-pvdz iop(5/13=1,5/36=2,99/5=2) pseudo=read geom=check guess=(read
 ,tcheck) scf=(maxcycle=1)\\title\\0,1\N,0,1.84429427,-0.17379651,-0.32
 582339\C,0,0.51193984,-0.0404662,-0.03501534\N,0,-0.27354703,-1.118467
 72,0.2491733\N,0,-1.64532447,-0.50233233,0.39350262\C,0,-1.40620173,0.
 80620979,0.16443814\N,0,-0.12873417,1.15314488,-0.02549045\H,0,2.38679
 664,0.67059693,-0.17845591\H,0,2.27489229,-1.02367943,0.02260205\H,0,-
 1.29112518,-1.32100761,-0.45953661\H,0,-2.22697145,1.52029719,0.182713

 Normal termination of Gaussian 16 at Wed Apr  9 14:06:58 2025.
