 Gaussian 16, Revision C.01,

 ----------------------------------------------------------------------
 #t hf aug-cc-pvdz symm=none int=(grid=ultrafine) guess=(read,tcheck) s
 table=(opt,rrhf)
 ----------------------------------------------------------------------
 -----
 title
 -----
 Symbolic Z-matrix:
 Charge =  0 Multiplicity = 1

 SCF Done:  E(RHF) =  -306.587915856     A.U. after   16 cycles
 Normal termination of Gaussian 16 at Wed Apr  9 15:41:02 2025.
 Gaussian 16:  ES64L-G16RevC.01  3-Jul-2019

 ----------------------------------------------------------------------
 #t hf aug-cc-pvdz iop(5/13=1,5/36=2,99/5=2) pseudo=read geom=check gue
 ss=(read,tcheck) scf=(maxcycle=1)
 ----------------------------------------------------------------------
 -----
 title
 -----
 Structure from the checkpoint file:  "Grambow2020_wb97xd3_007296_forward_mol1.chk"
 Charge =  0 Multiplicity = 1

                         Standard orientation:
 ---------------------------------------------------------------------
 Center     Atomic      Atomic             Coordinates (Angstroms)
 Number     Number       Type             X           Y           Z
 ---------------------------------------------------------------------
      1          6           0        2.691027   -0.467353    0.108476
      2          6           0        1.661959    0.642914    0.006502
      3          6           0        0.236475    0.219038   -0.083789
      4          8           0       -0.029664   -1.002642   -0.170952
      5          6           0       -0.818578    1.254130   -0.067410
      6          6           0       -1.891991    0.601631    0.056503
      7          6           0       -2.650751   -0.525388    0.109525
      8          1           0        2.525469   -1.080496    0.994779
      9          1           0        3.694579   -0.045289    0.171726
     10          1           0        2.652905   -1.125308   -0.759838
     11          1           0        1.825183    1.281106   -0.868844
     12          1           0        1.704519    1.338804    0.851228
     13          1           0       -3.169576   -0.833050   -0.794509
     14          1           0       -1.239815   -1.053494   -0.049491
     15          1           0       -3.124785   -0.810974    1.043730
 ---------------------------------------------------------------------

 SCF Done:  E(RHF) =  -306.683767633     A.U. after    2 cycles

 The electronic state is 1-A.
 Alpha  occ. eigenvalues --  -20.62286 -11.39513 -11.29136 -11.26234 -11.24945
 Alpha  occ. eigenvalues --  -11.24034 -11.20341  -1.41501  -1.10312  -1.07582
 Alpha  occ. eigenvalues --   -0.98496  -0.90877  -0.80230  -0.74750  -0.68835
 Alpha  occ. eigenvalues --   -0.66349  -0.65733  -0.61601  -0.59396  -0.57839
 Alpha  occ. eigenvalues --   -0.53393  -0.51584  -0.50759  -0.44436  -0.38794
 Alpha  occ. eigenvalues --   -0.34246
 Alpha virt. eigenvalues --    0.03232   0.03827   0.04726   0.05129   0.05963
 Alpha virt. eigenvalues --    0.06301   0.07218   0.07499   0.07805   0.09264
 Alpha virt. eigenvalues --    0.10400   0.11197   0.12421   0.13484   0.14223

 Mulliken charges:
               1
     1  C    0.652808
     2  C   -0.019000
     3  C    0.094634
     4  O   -0.775075
     5  C   -0.485338
     6  C   -0.198407
     7  C    0.310866
     8  H   -0.048308
     9  H   -0.039197
    10  H   -0.037398
    11  H    0.102949
    12  H    0.085799
    13  H   -0.103641
    14  H    0.610211
    15  H   -0.150901
 Sum of Mulliken charges =  -0.00000

 Dipole moment (field-independent basis, Debye):
    X=              1.1029    Y=             -1.6417    Z=              0.2652  Tot=              1.9955

 Test job not archived.
 1\1\GINC-SE219\SP\RHF\Aug-CC-pVDZ\C6H8O1\OHZDE\09-Apr-2025\0\\#t hf au
 g-cc-pvdz iop(5/13=1,5/36=2,99/5=2) pseudo=read geom=check guess=(read
 ,tcheck) scf=(maxcycle=1)\\title\\0,1\C,0,-2.39245032,-0.06590892,0.85
 20694\C,0,-1.49164476,-0.15723908,-0.36542052\C,0,-0.03839157,0.075361
 14,-0.13351349\O,0,0.34638699,0.42564038,1.00673983\C,0,0.90328873,-0.
 11493892,-1.25683203\C,0,2.04386057,-0.05785007,-0.71909552\C,0,2.9166
 0302,0.15506007,0.30153666\H,0,-2.11000314,-0.79773824,1.60939098\H,0,
 -3.42832192,-0.25512651,0.56847976\H,0,-2.3405197,0.92128747,1.3114978

 Normal termination of Gaussian 16 at Wed Apr  9 15:41:07 2025.
