 Gaussian 16, Revision C.01,

 ----------------------------------------------------------------------
 #t hf aug-cc-pvdz symm=none int=(grid=ultrafine) guess=(read,tcheck) s
 table=(opt,rrhf)
 ----------------------------------------------------------------------
 -----
 title
 -----
 Symbolic Z-matrix:
 Charge =  0 Multiplicity = 1

 SCF Done:  E(RHF) =  -305.867887807     A.U. after   14 cycles
 Normal termination of Gaussian 16 at Wed Apr  9 14:18:15 2025.
 Gaussian 16:  ES64L-G16RevC.01  3-Jul-2019

 ----------------------------------------------------------------------
 #t hf aug-cc-pvdz iop(5/13=1,5/36=2,99/5=2) pseudo=read geom=check gue
 ss=(read,tcheck) scf=(maxcycle=1)
 ----------------------------------------------------------------------
 -----
 title
 -----
 Structure from the checkpoint file:  "Grambow2020_b97d3_007099_reverse_mol2.chk"
 Charge =  0 Multiplicity = 1

                         Standard orientation:
 ---------------------------------------------------------------------
 Center     Atomic      Atomic             Coordinates (Angstroms)
 Number     Number       Type             X           Y           Z
 ---------------------------------------------------------------------
      1          6           0        1.044561    1.402031   -0.209568
      2          6           0        1.150809   -0.097342    0.020858
      3          6           0        2.529790   -0.710055   -0.175636
      4          8           0        0.188034   -0.775837    0.357201
      5          6           0       -2.423722    0.385699   -0.477594
      6          8           0       -3.098641   -0.498687   -0.200754
      7          1           0        1.431038    1.921892    0.681864
      8          1           0        1.657982    1.726504   -1.062069
      9          1           0       -0.001708    1.687603   -0.356775
     10          1           0       -1.226161    0.961084    2.932811
     11          1           0        2.550169   -1.736649    0.205199
     12          1           0        3.304114   -0.105541    0.319591
     13          1           0        2.772401   -0.718682   -1.250128
     14          1           0       -1.011607    0.577989    2.329579
 ---------------------------------------------------------------------

 SCF Done:  E(RHF) =  -305.969371886     A.U. after    2 cycles

 The electronic state is 1-A.
 Alpha  occ. eigenvalues --  -20.66285 -20.56674 -11.36411 -11.35450 -11.25330
 Alpha  occ. eigenvalues --  -11.25153  -1.45731  -1.34953  -1.03726  -0.96517
 Alpha  occ. eigenvalues --   -0.79654  -0.75182  -0.65684  -0.64943  -0.63095
 Alpha  occ. eigenvalues --   -0.62966  -0.62698  -0.58310  -0.57147  -0.56451
 Alpha  occ. eigenvalues --   -0.54789  -0.53499  -0.50319  -0.43252
 Alpha virt. eigenvalues --    0.03012   0.04534   0.04660   0.05646   0.06731
 Alpha virt. eigenvalues --    0.07291   0.07995   0.08223   0.10061   0.11223
 Alpha virt. eigenvalues --    0.11633   0.11855   0.12669   0.13700   0.14482

 Mulliken charges:
               1
     1  C    0.397154
     2  C   -0.229312
     3  C    0.342297
     4  O   -0.507930
     5  C    0.264681
     6  O   -0.274846
     7  H    0.096924
     8  H   -0.035828
     9  H   -0.083135
    10  H    0.053520
    11  H   -0.083007
    12  H    0.024261
    13  H    0.069142
    14  H   -0.033922
 Sum of Mulliken charges =  -0.00000

 Dipole moment (field-independent basis, Debye):
    X=              3.4765    Y=              2.3386    Z=             -1.1488  Tot=              4.3446

 Test job not archived.
 1\1\GINC-SE229\SP\RHF\Aug-CC-pVDZ\C4H8O2\OHZDE\09-Apr-2025\0\\#t hf au
 g-cc-pvdz iop(5/13=1,5/36=2,99/5=2) pseudo=read geom=check guess=(read
 ,tcheck) scf=(maxcycle=1)\\title\\0,1\C,0,-0.33206436,1.22108829,-0.31
 532808\C,0,-0.57548155,-0.15874164,0.27570465\C,0,-1.97717939,-0.42371
 3,0.80546916\O,0,0.29897359,-1.01561049,0.31470633\C,0,3.05524749,0.11
 119368,0.33889614\O,0,3.63249326,-0.85761922,0.54501408\H,0,-0.749767,
 1.24438782,-1.33476553\H,0,-0.84411378,2.00550291,0.25984498\H,0,0.742
 16214,1.42314525,-0.37111691\H,0,1.62461922,-1.03055089,-2.83061598\H,

 Normal termination of Gaussian 16 at Wed Apr  9 14:18:20 2025.
