 Gaussian 16, Revision C.01,

 ----------------------------------------------------------------------
 #t hf aug-cc-pvdz symm=none int=(grid=ultrafine) guess=(read,tcheck) s
 table=(opt,rrhf)
 ----------------------------------------------------------------------
 -----
 title
 -----
 Symbolic Z-matrix:
 Charge =  0 Multiplicity = 1

 SCF Done:  E(RHF) =  -343.642088366     A.U. after   16 cycles
 Normal termination of Gaussian 16 at Wed Apr  9 16:08:04 2025.
 Gaussian 16:  ES64L-G16RevC.01  3-Jul-2019

 ----------------------------------------------------------------------
 #t hf aug-cc-pvdz iop(5/13=1,5/36=2,99/5=2) pseudo=read geom=check gue
 ss=(read,tcheck) scf=(maxcycle=1)
 ----------------------------------------------------------------------
 -----
 title
 -----
 Structure from the checkpoint file:  "Grambow2020_wb97xd3_007805_forward_mol1.chk"
 Charge =  0 Multiplicity = 1

                         Standard orientation:
 ---------------------------------------------------------------------
 Center     Atomic      Atomic             Coordinates (Angstroms)
 Number     Number       Type             X           Y           Z
 ---------------------------------------------------------------------
      1          6           0       -1.852057   -1.170713    0.178765
      2          6           0       -0.919919    0.018224    0.150582
      3          6           0       -1.563875    1.316658   -0.282435
      4          6           0        1.264281    0.170069    1.353121
      5          6           0        1.337804   -0.070166   -0.066228
      6          8           0        2.436520   -0.151965   -0.551707
      7          8           0        0.187534   -0.283719   -0.712968
      8          1           0       -1.331529   -2.057890    0.537940
      9          1           0       -2.703394   -0.973839    0.831307
     10          1           0       -2.222327   -1.367530   -0.829083
     11          1           0       -0.835492    2.127869   -0.301418
     12          1           0       -1.979189    1.205404   -1.285575
     13          1           0       -2.371101    1.588155    0.399125
     14          1           0        1.360924    1.243703    1.569102
     15          1           0       -0.507721    0.135166    1.193184
 ---------------------------------------------------------------------

 SCF Done:  E(RHF) =  -343.750010550     A.U. after    2 cycles

 The electronic state is 1-A.
 Alpha  occ. eigenvalues --  -20.63564 -20.56231 -11.40440 -11.34511 -11.32182
 Alpha  occ. eigenvalues --  -11.25768 -11.25353  -1.44079  -1.34757  -1.08965
 Alpha  occ. eigenvalues --   -1.00948  -0.97202  -0.87027  -0.78651  -0.71309
 Alpha  occ. eigenvalues --   -0.69420  -0.68432  -0.63944  -0.61005  -0.58962
 Alpha  occ. eigenvalues --   -0.57499  -0.56211  -0.54118  -0.52045  -0.49141
 Alpha  occ. eigenvalues --   -0.47418  -0.40488
 Alpha virt. eigenvalues --    0.02624   0.03448   0.04007   0.04568   0.05211
 Alpha virt. eigenvalues --    0.06482   0.06979   0.07019   0.08347   0.09635
 Alpha virt. eigenvalues --    0.11099   0.12620   0.12950   0.13616   0.14709

 Mulliken charges:
               1
     1  C    0.542502
     2  C   -0.691090
     3  C    0.544706
     4  C   -0.090841
     5  C    0.564220
     6  O   -0.489255
     7  O   -0.610343
     8  H   -0.048383
     9  H    0.014391
    10  H    0.032359
    11  H   -0.091519
    12  H    0.042345
    13  H    0.010676
    14  H    0.007234
    15  H    0.262998
 Sum of Mulliken charges =  -0.00000

 Dipole moment (field-independent basis, Debye):
    X=             -4.9693    Y=              1.9768    Z=              1.7577  Tot=              5.6295

 Test job not archived.
 1\1\GINC-SE454\SP\RHF\Aug-CC-pVDZ\C5H8O2\OHZDE\09-Apr-2025\0\\#t hf au
 g-cc-pvdz iop(5/13=1,5/36=2,99/5=2) pseudo=read geom=check guess=(read
 ,tcheck) scf=(maxcycle=1)\\title\\0,1\C,0,-0.95470516,1.42526467,-0.44
 486126\C,0,-0.25946748,0.14639295,-0.03942663\C,0,-1.12076001,-0.82173
 014,0.74097609\C,0,1.8225338,-0.7587837,-1.0814495\C,0,1.9806494,-0.12
 673473,0.20431242\O,0,3.08904897,-0.11069923,0.67415483\O,0,0.90942915
 ,0.47908263,0.72629997\H,0,-0.28895688,2.05299767,-1.03627433\H,0,-1.8
 4639631,1.20587393,-1.0331651\H,0,-1.25248226,1.97726893,0.44856701\H,

 Normal termination of Gaussian 16 at Wed Apr  9 16:08:09 2025.
