 Gaussian 16, Revision C.01,

 ----------------------------------------------------------------------
 #t hf aug-cc-pvdz symm=none int=(grid=ultrafine) guess=(read,tcheck) s
 table=(opt,rrhf)
 ----------------------------------------------------------------------
 -----
 title
 -----
 Symbolic Z-matrix:
 Charge =  0 Multiplicity = 1

 SCF Done:  E(RHF) =  -325.122940590     A.U. after   13 cycles
 Normal termination of Gaussian 16 at Wed Apr  9 16:26:19 2025.
 Gaussian 16:  ES64L-G16RevC.01  3-Jul-2019

 ----------------------------------------------------------------------
 #t hf aug-cc-pvdz iop(5/13=1,5/36=2,99/5=2) pseudo=read geom=check gue
 ss=(read,tcheck) scf=(maxcycle=1)
 ----------------------------------------------------------------------
 -----
 title
 -----
 Structure from the checkpoint file:  "Grambow2020_wb97xd3_008230_forward_mol2.chk"
 Charge =  0 Multiplicity = 1

                         Standard orientation:
 ---------------------------------------------------------------------
 Center     Atomic      Atomic             Coordinates (Angstroms)
 Number     Number       Type             X           Y           Z
 ---------------------------------------------------------------------
      1          6           0        2.456870    0.905143   -0.452504
      2          6           0        1.858347   -0.487884   -0.316340
      3          6           0        0.878356   -0.616028    0.846149
      4          7           0       -0.288711    0.235239    0.719245
      5          6           0       -1.355502   -0.118269   -0.042075
      6          8           0       -1.412694   -1.180674   -0.629712
      7          6           0       -2.475850    0.894306   -0.118754
      8          1           0        3.161896    0.954377   -1.283667
      9          1           0        1.682575    1.652942   -0.639342
     10          1           0        2.995187    1.197264    0.453762
     11          1           0        1.338169   -0.771106   -1.234367
     12          1           0        2.655404   -1.222223   -0.167619
     13          1           0        0.526737   -1.645920    0.917716
     14          1           0        1.372253   -0.364098    1.788360
     15          1           0       -0.281852    1.141835    1.147566
     16          1           0       -2.545052    1.256273   -1.145088
     17          1           0       -2.343507    1.744859    0.550390
     18          1           0       -3.412607    0.390914    0.116404
 ---------------------------------------------------------------------

 SCF Done:  E(RHF) =  -325.227301197     A.U. after    2 cycles

 The electronic state is 1-A.
 Alpha  occ. eigenvalues --  -20.52504 -15.64533 -11.35711 -11.26915 -11.24492
 Alpha  occ. eigenvalues --  -11.22802 -11.22630  -1.34325  -1.19898  -1.05178
 Alpha  occ. eigenvalues --   -0.99625  -0.92339  -0.82564  -0.77532  -0.69855
 Alpha  occ. eigenvalues --   -0.66353  -0.63185  -0.61268  -0.60066  -0.58325
 Alpha  occ. eigenvalues --   -0.56374  -0.54951  -0.52955  -0.49370  -0.49148
 Alpha  occ. eigenvalues --   -0.48284  -0.43241  -0.38912
 Alpha virt. eigenvalues --    0.02844   0.03868   0.04221   0.04679   0.06315
 Alpha virt. eigenvalues --    0.06452   0.06797   0.07474   0.07769   0.08800
 Alpha virt. eigenvalues --    0.09196   0.11388   0.13065   0.13696   0.14160

 Mulliken charges:
               1
     1  C    0.352585
     2  C    0.071174
     3  C    0.616698
     4  N   -0.200125
     5  C    0.246244
     6  O   -0.564019
     7  C    0.403939
     8  H   -0.069669
     9  H   -0.080666
    10  H   -0.064809
    11  H   -0.122445
    12  H   -0.081796
    13  H   -0.147596
    14  H   -0.191898
    15  H   -0.080624
    16  H    0.032213
    17  H   -0.140596
    18  H    0.021391
 Sum of Mulliken charges =  -0.00000

 Dipole moment (field-independent basis, Debye):
    X=              1.0551    Y=              3.3825    Z=              2.0752  Tot=              4.1062

 Test job not archived.
 1\1\GINC-SE100\SP\RHF\Aug-CC-pVDZ\C5H11N1O1\OHZDE\09-Apr-2025\0\\#t hf
  aug-cc-pvdz iop(5/13=1,5/36=2,99/5=2) pseudo=read geom=check guess=(r
 ead,tcheck) scf=(maxcycle=1)\\title\\0,1\C,0,-2.21067087,-0.30270079,-
 0.59279394\C,0,-1.56336431,0.83984961,0.17718518\C,0,-0.58429249,0.370
 75423,1.2493566\N,0,0.5521553,-0.35807074,0.72010616\C,0,1.63406243,0.
 27726106,0.20198402\O,0,1.73160941,1.48866088,0.18503202\C,0,2.7178521
 ,-0.61579865,-0.35856115\H,0,-2.91352363,0.07017224,-1.33930647\H,0,-1
 .46279583,-0.89894754,-1.12082699\H,0,-2.7628592,-0.97011664,0.0750989

 Normal termination of Gaussian 16 at Wed Apr  9 16:26:25 2025.
