 Gaussian 16, Revision C.01,

 ----------------------------------------------------------------------
 #t hf aug-cc-pvdz symm=none int=(grid=ultrafine) guess=(read,tcheck) s
 table=(opt,rrhf)
 ----------------------------------------------------------------------
 -----
 title
 -----
 Symbolic Z-matrix:
 Charge =  0 Multiplicity = 1

 SCF Done:  E(RHF) =  -358.546184363     A.U. after   15 cycles
 Normal termination of Gaussian 16 at Wed Apr  9 03:39:14 2025.
 Gaussian 16:  ES64L-G16RevC.01  3-Jul-2019

 ----------------------------------------------------------------------
 #t hf aug-cc-pvdz iop(5/13=1,5/36=2,99/5=2) pseudo=read geom=check gue
 ss=(read,tcheck) scf=(maxcycle=1)
 ----------------------------------------------------------------------
 -----
 title
 -----
 Structure from the checkpoint file:  "Grambow2020_wb97xd3_007451_reverse_mol2.chk"
 Charge =  0 Multiplicity = 1

                         Standard orientation:
 ---------------------------------------------------------------------
 Center     Atomic      Atomic             Coordinates (Angstroms)
 Number     Number       Type             X           Y           Z
 ---------------------------------------------------------------------
      1          8           0        3.172394    0.136539   -0.119990
      2          6           0        1.925918    0.245642    0.474237
      3          6           0       -0.233661   -0.618538   -0.138572
      4          7           0        0.872274   -0.253742   -0.400527
      5          8           0       -2.371901    1.202361   -0.076488
      6          6           0       -2.543914    0.014448    0.063682
      7          6           0       -1.489392   -0.994538    0.059757
      8          1           0        3.190528    0.677711   -0.913047
      9          1           0        1.961218   -0.342461    1.391596
     10          1           0        1.663199    1.281406    0.712911
     11          1           0       -3.562030   -0.393965    0.213263
     12          1           0       -1.716486   -2.039780    0.216172
 ---------------------------------------------------------------------

 SCF Done:  E(RHF) =  -358.659542149     A.U. after    2 cycles

 The electronic state is 1-A.
 Alpha  occ. eigenvalues --  -20.60282 -20.55972 -15.68113 -11.36534 -11.36290
 Alpha  occ. eigenvalues --  -11.34947 -11.25708  -1.37232  -1.35288  -1.26143
 Alpha  occ. eigenvalues --   -1.06513  -0.97200  -0.85427  -0.78018  -0.72944
 Alpha  occ. eigenvalues --   -0.70148  -0.68348  -0.67703  -0.62292  -0.58625
 Alpha  occ. eigenvalues --   -0.57439  -0.53537  -0.52768  -0.47825  -0.43888
 Alpha  occ. eigenvalues --   -0.36209
 Alpha virt. eigenvalues --    0.02964   0.03573   0.04612   0.05119   0.06533
 Alpha virt. eigenvalues --    0.07480   0.08992   0.10351   0.11361   0.11983
 Alpha virt. eigenvalues --    0.12250   0.12695   0.13975   0.14287   0.15013

 Mulliken charges:
               1
     1  O   -0.466840
     2  C    1.175608
     3  C   -0.985150
     4  N   -0.272072
     5  O   -0.481062
     6  C    0.552916
     7  C    1.176542
     8  H    0.142235
     9  H   -0.208060
    10  H   -0.139073
    11  H   -0.151553
    12  H   -0.343491
 Sum of Mulliken charges =  -0.00000

 Dipole moment (field-independent basis, Debye):
    X=              0.7385    Y=             -1.9289    Z=              0.8461  Tot=              2.2320

 Test job not archived.
 1\1\GINC-SE097\SP\RHF\Aug-CC-pVDZ\C4H5N1O2\OHZDE\09-Apr-2025\0\\#t hf
 aug-cc-pvdz iop(5/13=1,5/36=2,99/5=2) pseudo=read geom=check guess=(re
 ad,tcheck) scf=(maxcycle=1)\\title\\0,1\O,0,-3.07911966,0.45662332,-0.
 19777246\C,0,-1.86374293,-0.17025014,-0.4182284\C,0,0.30709575,0.12663
 589,0.5744648\N,0,-0.77583308,0.52044237,0.26306318\O,0,2.47572226,0.3
 2769287,-1.19986071\C,0,2.61588128,-0.06732482,-0.06641914\C,0,1.54270
 68,-0.21575969,0.91151053\H,0,-3.04439437,1.34511259,-0.5604245\H,0,-1
 .95932707,-1.1869283,-0.03627616\H,0,-1.59293689,-0.20118974,-1.478653

 Normal termination of Gaussian 16 at Wed Apr  9 03:39:18 2025.
