 Gaussian 16, Revision C.01,

 ----------------------------------------------------------------------
 #t hf aug-cc-pvdz symm=none int=(grid=ultrafine) guess=(read,tcheck) s
 table=(opt,rrhf)
 ----------------------------------------------------------------------
 -----
 title
 -----
 Symbolic Z-matrix:
 Charge =  0 Multiplicity = 1

 SCF Done:  E(RHF) =  -286.852612229     A.U. after   14 cycles
 Normal termination of Gaussian 16 at Wed Apr  9 16:14:07 2025.
 Gaussian 16:  ES64L-G16RevC.01  3-Jul-2019

 ----------------------------------------------------------------------
 #t hf aug-cc-pvdz iop(5/13=1,5/36=2,99/5=2) pseudo=read geom=check gue
 ss=(read,tcheck) scf=(maxcycle=1)
 ----------------------------------------------------------------------
 -----
 title
 -----
 Structure from the checkpoint file:  "Grambow2020_wb97xd3_008000_reverse_mol2.chk"
 Charge =  0 Multiplicity = 1

                         Standard orientation:
 ---------------------------------------------------------------------
 Center     Atomic      Atomic             Coordinates (Angstroms)
 Number     Number       Type             X           Y           Z
 ---------------------------------------------------------------------
      1          6           0       -3.875878    0.365152    0.027891
      2          6           0       -2.466024    0.006575   -0.051688
      3          6           0       -1.301916   -0.282963   -0.111822
      4          6           0        0.073761   -0.653065   -0.203202
      5          6           0        1.069963    0.000040    0.391834
      6          6           0        2.515700   -0.382392    0.273460
      7          7           0        3.370472    0.638569   -0.324834
      8          1           0       -4.267929    0.180200    1.029553
      9          1           0       -4.464946   -0.219892   -0.680008
     10          1           0       -4.019703    1.422396   -0.201208
     11          1           0        2.998359    0.923741   -1.221651
     12          1           0        0.296364   -1.532999   -0.802117
     13          1           0        0.843279    0.882490    0.986246
     14          1           0        2.604430   -1.297827   -0.317413
     15          1           0        2.918332   -0.613231    1.264190
     16          1           0        3.404876    1.465061    0.257404
 ---------------------------------------------------------------------

 SCF Done:  E(RHF) =  -286.943308530     A.U. after    2 cycles

 The electronic state is 1-A.
 Alpha  occ. eigenvalues --  -15.60989 -11.26841 -11.25935 -11.25783 -11.24993
 Alpha  occ. eigenvalues --  -11.23811 -11.23096  -1.15967  -1.08037  -1.03630
 Alpha  occ. eigenvalues --   -0.96043  -0.89995  -0.79259  -0.70436  -0.66275
 Alpha  occ. eigenvalues --   -0.63069  -0.61979  -0.59195  -0.59072  -0.58011
 Alpha  occ. eigenvalues --   -0.54171  -0.51347  -0.45003  -0.39889  -0.37666
 Alpha  occ. eigenvalues --   -0.32648
 Alpha virt. eigenvalues --    0.03303   0.03935   0.04285   0.04772   0.05933
 Alpha virt. eigenvalues --    0.06122   0.06262   0.07862   0.08201   0.09901
 Alpha virt. eigenvalues --    0.10694   0.11968   0.13025   0.13966   0.14461

 Mulliken charges:
               1
     1  C    0.302114
     2  C   -0.881314
     3  C   -0.231396
     4  C    0.534101
     5  C    0.466416
     6  C    0.718309
     7  N   -0.432203
     8  H    0.154130
     9  H    0.130048
    10  H    0.148122
    11  H    0.035867
    12  H   -0.394712
    13  H   -0.388322
    14  H   -0.194601
    15  H    0.016679
    16  H    0.016762
 Sum of Mulliken charges =  -0.00000

 Dipole moment (field-independent basis, Debye):
    X=             -1.2999    Y=              0.7843    Z=              0.2842  Tot=              1.5446

 Test job not archived.
 1\1\GINC-SE041\SP\RHF\Aug-CC-pVDZ\C6H9N1\OHZDE\09-Apr-2025\0\\#t hf au
 g-cc-pvdz iop(5/13=1,5/36=2,99/5=2) pseudo=read geom=check guess=(read
 ,tcheck) scf=(maxcycle=1)\\title\\0,1\C,0,2.99985381,0.56976848,2.5225
 1389\C,0,2.02346416,0.44564643,1.44833648\C,0,1.21233484,0.34370289,0.
 56840961\C,0,0.27322905,0.22367121,-0.4999932\C,0,-1.04373412,0.115532
 98,-0.33583826\C,0,-2.02259002,-0.03200009,-1.46300141\N,0,-2.80070201
 ,-1.26686466,-1.43843147\H,0,2.91687933,1.54140364,3.01269498\H,0,4.01
 5422,0.47063077,2.13626163\H,0,2.84538735,-0.20344051,3.27698491\H,0,-

 Normal termination of Gaussian 16 at Wed Apr  9 16:14:12 2025.
