 Gaussian 16, Revision C.01,

 ----------------------------------------------------------------------
 #t hf aug-cc-pvdz symm=none int=(grid=ultrafine) guess=(read,tcheck) s
 table=(opt,rrhf)
 ----------------------------------------------------------------------
 -----
 title
 -----
 Symbolic Z-matrix:
 Charge =  0 Multiplicity = 1

 SCF Done:  E(RHF) =  -284.740365386     A.U. after   15 cycles
 Normal termination of Gaussian 16 at Wed Apr  9 03:05:27 2025.
 Gaussian 16:  ES64L-G16RevC.01  3-Jul-2019

 ----------------------------------------------------------------------
 #t hf aug-cc-pvdz iop(5/13=1,5/36=2,99/5=2) pseudo=read geom=check gue
 ss=(read,tcheck) scf=(maxcycle=1)
 ----------------------------------------------------------------------
 -----
 title
 -----
 Structure from the checkpoint file:  "Grambow2020_b97d3_006529_forward_mol1.chk"
 Charge =  0 Multiplicity = 1

                         Standard orientation:
 ---------------------------------------------------------------------
 Center     Atomic      Atomic             Coordinates (Angstroms)
 Number     Number       Type             X           Y           Z
 ---------------------------------------------------------------------
      1          6           0       -0.091470    1.320129   -0.366166
      2          6           0       -1.251558    0.539471    0.241911
      3          8           0       -1.132677   -0.895594   -0.047068
      4          6           0        0.090281   -1.461898   -0.077087
      5          7           0        1.222434   -0.749907    0.110725
      6          6           0        1.208959    0.737776    0.191179
      7          1           0       -0.115191    1.211319   -1.460695
      8          1           0       -0.190544    2.391039   -0.135885
      9          1           0       -1.281547    0.665050    1.333999
     10          1           0       -2.221919    0.829262   -0.175863
     11          1           0        1.149766   -1.602051   -0.816695
     12          1           0        2.098103    1.105588   -0.336053
     13          1           0        1.328441    1.001025    1.253651
 ---------------------------------------------------------------------

 SCF Done:  E(RHF) =  -284.826594127     A.U. after    2 cycles

 The electronic state is 1-A.
 Alpha  occ. eigenvalues --  -20.60839 -15.65520 -11.32339 -11.31010 -11.28682
 Alpha  occ. eigenvalues --  -11.25896  -1.37435  -1.20169  -1.07379  -0.94237
 Alpha  occ. eigenvalues --   -0.88107  -0.74191  -0.70305  -0.67254  -0.65293
 Alpha  occ. eigenvalues --   -0.62169  -0.58849  -0.56442  -0.53908  -0.49755
 Alpha  occ. eigenvalues --   -0.46101  -0.42760  -0.34928
 Alpha virt. eigenvalues --    0.02837   0.03963   0.04281   0.05171   0.06721
 Alpha virt. eigenvalues --    0.06942   0.07236   0.10285   0.10727   0.12971
 Alpha virt. eigenvalues --    0.13091   0.13615   0.13973   0.14781   0.14837

 Mulliken charges:
               1
     1  C   -0.013172
     2  C    0.754238
     3  O   -0.556055
     4  C    0.029682
     5  N   -0.616342
     6  C    0.696376
     7  H   -0.074209
     8  H   -0.004721
     9  H   -0.156675
    10  H   -0.155509
    11  H    0.323907
    12  H   -0.116154
    13  H   -0.111367
 Sum of Mulliken charges =   0.00000

 Dipole moment (field-independent basis, Debye):
    X=              0.3391    Y=              4.2307    Z=             -0.3351  Tot=              4.2575

 Test job not archived.
 1\1\GINC-SE159\SP\RHF\Aug-CC-pVDZ\C4H7N1O1\OHZDE\09-Apr-2025\0\\#t hf
 aug-cc-pvdz iop(5/13=1,5/36=2,99/5=2) pseudo=read geom=check guess=(re
 ad,tcheck) scf=(maxcycle=1)\\title\\0,1\C,0,0.4975581,-0.68805331,0.53
 384194\C,0,-0.81321356,-1.06458836,-0.14813087\O,0,-1.74713743,0.06883
 823,-0.16173076\C,0,-1.26451881,1.31755024,-0.3199251\N,0,0.05693046,1
 .57449179,-0.42821679\C,0,1.0822659,0.51648506,-0.2064887\H,0,0.298018
 32,-0.425535,1.58344295\H,0,1.188505,-1.54378199,0.53030787\H,0,-0.640
 83266,-1.37561846,-1.18874159\H,0,-1.34963657,-1.86246595,0.37699235\H

 Normal termination of Gaussian 16 at Wed Apr  9 03:05:31 2025.
