 Gaussian 16, Revision C.01,

 ----------------------------------------------------------------------
 #t hf aug-cc-pvdz symm=none int=(grid=ultrafine) guess=(read,tcheck) s
 table=(opt,rrhf)
 ----------------------------------------------------------------------
 -----
 title
 -----
 Symbolic Z-matrix:
 Charge =  0 Multiplicity = 1

 SCF Done:  E(RHF) =  -306.561658032     A.U. after   16 cycles
 Normal termination of Gaussian 16 at Wed Apr  9 15:47:05 2025.
 Gaussian 16:  ES64L-G16RevC.01  3-Jul-2019

 ----------------------------------------------------------------------
 #t hf aug-cc-pvdz iop(5/13=1,5/36=2,99/5=2) pseudo=read geom=check gue
 ss=(read,tcheck) scf=(maxcycle=1)
 ----------------------------------------------------------------------
 -----
 title
 -----
 Structure from the checkpoint file:  "Grambow2020_wb97xd3_007366_reverse_mol2.chk"
 Charge =  0 Multiplicity = 1

                         Standard orientation:
 ---------------------------------------------------------------------
 Center     Atomic      Atomic             Coordinates (Angstroms)
 Number     Number       Type             X           Y           Z
 ---------------------------------------------------------------------
      1          6           0        1.572572   -0.685756   -0.639215
      2          6           0        1.854043    0.089152    0.616582
      3          6           0        0.492450    0.111147    0.005279
      4          6           0       -0.290794    1.329291   -0.473764
      5          6           0       -1.516520    0.910129    0.330179
      6          8           0       -1.536824   -1.060360   -0.352906
      7          6           0       -0.775202   -0.384364    0.654720
      8          1           0        1.978615   -0.310033   -1.569722
      9          1           0        1.511292   -1.764558   -0.575830
     10          1           0        1.988976   -0.464428    1.537623
     11          1           0        2.453974    0.987505    0.540683
     12          1           0        0.050123    2.291675   -0.072452
     13          1           0       -0.463519    1.463988   -1.543035
     14          1           0       -2.461787   -1.044344   -0.076003
     15          1           0       -0.782378   -0.894520    1.619301
 ---------------------------------------------------------------------

 SCF Done:  E(RHF) =  -306.652268623     A.U. after    2 cycles

 The electronic state is 1-A.
 Alpha  occ. eigenvalues --  -20.60291 -11.30032 -11.27666 -11.25006 -11.24309
 Alpha  occ. eigenvalues --  -11.24262 -11.23934  -1.35777  -1.16572  -1.07154
 Alpha  occ. eigenvalues --   -0.91004  -0.83378  -0.79884  -0.73724  -0.72121
 Alpha  occ. eigenvalues --   -0.66876  -0.65142  -0.60706  -0.57656  -0.54220
 Alpha  occ. eigenvalues --   -0.52375  -0.48361  -0.46356  -0.44006  -0.42202
 Alpha  occ. eigenvalues --   -0.34770
 Alpha virt. eigenvalues --    0.03497   0.04231   0.04521   0.04846   0.06075
 Alpha virt. eigenvalues --    0.06461   0.06706   0.07861   0.08665   0.10142
 Alpha virt. eigenvalues --    0.11163   0.12757   0.13406   0.13575   0.13957

 Mulliken charges:
               1
     1  C    0.465886
     2  C    0.658057
     3  C   -0.094550
     4  C    0.412180
     5  C   -0.336200
     6  O   -0.620820
     7  C    0.795146
     8  H   -0.239891
     9  H   -0.249713
    10  H   -0.265404
    11  H   -0.256758
    12  H   -0.079837
    13  H   -0.131776
    14  H    0.203716
    15  H   -0.260036
 Sum of Mulliken charges =   0.00000

 Dipole moment (field-independent basis, Debye):
    X=              1.6213    Y=             -0.3136    Z=              0.7014  Tot=              1.7942

 Test job not archived.
 1\1\GINC-SE100\SP\RHF\Aug-CC-pVDZ\C6H8O1\OHZDE\09-Apr-2025\0\\#t hf au
 g-cc-pvdz iop(5/13=1,5/36=2,99/5=2) pseudo=read geom=check guess=(read
 ,tcheck) scf=(maxcycle=1)\\title\\0,1\C,0,-1.33341907,0.32913597,-0.88
 020752\C,0,-1.60063626,0.01167679,0.56358961\C,0,-0.21569068,-0.080086
 18,0.01439323\C,0,0.69831862,-1.30123025,-0.00050863\C,0,1.84105787,-0
 .50616363,0.62113729\O,0,1.71122893,1.09751406,-0.70596854\C,0,0.96893
 491,0.73707893,0.46511456\H,0,-1.65896673,-0.38482309,-1.62597202\H,0,
 -1.37509845,1.36350897,-1.1963112\H,0,-1.82914152,0.83256789,1.2320942

 Normal termination of Gaussian 16 at Wed Apr  9 15:47:11 2025.
