 Gaussian 16, Revision C.01,

 ----------------------------------------------------------------------
 #t hf aug-cc-pvdz symm=none int=(grid=ultrafine) guess=(read,tcheck) s
 table=(opt,rrhf)
 ----------------------------------------------------------------------
 -----
 title
 -----
 Symbolic Z-matrix:
 Charge =  0 Multiplicity = 1

 SCF Done:  E(RHF) =  -286.853016217     A.U. after   15 cycles
 Normal termination of Gaussian 16 at Wed Apr  9 16:33:09 2025.
 Gaussian 16:  ES64L-G16RevC.01  3-Jul-2019

 ----------------------------------------------------------------------
 #t hf aug-cc-pvdz iop(5/13=1,5/36=2,99/5=2) pseudo=read geom=check gue
 ss=(read,tcheck) scf=(maxcycle=1)
 ----------------------------------------------------------------------
 -----
 title
 -----
 Structure from the checkpoint file:  "Grambow2020_wb97xd3_008573_reverse_mol2.chk"
 Charge =  0 Multiplicity = 1

                         Standard orientation:
 ---------------------------------------------------------------------
 Center     Atomic      Atomic             Coordinates (Angstroms)
 Number     Number       Type             X           Y           Z
 ---------------------------------------------------------------------
      1          6           0        2.218768   -1.033074   -0.053113
      2          6           0        1.030782   -0.434939   -0.054067
      3          6           0       -0.294713   -1.041055    0.084291
      4          6           0       -1.189651   -0.042777    0.019971
      5          6           0       -2.677166   -0.085721    0.103182
      6          6           0       -0.382815    1.178788   -0.159497
      7          7           0        0.883262    0.967079   -0.202966
      8          1           0        3.124284   -0.451960   -0.168225
      9          1           0        2.302528   -2.106540    0.061510
     10          1           0        3.646272    2.497108    0.910417
     11          1           0       -0.487896   -2.096725    0.212842
     12          1           0       -3.132318    0.315066   -0.805808
     13          1           0       -3.041489    0.516130    0.939269
     14          1           0       -3.035694   -1.105925    0.239688
     15          1           0       -0.791434    2.181214   -0.249790
     16          1           0        3.001685    2.234747    0.636261
 ---------------------------------------------------------------------

 SCF Done:  E(RHF) =  -286.942196301     A.U. after    2 cycles

 The electronic state is 1-A.
 Alpha  occ. eigenvalues --  -15.61927 -11.28768 -11.27376 -11.25606 -11.25497
 Alpha  occ. eigenvalues --  -11.24736 -11.24674  -1.24825  -1.06479  -1.04254
 Alpha  occ. eigenvalues --   -0.95644  -0.86429  -0.76157  -0.73841  -0.67936
 Alpha  occ. eigenvalues --   -0.61070  -0.59956  -0.59436  -0.56760  -0.56085
 Alpha  occ. eigenvalues --   -0.53926  -0.53249  -0.52281  -0.42248  -0.35908
 Alpha  occ. eigenvalues --   -0.34285
 Alpha virt. eigenvalues --    0.03120   0.03578   0.04683   0.04919   0.05626
 Alpha virt. eigenvalues --    0.05700   0.06496   0.07986   0.08140   0.10161
 Alpha virt. eigenvalues --    0.10960   0.11565   0.12044   0.12729   0.13624

 Mulliken charges:
               1
     1  C    1.401772
     2  C   -0.237992
     3  C    0.600673
     4  C   -0.717095
     5  C    0.428094
     6  C    0.573856
     7  N   -0.598305
     8  H   -0.360758
     9  H   -0.317003
    10  H   -0.029459
    11  H   -0.452633
    12  H    0.083605
    13  H    0.085251
    14  H   -0.095368
    15  H   -0.394803
    16  H    0.030165
 Sum of Mulliken charges =   0.00000

 Dipole moment (field-independent basis, Debye):
    X=             -2.0275    Y=             -1.6117    Z=              0.1875  Tot=              2.5969

 Test job not archived.
 1\1\GINC-SE219\SP\RHF\Aug-CC-pVDZ\C6H9N1\OHZDE\09-Apr-2025\0\\#t hf au
 g-cc-pvdz iop(5/13=1,5/36=2,99/5=2) pseudo=read geom=check guess=(read
 ,tcheck) scf=(maxcycle=1)\\title\\0,1\C,0,2.25163572,-0.86104942,-0.26
 728918\C,0,1.00850976,-0.39212113,-0.20547831\C,0,-0.24710602,-1.14315
 585,-0.15223301\C,0,-1.24011082,-0.24144607,-0.10252062\C,0,-2.7149691
 4,-0.44636563,-0.0371738\C,0,-0.56379486,1.06906805,-0.12629456\N,0,0.
 71712644,0.99505384,-0.18480461\H,0,3.09216686,-0.18055595,-0.30388969
 \H,0,2.44570282,-1.92621777,-0.28274239\H,0,3.3132623,2.65387734,1.127

 Normal termination of Gaussian 16 at Wed Apr  9 16:33:15 2025.
