 Gaussian 16, Revision C.01,

 ----------------------------------------------------------------------
 #t hf aug-cc-pvdz symm=none int=(grid=ultrafine) guess=(read,tcheck) s
 table=(opt,rrhf)
 ----------------------------------------------------------------------
 -----
 title
 -----
 Symbolic Z-matrix:
 Charge =  0 Multiplicity = 1

 SCF Done:  E(RHF) =  -301.616589294     A.U. after   16 cycles
 Normal termination of Gaussian 16 at Wed Apr  9 03:46:32 2025.
 Gaussian 16:  ES64L-G16RevC.01  3-Jul-2019

 ----------------------------------------------------------------------
 #t hf aug-cc-pvdz iop(5/13=1,5/36=2,99/5=2) pseudo=read geom=check gue
 ss=(read,tcheck) scf=(maxcycle=1)
 ----------------------------------------------------------------------
 -----
 title
 -----
 Structure from the checkpoint file:  "Grambow2020_wb97xd3_007928_reverse_mol2.chk"
 Charge =  0 Multiplicity = 1

                         Standard orientation:
 ---------------------------------------------------------------------
 Center     Atomic      Atomic             Coordinates (Angstroms)
 Number     Number       Type             X           Y           Z
 ---------------------------------------------------------------------
      1          6           0        1.615098    0.796682    0.023184
      2          6           0        1.656261   -0.762478    0.003761
      3          6           0        0.147024   -0.647815   -0.026018
      4          7           0       -1.032220   -1.272960    0.008051
      5          6           0       -1.977560   -0.295369    0.017218
      6          6           0       -1.254903    1.061980    0.004365
      7          7           0        0.142677    0.658644   -0.052258
      8          1           0        2.050544    1.300579   -0.838550
      9          1           0        1.959234    1.258372    0.948112
     10          1           0        2.096125   -1.208725   -0.885643
     11          1           0        2.057267   -1.237062    0.896878
     12          1           0       -1.490248    1.617393    0.915086
     13          1           0       -1.561647    1.651656   -0.861500
 ---------------------------------------------------------------------

 SCF Done:  E(RHF) =  -301.702787087     A.U. after    2 cycles

 The electronic state is 1-A.
 Alpha  occ. eigenvalues --  -15.67551 -15.59942 -11.35197 -11.32668 -11.29186
 Alpha  occ. eigenvalues --  -11.28236 -11.25063  -1.34421  -1.17747  -1.06972
 Alpha  occ. eigenvalues --   -0.94551  -0.92416  -0.78425  -0.73679  -0.71539
 Alpha  occ. eigenvalues --   -0.69999  -0.62675  -0.57662  -0.57369  -0.55354
 Alpha  occ. eigenvalues --   -0.53270  -0.48957  -0.43284  -0.38197  -0.31539
 Alpha virt. eigenvalues --    0.02078   0.03363   0.03538   0.05029   0.06413
 Alpha virt. eigenvalues --    0.07007   0.08112   0.09086   0.09817   0.10112
 Alpha virt. eigenvalues --    0.12144   0.12624   0.12764   0.13371   0.14370

 Mulliken charges:
               1
     1  C    0.888026
     2  C    0.364414
     3  C    0.245082
     4  N   -0.614957
     5  C   -0.208705
     6  C    0.646994
     7  N   -0.467063
     8  H   -0.235910
     9  H   -0.229618
    10  H   -0.048739
    11  H   -0.040157
    12  H   -0.134508
    13  H   -0.164859
 Sum of Mulliken charges =  -0.00000

 Dipole moment (field-independent basis, Debye):
    X=              6.5987    Y=              3.6103    Z=              0.0266  Tot=              7.5218

 Test job not archived.
 1\1\GINC-SE141\SP\RHF\Aug-CC-pVDZ\C5H6N2\OHZDE\09-Apr-2025\0\\#t hf au
 g-cc-pvdz iop(5/13=1,5/36=2,99/5=2) pseudo=read geom=check guess=(read
 ,tcheck) scf=(maxcycle=1)\\title\\0,1\C,0,-1.26162587,-0.52127118,0.38
 123465\C,0,-1.26604298,1.02397603,0.16853081\C,0,0.20534341,0.83141503
 ,-0.13108813\N,0,1.38434033,1.3964552,-0.40179172\C,0,2.28829386,0.381
 36295,-0.44527727\C,0,1.54252753,-0.92967848,-0.14561436\N,0,0.1712374
 ,-0.46706873,0.01145887\H,0,-1.86861932,-1.10416761,-0.31006939\H,0,-1
 .43149641,-0.84895633,1.40634249\H,0,-1.85853261,1.37978289,-0.6717158

 Normal termination of Gaussian 16 at Wed Apr  9 03:46:37 2025.
