 Gaussian 16, Revision C.01,

 ----------------------------------------------------------------------
 #t hf aug-cc-pvdz symm=none int=(grid=ultrafine) guess=(read,tcheck) s
 table=(opt,rrhf)
 ----------------------------------------------------------------------
 -----
 title
 -----
 Symbolic Z-matrix:
 Charge =  0 Multiplicity = 1

 SCF Done:  E(RHF) =  -308.842248086     A.U. after   15 cycles

 1\1\GINC-SE163\Stability\RHF\Aug-CC-pVDZ\C6H12O1\OHZDE\09-Apr-2025\0\\
 #t hf aug-cc-pvdz symm=none int=(grid=ultrafine) guess=(read,tcheck) s
 table=(opt,rrhf)\\title\\0,1\C,0,-1.93322224,-0.97403275,-0.54491617\C
 ,0,-0.89209131,-0.08161233,0.08361134\C,0,-1.34270211,1.06015532,0.824
 49141\C,0,0.2801613,-0.80942024,0.67887245\O,0,1.21173356,-1.47768001,
 -0.14371167\C,0,1.68046161,-0.39721157,0.66391026\C,0,2.22394772,0.818
 609,-0.02610361\H,0,-2.67989272,-0.38206616,-1.07268082\H,0,-1.4821274
 4,-1.68819511,-1.23348216\H,0,-2.4355206,-1.50842869,0.26519614\H,0,-0

 Normal termination of Gaussian 16 at Wed Apr  9 16:02:26 2025.
 Gaussian 16:  ES64L-G16RevC.01  3-Jul-2019

 ----------------------------------------------------------------------
 #t hf aug-cc-pvdz iop(5/13=1,5/36=2,99/5=2) pseudo=read geom=check gue
 ss=(read,tcheck) scf=(maxcycle=1)
 ----------------------------------------------------------------------
 -----
 title
 -----
 Structure from the checkpoint file:  "Grambow2020_wb97xd3_007703_reverse_mol1.chk"
 Charge =  0 Multiplicity = 1

                         Standard orientation:
 ---------------------------------------------------------------------
 Center     Atomic      Atomic             Coordinates (Angstroms)
 Number     Number       Type             X           Y           Z
 ---------------------------------------------------------------------
      1          6           0        2.173281   -0.750492    0.398920
      2          6           0        1.040544    0.186731    0.061377
      3          6           0        1.370990    1.499999   -0.409494
      4          6           0       -0.128089   -0.463964   -0.623539
      5          8           0       -0.958569   -1.372204    0.066712
      6          6           0       -1.544893   -0.169238   -0.431753
      7          6           0       -2.105759    0.808113    0.558161
      8          1           0        2.921012   -0.246444    1.009913
      9          1           0        1.814239   -1.637006    0.921241
     10          1           0        2.645691   -1.042082   -0.542339
     11          1           0        0.461970    0.175235    1.473605
     12          1           0        0.624105    2.093838   -0.913868
     13          1           0        2.367145    1.887868   -0.258879
     14          1           0        0.770971    1.049781    0.945195
     15          1           0        0.191852   -0.795050   -1.612098
     16          1           0       -2.180573   -0.339124   -1.299458
     17          1           0       -1.450236    0.938344    1.418325
     18          1           0       -3.069375    0.449767    0.924103
     19          1           0       -2.264697    1.775624    0.078528
 ---------------------------------------------------------------------

 SCF Done:  E(RHF) =  -308.941632547     A.U. after    2 cycles

 The electronic state is 1-A.
 Alpha  occ. eigenvalues --  -20.59024 -11.33177 -11.31013 -11.30740 -11.24667
 Alpha  occ. eigenvalues --  -11.23955 -11.19893  -1.39364  -1.12484  -1.01656
 Alpha  occ. eigenvalues --   -0.95090  -0.91624  -0.84408  -0.77079  -0.71823
 Alpha  occ. eigenvalues --   -0.68276  -0.63874  -0.61598  -0.59772  -0.58101
 Alpha  occ. eigenvalues --   -0.57067  -0.55094  -0.53030  -0.51414  -0.50899
 Alpha  occ. eigenvalues --   -0.46921  -0.44473  -0.26944
 Alpha virt. eigenvalues --    0.03536   0.04023   0.04189   0.04922   0.05852
 Alpha virt. eigenvalues --    0.06173   0.06351   0.07425   0.08240   0.08630
 Alpha virt. eigenvalues --    0.09532   0.09648   0.12031   0.13122   0.13707

 Mulliken charges:
               1
     1  C    0.838616
     2  C   -1.365698
     3  C    0.425064
     4  C    1.339404
     5  O   -0.786650
     6  C    0.056235
     7  C    0.419493
     8  H    0.030253
     9  H   -0.052979
    10  H    0.060613
    11  H    0.313794
    12  H   -0.398823
    13  H   -0.438196
    14  H    0.128102
    15  H   -0.339572
    16  H   -0.289667
    17  H   -0.025077
    18  H    0.016040
    19  H    0.069049
 Sum of Mulliken charges =  -0.00000

 Dipole moment (field-independent basis, Debye):
    X=             -0.2484    Y=              0.6753    Z=             -0.3768  Tot=              0.8122

 Test job not archived.
 1\1\GINC-SE163\SP\RHF\Aug-CC-pVDZ\C6H12O1\OHZDE\09-Apr-2025\0\\#t hf a
 ug-cc-pvdz iop(5/13=1,5/36=2,99/5=2) pseudo=read geom=check guess=(rea
 d,tcheck) scf=(maxcycle=1)\\title\\0,1\C,0,-1.93322224,-0.97403275,-0.
 54491617\C,0,-0.89209131,-0.08161233,0.08361134\C,0,-1.34270211,1.0601
 5532,0.82449141\C,0,0.2801613,-0.80942024,0.67887245\O,0,1.21173356,-1
 .47768001,-0.14371167\C,0,1.68046161,-0.39721157,0.66391026\C,0,2.2239
 4772,0.818609,-0.02610361\H,0,-2.67989272,-0.38206616,-1.07268082\H,0,
 -1.48212744,-1.68819511,-1.23348216\H,0,-2.4355206,-1.50842869,0.26519

 Normal termination of Gaussian 16 at Wed Apr  9 16:02:34 2025.
