 Gaussian 16, Revision C.01,

 ----------------------------------------------------------------------
 #t hf aug-cc-pvdz symm=none int=(grid=ultrafine) guess=(read,tcheck) s
 table=(opt,rrhf)
 ----------------------------------------------------------------------
 -----
 title
 -----
 Symbolic Z-matrix:
 Charge =  0 Multiplicity = 1

 SCF Done:  E(RHF) =  -373.359301433     A.U. after   16 cycles
 Normal termination of Gaussian 16 at Wed Apr  9 03:27:06 2025.
 Gaussian 16:  ES64L-G16RevC.01  3-Jul-2019

 ----------------------------------------------------------------------
 #t hf aug-cc-pvdz iop(5/13=1,5/36=2,99/5=2) pseudo=read geom=check gue
 ss=(read,tcheck) scf=(maxcycle=1)
 ----------------------------------------------------------------------
 -----
 title
 -----
 Structure from the checkpoint file:  "Grambow2020_wb97xd3_006700_reverse_mol2.chk"
 Charge =  0 Multiplicity = 1

                         Standard orientation:
 ---------------------------------------------------------------------
 Center     Atomic      Atomic             Coordinates (Angstroms)
 Number     Number       Type             X           Y           Z
 ---------------------------------------------------------------------
      1          8           0       -2.200222   -0.028821   -0.001301
      2          6           0       -1.007979   -0.000857   -0.000125
      3          6           0       -0.190327    1.228539    0.000930
      4          7           0        1.082539    1.218417   -0.000189
      5          6           0        1.666355   -0.040132   -0.001187
      6          7           0        1.081197   -1.173231    0.000287
      7          8           0       -0.296122   -1.162365    0.001281
      8          1           0       -0.731412    2.170735    0.003812
      9          1           0        2.747717   -0.082853   -0.002051
 ---------------------------------------------------------------------

 SCF Done:  E(RHF) =  -373.471197331     A.U. after    2 cycles

 The electronic state is 1-A.
 Alpha  occ. eigenvalues --  -20.68811 -20.59814 -15.74217 -15.70557 -11.43510
 Alpha  occ. eigenvalues --  -11.36322 -11.35972  -1.49051  -1.39397  -1.29437
 Alpha  occ. eigenvalues --   -1.18150  -0.98355  -0.94678  -0.81335  -0.78574
 Alpha  occ. eigenvalues --   -0.71803  -0.71255  -0.65346  -0.62361  -0.57545
 Alpha  occ. eigenvalues --   -0.55481  -0.55325  -0.54862  -0.44884  -0.42203
 Alpha virt. eigenvalues --    0.01676   0.03029   0.03555   0.07010   0.07109
 Alpha virt. eigenvalues --    0.09597   0.10482   0.11370   0.11764   0.11947
 Alpha virt. eigenvalues --    0.13531   0.14346   0.14660   0.15176   0.17135

 Mulliken charges:
               1
     1  O   -0.418367
     2  C    0.601750
     3  C    0.467028
     4  N   -0.389458
     5  C    0.730656
     6  N    0.025526
     7  O   -0.621148
     8  H   -0.199440
     9  H   -0.196547
 Sum of Mulliken charges =  -0.00000

 Dipole moment (field-independent basis, Debye):
    X=              2.7552    Y=              2.4908    Z=              0.0014  Tot=              3.7142

 Test job not archived.
 1\1\GINC-SE109\SP\RHF\Aug-CC-pVDZ\C3H2N2O2\OHZDE\09-Apr-2025\0\\#t hf
 aug-cc-pvdz iop(5/13=1,5/36=2,99/5=2) pseudo=read geom=check guess=(re
 ad,tcheck) scf=(maxcycle=1)\\title\\0,1\O,0,-2.22820676,-0.97451153,-0
 .27275313\C,0,-1.10451998,-0.59382302,-0.15179587\C,0,-0.70712805,0.80
 752572,0.08960572\N,0,0.50500058,1.17665609,0.21117349\C,0,1.44768857,
 0.16456661,0.10254066\N,0,1.24128391,-1.07730414,-0.1011289\O,0,-0.070
 27468,-1.47677388,-0.2328983\H,0,-1.51176758,1.53395278,0.16290593\H,0
 ,2.48796899,0.44599637,0.20144439\\Version=ES64L-G16RevC.01\State=1-A\

 Normal termination of Gaussian 16 at Wed Apr  9 03:27:12 2025.
