 Gaussian 16, Revision C.01,

 ----------------------------------------------------------------------
 #t hf aug-cc-pvdz symm=none int=(grid=ultrafine) guess=(read,tcheck) s
 table=(opt,rrhf)
 ----------------------------------------------------------------------
 -----
 title
 -----
 Symbolic Z-matrix:
 Charge =  0 Multiplicity = 1

 SCF Done:  E(RHF) =  -323.713329400     A.U. after   17 cycles
 Normal termination of Gaussian 16 at Wed Apr  9 15:39:12 2025.
 Gaussian 16:  ES64L-G16RevC.01  3-Jul-2019

 ----------------------------------------------------------------------
 #t hf aug-cc-pvdz iop(5/13=1,5/36=2,99/5=2) pseudo=read geom=check gue
 ss=(read,tcheck) scf=(maxcycle=1)
 ----------------------------------------------------------------------
 -----
 title
 -----
 Structure from the checkpoint file:  "Grambow2020_wb97xd3_007255_forward_mol1.chk"
 Charge =  0 Multiplicity = 1

                         Standard orientation:
 ---------------------------------------------------------------------
 Center     Atomic      Atomic             Coordinates (Angstroms)
 Number     Number       Type             X           Y           Z
 ---------------------------------------------------------------------
      1          6           0       -0.454280   -0.047460    1.534051
      2          6           0       -0.623066   -0.026020    0.053944
      3          6           0       -2.024045   -0.050454   -0.513532
      4          6           0        0.242309    1.120512   -0.532909
      5          8           0        1.499088    0.978232    0.065516
      6          6           0        1.396676   -1.142917   -0.272130
      7          7           0        0.237136   -1.224292   -0.447547
      8          1           0        1.169750    0.805161    1.026154
      9          1           0       -0.074942   -0.978778    1.939097
     10          1           0       -1.363549    0.241689    2.061349
     11          1           0       -2.585022    0.774406   -0.072054
     12          1           0       -2.036886    0.066680   -1.599975
     13          1           0       -2.527436   -0.978962   -0.247906
     14          1           0        0.351836    1.085875   -1.618468
     15          1           0       -0.234868    2.055487   -0.231091
     16          1           0        2.422901   -1.449334   -0.264951
 ---------------------------------------------------------------------

 SCF Done:  E(RHF) =  -323.811845650     A.U. after    2 cycles

 The electronic state is 1-A.
 Alpha  occ. eigenvalues --  -20.58691 -15.71524 -11.40105 -11.30830 -11.28879
 Alpha  occ. eigenvalues --  -11.23257 -11.14768  -1.35425  -1.28274  -1.07243
 Alpha  occ. eigenvalues --   -0.92610  -0.90069  -0.86117  -0.77726  -0.72227
 Alpha  occ. eigenvalues --   -0.68198  -0.63958  -0.62807  -0.58769  -0.56452
 Alpha  occ. eigenvalues --   -0.54843  -0.53337  -0.49629  -0.48232  -0.47019
 Alpha  occ. eigenvalues --   -0.45113  -0.25518
 Alpha virt. eigenvalues --    0.02380   0.03573   0.04723   0.05186   0.05636
 Alpha virt. eigenvalues --    0.06596   0.07160   0.07725   0.08287   0.08679
 Alpha virt. eigenvalues --    0.09849   0.10042   0.12676   0.13407   0.13815

 Mulliken charges:
               1
     1  C    0.597130
     2  C   -1.629069
     3  C    0.693718
     4  C    1.196323
     5  O   -0.643048
     6  C    0.369906
     7  N   -0.128906
     8  H    0.382594
     9  H   -0.277678
    10  H   -0.302858
    11  H    0.065110
    12  H    0.033557
    13  H    0.060741
    14  H   -0.193067
    15  H   -0.108172
    16  H   -0.116280
 Sum of Mulliken charges =  -0.00000

 Dipole moment (field-independent basis, Debye):
    X=              1.3734    Y=             -2.1098    Z=             -3.4059  Tot=              4.2353

 Test job not archived.
 1\1\GINC-SE173\SP\RHF\Aug-CC-pVDZ\C5H9N1O1\OHZDE\09-Apr-2025\0\\#t hf
 aug-cc-pvdz iop(5/13=1,5/36=2,99/5=2) pseudo=read geom=check guess=(re
 ad,tcheck) scf=(maxcycle=1)\\title\\0,1\C,0,0.74003522,1.12176203,0.59
 238084\C,0,0.29278284,-0.11598887,-0.10590568\C,0,1.32875969,-1.156405
 39,-0.46597854\C,0,-0.91759115,-0.71386603,0.65917166\O,0,-1.78292737,
 0.36307561,0.88106931\C,0,-1.46410121,1.00976373,-1.14474174\N,0,-0.47
 783621,0.40575191,-1.35539788\H,0,-1.07069779,1.04736455,1.17384904\H,
 0,0.72096146,2.02171884,-0.01179349\H,0,1.72055082,1.00798392,1.055051

 Normal termination of Gaussian 16 at Wed Apr  9 15:39:18 2025.
