 Gaussian 16, Revision C.01,

 ----------------------------------------------------------------------
 #t hf aug-cc-pvdz symm=none int=(grid=ultrafine) guess=(read,tcheck) s
 table=(opt,rrhf)
 ----------------------------------------------------------------------
 -----
 title
 -----
 Symbolic Z-matrix:
 Charge =  0 Multiplicity = 1

 SCF Done:  E(RHF) =  -344.687212637     A.U. after   13 cycles

 1\1\GINC-SE114\Stability\RHF\Aug-CC-pVDZ\C5H10O2\OHZDE\09-Apr-2025\0\\
 #t hf aug-cc-pvdz symm=none int=(grid=ultrafine) guess=(read,tcheck) s
 table=(opt,rrhf)\\title\\0,1\C,0,1.5151622,1.40644571,-0.64227421\O,0,
 1.33221719,0.50538391,0.29047435\C,0,0.52238671,-0.49858967,0.20626825
 \C,0,0.15694006,-1.40417113,1.34223829\O,0,-1.18168088,-1.48208591,0.8
 1776764\C,0,-0.91747676,-0.55376122,-0.25928474\C,0,-1.75039556,0.7065
 4525,-0.14666156\H,0,1.84957039,-0.24029837,-1.78870821\H,0,0.72002177
 ,1.6076071,-1.34548713\H,0,2.2777359,2.13024778,-0.40582863\H,0,1.5191

 Normal termination of Gaussian 16 at Wed Apr  9 14:59:40 2025.
 Gaussian 16:  ES64L-G16RevC.01  3-Jul-2019

 ----------------------------------------------------------------------
 #t hf aug-cc-pvdz iop(5/13=1,5/36=2,99/5=2) pseudo=read geom=check gue
 ss=(read,tcheck) scf=(maxcycle=1)
 ----------------------------------------------------------------------
 -----
 title
 -----
 Structure from the checkpoint file:  "Grambow2020_wb97xd3_006660_forward_mol1.chk"
 Charge =  0 Multiplicity = 1

                         Standard orientation:
 ---------------------------------------------------------------------
 Center     Atomic      Atomic             Coordinates (Angstroms)
 Number     Number       Type             X           Y           Z
 ---------------------------------------------------------------------
      1          6           0       -2.321111    0.244168   -0.069110
      2          8           0       -1.348719   -0.576850   -0.378601
      3          6           0       -0.184173   -0.595585    0.182076
      4          6           0        0.991406   -1.384687   -0.307201
      5          8           0        1.853129   -0.302102    0.090906
      6          6           0        0.757795    0.543188    0.512049
      7          6           0        0.660535    1.809112   -0.314260
      8          1           0       -1.963595   -0.468216    1.802413
      9          1           0       -2.083338    1.205384    0.363037
     10          1           0       -3.235197    0.060986   -0.609670
     11          1           0       -1.234824   -0.769588    1.857975
     12          1           0        1.024690   -1.571501   -1.387037
     13          1           0        1.226319   -2.307224    0.230714
     14          1           0        0.853306    0.786045    1.575558
     15          1           0       -0.122387    2.471038    0.059596
     16          1           0        1.610624    2.341098   -0.248299
     17          1           0        0.462413    1.586411   -1.364054
 ---------------------------------------------------------------------

 SCF Done:  E(RHF) =  -344.800250839     A.U. after    2 cycles

 The electronic state is 1-A.
 Alpha  occ. eigenvalues --  -20.69917 -20.57599 -11.31348 -11.30965 -11.30195
 Alpha  occ. eigenvalues --  -11.30128 -11.23952  -1.46998  -1.35863  -1.05267
 Alpha  occ. eigenvalues --   -1.02602  -0.92847  -0.88965  -0.79268  -0.73713
 Alpha  occ. eigenvalues --   -0.72661  -0.70354  -0.66344  -0.62612  -0.59041
 Alpha  occ. eigenvalues --   -0.57300  -0.56163  -0.54719  -0.53870  -0.51523
 Alpha  occ. eigenvalues --   -0.47327  -0.45083  -0.26576
 Alpha virt. eigenvalues --    0.03405   0.04345   0.04615   0.04974   0.06154
 Alpha virt. eigenvalues --    0.06247   0.06687   0.07547   0.08044   0.08095
 Alpha virt. eigenvalues --    0.10242   0.10610   0.12703   0.13189   0.13696

 Mulliken charges:
               1
     1  C    0.788321
     2  O   -0.286481
     3  C   -0.510320
     4  C    0.926212
     5  O   -0.823070
     6  C    0.577821
     7  C    0.391785
     8  H   -0.052146
     9  H   -0.230120
    10  H   -0.338351
    11  H    0.207336
    12  H   -0.166352
    13  H   -0.155468
    14  H   -0.239345
    15  H   -0.029755
    16  H   -0.021638
    17  H   -0.038429
 Sum of Mulliken charges =  -0.00000

 Dipole moment (field-independent basis, Debye):
    X=             -0.9322    Y=              0.9648    Z=             -0.7649  Tot=              1.5443

 Test job not archived.
 1\1\GINC-SE114\SP\RHF\Aug-CC-pVDZ\C5H10O2\OHZDE\09-Apr-2025\0\\#t hf a
 ug-cc-pvdz iop(5/13=1,5/36=2,99/5=2) pseudo=read geom=check guess=(rea
 d,tcheck) scf=(maxcycle=1)\\title\\0,1\C,0,1.5151622,1.40644571,-0.642
 27421\O,0,1.33221719,0.50538391,0.29047435\C,0,0.52238671,-0.49858967,
 0.20626825\C,0,0.15694006,-1.40417113,1.34223829\O,0,-1.18168088,-1.48
 208591,0.81776764\C,0,-0.91747676,-0.55376122,-0.25928474\C,0,-1.75039
 556,0.70654525,-0.14666156\H,0,1.84957039,-0.24029837,-1.78870821\H,0,
 0.72002177,1.6076071,-1.34548713\H,0,2.2777359,2.13024778,-0.40582863\

 Normal termination of Gaussian 16 at Wed Apr  9 14:59:46 2025.
