 Gaussian 16, Revision C.01,

 ----------------------------------------------------------------------
 #t hf aug-cc-pvdz symm=none int=(grid=ultrafine) guess=(read,tcheck) s
 table=(opt,rrhf)
 ----------------------------------------------------------------------
 -----
 title
 -----
 Symbolic Z-matrix:
 Charge =  0 Multiplicity = 1

 SCF Done:  E(RHF) =  -343.676652000     A.U. after   15 cycles
 Normal termination of Gaussian 16 at Wed Apr  9 16:01:04 2025.
 Gaussian 16:  ES64L-G16RevC.01  3-Jul-2019

 ----------------------------------------------------------------------
 #t hf aug-cc-pvdz iop(5/13=1,5/36=2,99/5=2) pseudo=read geom=check gue
 ss=(read,tcheck) scf=(maxcycle=1)
 ----------------------------------------------------------------------
 -----
 title
 -----
 Structure from the checkpoint file:  "Grambow2020_wb97xd3_007682_reverse_mol2.chk"
 Charge =  0 Multiplicity = 1

                         Standard orientation:
 ---------------------------------------------------------------------
 Center     Atomic      Atomic             Coordinates (Angstroms)
 Number     Number       Type             X           Y           Z
 ---------------------------------------------------------------------
      1          6           0       -2.127451   -0.352572   -0.005714
      2          6           0       -0.676111   -0.486684    0.420455
      3          6           0        0.145916   -1.450584   -0.409648
      4          8           0        1.361640   -1.002548   -0.407198
      5          6           0        1.555661    0.239227    0.359868
      6          6           0        0.158354    0.806077    0.491758
      7          8           0       -0.154662    1.742564   -0.515492
      8          1           0       -2.600071   -1.334266   -0.019075
      9          1           0       -2.211784    0.069999   -1.007235
     10          1           0       -2.680227    0.295693    0.675286
     11          1           0       -0.639069   -0.962764    1.413904
     12          1           0        1.996349   -0.042734    1.316990
     13          1           0        2.242428    0.871559   -0.198788
     14          1           0        0.027040    1.336278    1.434537
     15          1           0       -0.128703    1.313313   -1.374419
 ---------------------------------------------------------------------

 SCF Done:  E(RHF) =  -343.782044653     A.U. after    2 cycles

 The electronic state is 1-A.
 Alpha  occ. eigenvalues --  -20.63903 -20.59049 -11.31154 -11.31039 -11.30037
 Alpha  occ. eigenvalues --  -11.25067 -11.23568  -1.41774  -1.34572  -1.08138
 Alpha  occ. eigenvalues --   -1.02652  -0.93131  -0.84706  -0.77589  -0.72593
 Alpha  occ. eigenvalues --   -0.70504  -0.67590  -0.64261  -0.61079  -0.60057
 Alpha  occ. eigenvalues --   -0.55187  -0.54176  -0.52428  -0.51996  -0.50003
 Alpha  occ. eigenvalues --   -0.46765  -0.35278
 Alpha virt. eigenvalues --    0.03053   0.04250   0.04323   0.05042   0.06190
 Alpha virt. eigenvalues --    0.06338   0.07078   0.09074   0.09411   0.09838
 Alpha virt. eigenvalues --    0.12102   0.12562   0.12930   0.13953   0.14579

 Mulliken charges:
               1
     1  C    0.754297
     2  C   -0.840757
     3  C    0.021461
     4  O   -0.498956
     5  C    0.937653
     6  C    0.506913
     7  O   -0.569524
     8  H   -0.031927
     9  H   -0.018130
    10  H   -0.009439
    11  H   -0.002386
    12  H   -0.145516
    13  H   -0.115874
    14  H   -0.124384
    15  H    0.136568
 Sum of Mulliken charges =  -0.00000

 Dipole moment (field-independent basis, Debye):
    X=              0.1777    Y=              1.5941    Z=              1.9696  Tot=              2.5401

 Test job not archived.
 1\1\GINC-SE141\SP\RHF\Aug-CC-pVDZ\C5H8O2\OHZDE\09-Apr-2025\0\\#t hf au
 g-cc-pvdz iop(5/13=1,5/36=2,99/5=2) pseudo=read geom=check guess=(read
 ,tcheck) scf=(maxcycle=1)\\title\\0,1\C,0,1.67421488,-0.88291085,0.322
 82597\C,0,0.63179943,0.22099046,0.29514327\C,0,0.73090616,1.16231348,-
 0.88722378\O,0,-0.4733775,1.56346298,-1.14704399\C,0,-1.50917196,1.007
 95774,-0.26014793\C,0,-0.84689319,-0.2062697,0.35484634\O,0,-1.1238644
 7,-1.39951265,-0.34443684\H,0,2.67233754,-0.44894835,0.27087778\H,0,1.
 56182974,-1.5591541,-0.52498727\H,0,1.59511799,-1.47736446,1.23383482\

 Normal termination of Gaussian 16 at Wed Apr  9 16:01:10 2025.
