 Gaussian 16, Revision C.01,

 ----------------------------------------------------------------------
 #t hf aug-cc-pvdz symm=none int=(grid=ultrafine) guess=(read,tcheck) s
 table=(opt,rrhf)
 ----------------------------------------------------------------------
 -----
 title
 -----
 Symbolic Z-matrix:
 Charge =  0 Multiplicity = 1

 SCF Done:  E(RHF) =  -323.735424959     A.U. after   15 cycles
 Normal termination of Gaussian 16 at Wed Apr  9 15:23:09 2025.
 Gaussian 16:  ES64L-G16RevC.01  3-Jul-2019

 ----------------------------------------------------------------------
 #t hf aug-cc-pvdz iop(5/13=1,5/36=2,99/5=2) pseudo=read geom=check gue
 ss=(read,tcheck) scf=(maxcycle=1)
 ----------------------------------------------------------------------
 -----
 title
 -----
 Structure from the checkpoint file:  "Grambow2020_wb97xd3_006868_forward_mol1.chk"
 Charge =  0 Multiplicity = 1

                         Standard orientation:
 ---------------------------------------------------------------------
 Center     Atomic      Atomic             Coordinates (Angstroms)
 Number     Number       Type             X           Y           Z
 ---------------------------------------------------------------------
      1          6           0        2.670250    0.130506   -0.098088
      2          7           0        1.344246    0.148253    0.456638
      3          6           0       -0.777208   -1.386861    0.380626
      4          6           0        0.397544   -0.361726   -0.317842
      5          6           0       -0.912049    0.334472   -0.361659
      6          8           0       -1.822434   -0.664644   -0.235051
      7          6           0       -1.244935    1.679223    0.129522
      8          1           0        3.411048    0.047933    0.701886
      9          1           0        2.911064    1.049756   -0.653146
     10          1           0        2.829782   -0.708148   -0.799856
     11          1           0       -0.712573   -2.422155    0.057097
     12          1           0       -0.730802   -1.228267    1.452396
     13          1           0        0.648871   -0.870912   -1.266126
     14          1           0       -2.226340    1.965968   -0.253845
     15          1           0       -1.293751    1.690467    1.223606
     16          1           0       -0.469158    2.381053   -0.173423
 ---------------------------------------------------------------------

 SCF Done:  E(RHF) =  -323.836149217     A.U. after    2 cycles

 The electronic state is 1-A.
 Alpha  occ. eigenvalues --  -20.65274 -15.53184 -11.38765 -11.33420 -11.29438
 Alpha  occ. eigenvalues --  -11.26716 -11.21925  -1.45418  -1.15105  -1.05598
 Alpha  occ. eigenvalues --   -0.99295  -0.91588  -0.84736  -0.76989  -0.70907
 Alpha  occ. eigenvalues --   -0.68685  -0.67383  -0.61394  -0.59894  -0.58437
 Alpha  occ. eigenvalues --   -0.56939  -0.55071  -0.52666  -0.49125  -0.46793
 Alpha  occ. eigenvalues --   -0.34914  -0.26362
 Alpha virt. eigenvalues --    0.03209   0.03408   0.04293   0.05095   0.05286
 Alpha virt. eigenvalues --    0.06455   0.06923   0.07301   0.08100   0.08201
 Alpha virt. eigenvalues --    0.10141   0.11704   0.13093   0.13623   0.14070

 Mulliken charges:
               1
     1  C    0.668261
     2  N   -0.955047
     3  C    0.707600
     4  C    0.813055
     5  C   -0.149320
     6  O   -0.704474
     7  C    0.282162
     8  H   -0.234772
     9  H   -0.144991
    10  H   -0.097842
    11  H   -0.204973
    12  H   -0.144664
    13  H   -0.125190
    14  H    0.018149
    15  H    0.176565
    16  H    0.095482
 Sum of Mulliken charges =  -0.00000

 Dipole moment (field-independent basis, Debye):
    X=             -2.7276    Y=             -0.1028    Z=             -1.0881  Tot=              2.9385

 Test job not archived.
 1\1\GINC-SE129\SP\RHF\Aug-CC-pVDZ\C5H9N1O1\OHZDE\09-Apr-2025\0\\#t hf
 aug-cc-pvdz iop(5/13=1,5/36=2,99/5=2) pseudo=read geom=check guess=(re
 ad,tcheck) scf=(maxcycle=1)\\title\\0,1\C,0,1.29156465,0.29078975,-2.0
 6954055\N,0,0.8895294,0.36786168,-0.69158942\C,0,0.24587725,-1.3195588
 7,1.20610476\C,0,0.01701093,-0.55038718,-0.30213791\C,0,-1.07658635,-0
 .12630136,0.60662008\O,0,-1.09834712,-1.08456597,1.56803458\C,0,-1.504
 17151,1.23967212,0.94085567\H,0,2.31274089,0.66437928,-2.18438081\H,0,
 0.65922304,0.90152584,-2.73154244\H,0,1.25723755,-0.73911143,-2.468782

 Normal termination of Gaussian 16 at Wed Apr  9 15:23:15 2025.
