 Gaussian 16, Revision C.01,

 ----------------------------------------------------------------------
 #t hf aug-cc-pvdz symm=none int=(grid=ultrafine) guess=(read,tcheck) s
 table=(opt,rrhf)
 ----------------------------------------------------------------------
 -----
 title
 -----
 Symbolic Z-matrix:
 Charge =  0 Multiplicity = 1

 SCF Done:  E(RHF) =  -343.504871488     A.U. after   15 cycles
 Normal termination of Gaussian 16 at Wed Apr  9 03:27:26 2025.
 Gaussian 16:  ES64L-G16RevC.01  3-Jul-2019

 ----------------------------------------------------------------------
 #t hf aug-cc-pvdz iop(5/13=1,5/36=2,99/5=2) pseudo=read geom=check gue
 ss=(read,tcheck) scf=(maxcycle=1)
 ----------------------------------------------------------------------
 -----
 title
 -----
 Structure from the checkpoint file:  "Grambow2020_wb97xd3_006709_forward_mol1.chk"
 Charge =  0 Multiplicity = 1

                         Standard orientation:
 ---------------------------------------------------------------------
 Center     Atomic      Atomic             Coordinates (Angstroms)
 Number     Number       Type             X           Y           Z
 ---------------------------------------------------------------------
      1          8           0        2.504184    0.223620   -0.251817
      2          6           0        1.823554   -0.892107    0.044515
      3          6           0        0.036216    0.089989    0.874544
      4          8           0       -0.130645    1.048846   -0.176230
      5          6           0       -1.502925    0.664410   -0.296148
      6          6           0       -1.632212   -0.741681   -0.740350
      7          6           0       -1.361802   -0.443359    0.713544
      8          1           0        2.086697    0.714534   -0.972998
      9          1           0        1.198931   -1.232509   -0.792121
     10          1           0        1.068307   -0.771140    1.003267
     11          1           0        0.245292    0.597547    1.821153
     12          1           0       -2.235049    1.451314   -0.413139
     13          1           0       -0.869420   -1.181266   -1.371475
     14          1           0       -2.645187   -1.067765   -0.941068
     15          1           0       -2.014859   -0.753943    1.514137
 ---------------------------------------------------------------------

 SCF Done:  E(RHF) =  -343.612151327     A.U. after    2 cycles

 The electronic state is 1-A.
 Alpha  occ. eigenvalues --  -20.59780 -20.59514 -11.32975 -11.31979 -11.29385
 Alpha  occ. eigenvalues --  -11.26716 -11.26195  -1.39173  -1.35724  -1.13542
 Alpha  occ. eigenvalues --   -0.97809  -0.89024  -0.84410  -0.77007  -0.74506
 Alpha  occ. eigenvalues --   -0.73166  -0.68017  -0.66601  -0.59695  -0.59179
 Alpha  occ. eigenvalues --   -0.57630  -0.56378  -0.53085  -0.49062  -0.44625
 Alpha  occ. eigenvalues --   -0.41289  -0.30877
 Alpha virt. eigenvalues --    0.02746   0.04001   0.04206   0.04788   0.06246
 Alpha virt. eigenvalues --    0.06741   0.07437   0.07891   0.10044   0.11705
 Alpha virt. eigenvalues --    0.12245   0.12747   0.13065   0.13861   0.14268

 Mulliken charges:
               1
     1  O   -0.407234
     2  C    0.260340
     3  C    0.305845
     4  O   -0.779843
     5  C    0.808221
     6  C    0.896500
     7  C    0.197292
     8  H    0.190166
     9  H   -0.099351
    10  H    0.340398
    11  H   -0.299096
    12  H   -0.372929
    13  H   -0.362085
    14  H   -0.314702
    15  H   -0.363525
 Sum of Mulliken charges =  -0.00000

 Dipole moment (field-independent basis, Debye):
    X=             -4.4348    Y=              0.0977    Z=             -0.5560  Tot=              4.4706

 Test job not archived.
 1\1\GINC-SE398\SP\RHF\Aug-CC-pVDZ\C5H8O2\OHZDE\09-Apr-2025\0\\#t hf au
 g-cc-pvdz iop(5/13=1,5/36=2,99/5=2) pseudo=read geom=check guess=(read
 ,tcheck) scf=(maxcycle=1)\\title\\0,1\O,0,2.46140653,0.99571632,0.7874
 3718\C,0,2.1197559,0.37333724,-0.34915232\C,0,0.39151546,-0.73072943,0
 .45225806\O,0,-0.20588731,0.37265598,1.14292805\C,0,-1.45491051,0.0796
 4133,0.51094196\C,0,-1.37321034,0.26257866,-0.95568099\C,0,-0.85899668
 ,-1.01314331,-0.33596705\H,0,1.79921361,1.65082302,1.04768517\H,0,1.41
 406229,0.96260657,-0.94977205\H,0,1.58715016,-0.71766359,-0.17512671\H

 Normal termination of Gaussian 16 at Wed Apr  9 03:27:30 2025.
