 Gaussian 16, Revision C.01,

 ----------------------------------------------------------------------
 #t hf aug-cc-pvdz symm=none int=(grid=ultrafine) guess=(read,tcheck) s
 table=(opt,rrhf)
 ----------------------------------------------------------------------
 -----
 title
 -----
 Symbolic Z-matrix:
 Charge =  0 Multiplicity = 1

 SCF Done:  E(RHF) =  -322.517655113     A.U. after   15 cycles
 Normal termination of Gaussian 16 at Wed Apr  9 03:33:52 2025.
 Gaussian 16:  ES64L-G16RevC.01  3-Jul-2019

 ----------------------------------------------------------------------
 #t hf aug-cc-pvdz iop(5/13=1,5/36=2,99/5=2) pseudo=read geom=check gue
 ss=(read,tcheck) scf=(maxcycle=1)
 ----------------------------------------------------------------------
 -----
 title
 -----
 Structure from the checkpoint file:  "Grambow2020_wb97xd3_007118_forward_mol1.chk"
 Charge =  0 Multiplicity = 1

                         Standard orientation:
 ---------------------------------------------------------------------
 Center     Atomic      Atomic             Coordinates (Angstroms)
 Number     Number       Type             X           Y           Z
 ---------------------------------------------------------------------
      1          7           0       -2.518452   -0.487245   -0.014452
      2          6           0       -1.371160   -0.329322   -0.124805
      3          8           0       -0.368298    1.650101    0.292440
      4          6           0        0.787748    1.669803   -0.125249
      5          6           0        1.548406   -0.391306   -0.462468
      6          6           0        1.252661   -1.125143    0.800902
      7          6           0        0.505528   -1.223326   -0.480088
      8          1           0       -3.493160   -0.369776    0.152600
      9          1           0        1.634306    1.755356    0.571625
     10          1           0        1.001681    1.914423   -1.177543
     11          1           0        2.387644   -0.157654   -1.092783
     12          1           0        0.793985   -0.562533    1.617352
     13          1           0        1.848051   -1.977439    1.124404
     14          1           0        0.063941   -1.996710   -1.083766
 ---------------------------------------------------------------------

 SCF Done:  E(RHF) =  -322.620623594     A.U. after    2 cycles

 The electronic state is 1-A.
 Alpha  occ. eigenvalues --  -20.53613 -15.66482 -11.32027 -11.31638 -11.28322
 Alpha  occ. eigenvalues --  -11.24177 -11.21641  -1.31404  -1.23429  -1.14994
 Alpha  occ. eigenvalues --   -0.86877  -0.84628  -0.81714  -0.76766  -0.67617
 Alpha  occ. eigenvalues --   -0.65761  -0.64350  -0.61034  -0.54038  -0.51930
 Alpha  occ. eigenvalues --   -0.51760  -0.47988  -0.45762  -0.43032  -0.40291
 Alpha  occ. eigenvalues --   -0.31132
 Alpha virt. eigenvalues --    0.02997   0.03775   0.04538   0.04887   0.06247
 Alpha virt. eigenvalues --    0.07059   0.07939   0.10007   0.10497   0.11847
 Alpha virt. eigenvalues --    0.12412   0.12705   0.13568   0.14511   0.15304

 Mulliken charges:
               1
     1  N   -0.181699
     2  C    0.306773
     3  O   -0.518932
     4  C    0.708818
     5  C    0.135697
     6  C    0.615590
     7  C    0.600539
     8  H   -0.011195
     9  H   -0.114147
    10  H   -0.162978
    11  H   -0.392203
    12  H   -0.269848
    13  H   -0.324133
    14  H   -0.392281
 Sum of Mulliken charges =  -0.00000

 Dipole moment (field-independent basis, Debye):
    X=             -0.9940    Y=             -1.8249    Z=             -1.1362  Tot=              2.3684

 Test job not archived.
 1\1\GINC-SE329\SP\RHF\Aug-CC-pVDZ\C5H7N1O1\OHZDE\09-Apr-2025\0\\#t hf
 aug-cc-pvdz iop(5/13=1,5/36=2,99/5=2) pseudo=read geom=check guess=(re
 ad,tcheck) scf=(maxcycle=1)\\title\\0,1\N,0,2.07516941,-1.86968165,-0.
 08004711\C,0,1.24114285,-1.06307181,-0.16476749\O,0,1.51912305,0.86056
 394,-1.31380846\C,0,0.62715333,1.66957665,-1.06645352\C,0,-1.14160525,
 0.658576,-0.17771404\C,0,-1.43734333,-0.48049126,-1.0926751\C,0,-0.766
 8276,-0.55475686,0.23158994\H,0,2.92106397,-2.38945535,-0.15788326\H,0
 ,-0.07774012,1.98395052,-1.84997543\H,0,0.68995532,2.32350494,-0.18250

 Normal termination of Gaussian 16 at Wed Apr  9 03:33:56 2025.
