 Gaussian 16, Revision C.01,

 ----------------------------------------------------------------------
 #t hf aug-cc-pvdz symm=none int=(grid=ultrafine) guess=(read,tcheck) s
 table=(opt,rrhf)
 ----------------------------------------------------------------------
 -----
 title
 -----
 Symbolic Z-matrix:
 Charge =  0 Multiplicity = 1

 SCF Done:  E(RHF) =  -342.547312092     A.U. after   14 cycles
 Normal termination of Gaussian 16 at Wed Apr  9 16:55:08 2025.
 Gaussian 16:  ES64L-G16RevC.01  3-Jul-2019

 ----------------------------------------------------------------------
 #t hf aug-cc-pvdz iop(5/13=1,5/36=2,99/5=2) pseudo=read geom=check gue
 ss=(read,tcheck) scf=(maxcycle=1)
 ----------------------------------------------------------------------
 -----
 title
 -----
 Structure from the checkpoint file:  "Grambow2020_wb97xd3_009066_reverse_mol2.chk"
 Charge =  0 Multiplicity = 1

                         Standard orientation:
 ---------------------------------------------------------------------
 Center     Atomic      Atomic             Coordinates (Angstroms)
 Number     Number       Type             X           Y           Z
 ---------------------------------------------------------------------
      1          8           0        0.412700    1.480159   -1.224691
      2          6           0        0.239102    1.589312   -0.086934
      3          6           0       -2.207033   -1.182370    0.561784
      4          6           0       -2.223475   -0.758770   -0.691042
      5          6           0        1.557709   -1.577040    0.009749
      6          8           0        2.635961   -1.271283    0.082640
      7          6           0        0.054252    1.710762    1.201381
      8          1           0       -3.019436   -0.965706    1.246750
      9          1           0       -1.379462   -1.766073    0.948752
     10          1           0       -3.048065   -0.175445   -1.084988
     11          1           0       -1.411847   -0.980229   -1.374672
     12          1           0        0.704023    2.356456    1.770919
     13          1           0       -0.757824    1.168621    1.660021
 ---------------------------------------------------------------------

 SCF Done:  E(RHF) =  -342.661293825     A.U. after    2 cycles

 The electronic state is 1-A.
 Alpha  occ. eigenvalues --  -20.68054 -20.64348 -11.39538 -11.37105 -11.24683
 Alpha  occ. eigenvalues --  -11.24411 -11.24235  -1.49196  -1.44387  -1.04935
 Alpha  occ. eigenvalues --   -1.03479  -0.81610  -0.79492  -0.76996  -0.68409
 Alpha  occ. eigenvalues --   -0.66792  -0.66593  -0.65761  -0.65390  -0.65047
 Alpha  occ. eigenvalues --   -0.59662  -0.57266  -0.55502  -0.50971  -0.38722
 Alpha  occ. eigenvalues --   -0.37046
 Alpha virt. eigenvalues --    0.03552   0.04618   0.04910   0.05514   0.06967
 Alpha virt. eigenvalues --    0.07143   0.08223   0.09164   0.09854   0.10747
 Alpha virt. eigenvalues --    0.11535   0.12710   0.13145   0.13902   0.14261

 Mulliken charges:
               1
     1  O   -0.255177
     2  C   -0.100022
     3  C    0.561798
     4  C    0.572085
     5  C    0.217366
     6  O   -0.230896
     7  C    0.771603
     8  H   -0.288463
     9  H   -0.294555
    10  H   -0.268796
    11  H   -0.289562
    12  H   -0.220976
    13  H   -0.174407
 Sum of Mulliken charges =  -0.00000

 Dipole moment (field-independent basis, Debye):
    X=             -0.7867    Y=              0.0292    Z=              1.8313  Tot=              1.9934

 Test job not archived.
 1\1\GINC-SE173\SP\RHF\Aug-CC-pVDZ\C5H6O2\OHZDE\09-Apr-2025\0\\#t hf au
 g-cc-pvdz iop(5/13=1,5/36=2,99/5=2) pseudo=read geom=check guess=(read
 ,tcheck) scf=(maxcycle=1)\\title\\0,1\O,0,1.34103687,-0.36098818,1.888
 64758\C,0,1.54891879,-0.68546524,0.79867414\C,0,-1.79473118,-0.0999568
 1,-0.80251867\C,0,-1.87201193,-0.29460684,0.50339782\C,0,0.77543939,2.
 5845269,0.10387958\O,0,1.80980872,2.9995645,0.24262878\C,0,1.79220367,
 -1.04400578,-0.43458834\H,0,-2.13419519,-0.84786558,-1.51069743\H,0,-1
 .39093936,0.81876511,-1.21267691\H,0,-2.27541766,-1.21038879,0.9205512

 Normal termination of Gaussian 16 at Wed Apr  9 16:55:11 2025.
