 Gaussian 16, Revision C.01,

 ----------------------------------------------------------------------
 #t hf aug-cc-pvdz symm=none int=(grid=ultrafine) guess=(read,tcheck) s
 table=(opt,rrhf)
 ----------------------------------------------------------------------
 -----
 title
 -----
 Symbolic Z-matrix:
 Charge =  0 Multiplicity = 1

 SCF Done:  E(RHF) =  -302.264588811     A.U. after   16 cycles
 Normal termination of Gaussian 16 at Wed Apr  9 13:50:01 2025.
 Gaussian 16:  ES64L-G16RevC.01  3-Jul-2019

 ----------------------------------------------------------------------
 #t hf aug-cc-pvdz iop(5/13=1,5/36=2,99/5=2) pseudo=read geom=check gue
 ss=(read,tcheck) scf=(maxcycle=1)
 ----------------------------------------------------------------------
 -----
 title
 -----
 Structure from the checkpoint file:  "Grambow2020_b97d3_006707_reverse_mol2.chk"
 Charge =  0 Multiplicity = 1

                         Standard orientation:
 ---------------------------------------------------------------------
 Center     Atomic      Atomic             Coordinates (Angstroms)
 Number     Number       Type             X           Y           Z
 ---------------------------------------------------------------------
      1          8           0        3.184550   -0.187032   -0.001628
      2          6           0        2.004887   -0.033559   -0.001395
      3          6           0        0.724715    0.130072    0.005787
      4          6           0       -0.549790    0.305715   -0.000129
      5          6           0       -1.866783    0.487538   -0.000571
      6          8           0       -2.832883   -0.495218   -0.001330
      7          1           0       -2.391027   -1.366846    0.004498
      8          1           0       -2.300484    1.486250   -0.002990
 ---------------------------------------------------------------------

 SCF Done:  E(RHF) =  -302.360154145     A.U. after    2 cycles

 The electronic state is 1-A.
 Alpha  occ. eigenvalues --  -20.64560 -20.63603 -11.41551 -11.35147 -11.33099
 Alpha  occ. eigenvalues --  -11.28443  -1.42008  -1.38407  -1.10633  -1.02027
 Alpha  occ. eigenvalues --   -0.89726  -0.80267  -0.74064  -0.68547  -0.65489
 Alpha  occ. eigenvalues --   -0.62463  -0.62373  -0.60940  -0.48709  -0.43477
 Alpha  occ. eigenvalues --   -0.32189
 Alpha virt. eigenvalues --    0.01403   0.03324   0.04153   0.06257   0.08600
 Alpha virt. eigenvalues --    0.09126   0.09786   0.10127   0.11553   0.11926
 Alpha virt. eigenvalues --    0.12875   0.15103   0.16042   0.17633   0.19301

 Mulliken charges:
               1
     1  O   -0.274419
     2  C   -0.859946
     3  C    1.057979
     4  C   -0.165850
     5  C    0.748900
     6  O   -0.494370
     7  H    0.152404
     8  H   -0.164697
 Sum of Mulliken charges =  -0.00000

 Dipole moment (field-independent basis, Debye):
    X=             -2.2902    Y=             -0.1279    Z=              0.0005  Tot=              2.2937

 Test job not archived.
 1\1\GINC-SE054\SP\RHF\Aug-CC-pVDZ\C4H2O2\OHZDE\09-Apr-2025\0\\#t hf au
 g-cc-pvdz iop(5/13=1,5/36=2,99/5=2) pseudo=read geom=check guess=(read
 ,tcheck) scf=(maxcycle=1)\\title\\0,1\O,0,-3.54907324,0.59272103,0.371
 47529\C,0,-2.37284772,0.47846551,0.23510628\C,0,-1.09784799,0.35168553
 ,0.08028753\C,0,0.1758413,0.23777868,-0.06109647\C,0,1.49141649,0.1204
 3514,-0.21283426\O,0,2.20757544,-1.05347521,-0.30343638\H,0,1.58473933
 ,-1.80412916,-0.24344392\H,0,2.13431339,0.99680148,-0.27760006\\Versio
 n=ES64L-G16RevC.01\State=1-A\HF=-302.3601541\RMSD=1.169e-02\Dipole=0.8

 Normal termination of Gaussian 16 at Wed Apr  9 13:50:04 2025.
