 Gaussian 16, Revision C.01,

 ----------------------------------------------------------------------
 #t hf aug-cc-pvdz symm=none int=(grid=ultrafine) guess=(read,tcheck) s
 table=(opt,rrhf)
 ----------------------------------------------------------------------
 -----
 title
 -----
 Symbolic Z-matrix:
 Charge =  0 Multiplicity = 1

 SCF Done:  E(RHF) =  -270.054191841     A.U. after   13 cycles

 1\1\GINC-SE250\Stability\RHF\Aug-CC-pVDZ\C5H10O1\OHZDE\09-Apr-2025\0\\
 #t hf aug-cc-pvdz symm=none int=(grid=ultrafine) guess=(read,tcheck) s
 table=(opt,rrhf)\\title\\0,1\C,0,-2.40331164,0.32346779,-0.04904544\C,
 0,-1.12335358,-0.52112047,-0.0076703\C,0,0.14999478,0.33549048,-0.0309
 6004\C,0,1.42828517,-0.50362348,0.01260969\C,0,2.71526913,0.292385,-0.
 02067881\O,0,2.78567836,1.50635876,-0.08509441\H,0,-3.30171669,-0.3095
 226,-0.0324635\H,0,-2.45268865,1.00422607,0.8134796\H,0,-2.4389492,0.9
 376854,-0.96083327\H,0,-1.12438771,-1.14980347,0.89823226\H,0,-1.11154

 Normal termination of Gaussian 16 at Wed Apr  9 03:07:57 2025.
 Gaussian 16:  ES64L-G16RevC.01  3-Jul-2019

 ----------------------------------------------------------------------
 #t hf aug-cc-pvdz iop(5/13=1,5/36=2,99/5=2) pseudo=read geom=check gue
 ss=(read,tcheck) scf=(maxcycle=1)
 ----------------------------------------------------------------------
 -----
 title
 -----
 Structure from the checkpoint file:  "Grambow2020_b97d3_006644_forward_mol2.chk"
 Charge =  0 Multiplicity = 1

                         Standard orientation:
 ---------------------------------------------------------------------
 Center     Atomic      Atomic             Coordinates (Angstroms)
 Number     Number       Type             X           Y           Z
 ---------------------------------------------------------------------
      1          6           0        2.847054   -0.505916    0.000933
      2          6           0        1.694620    0.506597   -0.005969
      3          6           0        0.316100   -0.168144    0.006220
      4          6           0       -0.835426    0.838833    0.001787
      5          6           0       -2.219186    0.225421    0.000939
      6          8           0       -2.454969   -0.969242   -0.004079
      7          1           0        3.823574   -0.001540   -0.008924
      8          1           0        2.804241   -1.143572    0.896132
      9          1           0        2.797000   -1.163549   -0.879354
     10          1           0        1.782970    1.173241    0.867920
     11          1           0        1.776550    1.153075   -0.895469
     12          1           0        0.217215   -0.832470   -0.865302
     13          1           0        0.224419   -0.815667    0.891110
     14          1           0       -0.775692    1.511053   -0.874355
     15          1           0       -0.777445    1.517260    0.873132
     16          1           0       -3.052059    0.975366    0.004276
 ---------------------------------------------------------------------

 SCF Done:  E(RHF) =  -270.139451469     A.U. after    2 cycles

 The electronic state is 1-A.
 Alpha  occ. eigenvalues --  -20.57408 -11.34879 -11.25572 -11.23774 -11.23673
 Alpha  occ. eigenvalues --  -11.22886  -1.35234  -1.07847  -1.00831  -0.90516
 Alpha  occ. eigenvalues --   -0.81156  -0.77226  -0.67948  -0.65636  -0.63823
 Alpha  occ. eigenvalues --   -0.59818  -0.58757  -0.53684  -0.53234  -0.49964
 Alpha  occ. eigenvalues --   -0.49273  -0.48087  -0.47304  -0.43041
 Alpha virt. eigenvalues --    0.03168   0.03910   0.04590   0.04966   0.05918
 Alpha virt. eigenvalues --    0.06480   0.07344   0.07527   0.08773   0.09853
 Alpha virt. eigenvalues --    0.10975   0.11337   0.11555   0.13808   0.15415

 Mulliken charges:
               1
     1  C    0.450560
     2  C    0.267998
     3  C    0.127568
     4  C   -0.115952
     5  C    0.682834
     6  O   -0.482377
     7  H   -0.046472
     8  H   -0.062624
     9  H   -0.062566
    10  H   -0.138970
    11  H   -0.138854
    12  H   -0.142288
    13  H   -0.143131
    14  H   -0.043878
    15  H   -0.046081
    16  H   -0.105766
 Sum of Mulliken charges =   0.00000

 Dipole moment (field-independent basis, Debye):
    X=              1.3410    Y=              3.0840    Z=              0.0106  Tot=              3.3630

 Test job not archived.
 1\1\GINC-SE250\SP\RHF\Aug-CC-pVDZ\C5H10O1\OHZDE\09-Apr-2025\0\\#t hf a
 ug-cc-pvdz iop(5/13=1,5/36=2,99/5=2) pseudo=read geom=check guess=(rea
 d,tcheck) scf=(maxcycle=1)\\title\\0,1\C,0,-2.40331164,0.32346779,-0.0
 4904544\C,0,-1.12335358,-0.52112047,-0.0076703\C,0,0.14999478,0.335490
 48,-0.03096004\C,0,1.42828517,-0.50362348,0.01260969\C,0,2.71526913,0.
 292385,-0.02067881\O,0,2.78567836,1.50635876,-0.08509441\H,0,-3.301716
 69,-0.3095226,-0.0324635\H,0,-2.45268865,1.00422607,0.8134796\H,0,-2.4
 389492,0.9376854,-0.96083327\H,0,-1.12438771,-1.14980347,0.89823226\H,

 Normal termination of Gaussian 16 at Wed Apr  9 03:08:02 2025.
