 Gaussian 16, Revision C.01,

 ----------------------------------------------------------------------
 #t hf aug-cc-pvdz symm=none int=(grid=ultrafine) guess=(read,tcheck) s
 table=(opt,rrhf)
 ----------------------------------------------------------------------
 -----
 title
 -----
 Symbolic Z-matrix:
 Charge =  0 Multiplicity = 1

 SCF Done:  E(RHF) =  -323.829917499     A.U. after   14 cycles
 Normal termination of Gaussian 16 at Wed Apr  9 16:20:06 2025.
 Gaussian 16:  ES64L-G16RevC.01  3-Jul-2019

 ----------------------------------------------------------------------
 #t hf aug-cc-pvdz iop(5/13=1,5/36=2,99/5=2) pseudo=read geom=check gue
 ss=(read,tcheck) scf=(maxcycle=1)
 ----------------------------------------------------------------------
 -----
 title
 -----
 Structure from the checkpoint file:  "Grambow2020_wb97xd3_008089_reverse_mol2.chk"
 Charge =  0 Multiplicity = 1

                         Standard orientation:
 ---------------------------------------------------------------------
 Center     Atomic      Atomic             Coordinates (Angstroms)
 Number     Number       Type             X           Y           Z
 ---------------------------------------------------------------------
      1          6           0       -2.565184   -0.798170   -0.126860
      2          6           0       -1.835492    0.404260    0.242789
      3          7           0       -1.245233    1.343817    0.534113
      4          8           0        0.596246   -1.622831   -0.419392
      5          6           0        1.255478   -0.669666   -0.129098
      6          6           0        1.901119    0.564402   -0.566635
      7          6           0        1.972399    0.063088    0.910839
      8          1           0       -3.179706   -0.603184   -1.004846
      9          1           0       -1.849745   -1.589063   -0.352187
     10          1           0       -3.205671   -1.108926    0.697593
     11          1           0       -0.426440    3.440545   -1.067813
     12          1           0       -0.143195    3.851458   -1.622653
     13          1           0        2.801017    0.495227   -1.166759
     14          1           0        1.273798    1.426299   -0.760757
     15          1           0        2.918058   -0.329958    1.265676
     16          1           0        1.388633    0.610042    1.641883
 ---------------------------------------------------------------------

 SCF Done:  E(RHF) =  -323.936663518     A.U. after    2 cycles

 The electronic state is 1-A.
 Alpha  occ. eigenvalues --  -20.58029 -15.63760 -11.35788 -11.29507 -11.28492
 Alpha  occ. eigenvalues --  -11.25453 -11.25372  -1.36934  -1.20137  -1.14459
 Alpha  occ. eigenvalues --   -1.03019  -0.85697  -0.75814  -0.69199  -0.68567
 Alpha  occ. eigenvalues --   -0.67724  -0.62740  -0.62402  -0.62307  -0.58375
 Alpha  occ. eigenvalues --   -0.54918  -0.54237  -0.53186  -0.46881  -0.46534
 Alpha  occ. eigenvalues --   -0.46132  -0.39508
 Alpha virt. eigenvalues --    0.03327   0.03841   0.04604   0.05867   0.05959
 Alpha virt. eigenvalues --    0.06864   0.07498   0.08198   0.09406   0.10013
 Alpha virt. eigenvalues --    0.10928   0.11813   0.12371   0.12723   0.13903

 Mulliken charges:
               1
     1  C    0.418739
     2  C   -0.444975
     3  N   -0.150159
     4  O   -0.466710
     5  C    0.065252
     6  C    0.660777
     7  C    0.635526
     8  H    0.048005
     9  H    0.037269
    10  H    0.047038
    11  H    0.054102
    12  H   -0.038854
    13  H   -0.177984
    14  H   -0.305252
    15  H   -0.180381
    16  H   -0.202394
 Sum of Mulliken charges =   0.00000

 Dipole moment (field-independent basis, Debye):
    X=             -0.1924    Y=             -0.4961    Z=             -0.0755  Tot=              0.5375

 Test job not archived.
 1\1\GINC-SE173\SP\RHF\Aug-CC-pVDZ\C5H9N1O1\OHZDE\09-Apr-2025\0\\#t hf
 aug-cc-pvdz iop(5/13=1,5/36=2,99/5=2) pseudo=read geom=check guess=(re
 ad,tcheck) scf=(maxcycle=1)\\title\\0,1\C,0,2.62287021,-0.42016631,-0.
 82627453\C,0,1.81530303,0.47841579,-0.01675926\N,0,1.16420666,1.181862
 05,0.61354266\O,0,-0.47731512,-1.22129977,-1.53853571\C,0,-1.19808507,
 -0.51467919,-0.89934998\C,0,-1.91491042,-0.29109934,0.35260437\C,0,-1.
 9708375,0.72265033,-0.8342027\H,0,3.23355699,-1.05121362,-0.18179228\H
 ,0,1.96087682,-1.04526843,-1.42556471\H,0,3.27249058,0.15787502,-1.482

 Normal termination of Gaussian 16 at Wed Apr  9 16:20:12 2025.
