 Gaussian 16, Revision C.01,

 ----------------------------------------------------------------------
 #t hf aug-cc-pvdz symm=none int=(grid=ultrafine) guess=(read,tcheck) s
 table=(opt,rrhf)
 ----------------------------------------------------------------------
 -----
 title
 -----
 Symbolic Z-matrix:
 Charge =  0 Multiplicity = 1

 SCF Done:  E(RHF) =  -344.841999481     A.U. after   15 cycles

 1\1\GINC-SE113\Stability\RHF\Aug-CC-pVDZ\C5H10O2\OHZDE\09-Apr-2025\0\\
 #t hf aug-cc-pvdz symm=none int=(grid=ultrafine) guess=(read,tcheck) s
 table=(opt,rrhf)\\title\\0,1\C,0,-1.8220358,-1.38743111,1.39914613\C,0
 ,-1.04715018,-0.22568039,0.88263269\C,0,0.99703502,0.53170674,-1.35636
 904\C,0,1.7974002,0.17588316,-0.10168813\O,0,1.62781672,1.10332053,0.9
 3930211\C,0,-0.44712537,0.89143412,-1.07395297\O,0,-1.15103614,-0.1858
 5271,-0.40651572\H,0,-1.13695261,-2.0108634,1.980853\H,0,-2.54606222,-
 1.00471351,2.12414426\H,0,-2.32648562,-1.98261819,0.63283975\H,0,1.443

 Normal termination of Gaussian 16 at Wed Apr  9 15:55:11 2025.
 Gaussian 16:  ES64L-G16RevC.01  3-Jul-2019

 ----------------------------------------------------------------------
 #t hf aug-cc-pvdz iop(5/13=1,5/36=2,99/5=2) pseudo=read geom=check gue
 ss=(read,tcheck) scf=(maxcycle=1)
 ----------------------------------------------------------------------
 -----
 title
 -----
 Structure from the checkpoint file:  "Grambow2020_wb97xd3_007594_reverse_mol2.chk"
 Charge =  0 Multiplicity = 1

                         Standard orientation:
 ---------------------------------------------------------------------
 Center     Atomic      Atomic             Coordinates (Angstroms)
 Number     Number       Type             X           Y           Z
 ---------------------------------------------------------------------
      1          6           0        2.663860   -0.546118    0.274956
      2          6           0        1.326093   -0.289478   -0.326220
      3          6           0       -1.498616    0.824254    0.412751
      4          6           0       -1.540281   -0.694938    0.590901
      5          8           0       -1.434028   -1.393372   -0.622961
      6          6           0       -0.372302    1.300357   -0.481400
      7          8           0        0.924751    0.890890    0.020099
      8          1           0        2.590574   -1.461862    0.868617
      9          1           0        3.350957   -0.788313   -0.540855
     10          1           0        3.062371    0.273133    0.879902
     11          1           0       -2.427299    1.162994   -0.055426
     12          1           0       -1.433598    1.303895    1.394004
     13          1           0       -2.491077   -0.975256    1.048893
     14          1           0       -0.750750   -1.003286    1.289179
     15          1           0       -0.494514   -1.344539   -0.876441
     16          1           0       -0.328299    2.388008   -0.521429
     17          1           0       -0.476667    0.900620   -1.489479
 ---------------------------------------------------------------------

 SCF Done:  E(RHF) =  -344.951853321     A.U. after    2 cycles

 The electronic state is 1-A.
 Alpha  occ. eigenvalues --  -20.63947 -20.54857 -11.30888 -11.30286 -11.27977
 Alpha  occ. eigenvalues --  -11.23978 -11.23599  -1.41467  -1.30705  -1.07091
 Alpha  occ. eigenvalues --   -1.00747  -0.93221  -0.84044  -0.78095  -0.71813
 Alpha  occ. eigenvalues --   -0.67904  -0.65971  -0.64014  -0.61975  -0.59286
 Alpha  occ. eigenvalues --   -0.57017  -0.55842  -0.53984  -0.53691  -0.49855
 Alpha  occ. eigenvalues --   -0.47533  -0.44093  -0.36492
 Alpha virt. eigenvalues --    0.03396   0.04239   0.04505   0.05092   0.06163
 Alpha virt. eigenvalues --    0.06408   0.06597   0.07173   0.08351   0.09175
 Alpha virt. eigenvalues --    0.10475   0.11846   0.13070   0.13538   0.14334

 Mulliken charges:
               1
     1  C    0.288694
     2  C   -0.249072
     3  C   -0.127145
     4  C    0.854812
     5  O   -0.559978
     6  C    0.856543
     7  O   -0.468162
     8  H    0.011718
     9  H    0.000767
    10  H   -0.143093
    11  H   -0.014510
    12  H   -0.044120
    13  H   -0.213224
    14  H   -0.112825
    15  H    0.237091
    16  H   -0.248731
    17  H   -0.068766
 Sum of Mulliken charges =  -0.00000

 Dipole moment (field-independent basis, Debye):
    X=              1.2171    Y=              2.0306    Z=              1.2220  Tot=              2.6642

 Test job not archived.
 1\1\GINC-SE113\SP\RHF\Aug-CC-pVDZ\C5H10O2\OHZDE\09-Apr-2025\0\\#t hf a
 ug-cc-pvdz iop(5/13=1,5/36=2,99/5=2) pseudo=read geom=check guess=(rea
 d,tcheck) scf=(maxcycle=1)\\title\\0,1\C,0,-1.8220358,-1.38743111,1.39
 914613\C,0,-1.04715018,-0.22568039,0.88263269\C,0,0.99703502,0.5317067
 4,-1.35636904\C,0,1.7974002,0.17588316,-0.10168813\O,0,1.62781672,1.10
 332053,0.93930211\C,0,-0.44712537,0.89143412,-1.07395297\O,0,-1.151036
 14,-0.18585271,-0.40651572\H,0,-1.13695261,-2.0108634,1.980853\H,0,-2.
 54606222,-1.00471351,2.12414426\H,0,-2.32648562,-1.98261819,0.63283975

 Normal termination of Gaussian 16 at Wed Apr  9 15:55:17 2025.
