 Gaussian 16, Revision C.01,

 ----------------------------------------------------------------------
 #t hf aug-cc-pvdz symm=none int=(grid=ultrafine) guess=(read,tcheck) s
 table=(opt,rrhf)
 ----------------------------------------------------------------------
 -----
 title
 -----
 Symbolic Z-matrix:
 Charge =  0 Multiplicity = 1

 SCF Done:  E(RHF) =  -321.402157760     A.U. after   18 cycles
 Normal termination of Gaussian 16 at Wed Apr  9 16:24:47 2025.
 Gaussian 16:  ES64L-G16RevC.01  3-Jul-2019

 ----------------------------------------------------------------------
 #t hf aug-cc-pvdz iop(5/13=1,5/36=2,99/5=2) pseudo=read geom=check gue
 ss=(read,tcheck) scf=(maxcycle=1)
 ----------------------------------------------------------------------
 -----
 title
 -----
 Structure from the checkpoint file:  "Grambow2020_wb97xd3_008194_reverse_mol2.chk"
 Charge =  0 Multiplicity = 1

                         Standard orientation:
 ---------------------------------------------------------------------
 Center     Atomic      Atomic             Coordinates (Angstroms)
 Number     Number       Type             X           Y           Z
 ---------------------------------------------------------------------
      1          8           0       -0.191151   -0.266494    0.687374
      2          6           0        0.600155   -1.238005    0.023255
      3          6           0        1.901036   -0.897655   -0.526295
      4          6           0        2.435204    0.320931   -0.242771
      5          6           0        2.955494    1.399186   -0.012596
      6          6           0       -3.142237    0.314828   -0.012319
      7          7           0       -4.222805    0.525282   -0.325659
      8          1           0        0.385460    0.409643    1.055433
      9          1           0        0.841194   -2.079248    0.700977
     10          1           0       -0.015101   -1.691495   -0.760449
     11          1           0       -2.121314    0.116728    0.277028
     12          1           0        3.500696    2.303636    0.131990
 ---------------------------------------------------------------------

 SCF Done:  E(RHF) =  -321.502027361     A.U. after    2 cycles

 The electronic state is 1-A.
 Alpha  occ. eigenvalues --  -20.61165 -15.64230 -11.33447 -11.31163 -11.31048
 Alpha  occ. eigenvalues --  -11.29220 -11.27866  -1.36694  -1.19183  -1.11267
 Alpha  occ. eigenvalues --   -1.03246  -0.90574  -0.78520  -0.76997  -0.73948
 Alpha  occ. eigenvalues --   -0.67488  -0.66070  -0.58236  -0.54942  -0.51530
 Alpha  occ. eigenvalues --   -0.49856  -0.47703  -0.47684  -0.46456  -0.36783
 Alpha virt. eigenvalues --    0.00329   0.02248   0.03506   0.04885   0.05350
 Alpha virt. eigenvalues --    0.07307   0.07858   0.09123   0.09739   0.09904
 Alpha virt. eigenvalues --    0.11573   0.11706   0.12179   0.13451   0.14049

 Mulliken charges:
               1
     1  O   -0.624372
     2  C    0.792536
     3  C   -0.748112
     4  C    0.025723
     5  C    0.726892
     6  C    0.508816
     7  N   -0.376396
     8  H    0.197610
     9  H    0.087204
    10  H   -0.059712
    11  H   -0.120100
    12  H   -0.410091
 Sum of Mulliken charges =   0.00000

 Dipole moment (field-independent basis, Debye):
    X=              5.2917    Y=              0.8676    Z=              1.7885  Tot=              5.6528

 Test job not archived.
 1\1\GINC-SE129\SP\RHF\Aug-CC-pVDZ\C5H5N1O1\OHZDE\09-Apr-2025\0\\#t hf
 aug-cc-pvdz iop(5/13=1,5/36=2,99/5=2) pseudo=read geom=check guess=(re
 ad,tcheck) scf=(maxcycle=1)\\title\\0,1\O,0,-0.23476416,-0.43015554,-0
 .60621988\C,0,-1.00562686,-0.41752655,0.58401699\C,0,-1.06646812,0.764
 8013,1.42576161\C,0,-0.5187293,1.92384644,0.97049073\C,0,-0.04544836,2
 .98561575,0.60311302\C,0,1.85719951,-2.60125706,-1.27436976\N,0,2.6486
 8267,-3.4049608,-1.46857345\H,0,-0.15670433,0.46884476,-0.93910694\H,0
 ,-2.07349533,-0.60721152,0.36317051\H,0,-0.69937345,-1.27632288,1.1898

 Normal termination of Gaussian 16 at Wed Apr  9 16:24:51 2025.
