 Gaussian 16, Revision C.01,

 ----------------------------------------------------------------------
 #t hf aug-cc-pvdz symm=none int=(grid=ultrafine) guess=(read,tcheck) s
 table=(opt,rrhf)
 ----------------------------------------------------------------------
 -----
 title
 -----
 Symbolic Z-matrix:
 Charge =  0 Multiplicity = 1

 SCF Done:  E(RHF) =  -394.264846413     A.U. after   17 cycles
 Normal termination of Gaussian 16 at Wed Apr  9 15:36:46 2025.
 Gaussian 16:  ES64L-G16RevC.01  3-Jul-2019

 ----------------------------------------------------------------------
 #t hf aug-cc-pvdz iop(5/13=1,5/36=2,99/5=2) pseudo=read geom=check gue
 ss=(read,tcheck) scf=(maxcycle=1)
 ----------------------------------------------------------------------
 -----
 title
 -----
 Structure from the checkpoint file:  "Grambow2020_wb97xd3_007196_reverse_mol1.chk"
 Charge =  0 Multiplicity = 1

                         Standard orientation:
 ---------------------------------------------------------------------
 Center     Atomic      Atomic             Coordinates (Angstroms)
 Number     Number       Type             X           Y           Z
 ---------------------------------------------------------------------
      1          7           0        1.423197   -1.528236    0.320201
      2          6           0        0.737762   -0.538664   -0.014969
      3          8           0       -0.404407   -0.623014   -0.805347
      4          6           0       -1.563752   -0.176687   -0.263245
      5          8           0       -1.712794    0.108879    0.880666
      6          6           0        1.204707    0.854885    0.299001
      7          8           0        0.571971    1.807041   -0.294266
      8          1           0        1.002478   -2.400330    0.001632
      9          1           0       -2.335442   -0.154498   -1.041056
     10          1           0        1.460110    2.072016    0.424871
 ---------------------------------------------------------------------

 SCF Done:  E(RHF) =  -394.389255310     A.U. after    2 cycles

 The electronic state is 1-A.
 Alpha  occ. eigenvalues --  -20.66324 -20.64488 -20.59995 -15.66783 -11.42847
 Alpha  occ. eigenvalues --  -11.38710 -11.36297  -1.47389  -1.42812  -1.37778
 Alpha  occ. eigenvalues --   -1.22785  -0.97449  -0.90528  -0.79997  -0.77773
 Alpha  occ. eigenvalues --   -0.75102  -0.74619  -0.67385  -0.65303  -0.62909
 Alpha  occ. eigenvalues --   -0.60380  -0.54263  -0.52108  -0.48317  -0.47564
 Alpha  occ. eigenvalues --   -0.39740
 Alpha virt. eigenvalues --    0.03142   0.04071   0.04319   0.04719   0.08294
 Alpha virt. eigenvalues --    0.09192   0.09946   0.10979   0.11577   0.12497
 Alpha virt. eigenvalues --    0.13189   0.13619   0.14583   0.16212   0.16993

 Mulliken charges:
               1
     1  N   -0.263156
     2  C    0.687084
     3  O   -0.641559
     4  C    0.789123
     5  O   -0.366039
     6  C    0.024896
     7  O   -0.531921
     8  H    0.045620
     9  H   -0.144139
    10  H    0.400092
 Sum of Mulliken charges =  -0.00000

 Dipole moment (field-independent basis, Debye):
    X=             -0.5822    Y=             -0.9874    Z=             -2.1179  Tot=              2.4082

 Test job not archived.
 1\1\GINC-SE043\SP\RHF\Aug-CC-pVDZ\C3H3N1O3\OHZDE\09-Apr-2025\0\\#t hf
 aug-cc-pvdz iop(5/13=1,5/36=2,99/5=2) pseudo=read geom=check guess=(re
 ad,tcheck) scf=(maxcycle=1)\\title\\0,1\N,0,-0.81501496,1.58548588,-0.
 98359296\C,0,-0.49958742,0.51006201,-0.43097869\O,0,0.58892528,-0.2659
 3485,-0.81741238\C,0,1.54987831,-0.4868547,0.11260211\O,0,1.62293799,0
 .07117552,1.15929169\C,0,-1.39028385,-0.10111228,0.61387447\O,0,-1.118
 20856,-1.31596672,0.94406727\H,0,-0.13900662,1.85133814,-1.69869758\H,
 0,2.25384393,-1.2331009,-0.27280332\H,0,-2.0276141,-0.77569711,1.45126

 Normal termination of Gaussian 16 at Wed Apr  9 15:36:51 2025.
