 Gaussian 16, Revision C.01,

 ----------------------------------------------------------------------
 #t hf aug-cc-pvdz symm=none int=(grid=ultrafine) guess=(read,tcheck) s
 table=(opt,rrhf)
 ----------------------------------------------------------------------
 -----
 title
 -----
 Symbolic Z-matrix:
 Charge =  0 Multiplicity = 1

 SCF Done:  E(RHF) =  -304.478709637     A.U. after   16 cycles
 Normal termination of Gaussian 16 at Wed Apr  9 03:20:30 2025.
 Gaussian 16:  ES64L-G16RevC.01  3-Jul-2019

 ----------------------------------------------------------------------
 #t hf aug-cc-pvdz iop(5/13=1,5/36=2,99/5=2) pseudo=read geom=check gue
 ss=(read,tcheck) scf=(maxcycle=1)
 ----------------------------------------------------------------------
 -----
 title
 -----
 Structure from the checkpoint file:  "Grambow2020_wb97xd3_006105_reverse_mol1.chk"
 Charge =  0 Multiplicity = 1

                         Standard orientation:
 ---------------------------------------------------------------------
 Center     Atomic      Atomic             Coordinates (Angstroms)
 Number     Number       Type             X           Y           Z
 ---------------------------------------------------------------------
      1          6           0        0.725691    1.131370    0.054131
      2          8           0        1.351157   -0.106651   -0.282243
      3          6           0        0.650943   -1.175263    0.088880
      4          6           0       -1.147263   -0.327302   -0.830582
      5          8           0       -0.939078   -0.359230    0.780235
      6          6           0       -0.747257    0.805191    0.005242
      7          1           0        1.022915    1.455878    1.056913
      8          1           0        1.044410    1.864250   -0.686474
      9          1           0        0.622914   -1.954485   -0.660832
     10          1           0        0.789085   -1.511465    1.116008
     11          1           0       -2.233419   -0.338504   -0.971669
     12          1           0       -1.435215    1.607402    0.256098
 ---------------------------------------------------------------------

 SCF Done:  E(RHF) =  -304.573166165     A.U. after    2 cycles

 The electronic state is 1-A.
 Alpha  occ. eigenvalues --  -20.62379 -20.59046 -11.40848 -11.31309 -11.28732
 Alpha  occ. eigenvalues --  -11.22915  -1.42348  -1.33642  -1.03978  -0.91892
 Alpha  occ. eigenvalues --   -0.88903  -0.79673  -0.73840  -0.72682  -0.67614
 Alpha  occ. eigenvalues --   -0.63533  -0.60684  -0.55822  -0.53339  -0.49640
 Alpha  occ. eigenvalues --   -0.47206  -0.43958  -0.31579
 Alpha virt. eigenvalues --    0.03377   0.04279   0.04843   0.05222   0.06534
 Alpha virt. eigenvalues --    0.06543   0.08919   0.09843   0.10779   0.12559
 Alpha virt. eigenvalues --    0.13107   0.13731   0.14694   0.15392   0.15941

 Mulliken charges:
               1
     1  C    0.864824
     2  O   -0.589721
     3  C    1.125376
     4  C   -0.038864
     5  O   -0.805991
     6  C    0.517045
     7  H   -0.086236
     8  H   -0.130991
     9  H   -0.133459
    10  H   -0.189532
    11  H   -0.247118
    12  H   -0.285334
 Sum of Mulliken charges =  -0.00000

 Dipole moment (field-independent basis, Debye):
    X=              1.5608    Y=              0.9886    Z=              0.8439  Tot=              2.0311

 Test job not archived.
 1\1\GINC-SE220\SP\RHF\Aug-CC-pVDZ\C4H6O2\OHZDE\09-Apr-2025\0\\#t hf au
 g-cc-pvdz iop(5/13=1,5/36=2,99/5=2) pseudo=read geom=check guess=(read
 ,tcheck) scf=(maxcycle=1)\\title\\0,1\C,0,-1.24518137,-0.31041607,-0.0
 6043385\O,0,-0.78918461,0.77611723,-0.86576949\C,0,0.34844761,1.316251
 08,-0.43680329\C,0,1.25087931,-0.67466228,-0.29581727\O,0,0.78764217,0
 .15426033,1.0222836\C,0,0.03179008,-0.90740591,0.47929433\H,0,-1.88388
 724,0.05098994,0.75237667\H,0,-1.80894076,-0.97833298,-0.71101183\H,0,
 1.04787182,1.53731441,-1.23177293\H,0,0.26115502,2.07409402,0.34111723

 Normal termination of Gaussian 16 at Wed Apr  9 03:20:35 2025.
