 Gaussian 16, Revision C.01,

 ----------------------------------------------------------------------
 #t hf aug-cc-pvdz symm=none int=(grid=ultrafine) guess=(read,tcheck) s
 table=(opt,rrhf)
 ----------------------------------------------------------------------
 -----
 title
 -----
 Symbolic Z-matrix:
 Charge =  0 Multiplicity = 1

 SCF Done:  E(RHF) =  -360.810114163     A.U. after   15 cycles
 Normal termination of Gaussian 16 at Wed Apr  9 14:46:56 2025.
 Gaussian 16:  ES64L-G16RevC.01  3-Jul-2019

 ----------------------------------------------------------------------
 #t hf aug-cc-pvdz iop(5/13=1,5/36=2,99/5=2) pseudo=read geom=check gue
 ss=(read,tcheck) scf=(maxcycle=1)
 ----------------------------------------------------------------------
 -----
 title
 -----
 Structure from the checkpoint file:  "Grambow2020_wb97xd3_006610_forward_mol1.chk"
 Charge =  0 Multiplicity = 1

                         Standard orientation:
 ---------------------------------------------------------------------
 Center     Atomic      Atomic             Coordinates (Angstroms)
 Number     Number       Type             X           Y           Z
 ---------------------------------------------------------------------
      1          6           0        2.060159   -0.236966   -0.904332
      2          6           0        0.966546    0.145351    0.071820
      3          8           0        1.236439   -0.163667    1.419530
      4          6           0        0.208755    1.297137   -0.100382
      5          7           0       -1.774745    0.811148   -0.238782
      6          6           0       -1.908501   -0.439834    0.077547
      7          8           0       -1.093776   -1.309096   -0.386966
      8          1           0        1.781560    0.032561   -1.923964
      9          1           0        2.242482   -1.314249   -0.886923
     10          1           0        2.998532    0.264370   -0.654159
     11          1           0       -0.050650   -0.684234   -0.321699
     12          1           0        1.205767   -1.116399    1.529034
     13          1           0       -0.026790    1.911308    0.758125
     14          1           0        0.217143    1.793130   -1.059193
     15          1           0       -2.383216    1.411022    0.306653
     16          1           0       -2.664667   -0.787566    0.795177
 ---------------------------------------------------------------------

 SCF Done:  E(RHF) =  -360.923749665     A.U. after    2 cycles

 The electronic state is 1-A.
 Alpha  occ. eigenvalues --  -20.57431 -20.56208 -15.61834 -11.35117 -11.30971
 Alpha  occ. eigenvalues --  -11.26374 -11.23598  -1.35731  -1.32642  -1.15430
 Alpha  occ. eigenvalues --   -1.05755  -0.94866  -0.81891  -0.79933  -0.73836
 Alpha  occ. eigenvalues --   -0.70591  -0.65882  -0.64001  -0.62985  -0.59391
 Alpha  occ. eigenvalues --   -0.57590  -0.55446  -0.54140  -0.51324  -0.48484
 Alpha  occ. eigenvalues --   -0.47788  -0.40998  -0.32475
 Alpha virt. eigenvalues --    0.03164   0.03943   0.04355   0.05196   0.06250
 Alpha virt. eigenvalues --    0.06295   0.07096   0.08116   0.09316   0.10619
 Alpha virt. eigenvalues --    0.11983   0.12201   0.13077   0.13840   0.14647

 Mulliken charges:
               1
     1  C    0.611771
     2  C   -0.500520
     3  O   -0.592855
     4  C    0.898449
     5  N   -0.448311
     6  C    0.704211
     7  O   -0.617474
     8  H   -0.037173
     9  H   -0.088379
    10  H    0.010265
    11  H    0.591703
    12  H    0.115391
    13  H   -0.169078
    14  H   -0.239879
    15  H   -0.018168
    16  H   -0.219952
 Sum of Mulliken charges =   0.00000

 Dipole moment (field-independent basis, Debye):
    X=             -0.4456    Y=              1.7495    Z=              0.5338  Tot=              1.8826

 Test job not archived.
 1\1\GINC-SE129\SP\RHF\Aug-CC-pVDZ\C4H9N1O2\OHZDE\09-Apr-2025\0\\#t hf
 aug-cc-pvdz iop(5/13=1,5/36=2,99/5=2) pseudo=read geom=check guess=(re
 ad,tcheck) scf=(maxcycle=1)\\title\\0,1\C,0,-1.82725834,-0.67528398,-0
 .64445894\C,0,-0.77005984,0.18909592,0.01144366\O,0,-1.0114372,1.57563
 007,-0.05112512\C,0,-0.11451811,-0.21619909,1.16752012\N,0,1.90341101,
 -0.29229762,0.83318064\C,0,2.14474173,0.25807697,-0.31649674\O,0,1.407
 70845,-0.01493238,-1.32516627\H,0,-1.57359189,-1.73250889,-0.55591516\
 H,0,-1.9159984,-0.44627567,-1.70924213\H,0,-2.8052051,-0.51071147,-0.1

 Normal termination of Gaussian 16 at Wed Apr  9 14:47:02 2025.
