 Gaussian 16, Revision C.01,

 ----------------------------------------------------------------------
 #t hf aug-cc-pvdz symm=none int=(grid=ultrafine) guess=(read,tcheck) s
 table=(opt,rrhf)
 ----------------------------------------------------------------------
 -----
 title
 -----
 Symbolic Z-matrix:
 Charge =  0 Multiplicity = 1

 SCF Done:  E(RHF) =  -322.484652976     A.U. after   16 cycles
 Normal termination of Gaussian 16 at Wed Apr  9 14:28:50 2025.
 Gaussian 16:  ES64L-G16RevC.01  3-Jul-2019

 ----------------------------------------------------------------------
 #t hf aug-cc-pvdz iop(5/13=1,5/36=2,99/5=2) pseudo=read geom=check gue
 ss=(read,tcheck) scf=(maxcycle=1)
 ----------------------------------------------------------------------
 -----
 title
 -----
 Structure from the checkpoint file:  "Grambow2020_wb97xd3_006557_reverse_mol1.chk"
 Charge =  0 Multiplicity = 1

                         Standard orientation:
 ---------------------------------------------------------------------
 Center     Atomic      Atomic             Coordinates (Angstroms)
 Number     Number       Type             X           Y           Z
 ---------------------------------------------------------------------
      1          8           0       -2.187720    0.348997    0.184767
      2          6           0       -1.120878   -0.514988   -0.100018
      3          6           0       -0.083535    0.093750   -1.082155
      4          6           0        0.522271    0.947250    0.094297
      5          6           0        1.906776    0.359087    0.021012
      6          7           0        1.148560   -0.941184   -0.024766
      7          6           0        0.036765   -0.320391    0.830387
      8          1           0       -2.739062    0.419876   -0.597789
      9          1           0       -1.451752   -1.539952   -0.299059
     10          1           0        0.755196   -0.867714   -1.195681
     11          1           0        0.222149    1.977574    0.270297
     12          1           0        2.494521    0.549742   -0.879945
     13          1           0        2.533163    0.416606    0.913663
     14          1           0        0.079233   -0.548069    1.902606
 ---------------------------------------------------------------------

 SCF Done:  E(RHF) =  -322.575340506     A.U. after    2 cycles

 The electronic state is 1-A.
 Alpha  occ. eigenvalues --  -20.58925 -15.67640 -11.30121 -11.29461 -11.28159
 Alpha  occ. eigenvalues --  -11.27620 -11.26316  -1.35207  -1.29290  -1.03881
 Alpha  occ. eigenvalues --   -0.95482  -0.89381  -0.85144  -0.72936  -0.70383
 Alpha  occ. eigenvalues --   -0.68043  -0.65138  -0.62409  -0.58961  -0.54132
 Alpha  occ. eigenvalues --   -0.53539  -0.52977  -0.47176  -0.43681  -0.41090
 Alpha  occ. eigenvalues --   -0.32392
 Alpha virt. eigenvalues --    0.03298   0.03797   0.04364   0.04905   0.06187
 Alpha virt. eigenvalues --    0.06929   0.07625   0.08960   0.10691   0.11507
 Alpha virt. eigenvalues --    0.12566   0.13045   0.13134   0.14073   0.14415

 Mulliken charges:
               1
     1  O   -0.624358
     2  C    1.091790
     3  C   -0.704463
     4  C    0.270358
     5  C    1.079959
     6  N   -1.037060
     7  C    0.530719
     8  H    0.163028
     9  H   -0.153101
    10  H    0.415022
    11  H   -0.333131
    12  H   -0.146498
    13  H   -0.233972
    14  H   -0.318295
 Sum of Mulliken charges =  -0.00000

 Dipole moment (field-independent basis, Debye):
    X=              0.2845    Y=              0.4237    Z=              0.5267  Tot=              0.7334

 Test job not archived.
 1\1\GINC-SE112\SP\RHF\Aug-CC-pVDZ\C5H7N1O1\OHZDE\09-Apr-2025\0\\#t hf
 aug-cc-pvdz iop(5/13=1,5/36=2,99/5=2) pseudo=read geom=check guess=(re
 ad,tcheck) scf=(maxcycle=1)\\title\\0,1\O,0,2.3010772,0.14159239,0.514
 24698\C,0,1.27664213,0.31884682,-0.42641196\C,0,0.32944483,-0.90632572
 ,-0.54044282\C,0,-0.39534985,-0.46329768,0.78541508\C,0,-1.75938983,-0
 .29030656,0.17089974\N,0,-0.98433395,0.45963446,-0.88008535\C,0,0.0338
 8862,0.89195184,0.18249791\H,0,2.92304978,-0.50284619,0.16892851\H,0,1
 .63741939,0.75696652,-1.36318233\H,0,-0.48291961,-0.5169624,-1.4510644

 Normal termination of Gaussian 16 at Wed Apr  9 14:28:55 2025.
