 Gaussian 16, Revision C.01,

 ----------------------------------------------------------------------
 #t hf aug-cc-pvdz symm=none int=(grid=ultrafine) guess=(read,tcheck) s
 table=(opt,rrhf)
 ----------------------------------------------------------------------
 -----
 title
 -----
 Symbolic Z-matrix:
 Charge =  0 Multiplicity = 1

 SCF Done:  E(RHF) =  -344.762526574     A.U. after   15 cycles

 1\1\GINC-SE074\Stability\RHF\Aug-CC-pVDZ\C5H10O2\OHZDE\09-Apr-2025\0\\
 #t hf aug-cc-pvdz symm=none int=(grid=ultrafine) guess=(read,tcheck) s
 table=(opt,rrhf)\\title\\0,1\C,0,1.61687407,0.60873922,-0.78997379\C,0
 ,1.15911778,-0.62438714,-0.04630172\C,0,0.61243231,-0.36566409,1.36019
 48\O,0,-0.64598812,-1.04784551,1.37024538\C,0,-1.01808018,-1.25462382,
 0.1050048\C,0,-2.09250595,0.61365473,-0.41296441\O,0,0.02887277,-1.222
 99695,-0.71783735\H,0,1.91828514,0.35049577,-1.80506601\H,0,2.47171048
 ,1.06137412,-0.28276673\H,0,0.81095318,1.34180014,-0.84321334\H,0,1.94

 Normal termination of Gaussian 16 at Wed Apr  9 03:33:38 2025.
 Gaussian 16:  ES64L-G16RevC.01  3-Jul-2019

 ----------------------------------------------------------------------
 #t hf aug-cc-pvdz iop(5/13=1,5/36=2,99/5=2) pseudo=read geom=check gue
 ss=(read,tcheck) scf=(maxcycle=1)
 ----------------------------------------------------------------------
 -----
 title
 -----
 Structure from the checkpoint file:  "Grambow2020_wb97xd3_007102_forward_mol1.chk"
 Charge =  0 Multiplicity = 1

                         Standard orientation:
 ---------------------------------------------------------------------
 Center     Atomic      Atomic             Coordinates (Angstroms)
 Number     Number       Type             X           Y           Z
 ---------------------------------------------------------------------
      1          6           0       -1.780543    1.144840   -0.283463
      2          6           0       -1.209879   -0.140391    0.269449
      3          6           0       -0.563527   -1.060665   -0.769473
      4          8           0        0.720692   -1.359173   -0.212005
      5          6           0        0.998298   -0.437023    0.712450
      6          6           0        1.943261    1.185165   -0.465979
      7          8           0       -0.112009    0.143713    1.164275
      8          1           0       -2.151101    1.775023    0.524935
      9          1           0       -2.610945    0.930453   -0.959743
     10          1           0       -1.014950    1.696571   -0.830439
     11          1           0       -1.957575   -0.672009    0.861786
     12          1           0       -0.427031   -0.559233   -1.731538
     13          1           0       -1.096183   -1.997925   -0.916869
     14          1           0        1.987345    0.132275    0.688493
     15          1           0        1.388258    1.019529   -1.387415
     16          1           0        1.671267    2.125054    0.011822
     17          1           0        3.015783    1.122385   -0.657091
 ---------------------------------------------------------------------

 SCF Done:  E(RHF) =  -344.875202681     A.U. after    2 cycles

 The electronic state is 1-A.
 Alpha  occ. eigenvalues --  -20.61888 -20.61565 -11.36752 -11.31919 -11.31334
 Alpha  occ. eigenvalues --  -11.24573 -11.20012  -1.45383  -1.33970  -1.08371
 Alpha  occ. eigenvalues --   -0.97062  -0.91642  -0.86181  -0.83948  -0.74118
 Alpha  occ. eigenvalues --   -0.73152  -0.66375  -0.63389  -0.62359  -0.58811
 Alpha  occ. eigenvalues --   -0.57021  -0.56277  -0.54988  -0.53219  -0.51659
 Alpha  occ. eigenvalues --   -0.51116  -0.47228  -0.27688
 Alpha virt. eigenvalues --    0.02920   0.04363   0.04478   0.05003   0.06238
 Alpha virt. eigenvalues --    0.06408   0.06953   0.07355   0.08147   0.10431
 Alpha virt. eigenvalues --    0.10754   0.11608   0.12904   0.13446   0.14189

 Mulliken charges:
               1
     1  C    0.410313
     2  C    0.006769
     3  C    1.007340
     4  O   -0.601708
     5  C    0.743021
     6  C    0.232135
     7  O   -0.589426
     8  H   -0.061785
     9  H    0.012241
    10  H   -0.010277
    11  H   -0.241096
    12  H   -0.233253
    13  H   -0.154869
    14  H    0.216288
    15  H   -0.240060
    16  H   -0.172601
    17  H   -0.323031
 Sum of Mulliken charges =   0.00000

 Dipole moment (field-independent basis, Debye):
    X=             -3.2285    Y=             -0.3309    Z=             -1.2676  Tot=              3.4842

 Test job not archived.
 1\1\GINC-SE074\SP\RHF\Aug-CC-pVDZ\C5H10O2\OHZDE\09-Apr-2025\0\\#t hf a
 ug-cc-pvdz iop(5/13=1,5/36=2,99/5=2) pseudo=read geom=check guess=(rea
 d,tcheck) scf=(maxcycle=1)\\title\\0,1\C,0,1.61687407,0.60873922,-0.78
 997379\C,0,1.15911778,-0.62438714,-0.04630172\C,0,0.61243231,-0.365664
 09,1.3601948\O,0,-0.64598812,-1.04784551,1.37024538\C,0,-1.01808018,-1
 .25462382,0.1050048\C,0,-2.09250595,0.61365473,-0.41296441\O,0,0.02887
 277,-1.22299695,-0.71783735\H,0,1.91828514,0.35049577,-1.80506601\H,0,
 2.47171048,1.06137412,-0.28276673\H,0,0.81095318,1.34180014,-0.8432133

 Normal termination of Gaussian 16 at Wed Apr  9 03:33:44 2025.
