 Gaussian 16, Revision C.01,

 ----------------------------------------------------------------------
 #t hf aug-cc-pvdz symm=none int=(grid=ultrafine) guess=(read,tcheck) s
 table=(opt,rrhf)
 ----------------------------------------------------------------------
 -----
 title
 -----
 Symbolic Z-matrix:
 Charge =  0 Multiplicity = 1

 SCF Done:  E(RHF) =  -338.631966245     A.U. after   15 cycles
 Normal termination of Gaussian 16 at Wed Apr  9 15:17:54 2025.
 Gaussian 16:  ES64L-G16RevC.01  3-Jul-2019

 ----------------------------------------------------------------------
 #t hf aug-cc-pvdz iop(5/13=1,5/36=2,99/5=2) pseudo=read geom=check gue
 ss=(read,tcheck) scf=(maxcycle=1)
 ----------------------------------------------------------------------
 -----
 title
 -----
 Structure from the checkpoint file:  "Grambow2020_wb97xd3_006835_forward_mol1.chk"
 Charge =  0 Multiplicity = 1

                         Standard orientation:
 ---------------------------------------------------------------------
 Center     Atomic      Atomic             Coordinates (Angstroms)
 Number     Number       Type             X           Y           Z
 ---------------------------------------------------------------------
      1          7           0       -2.405575   -0.513568    0.005264
      2          6           0       -1.091526   -0.074545   -0.036198
      3          6           0       -0.640442    1.200429   -0.036811
      4          7           0        0.780840    1.192194    0.116142
      5          6           0        1.176748   -0.079598    0.138505
      6          8           0        2.310357   -0.613251   -0.162377
      7          6           0        0.060401   -0.972164    0.123641
      8          1           0       -3.093593    0.186966   -0.218048
      9          1           0       -2.566319   -1.368444   -0.501287
     10          1           0       -1.177695    2.134289   -0.069849
     11          1           0        1.375283    1.928288   -0.225030
     12          1           0        1.303421   -1.404533   -0.533698
     13          1           0        0.018112   -1.765677    0.862265
 ---------------------------------------------------------------------

 SCF Done:  E(RHF) =  -338.734329923     A.U. after    2 cycles

 The electronic state is 1-A.
 Alpha  occ. eigenvalues --  -20.56191 -15.67714 -15.63713 -11.37516 -11.29280
 Alpha  occ. eigenvalues --  -11.26177 -11.22277  -1.36780  -1.25891  -1.18597
 Alpha  occ. eigenvalues --   -1.03912  -0.96053  -0.81450  -0.80128  -0.73021
 Alpha  occ. eigenvalues --   -0.68007  -0.67430  -0.64261  -0.61261  -0.58952
 Alpha  occ. eigenvalues --   -0.55389  -0.52397  -0.48583  -0.46348  -0.36649
 Alpha  occ. eigenvalues --   -0.29209
 Alpha virt. eigenvalues --    0.02783   0.03556   0.04229   0.05630   0.06794
 Alpha virt. eigenvalues --    0.07190   0.09971   0.10913   0.11423   0.12355
 Alpha virt. eigenvalues --    0.12494   0.13758   0.14179   0.14694   0.15768

 Mulliken charges:
               1
     1  N   -0.362425
     2  C    0.331253
     3  C    1.040923
     4  N   -0.460240
     5  C    0.433346
     6  O   -0.729299
     7  C   -0.106677
     8  H    0.004770
     9  H   -0.021744
    10  H   -0.362756
    11  H   -0.058151
    12  H    0.513082
    13  H   -0.222083
 Sum of Mulliken charges =  -0.00000

 Dipole moment (field-independent basis, Debye):
    X=             -3.1176    Y=              1.7447    Z=             -0.8736  Tot=              3.6778

 Test job not archived.
 1\1\GINC-SE100\SP\RHF\Aug-CC-pVDZ\C4H6N2O1\OHZDE\09-Apr-2025\0\\#t hf
 aug-cc-pvdz iop(5/13=1,5/36=2,99/5=2) pseudo=read geom=check guess=(re
 ad,tcheck) scf=(maxcycle=1)\\title\\0,1\N,0,-2.02202857,0.70999611,-0.
 28960031\C,0,-0.76825874,0.14198742,-0.1264665\C,0,-0.40100517,-1.1404
 0326,-0.34925537\N,0,1.02124336,-1.24241343,-0.24773623\C,0,1.48778308
 ,-0.04403065,0.09999572\O,0,2.57193259,0.29216603,0.7098946\C,0,0.4434
 3281,0.93137905,0.13212441\H,0,-2.77986233,0.05073686,-0.36067738\H,0,
 -2.22661171,1.44321786,0.36901738\H,0,-0.98830646,-1.99908351,-0.63134

 Normal termination of Gaussian 16 at Wed Apr  9 15:17:58 2025.
