 Gaussian 16, Revision C.01,

 ----------------------------------------------------------------------
 #t hf aug-cc-pvdz symm=none int=(grid=ultrafine) guess=(read,tcheck) s
 table=(opt,rrhf)
 ----------------------------------------------------------------------
 -----
 title
 -----
 Symbolic Z-matrix:
 Charge =  0 Multiplicity = 1

 SCF Done:  E(RHF) =  -318.704287704     A.U. after   17 cycles
 Normal termination of Gaussian 16 at Wed Apr  9 03:46:30 2025.
 Gaussian 16:  ES64L-G16RevC.01  3-Jul-2019

 ----------------------------------------------------------------------
 #t hf aug-cc-pvdz iop(5/13=1,5/36=2,99/5=2) pseudo=read geom=check gue
 ss=(read,tcheck) scf=(maxcycle=1)
 ----------------------------------------------------------------------
 -----
 title
 -----
 Structure from the checkpoint file:  "Grambow2020_wb97xd3_007955_forward_mol1.chk"
 Charge =  0 Multiplicity = 1

                         Standard orientation:
 ---------------------------------------------------------------------
 Center     Atomic      Atomic             Coordinates (Angstroms)
 Number     Number       Type             X           Y           Z
 ---------------------------------------------------------------------
      1          6           0        2.597741    0.036329   -0.141666
      2          6           0        1.326626   -0.007245    0.647490
      3          6           0       -0.085169    0.842290   -0.476694
      4          6           0       -1.387196    1.045792    0.020522
      5          7           0       -1.923029   -0.165603    0.194304
      6          7           0       -1.097501   -1.154403   -0.060569
      7          7           0        0.013317   -0.551616   -0.490394
      8          1           0        3.436762   -0.084146    0.551298
      9          1           0        2.631592   -0.773961   -0.867317
     10          1           0        2.698465    0.984279   -0.664161
     11          1           0        1.207352   -0.921026    1.226032
     12          1           0        1.189948    0.848284    1.302966
     13          1           0       -1.951859    1.943672    0.210665
     14          1           0       -2.873775   -0.398745    0.439212
 ---------------------------------------------------------------------

 SCF Done:  E(RHF) =  -318.795841450     A.U. after    2 cycles

 The electronic state is 1-A.
 Alpha  occ. eigenvalues --  -15.75643 -15.68822 -15.67065 -11.32057 -11.27904
 Alpha  occ. eigenvalues --  -11.23172 -11.22436  -1.40368  -1.17902  -1.07342
 Alpha  occ. eigenvalues --   -1.02428  -0.87825  -0.83095  -0.81430  -0.73928
 Alpha  occ. eigenvalues --   -0.65482  -0.63710  -0.62383  -0.57317  -0.54837
 Alpha  occ. eigenvalues --   -0.51859  -0.51136  -0.43647  -0.43043  -0.34024
 Alpha  occ. eigenvalues --   -0.32769
 Alpha virt. eigenvalues --    0.02440   0.03545   0.04357   0.05172   0.06443
 Alpha virt. eigenvalues --    0.06974   0.08356   0.08775   0.09973   0.11653
 Alpha virt. eigenvalues --    0.12372   0.13473   0.13679   0.14219   0.15197

 Mulliken charges:
               1
     1  C    0.394428
     2  C    0.514920
     3  C   -0.154085
     4  C    0.681143
     5  N   -0.025409
     6  N   -0.421016
     7  N   -0.406899
     8  H    0.017380
     9  H   -0.039214
    10  H   -0.048100
    11  H   -0.211853
    12  H   -0.051341
    13  H   -0.230626
    14  H   -0.019328
 Sum of Mulliken charges =   0.00000

 Dipole moment (field-independent basis, Debye):
    X=             -1.8667    Y=              0.5010    Z=              3.1181  Tot=              3.6685

 Test job not archived.
 1\1\GINC-SE335\SP\RHF\Aug-CC-pVDZ\C4H7N3\OHZDE\09-Apr-2025\0\\#t hf au
 g-cc-pvdz iop(5/13=1,5/36=2,99/5=2) pseudo=read geom=check guess=(read
 ,tcheck) scf=(maxcycle=1)\\title\\0,1\C,0,-2.15822196,0.69018833,0.125
 41927\C,0,-1.05698529,-0.3197456,0.03761153\C,0,0.48739872,0.57946983,
 -0.848367\C,0,1.65894558,-0.13368094,-1.16899866\N,0,2.22363084,-0.481
 24736,-0.00920422\N,0,1.52049738,-0.14429258,1.04732138\N,0,0.47602579
 ,0.52020172,0.54777804\H,0,-3.10348137,0.15642593,0.26772817\H,0,-2.00
 754834,1.35542152,0.97338632\H,0,-2.21537635,1.28288872,-0.78408282\H,

 Normal termination of Gaussian 16 at Wed Apr  9 03:46:35 2025.
