 Gaussian 16, Revision C.01,

 ----------------------------------------------------------------------
 #t hf aug-cc-pvdz symm=none int=(grid=ultrafine) guess=(read,tcheck) s
 table=(opt,rrhf)
 ----------------------------------------------------------------------
 -----
 title
 -----
 Symbolic Z-matrix:
 Charge =  0 Multiplicity = 1

 SCF Done:  E(RHF) =  -306.620119216     A.U. after   15 cycles
 Normal termination of Gaussian 16 at Wed Apr  9 03:59:21 2025.
 Gaussian 16:  ES64L-G16RevC.01  3-Jul-2019

 ----------------------------------------------------------------------
 #t hf aug-cc-pvdz iop(5/13=1,5/36=2,99/5=2) pseudo=read geom=check gue
 ss=(read,tcheck) scf=(maxcycle=1)
 ----------------------------------------------------------------------
 -----
 title
 -----
 Structure from the checkpoint file:  "Grambow2020_wb97xd3_008784_reverse_mol2.chk"
 Charge =  0 Multiplicity = 1

                         Standard orientation:
 ---------------------------------------------------------------------
 Center     Atomic      Atomic             Coordinates (Angstroms)
 Number     Number       Type             X           Y           Z
 ---------------------------------------------------------------------
      1          8           0        0.681609   -0.431366   -1.106087
      2          6           0        0.128332   -1.093576   -0.003439
      3          6           0       -1.328631   -0.870090    0.066689
      4          6           0       -1.325272    0.723490   -0.028063
      5          6           0        0.050642    1.420072    0.194027
      6          6           0        1.229921    0.426093   -0.074573
      7          6           0        1.004505   -0.679862    0.932395
      8          1           0       -1.901671   -1.292477   -0.758456
      9          1           0       -1.743359   -1.216165    1.012679
     10          1           0       -1.681173    0.984757   -1.022830
     11          1           0       -2.051155    1.111103    0.687655
     12          1           0        0.133471    2.266012   -0.492080
     13          1           0        0.136325    1.821425    1.206250
     14          1           0        2.191966    0.886014   -0.314180
     15          1           0        0.905749   -0.666500    2.007443
 ---------------------------------------------------------------------

 SCF Done:  E(RHF) =  -306.712925199     A.U. after    2 cycles

 The electronic state is 1-A.
 Alpha  occ. eigenvalues --  -20.57841 -11.31643 -11.30769 -11.25898 -11.24872
 Alpha  occ. eigenvalues --  -11.24632 -11.22583  -1.38952  -1.08424  -1.01365
 Alpha  occ. eigenvalues --   -1.00389  -0.84638  -0.81800  -0.72313  -0.68313
 Alpha  occ. eigenvalues --   -0.66108  -0.64193  -0.63212  -0.54831  -0.53384
 Alpha  occ. eigenvalues --   -0.52504  -0.50565  -0.48863  -0.47177  -0.45367
 Alpha  occ. eigenvalues --   -0.32638
 Alpha virt. eigenvalues --    0.03319   0.04251   0.04451   0.04983   0.06353
 Alpha virt. eigenvalues --    0.06504   0.06554   0.08460   0.09074   0.10399
 Alpha virt. eigenvalues --    0.11501   0.13234   0.13496   0.14161   0.14498

 Mulliken charges:
               1
     1  O   -0.818084
     2  C   -0.044727
     3  C    0.440085
     4  C    0.213253
     5  C    0.229282
     6  C    0.654507
     7  C    0.452172
     8  H   -0.063812
     9  H   -0.078605
    10  H   -0.090037
    11  H   -0.061421
    12  H   -0.086307
    13  H   -0.111489
    14  H   -0.269553
    15  H   -0.365262
 Sum of Mulliken charges =  -0.00000

 Dipole moment (field-independent basis, Debye):
    X=             -1.6420    Y=              1.5787    Z=              1.7944  Tot=              2.8997

 Test job not archived.
 1\1\GINC-SE099\SP\RHF\Aug-CC-pVDZ\C6H8O1\OHZDE\09-Apr-2025\0\\#t hf au
 g-cc-pvdz iop(5/13=1,5/36=2,99/5=2) pseudo=read geom=check guess=(read
 ,tcheck) scf=(maxcycle=1)\\title\\0,1\O,0,0.79236074,-0.69016338,-1.30
 837076\C,0,0.50254951,-1.29744014,-0.08048872\C,0,-0.94432615,-1.24217
 411,0.20429122\C,0,-1.16695553,0.32257188,-0.02040916\C,0,0.12176304,1
 .19624248,-0.08035958\C,0,1.36937694,0.32682736,-0.45239938\C,0,1.4455
 4438,-0.68964817,0.66514661\H,0,-1.57264586,-1.81133963,-0.48048239\H,
 0,-1.16374053,-1.53674742,1.22983964\H,0,-1.6986488,0.4371058,-0.96310

 Normal termination of Gaussian 16 at Wed Apr  9 03:59:27 2025.
