 Gaussian 16, Revision C.01,

 ----------------------------------------------------------------------
 #t hf aug-cc-pvdz symm=none int=(grid=ultrafine) guess=(read,tcheck) s
 table=(opt,rrhf)
 ----------------------------------------------------------------------
 -----
 title
 -----
 Symbolic Z-matrix:
 Charge =  0 Multiplicity = 1

 SCF Done:  E(RHF) =  -272.054268943     A.U. after   13 cycles
 Normal termination of Gaussian 16 at Wed Apr  9 15:53:20 2025.
 Gaussian 16:  ES64L-G16RevC.01  3-Jul-2019

 ----------------------------------------------------------------------
 #t hf aug-cc-pvdz iop(5/13=1,5/36=2,99/5=2) pseudo=read geom=check gue
 ss=(read,tcheck) scf=(maxcycle=1)
 ----------------------------------------------------------------------
 -----
 title
 -----
 Structure from the checkpoint file:  "Grambow2020_wb97xd3_007442_reverse_mol2.chk"
 Charge =  0 Multiplicity = 1

                         Standard orientation:
 ---------------------------------------------------------------------
 Center     Atomic      Atomic             Coordinates (Angstroms)
 Number     Number       Type             X           Y           Z
 ---------------------------------------------------------------------
      1          6           0       -3.091102    0.859991    0.041658
      2          6           0       -2.078305   -0.235441    0.151113
      3          6           0       -0.854329   -0.193792   -0.356395
      4          6           0        2.498512    1.402267    0.130832
      5          6           0        2.222265    0.176289   -0.285938
      6          6           0        1.443807   -0.845186    0.485072
      7          6           0        0.159168   -1.289863   -0.232144
      8          1           0       -3.994874    0.512599   -0.466054
      9          1           0       -2.694050    1.711162   -0.513305
     10          1           0       -3.398596    1.211524    1.030181
     11          1           0       -2.388711   -1.128716    0.691396
     12          1           0       -0.280698   -2.133191    0.306308
     13          1           0       -0.536509    0.699457   -0.891506
     14          1           0        2.165674    1.757854    1.100656
     15          1           0        3.065840    2.095539   -0.478474
     16          1           0        2.570515   -0.136390   -1.269255
     17          1           0        2.074642   -1.726486    0.641904
     18          1           0        1.191182   -0.449435    1.472463
     19          1           0        0.425493   -1.659498   -1.229498
 ---------------------------------------------------------------------

 SCF Done:  E(RHF) =  -272.140974406     A.U. after    2 cycles

 The electronic state is 1-A.
 Alpha  occ. eigenvalues --  -11.24029 -11.23420 -11.23350 -11.23118 -11.22785
 Alpha  occ. eigenvalues --  -11.22678 -11.22622  -1.09243  -1.05369  -0.99417
 Alpha  occ. eigenvalues --   -0.92277  -0.84071  -0.76175  -0.74217  -0.64921
 Alpha  occ. eigenvalues --   -0.62563  -0.60908  -0.58687  -0.56834  -0.55870
 Alpha  occ. eigenvalues --   -0.52699  -0.51250  -0.50395  -0.47815  -0.47058
 Alpha  occ. eigenvalues --   -0.36611  -0.34449
 Alpha virt. eigenvalues --    0.03586   0.04115   0.04270   0.04797   0.05923
 Alpha virt. eigenvalues --    0.06283   0.06408   0.06900   0.07370   0.08264
 Alpha virt. eigenvalues --    0.08832   0.09847   0.11156   0.12144   0.12938

 Mulliken charges:
               1
     1  C    0.218777
     2  C   -0.022904
     3  C    0.780700
     4  C    0.459132
     5  C    0.709542
     6  C    0.049716
     7  C    0.169717
     8  H    0.046857
     9  H   -0.134082
    10  H    0.054194
    11  H   -0.439499
    12  H   -0.148911
    13  H   -0.465241
    14  H   -0.309110
    15  H   -0.318099
    16  H   -0.414131
    17  H   -0.000842
    18  H   -0.199875
    19  H   -0.035941
 Sum of Mulliken charges =  -0.00000

 Dipole moment (field-independent basis, Debye):
    X=             -0.1985    Y=             -0.2939    Z=              0.0407  Tot=              0.3570

 Test job not archived.
 1\1\GINC-SE173\SP\RHF\Aug-CC-pVDZ\C7H12\OHZDE\09-Apr-2025\0\\#t hf aug
 -cc-pvdz iop(5/13=1,5/36=2,99/5=2) pseudo=read geom=check guess=(read,
 tcheck) scf=(maxcycle=1)\\title\\0,1\C,0,2.99687152,0.11130286,-0.8589
 1041\C,0,1.67775092,-0.58695211,-0.95926192\C,0,0.714922,-0.52915127,-
 0.04984565\C,0,-1.89351033,1.76081688,1.35673249\C,0,-1.95771069,0.450
 66965,1.17666832\C,0,-1.80080066,-0.25114494,-0.13737132\C,0,-0.608825
 ,-1.22118669,-0.16283493\H,0,3.82440684,-0.60262017,-0.88635135\H,0,3.
 07128423,0.68413364,0.06653783\H,0,3.14318099,0.79789813,-1.69705497\H

 Normal termination of Gaussian 16 at Wed Apr  9 15:53:27 2025.
