 Gaussian 16, Revision C.01,

 ----------------------------------------------------------------------
 #t hf aug-cc-pvdz symm=none int=(grid=ultrafine) guess=(read,tcheck) s
 table=(opt,rrhf)
 ----------------------------------------------------------------------
 -----
 title
 -----
 Symbolic Z-matrix:
 Charge =  0 Multiplicity = 1

 SCF Done:  E(RHF) =  -279.752426145     A.U. after   14 cycles
 Normal termination of Gaussian 16 at Wed Apr  9 03:15:50 2025.
 Gaussian 16:  ES64L-G16RevC.01  3-Jul-2019

 ----------------------------------------------------------------------
 #t hf aug-cc-pvdz iop(5/13=1,5/36=2,99/5=2) pseudo=read geom=check gue
 ss=(read,tcheck) scf=(maxcycle=1)
 ----------------------------------------------------------------------
 -----
 title
 -----
 Structure from the checkpoint file:  "Grambow2020_b97d3_007059_forward_mol1.chk"
 Charge =  0 Multiplicity = 1

                         Standard orientation:
 ---------------------------------------------------------------------
 Center     Atomic      Atomic             Coordinates (Angstroms)
 Number     Number       Type             X           Y           Z
 ---------------------------------------------------------------------
      1          7           0        1.992109    0.035088    0.002507
      2          6           0        0.555037    0.278428   -0.005559
      3          6           0       -0.470296    1.210804   -0.001686
      4          6           0       -1.600536    0.343603    0.001756
      5          7           0       -1.262060   -0.972140    0.001473
      6          7           0        0.079628   -0.978389   -0.002791
      7          1           0        2.502496    0.331034    0.843072
      8          1           0        2.512890    0.331755   -0.831249
      9          1           0       -0.421839    2.293874    0.002631
     10          1           0       -2.646059    0.637570    0.005971
     11          1           0        1.479538   -1.183158    0.004183
 ---------------------------------------------------------------------

 SCF Done:  E(RHF) =  -279.832480188     A.U. after    2 cycles

 The electronic state is 1-A.
 Alpha  occ. eigenvalues --  -15.73409 -15.64397 -15.62507 -11.30018 -11.24638
 Alpha  occ. eigenvalues --  -11.23028  -1.31675  -1.22628  -1.02094  -1.00638
 Alpha  occ. eigenvalues --   -0.81509  -0.75205  -0.74716  -0.70643  -0.61882
 Alpha  occ. eigenvalues --   -0.57940  -0.56010  -0.54772  -0.46056  -0.40569
 Alpha  occ. eigenvalues --   -0.32915  -0.32143
 Alpha virt. eigenvalues --    0.01077   0.03678   0.03837   0.05466   0.06423
 Alpha virt. eigenvalues --    0.10382   0.11349   0.12615   0.12900   0.13841
 Alpha virt. eigenvalues --    0.14106   0.15033   0.15347   0.16597   0.17081

 Mulliken charges:
               1
     1  N   -0.600856
     2  C    0.109282
     3  C    0.882589
     4  C    0.407979
     5  N   -0.555484
     6  N   -0.534011
     7  H    0.133833
     8  H    0.132602
     9  H   -0.312196
    10  H   -0.235651
    11  H    0.571913
 Sum of Mulliken charges =  -0.00000

 Dipole moment (field-independent basis, Debye):
    X=              6.1351    Y=              2.8916    Z=              0.0275  Tot=              6.7825

 Test job not archived.
 1\1\GINC-SE342\SP\RHF\Aug-CC-pVDZ\C3H5N3\OHZDE\09-Apr-2025\0\\#t hf au
 g-cc-pvdz iop(5/13=1,5/36=2,99/5=2) pseudo=read geom=check guess=(read
 ,tcheck) scf=(maxcycle=1)\\title\\0,1\N,0,-1.73138973,0.28933133,0.025
 1475\C,0,-0.31321819,-0.04458031,-0.01668532\C,0,0.64908951,-1.0339905
 3,-0.1418971\C,0,1.83337046,-0.25181233,-0.01875201\N,0,1.58138634,1.0
 7077762,0.16292301\N,0,0.24305026,1.16580995,0.1597507\H,0,-2.26748897
 ,-0.08552766,0.81679573\H,0,-2.26290979,0.14544066,-0.84154436\H,0,0.5
 3010732,-2.10174253,-0.28735529\H,0,2.85743106,-0.61169028,-0.05536605

 Normal termination of Gaussian 16 at Wed Apr  9 03:15:53 2025.
