 Gaussian 16, Revision C.01,

 ----------------------------------------------------------------------
 #t hf aug-cc-pvdz symm=none int=(grid=ultrafine) guess=(read,tcheck) s
 table=(opt,rrhf)
 ----------------------------------------------------------------------
 -----
 title
 -----
 Symbolic Z-matrix:
 Charge =  0 Multiplicity = 1

 SCF Done:  E(RHF) =  -315.425875721     A.U. after   23 cycles
 Normal termination of Gaussian 16 at Wed Apr  9 03:08:42 2025.
 Gaussian 16:  ES64L-G16RevC.01  3-Jul-2019

 ----------------------------------------------------------------------
 #t hf aug-cc-pvdz iop(5/13=1,5/36=2,99/5=2) pseudo=read geom=check gue
 ss=(read,tcheck) scf=(maxcycle=1)
 ----------------------------------------------------------------------
 -----
 title
 -----
 Structure from the checkpoint file:  "Grambow2020_b97d3_006687_reverse_mol1.chk"
 Charge =  0 Multiplicity = 1

                         Standard orientation:
 ---------------------------------------------------------------------
 Center     Atomic      Atomic             Coordinates (Angstroms)
 Number     Number       Type             X           Y           Z
 ---------------------------------------------------------------------
      1          8           0       -1.494574    1.071562   -0.578069
      2          6           0       -0.715466   -0.583560    0.103068
      3          7           0       -1.755100   -0.556832    0.712398
      4          7           0        1.742992    0.713166    0.574656
      5          7           0        1.617172   -0.197513   -0.293811
      6          6           0        0.523481   -0.981129   -0.396513
      7          1           0       -1.257644    1.673506    0.165184
      8          1           0        2.525723    1.317994    0.257229
      9          1           0        0.604974   -1.887611   -0.989891
 ---------------------------------------------------------------------

 SCF Done:  E(RHF) =  -315.515476240     A.U. after    2 cycles

 The electronic state is 1-A.
 Alpha  occ. eigenvalues --  -20.63620 -15.78241 -15.72312 -15.69762 -11.40227
 Alpha  occ. eigenvalues --  -11.32233  -1.33314  -1.31518  -1.23221  -1.08357
 Alpha  occ. eigenvalues --   -0.90167  -0.75972  -0.68751  -0.67657  -0.66014
 Alpha  occ. eigenvalues --   -0.62248  -0.58614  -0.55708  -0.53032  -0.52364
 Alpha  occ. eigenvalues --   -0.41058  -0.32871
 Alpha virt. eigenvalues --   -0.05377   0.03537   0.03906   0.05324   0.08427
 Alpha virt. eigenvalues --    0.08830   0.09787   0.10417   0.12195   0.12717
 Alpha virt. eigenvalues --    0.13603   0.14094   0.15939   0.16773   0.18489

 Mulliken charges:
               1
     1  O   -0.511735
     2  C    0.220989
     3  N   -0.211087
     4  N   -0.254814
     5  N   -0.327780
     6  C    0.970898
     7  H    0.191128
     8  H    0.097729
     9  H   -0.175327
 Sum of Mulliken charges =  -0.00000

 Dipole moment (field-independent basis, Debye):
    X=              1.5159    Y=             -0.8381    Z=              0.6160  Tot=              1.8384

 Test job not archived.
 1\1\GINC-SE058\SP\RHF\Aug-CC-pVDZ\C2H3N3O1\OHZDE\09-Apr-2025\0\\#t hf
 aug-cc-pvdz iop(5/13=1,5/36=2,99/5=2) pseudo=read geom=check guess=(re
 ad,tcheck) scf=(maxcycle=1)\\title\\0,1\O,0,-1.80566727,-0.72671271,0.
 6076798\C,0,-0.76133262,0.08182965,-0.82968199\N,0,-1.49622751,-0.6349
 8394,-1.4613011\N,0,1.6394923,-0.47083751,0.54090583\N,0,1.23382032,0.
 71032566,0.34168646\C,0,0.21437254,1.0165077,-0.48761521\H,0,-1.331608
 68,-1.5874518,0.68043137\H,0,2.2205027,-0.44242301,1.40164017\H,0,0.10
 378821,2.05382396,-0.79124833\\Version=ES64L-G16RevC.01\State=1-A\HF=-

 Normal termination of Gaussian 16 at Wed Apr  9 03:08:45 2025.
