 Gaussian 16, Revision C.01,

 ----------------------------------------------------------------------
 #t hf aug-cc-pvdz symm=none int=(grid=ultrafine) guess=(read,tcheck) s
 table=(opt,rrhf)
 ----------------------------------------------------------------------
 -----
 title
 -----
 Symbolic Z-matrix:
 Charge =  0 Multiplicity = 1

 SCF Done:  E(RHF) =  -376.876128509     A.U. after   13 cycles
 Normal termination of Gaussian 16 at Wed Apr  9 03:58:44 2025.
 Gaussian 16:  ES64L-G16RevC.01  3-Jul-2019

 ----------------------------------------------------------------------
 #t hf aug-cc-pvdz iop(5/13=1,5/36=2,99/5=2) pseudo=read geom=check gue
 ss=(read,tcheck) scf=(maxcycle=1)
 ----------------------------------------------------------------------
 -----
 title
 -----
 Structure from the checkpoint file:  "Grambow2020_wb97xd3_008746_forward_mol1.chk"
 Charge =  0 Multiplicity = 1

                         Standard orientation:
 ---------------------------------------------------------------------
 Center     Atomic      Atomic             Coordinates (Angstroms)
 Number     Number       Type             X           Y           Z
 ---------------------------------------------------------------------
      1          7           0        2.506706   -0.067506   -0.302554
      2          6           0        1.238394    0.033155    0.011399
      3          8           0        0.860062   -1.157577    0.371623
      4          7           0        0.407026    1.079768   -0.009422
      5          6           0       -0.975171    1.046135    0.458661
      6          6           0       -1.926974    0.213371   -0.396510
      7          8           0       -1.914510   -1.155363   -0.094666
      8          1           0        3.117588    0.704873   -0.508672
      9          1           0        2.096509   -1.270652    0.098673
     10          1           0        0.772714    1.948186   -0.350613
     11          1           0       -1.315123    2.082717    0.470059
     12          1           0       -1.005394    0.677190    1.487105
     13          1           0       -1.703552    0.398205   -1.457562
     14          1           0       -2.946781    0.561018   -0.211369
     15          1           0       -0.993999   -1.439817   -0.000746
 ---------------------------------------------------------------------

 SCF Done:  E(RHF) =  -376.995038728     A.U. after    2 cycles

 The electronic state is 1-A.
 Alpha  occ. eigenvalues --  -20.57175 -20.55104 -15.67423 -15.61231 -11.40541
 Alpha  occ. eigenvalues --  -11.29278 -11.28779  -1.39819  -1.31193  -1.23267
 Alpha  occ. eigenvalues --   -1.14295  -1.01004  -0.87819  -0.81656  -0.78551
 Alpha  occ. eigenvalues --   -0.70533  -0.69706  -0.64877  -0.63319  -0.61675
 Alpha  occ. eigenvalues --   -0.59592  -0.56790  -0.55696  -0.51734  -0.46361
 Alpha  occ. eigenvalues --   -0.45319  -0.43873  -0.38665
 Alpha virt. eigenvalues --    0.02102   0.03634   0.04674   0.04889   0.06286
 Alpha virt. eigenvalues --    0.06820   0.07883   0.09357   0.10436   0.11826
 Alpha virt. eigenvalues --    0.12916   0.13790   0.14375   0.15289   0.15429

 Mulliken charges:
               1
     1  N   -0.412395
     2  C    0.595736
     3  O   -0.707921
     4  N   -0.143851
     5  C    0.485873
     6  C    0.813278
     7  O   -0.536722
     8  H   -0.099914
     9  H    0.491803
    10  H   -0.094848
    11  H   -0.148169
    12  H   -0.140455
    13  H   -0.138646
    14  H   -0.149920
    15  H    0.186149
 Sum of Mulliken charges =   0.00000

 Dipole moment (field-independent basis, Debye):
    X=              1.3932    Y=              5.1518    Z=             -0.5202  Tot=              5.3622

 Test job not archived.
 1\1\GINC-SE247\SP\RHF\Aug-CC-pVDZ\C3H8N2O2\OHZDE\09-Apr-2025\0\\#t hf
 aug-cc-pvdz iop(5/13=1,5/36=2,99/5=2) pseudo=read geom=check guess=(re
 ad,tcheck) scf=(maxcycle=1)\\title\\0,1\N,0,2.35496053,1.17429376,-0.2
 0507475\C,0,1.11900305,0.74383977,-0.1384974\O,0,0.46180065,1.63688655
 ,0.54068836\N,0,0.54665963,-0.36581475,-0.61609155\C,0,-0.88003427,-0.
 66213236,-0.52982334\C,0,-1.39728017,-0.94514005,0.87840438\O,0,-1.711
 42954,0.20702338,1.61224771\H,0,3.08398398,0.76422774,-0.76418093\H,0,
 1.64870234,2.08570186,0.46376078\H,0,1.14164211,-1.02317171,-1.0831736

 Normal termination of Gaussian 16 at Wed Apr  9 03:58:49 2025.
