 Gaussian 16, Revision C.01,

 ----------------------------------------------------------------------
 #t hf aug-cc-pvdz symm=none int=(grid=ultrafine) guess=(read,tcheck) s
 table=(opt,rrhf)
 ----------------------------------------------------------------------
 -----
 title
 -----
 Symbolic Z-matrix:
 Charge =  0 Multiplicity = 1

 SCF Done:  E(RHF) =  -272.041579690     A.U. after   13 cycles
 Normal termination of Gaussian 16 at Wed Apr  9 15:48:19 2025.
 Gaussian 16:  ES64L-G16RevC.01  3-Jul-2019

 ----------------------------------------------------------------------
 #t hf aug-cc-pvdz iop(5/13=1,5/36=2,99/5=2) pseudo=read geom=check gue
 ss=(read,tcheck) scf=(maxcycle=1)
 ----------------------------------------------------------------------
 -----
 title
 -----
 Structure from the checkpoint file:  "Grambow2020_wb97xd3_007415_reverse_mol2.chk"
 Charge =  0 Multiplicity = 1

                         Standard orientation:
 ---------------------------------------------------------------------
 Center     Atomic      Atomic             Coordinates (Angstroms)
 Number     Number       Type             X           Y           Z
 ---------------------------------------------------------------------
      1          6           0       -1.685752    1.497313   -0.137862
      2          6           0       -1.841660    0.040719    0.209826
      3          6           0       -1.351789   -1.018679   -0.732519
      4          6           0        1.630618   -0.219766   -0.281796
      5          6           0        2.998587    0.368600   -0.141781
      6          6           0        0.716701   -0.247522    0.678560
      7          6           0       -0.650383   -0.814584    0.577747
      8          1           0       -0.735667    1.681647   -0.641816
      9          1           0       -2.487914    1.825183   -0.802716
     10          1           0       -1.714529    2.122944    0.757297
     11          1           0       -2.752685   -0.195391    0.749394
     12          1           0       -1.938638   -1.918247   -0.863983
     13          1           0       -0.852291   -0.679181   -1.631816
     14          1           0        1.388585   -0.655927   -1.248481
     15          1           0        3.159009    0.767408    0.861093
     16          1           0        3.154551    1.179505   -0.858505
     17          1           0        3.770350   -0.380217   -0.338630
     18          1           0        0.972562    0.177729    1.648444
     19          1           0       -0.861259   -1.561940    1.336667
 ---------------------------------------------------------------------

 SCF Done:  E(RHF) =  -272.128264131     A.U. after    2 cycles

 The electronic state is 1-A.
 Alpha  occ. eigenvalues --  -11.23487 -11.23424 -11.23166 -11.22919 -11.22789
 Alpha  occ. eigenvalues --  -11.22570 -11.21934  -1.14410  -1.05357  -0.96108
 Alpha  occ. eigenvalues --   -0.93199  -0.82723  -0.77466  -0.72502  -0.67372
 Alpha  occ. eigenvalues --   -0.63485  -0.59129  -0.56883  -0.56332  -0.55723
 Alpha  occ. eigenvalues --   -0.53814  -0.50751  -0.50212  -0.47958  -0.41946
 Alpha  occ. eigenvalues --   -0.40966  -0.33809
 Alpha virt. eigenvalues --    0.03516   0.04134   0.04421   0.04640   0.05970
 Alpha virt. eigenvalues --    0.06347   0.06412   0.06836   0.07108   0.08808
 Alpha virt. eigenvalues --    0.09100   0.09404   0.12479   0.12809   0.13239

 Mulliken charges:
               1
     1  C    0.354962
     2  C    0.069785
     3  C    1.001412
     4  C   -0.192441
     5  C    0.262545
     6  C    0.745577
     7  C    0.263718
     8  H   -0.059653
     9  H   -0.002401
    10  H   -0.026242
    11  H   -0.424948
    12  H   -0.342216
    13  H   -0.409241
    14  H   -0.428383
    15  H   -0.123340
    16  H    0.054206
    17  H    0.060011
    18  H   -0.465243
    19  H   -0.338108
 Sum of Mulliken charges =  -0.00000

 Dipole moment (field-independent basis, Debye):
    X=              0.0060    Y=              0.0840    Z=             -0.0164  Tot=              0.0858

 Test job not archived.
 1\1\GINC-SE229\SP\RHF\Aug-CC-pVDZ\C7H12\OHZDE\09-Apr-2025\0\\#t hf aug
 -cc-pvdz iop(5/13=1,5/36=2,99/5=2) pseudo=read geom=check guess=(read,
 tcheck) scf=(maxcycle=1)\\title\\0,1\C,0,-2.03599061,-0.85766022,0.112
 72622\C,0,-1.78549604,0.61911393,-0.03975817\C,0,-0.94308953,1.3510710
 8,0.96268925\C,0,1.63801582,-0.17298277,0.09590316\C,0,2.76206249,-1.0
 924126,-0.26226968\C,0,0.70611357,0.24788278,-0.74832895\C,0,-0.426064
 18,1.15254736,-0.4314765\H,0,-1.14746639,-1.37081064,0.48395848\H,0,-2
 .84965606,-1.04209044,0.81765682\H,0,-2.30890065,-1.3132392,-0.8420084

 Normal termination of Gaussian 16 at Wed Apr  9 15:48:28 2025.
