 Gaussian 16, Revision C.01,

 ----------------------------------------------------------------------
 #t hf aug-cc-pvdz symm=none int=(grid=ultrafine) guess=(read,tcheck) s
 table=(opt,rrhf)
 ----------------------------------------------------------------------
 -----
 title
 -----
 Symbolic Z-matrix:
 Charge =  0 Multiplicity = 1

 SCF Done:  E(RHF) =  -308.839919782     A.U. after   15 cycles

 1\1\GINC-SE173\Stability\RHF\Aug-CC-pVDZ\C6H12O1\OHZDE\09-Apr-2025\0\\
 #t hf aug-cc-pvdz symm=none int=(grid=ultrafine) guess=(read,tcheck) s
 table=(opt,rrhf)\\title\\0,1\C,0,-2.07230092,-1.10851213,-0.25298602\C
 ,0,-1.13252916,0.05402789,-0.33250805\C,0,-1.44763432,1.28501705,0.313
 85948\C,0,0.51035684,-0.88446734,0.61408843\O,0,1.37092712,-1.31627591
 ,-0.42816919\C,0,1.88854593,-0.39267259,0.51856113\C,0,2.23593075,0.97
 880036,0.01206011\H,0,-2.90216224,-0.89510415,-0.93262191\H,0,-1.60078
 096,-2.04238319,-0.55515493\H,0,-2.48582059,-1.21579808,0.75006524\H,0

 Normal termination of Gaussian 16 at Wed Apr  9 16:01:25 2025.
 Gaussian 16:  ES64L-G16RevC.01  3-Jul-2019

 ----------------------------------------------------------------------
 #t hf aug-cc-pvdz iop(5/13=1,5/36=2,99/5=2) pseudo=read geom=check gue
 ss=(read,tcheck) scf=(maxcycle=1)
 ----------------------------------------------------------------------
 -----
 title
 -----
 Structure from the checkpoint file:  "Grambow2020_wb97xd3_007695_forward_mol1.chk"
 Charge =  0 Multiplicity = 1

                         Standard orientation:
 ---------------------------------------------------------------------
 Center     Atomic      Atomic             Coordinates (Angstroms)
 Number     Number       Type             X           Y           Z
 ---------------------------------------------------------------------
      1          6           0       -2.306049   -0.823039   -0.130668
      2          6           0       -1.309083    0.272234   -0.348450
      3          6           0       -1.519071    1.564748    0.215225
      4          6           0        0.329168   -0.688927    0.583321
      5          8           0        1.105324   -1.248064   -0.464672
      6          6           0        1.725098   -0.288634    0.379511
      7          6           0        2.119414    1.017924   -0.249438
      8          1           0       -3.159206   -0.612075   -0.781618
      9          1           0       -1.904555   -1.803340   -0.382790
     10          1           0       -2.668618   -0.830087    0.897493
     11          1           0       -0.750593    0.211152   -1.278057
     12          1           0       -2.282516    1.695818    0.968352
     13          1           0       -1.046369    2.429583   -0.224335
     14          1           0       -0.504790    0.618788    0.616592
     15          1           0        0.086397   -1.385238    1.391209
     16          1           0        2.474206   -0.722028    1.041830
     17          1           0        1.341768    1.386614   -0.918471
     18          1           0        3.036228    0.897519   -0.829211
     19          1           0        2.298594    1.771968    0.519370
 ---------------------------------------------------------------------

 SCF Done:  E(RHF) =  -308.938904712     A.U. after    2 cycles

 The electronic state is 1-A.
 Alpha  occ. eigenvalues --  -20.57675 -11.32701 -11.29124 -11.26496 -11.24918
 Alpha  occ. eigenvalues --  -11.23210 -11.20887  -1.37184  -1.10820  -1.00351
 Alpha  occ. eigenvalues --   -0.95467  -0.88099  -0.81362  -0.77306  -0.69458
 Alpha  occ. eigenvalues --   -0.67006  -0.64147  -0.60844  -0.59158  -0.57668
 Alpha  occ. eigenvalues --   -0.56340  -0.55333  -0.52387  -0.51662  -0.50416
 Alpha  occ. eigenvalues --   -0.46040  -0.42665  -0.26471
 Alpha virt. eigenvalues --    0.03367   0.04123   0.04482   0.04835   0.05901
 Alpha virt. eigenvalues --    0.06234   0.06373   0.07272   0.07546   0.08544
 Alpha virt. eigenvalues --    0.09593   0.09744   0.12287   0.12520   0.13767

 Mulliken charges:
               1
     1  C    0.695872
     2  C   -0.374275
     3  C    0.576819
     4  C    0.329505
     5  O   -0.750224
     6  C    0.161995
     7  C    0.249712
     8  H    0.024862
     9  H   -0.033070
    10  H    0.006383
    11  H   -0.214107
    12  H   -0.351157
    13  H   -0.347044
    14  H    0.795267
    15  H   -0.428665
    16  H   -0.300130
    17  H   -0.063589
    18  H   -0.025554
    19  H    0.047401
 Sum of Mulliken charges =   0.00000

 Dipole moment (field-independent basis, Debye):
    X=             -0.6747    Y=              0.6418    Z=              0.8215  Tot=              1.2418

 Test job not archived.
 1\1\GINC-SE173\SP\RHF\Aug-CC-pVDZ\C6H12O1\OHZDE\09-Apr-2025\0\\#t hf a
 ug-cc-pvdz iop(5/13=1,5/36=2,99/5=2) pseudo=read geom=check guess=(rea
 d,tcheck) scf=(maxcycle=1)\\title\\0,1\C,0,-2.07230092,-1.10851213,-0.
 25298602\C,0,-1.13252916,0.05402789,-0.33250805\C,0,-1.44763432,1.2850
 1705,0.31385948\C,0,0.51035684,-0.88446734,0.61408843\O,0,1.37092712,-
 1.31627591,-0.42816919\C,0,1.88854593,-0.39267259,0.51856113\C,0,2.235
 93075,0.97880036,0.01206011\H,0,-2.90216224,-0.89510415,-0.93262191\H,
 0,-1.60078096,-2.04238319,-0.55515493\H,0,-2.48582059,-1.21579808,0.75

 Normal termination of Gaussian 16 at Wed Apr  9 16:01:32 2025.
