 Gaussian 16, Revision C.01,

 ----------------------------------------------------------------------
 #t hf aug-cc-pvdz symm=none int=(grid=ultrafine) guess=(read,tcheck) s
 table=(opt,rrhf)
 ----------------------------------------------------------------------
 -----
 title
 -----
 Symbolic Z-matrix:
 Charge =  0 Multiplicity = 1

 SCF Done:  E(RHF) =  -359.690144767     A.U. after   15 cycles
 Normal termination of Gaussian 16 at Wed Apr  9 04:04:45 2025.
 Gaussian 16:  ES64L-G16RevC.01  3-Jul-2019

 ----------------------------------------------------------------------
 #t hf aug-cc-pvdz iop(5/13=1,5/36=2,99/5=2) pseudo=read geom=check gue
 ss=(read,tcheck) scf=(maxcycle=1)
 ----------------------------------------------------------------------
 -----
 title
 -----
 Structure from the checkpoint file:  "Grambow2020_wb97xd3_009256_reverse_mol1.chk"
 Charge =  0 Multiplicity = 1

                         Standard orientation:
 ---------------------------------------------------------------------
 Center     Atomic      Atomic             Coordinates (Angstroms)
 Number     Number       Type             X           Y           Z
 ---------------------------------------------------------------------
      1          6           0       -0.315365    1.937499    0.131790
      2          6           0       -0.109810    0.524371    0.594026
      3          6           0       -1.369612   -0.816327   -0.107722
      4          8           0       -2.396994   -0.439732   -0.478568
      5          6           0        0.986383   -0.265035    0.188677
      6          8           0        0.906456   -1.534143    0.396286
      7          7           0        1.970452    0.180391   -0.622835
      8          1           0       -0.023166    2.061497   -0.913949
      9          1           0       -1.375302    2.195110    0.194433
     10          1           0        0.233050    2.673213    0.728038
     11          1           0       -0.448445    0.297362    1.600843
     12          1           0       -0.241290   -1.657051    0.187542
     13          1           0        2.187437    1.157925   -0.669234
     14          1           0        2.649278   -0.482843   -0.950209
 ---------------------------------------------------------------------

 SCF Done:  E(RHF) =  -359.803857103     A.U. after    2 cycles

 The electronic state is 1-A.
 Alpha  occ. eigenvalues --  -20.61433 -20.58214 -15.66705 -11.37835 -11.34933
 Alpha  occ. eigenvalues --  -11.23748 -11.23248  -1.41767  -1.38308  -1.20436
 Alpha  occ. eigenvalues --   -1.04833  -0.91605  -0.84213  -0.76717  -0.74974
 Alpha  occ. eigenvalues --   -0.70946  -0.68836  -0.63987  -0.62206  -0.59478
 Alpha  occ. eigenvalues --   -0.58274  -0.56632  -0.53750  -0.51820  -0.49552
 Alpha  occ. eigenvalues --   -0.46810  -0.30421
 Alpha virt. eigenvalues --    0.02602   0.04028   0.04725   0.05253   0.06771
 Alpha virt. eigenvalues --    0.07104   0.08201   0.09278   0.09930   0.11669
 Alpha virt. eigenvalues --    0.12838   0.13539   0.13950   0.14587   0.15479

 Mulliken charges:
               1
     1  C    0.498532
     2  C   -0.450094
     3  C    0.116367
     4  O   -0.344898
     5  C    0.905282
     6  O   -0.762457
     7  N   -0.189236
     8  H   -0.042436
     9  H   -0.068738
    10  H   -0.007738
    11  H   -0.152216
    12  H    0.510638
    13  H    0.013919
    14  H   -0.026925
 Sum of Mulliken charges =  -0.00000

 Dipole moment (field-independent basis, Debye):
    X=              3.4175    Y=              2.2306    Z=             -0.2565  Tot=              4.0891

 Test job not archived.
 1\1\GINC-SE341\SP\RHF\Aug-CC-pVDZ\C4H7N1O2\OHZDE\09-Apr-2025\0\\#t hf
 aug-cc-pvdz iop(5/13=1,5/36=2,99/5=2) pseudo=read geom=check guess=(re
 ad,tcheck) scf=(maxcycle=1)\\title\\0,1\C,0,-0.87148493,-1.34006523,0.
 17390761\C,0,-0.51641631,-0.00953912,-0.42314644\C,0,-1.03114057,1.580
 50186,0.6179355\O,0,-1.89396074,1.46403998,1.37743571\C,0,0.81002198,0
 .45967781,-0.52064385\O,0,0.97412504,1.71418364,-0.76438513\N,0,1.8870
 1213,-0.25100073,-0.1201722\H,0,-0.23866575,-1.57286265,1.03394908\H,0
 ,-1.90116448,-1.31722935,0.53858721\H,0,-0.79755728,-2.16846434,-0.537

 Normal termination of Gaussian 16 at Wed Apr  9 04:04:49 2025.
