 Gaussian 16, Revision C.01,

 ----------------------------------------------------------------------
 #t hf aug-cc-pvdz symm=none int=(grid=ultrafine) guess=(read,tcheck) s
 table=(opt,rrhf)
 ----------------------------------------------------------------------
 -----
 title
 -----
 Symbolic Z-matrix:
 Charge =  0 Multiplicity = 1

 SCF Done:  E(RHF) =  -308.856093536     A.U. after   16 cycles

 1\1\GINC-SE043\Stability\RHF\Aug-CC-pVDZ\C6H12O1\OHZDE\09-Apr-2025\0\\
 #t hf aug-cc-pvdz symm=none int=(grid=ultrafine) guess=(read,tcheck) s
 table=(opt,rrhf)\\title\\0,1\C,0,2.18187888,-0.77315215,-0.38061016\C,
 0,0.75970275,-0.3600313,0.08965814\O,0,0.77204533,-0.29502897,1.506159
 01\C,0,0.45056433,0.92608919,-0.64434371\C,0,-1.6799867,1.39910633,0.5
 8989346\C,0,-2.23180641,0.1893789,0.35572356\C,0,-0.21406155,-1.302197
 04,-0.39794943\H,0,2.87286995,0.0335027,-0.13099533\H,0,2.22853314,-0.
 95906608,-1.45425436\H,0,2.4844862,-1.66952307,0.15726491\H,0,0.689010

 Normal termination of Gaussian 16 at Wed Apr  9 16:36:36 2025.
 Gaussian 16:  ES64L-G16RevC.01  3-Jul-2019

 ----------------------------------------------------------------------
 #t hf aug-cc-pvdz iop(5/13=1,5/36=2,99/5=2) pseudo=read geom=check gue
 ss=(read,tcheck) scf=(maxcycle=1)
 ----------------------------------------------------------------------
 -----
 title
 -----
 Structure from the checkpoint file:  "Grambow2020_wb97xd3_008675_forward_mol1.chk"
 Charge =  0 Multiplicity = 1

                         Standard orientation:
 ---------------------------------------------------------------------
 Center     Atomic      Atomic             Coordinates (Angstroms)
 Number     Number       Type             X           Y           Z
 ---------------------------------------------------------------------
      1          6           0       -2.326438   -0.053576   -0.218123
      2          6           0       -0.799639    0.030980    0.057811
      3          8           0       -0.585092   -0.299948    1.419908
      4          6           0       -0.154188   -0.873820   -0.968425
      5          6           0        2.155981   -0.715342   -0.006999
      6          6           0        2.192942    0.634164    0.008794
      7          6           0       -0.313353    1.348742   -0.259497
      8          1           0       -2.635298   -1.095253   -0.118213
      9          1           0       -2.590112    0.299205   -1.215858
     10          1           0       -2.852812    0.538565    0.527975
     11          1           0       -0.140004   -1.150344    1.421324
     12          1           0       -0.830428   -1.572846   -1.467572
     13          1           0        0.574131   -0.445720   -1.632760
     14          1           0        2.031674   -1.278755    0.909083
     15          1           0        2.462046   -1.286581   -0.872308
     16          1           0        2.506820    1.202849   -0.858015
     17          1           0        2.109206    1.171589    0.942907
     18          1           0       -0.698123    1.841970   -1.142211
     19          1           0        0.211804    1.948017    0.465015
 ---------------------------------------------------------------------

 SCF Done:  E(RHF) =  -308.953678349     A.U. after    2 cycles

 The electronic state is 1-A.
 Alpha  occ. eigenvalues --  -20.56320 -11.30679 -11.28230 -11.24834 -11.23735
 Alpha  occ. eigenvalues --  -11.23716 -11.23242  -1.32472  -1.07710  -1.02386
 Alpha  occ. eigenvalues --   -0.93448  -0.90093  -0.79263  -0.78090  -0.68673
 Alpha  occ. eigenvalues --   -0.65473  -0.64270  -0.62703  -0.58736  -0.58079
 Alpha  occ. eigenvalues --   -0.56236  -0.54939  -0.52531  -0.50428  -0.49210
 Alpha  occ. eigenvalues --   -0.45348  -0.36101  -0.26238
 Alpha virt. eigenvalues --    0.02566   0.03499   0.04484   0.04913   0.05406
 Alpha virt. eigenvalues --    0.06123   0.06305   0.06741   0.06786   0.07690
 Alpha virt. eigenvalues --    0.08763   0.09238   0.09703   0.11934   0.13621

 Mulliken charges:
               1
     1  C    0.754273
     2  C   -0.703868
     3  O   -0.645716
     4  C    0.647383
     5  C    0.783019
     6  C    0.530255
     7  C    0.789775
     8  H   -0.034084
     9  H    0.036828
    10  H   -0.021637
    11  H    0.183348
    12  H   -0.356157
    13  H   -0.253643
    14  H   -0.354626
    15  H   -0.303749
    16  H   -0.300926
    17  H   -0.298493
    18  H   -0.277246
    19  H   -0.174736
 Sum of Mulliken charges =  -0.00000

 Dipole moment (field-independent basis, Debye):
    X=             -0.1542    Y=              0.4318    Z=             -1.3147  Tot=              1.3924

 Test job not archived.
 1\1\GINC-SE043\SP\RHF\Aug-CC-pVDZ\C6H12O1\OHZDE\09-Apr-2025\0\\#t hf a
 ug-cc-pvdz iop(5/13=1,5/36=2,99/5=2) pseudo=read geom=check guess=(rea
 d,tcheck) scf=(maxcycle=1)\\title\\0,1\C,0,2.18187888,-0.77315215,-0.3
 8061016\C,0,0.75970275,-0.3600313,0.08965814\O,0,0.77204533,-0.2950289
 7,1.50615901\C,0,0.45056433,0.92608919,-0.64434371\C,0,-1.6799867,1.39
 910633,0.58989346\C,0,-2.23180641,0.1893789,0.35572356\C,0,-0.21406155
 ,-1.30219704,-0.39794943\H,0,2.87286995,0.0335027,-0.13099533\H,0,2.22
 853314,-0.95906608,-1.45425436\H,0,2.4844862,-1.66952307,0.15726491\H,

 Normal termination of Gaussian 16 at Wed Apr  9 16:36:44 2025.
