 Gaussian 16, Revision C.01,

 ----------------------------------------------------------------------
 #t hf aug-cc-pvdz symm=none int=(grid=ultrafine) guess=(read,tcheck) s
 table=(opt,rrhf)
 ----------------------------------------------------------------------
 -----
 title
 -----
 Symbolic Z-matrix:
 Charge =  0 Multiplicity = 1

 SCF Done:  E(RHF) =  -304.484020844     A.U. after   17 cycles
 Normal termination of Gaussian 16 at Wed Apr  9 03:14:51 2025.
 Gaussian 16:  ES64L-G16RevC.01  3-Jul-2019

 ----------------------------------------------------------------------
 #t hf aug-cc-pvdz iop(5/13=1,5/36=2,99/5=2) pseudo=read geom=check gue
 ss=(read,tcheck) scf=(maxcycle=1)
 ----------------------------------------------------------------------
 -----
 title
 -----
 Structure from the checkpoint file:  "Grambow2020_b97d3_006991_forward_mol1.chk"
 Charge =  0 Multiplicity = 1

                         Standard orientation:
 ---------------------------------------------------------------------
 Center     Atomic      Atomic             Coordinates (Angstroms)
 Number     Number       Type             X           Y           Z
 ---------------------------------------------------------------------
      1          6           0       -1.723384   -0.561701   -0.425334
      2          6           0       -1.017595    1.096839   -0.003051
      3          6           0       -0.114997   -0.969863    0.551219
      4          6           0        0.948209   -0.071142    0.054033
      5          8           0        2.069556   -0.331592   -0.326006
      6          8           0        0.360722    1.182150    0.044812
      7          1           0       -1.597966   -0.591018   -1.510537
      8          1           0       -2.708768   -0.155809   -0.140487
      9          1           0       -1.888659   -1.624701   -0.098872
     10          1           0       -1.417042    1.399548    0.995067
     11          1           0       -0.415629   -0.762779    1.583821
     12          1           0        0.032443   -2.034504    0.359350
 ---------------------------------------------------------------------

 SCF Done:  E(RHF) =  -304.578267246     A.U. after    2 cycles

 The electronic state is 1-A.
 Alpha  occ. eigenvalues --  -20.63455 -20.58071 -11.42246 -11.34300 -11.32699
 Alpha  occ. eigenvalues --  -11.30096  -1.43222  -1.35007  -1.06541  -0.97801
 Alpha  occ. eigenvalues --   -0.89833  -0.79077  -0.72627  -0.70038  -0.67405
 Alpha  occ. eigenvalues --   -0.62935  -0.60877  -0.59682  -0.55900  -0.52372
 Alpha  occ. eigenvalues --   -0.49162  -0.48431  -0.31433
 Alpha virt. eigenvalues --    0.02416   0.02574   0.03947   0.05400   0.06207
 Alpha virt. eigenvalues --    0.06457   0.07301   0.09173   0.10399   0.11108
 Alpha virt. eigenvalues --    0.12888   0.13954   0.14265   0.14346   0.15107

 Mulliken charges:
               1
     1  C    0.406516
     2  C    0.334360
     3  C    0.177913
     4  C    0.715960
     5  O   -0.439449
     6  O   -0.600246
     7  H   -0.075619
     8  H    0.039364
     9  H   -0.193494
    10  H   -0.205077
    11  H    0.001607
    12  H   -0.161834
 Sum of Mulliken charges =  -0.00000

 Dipole moment (field-independent basis, Debye):
    X=             -4.0151    Y=             -2.7097    Z=              2.3349  Tot=              5.3773

 Test job not archived.
 1\1\GINC-SE054\SP\RHF\Aug-CC-pVDZ\C4H6O2\OHZDE\09-Apr-2025\0\\#t hf au
 g-cc-pvdz iop(5/13=1,5/36=2,99/5=2) pseudo=read geom=check guess=(read
 ,tcheck) scf=(maxcycle=1)\\title\\0,1\C,0,-1.19036164,0.06297712,0.353
 28317\C,0,-0.38811263,-1.08371455,-0.85862093\C,0,0.60089252,0.7460279
 1,0.17436895\C,0,1.52294678,-0.40911765,0.2018489\O,0,2.51829839,-0.59
 176854,0.86937857\O,0,0.96240953,-1.31587209,-0.68107801\H,0,-1.328410
 14,-0.58627201,1.22142713\H,0,-2.07506754,0.05488516,-0.30557753\H,0,-
 1.28300004,1.11768743,0.73126031\H,0,-0.53432069,-0.66304327,-1.882870

 Normal termination of Gaussian 16 at Wed Apr  9 03:14:55 2025.
