 Gaussian 16, Revision C.01,

 ----------------------------------------------------------------------
 #t hf aug-cc-pvdz symm=none int=(grid=ultrafine) guess=(read,tcheck) s
 table=(opt,rrhf)
 ----------------------------------------------------------------------
 -----
 title
 -----
 Symbolic Z-matrix:
 Charge =  0 Multiplicity = 1

 SCF Done:  E(RHF) =  -344.821373923     A.U. after   14 cycles

 1\1\GINC-SE226\Stability\RHF\Aug-CC-pVDZ\C5H10O2\OHZDE\09-Apr-2025\0\\
 #t hf aug-cc-pvdz symm=none int=(grid=ultrafine) guess=(read,tcheck) s
 table=(opt,rrhf)\\title\\0,1\C,0,1.42644784,2.18369473,0.30569799\O,0,
 0.48883114,1.22917769,-0.11472517\C,0,-0.31188859,-1.74784787,-1.01243
 743\C,0,0.13877671,-1.91580089,0.41074562\O,0,-0.62095118,-3.16931242,
 0.44818731\C,0,-0.96081139,-2.89925132,-0.85770538\C,0,-0.8351264,1.66
 169813,0.05706695\H,0,1.30715121,2.41908042,1.37179366\H,0,2.41866977,
 1.76397757,0.14476809\H,0,1.33687748,3.1161995,-0.26725474\H,0,-0.1510

 Normal termination of Gaussian 16 at Wed Apr  9 14:59:39 2025.
 Gaussian 16:  ES64L-G16RevC.01  3-Jul-2019

 ----------------------------------------------------------------------
 #t hf aug-cc-pvdz iop(5/13=1,5/36=2,99/5=2) pseudo=read geom=check gue
 ss=(read,tcheck) scf=(maxcycle=1)
 ----------------------------------------------------------------------
 -----
 title
 -----
 Structure from the checkpoint file:  "Grambow2020_wb97xd3_006658_reverse_mol2.chk"
 Charge =  0 Multiplicity = 1

                         Standard orientation:
 ---------------------------------------------------------------------
 Center     Atomic      Atomic             Coordinates (Angstroms)
 Number     Number       Type             X           Y           Z
 ---------------------------------------------------------------------
      1          6           0        2.967814   -0.782351   -0.252531
      2          8           0        1.786887   -0.026177   -0.228087
      3          6           0       -1.357453    0.330701   -0.771673
      4          6           0       -1.298237   -0.748611    0.271560
      5          8           0       -2.689380   -0.428490    0.606407
      6          6           0       -2.613949    0.527779   -0.380332
      7          6           0        1.904155    1.131770    0.556041
      8          1           0        3.253009   -1.111490    0.755700
      9          1           0        2.784836   -1.659088   -0.872543
     10          1           0        3.802979   -0.211725   -0.680020
     11          1           0       -0.674754    0.728884   -1.499886
     12          1           0       -0.649687   -0.580441    1.130376
     13          1           0       -1.220342   -1.777298   -0.080638
     14          1           0       -3.462650    1.157464   -0.611944
     15          1           0        2.676043    1.806105    0.162352
     16          1           0        0.941454    1.642320    0.534715
     17          1           0        2.155068    0.886876    1.596933
 ---------------------------------------------------------------------

 SCF Done:  E(RHF) =  -344.936585891     A.U. after    2 cycles

 The electronic state is 1-A.
 Alpha  occ. eigenvalues --  -20.57786 -20.57778 -11.29810 -11.29128 -11.28755
 Alpha  occ. eigenvalues --  -11.28597 -11.22386  -1.37214  -1.34592  -1.01357
 Alpha  occ. eigenvalues --   -0.97912  -0.92203  -0.87819  -0.73244  -0.70610
 Alpha  occ. eigenvalues --   -0.67847  -0.66984  -0.66188  -0.65937  -0.62318
 Alpha  occ. eigenvalues --   -0.55817  -0.53763  -0.52309  -0.50013  -0.49362
 Alpha  occ. eigenvalues --   -0.49164  -0.44465  -0.34114
 Alpha virt. eigenvalues --    0.03243   0.04299   0.04717   0.04772   0.05732
 Alpha virt. eigenvalues --    0.06570   0.06921   0.07271   0.07717   0.08776
 Alpha virt. eigenvalues --    0.11505   0.11779   0.12488   0.13652   0.14329

 Mulliken charges:
               1
     1  C    0.747271
     2  O   -0.518167
     3  C    0.426884
     4  C    0.874701
     5  O   -0.711295
     6  C    0.318037
     7  C    0.775976
     8  H   -0.077359
     9  H   -0.290201
    10  H   -0.118694
    11  H   -0.389716
    12  H   -0.214701
    13  H   -0.150915
    14  H   -0.198348
    15  H   -0.098665
    16  H   -0.319356
    17  H   -0.055451
 Sum of Mulliken charges =   0.00000

 Dipole moment (field-independent basis, Debye):
    X=              2.9202    Y=              0.8161    Z=             -0.3676  Tot=              3.0543

 Test job not archived.
 1\1\GINC-SE226\SP\RHF\Aug-CC-pVDZ\C5H10O2\OHZDE\09-Apr-2025\0\\#t hf a
 ug-cc-pvdz iop(5/13=1,5/36=2,99/5=2) pseudo=read geom=check guess=(rea
 d,tcheck) scf=(maxcycle=1)\\title\\0,1\C,0,1.42644784,2.18369473,0.305
 69799\O,0,0.48883114,1.22917769,-0.11472517\C,0,-0.31188859,-1.7478478
 7,-1.01243743\C,0,0.13877671,-1.91580089,0.41074562\O,0,-0.62095118,-3
 .16931242,0.44818731\C,0,-0.96081139,-2.89925132,-0.85770538\C,0,-0.83
 51264,1.66169813,0.05706695\H,0,1.30715121,2.41908042,1.37179366\H,0,2
 .41866977,1.76397757,0.14476809\H,0,1.33687748,3.1161995,-0.26725474\H

 Normal termination of Gaussian 16 at Wed Apr  9 14:59:45 2025.
