 Gaussian 16, Revision C.01,

 ----------------------------------------------------------------------
 #t hf aug-cc-pvdz symm=none int=(grid=ultrafine) guess=(read,tcheck) s
 table=(opt,rrhf)
 ----------------------------------------------------------------------
 -----
 title
 -----
 Symbolic Z-matrix:
 Charge =  0 Multiplicity = 1

 SCF Done:  E(RHF) =  -357.220296699     A.U. after   16 cycles
 Normal termination of Gaussian 16 at Wed Apr  9 03:58:22 2025.
 Gaussian 16:  ES64L-G16RevC.01  3-Jul-2019

 ----------------------------------------------------------------------
 #t hf aug-cc-pvdz iop(5/13=1,5/36=2,99/5=2) pseudo=read geom=check gue
 ss=(read,tcheck) scf=(maxcycle=1)
 ----------------------------------------------------------------------
 -----
 title
 -----
 Structure from the checkpoint file:  "Grambow2020_wb97xd3_008757_reverse_mol2.chk"
 Charge =  0 Multiplicity = 1

                         Standard orientation:
 ---------------------------------------------------------------------
 Center     Atomic      Atomic             Coordinates (Angstroms)
 Number     Number       Type             X           Y           Z
 ---------------------------------------------------------------------
      1          8           0        2.013677   -1.225516   -0.006281
      2          6           0        2.011484   -0.026404    0.010774
      3          6           0        0.796740    0.767572   -0.003168
      4          7           0       -0.162642    1.412534   -0.002967
      5          8           0       -1.154242    2.059172   -0.004207
      6          6           0       -2.355817   -1.269005    0.010260
      7          6           0       -1.292820   -1.815927   -0.007150
      8          1           0        2.939240    0.565402    0.037648
      9          1           0       -3.300949   -0.778512    0.025636
     10          1           0       -0.332785   -2.281284   -0.022903
 ---------------------------------------------------------------------

 SCF Done:  E(RHF) =  -357.337945848     A.U. after    2 cycles

 The electronic state is 1-A.
 Alpha  occ. eigenvalues --  -20.63468 -20.62847 -15.85272 -11.42658 -11.34196
 Alpha  occ. eigenvalues --  -11.24809 -11.24369  -1.49853  -1.42547  -1.23819
 Alpha  occ. eigenvalues --   -1.02314  -0.98068  -0.79555  -0.76998  -0.75713
 Alpha  occ. eigenvalues --   -0.73204  -0.71424  -0.70615  -0.67519  -0.61009
 Alpha  occ. eigenvalues --   -0.52209  -0.43905  -0.43047  -0.41017  -0.40885
 Alpha virt. eigenvalues --    0.02503   0.02555   0.04507   0.05104   0.07089
 Alpha virt. eigenvalues --    0.09406   0.10438   0.10803   0.11690   0.11939
 Alpha virt. eigenvalues --    0.12365   0.13360   0.13861   0.14105   0.15211

 Mulliken charges:
               1
     1  O   -0.368283
     2  C    0.966469
     3  C   -0.424342
     4  N    0.474348
     5  O   -0.563300
     6  C    0.234453
     7  C    0.333736
     8  H   -0.099062
     9  H   -0.289559
    10  H   -0.264459
 Sum of Mulliken charges =  -0.00000

 Dipole moment (field-independent basis, Debye):
    X=              3.0290    Y=              1.0116    Z=              0.0544  Tot=              3.1940

 Test job not archived.
 1\1\GINC-SE453\SP\RHF\Aug-CC-pVDZ\C4H3N1O2\OHZDE\09-Apr-2025\0\\#t hf
 aug-cc-pvdz iop(5/13=1,5/36=2,99/5=2) pseudo=read geom=check guess=(re
 ad,tcheck) scf=(maxcycle=1)\\title\\0,1\O,0,-2.23537429,0.44456549,-0.
 39390034\C,0,-1.81485443,-0.54055233,-0.93322549\C,0,-0.43470585,-0.97
 714409,-0.82942407\N,0,0.65886076,-1.34276295,-0.74681074\O,0,1.782462
 69,-1.70358931,-0.65334393\C,0,1.69051441,1.19693991,1.37131153\C,0,0.
 54218631,1.47512166,1.18869848\H,0,-2.45051362,-1.19138679,-1.55293481
 \H,0,2.71302653,0.94623221,1.53164867\H,0,-0.4848285,1.70310418,1.0105

 Normal termination of Gaussian 16 at Wed Apr  9 03:58:25 2025.
