 Gaussian 16, Revision C.01,

 ----------------------------------------------------------------------
 #t hf aug-cc-pvdz symm=none int=(grid=ultrafine) guess=(read,tcheck) s
 table=(opt,rrhf)
 ----------------------------------------------------------------------
 -----
 title
 -----
 Symbolic Z-matrix:
 Charge =  0 Multiplicity = 1

 SCF Done:  E(RHF) =  -299.637874281     A.U. after   15 cycles
 Normal termination of Gaussian 16 at Wed Apr  9 14:20:03 2025.
 Gaussian 16:  ES64L-G16RevC.01  3-Jul-2019

 ----------------------------------------------------------------------
 #t hf aug-cc-pvdz iop(5/13=1,5/36=2,99/5=2) pseudo=read geom=check gue
 ss=(read,tcheck) scf=(maxcycle=1)
 ----------------------------------------------------------------------
 -----
 title
 -----
 Structure from the checkpoint file:  "Grambow2020_b97d3_007182_reverse_mol2.chk"
 Charge =  0 Multiplicity = 1

                         Standard orientation:
 ---------------------------------------------------------------------
 Center     Atomic      Atomic             Coordinates (Angstroms)
 Number     Number       Type             X           Y           Z
 ---------------------------------------------------------------------
      1          6           0       -2.090256   -0.005903   -0.000461
      2          6           0       -0.597324   -0.080629    0.000574
      3          7           0        0.094557   -1.172353    0.000682
      4          8           0        1.521750   -0.614046   -0.000361
      5          6           0        1.542625    0.702622   -0.000690
      6          7           0        0.223214    1.052617    0.000486
      7          1           0       -2.514772   -1.014933   -0.004964
      8          1           0       -2.453979    0.525453    0.890442
      9          1           0       -2.451009    0.531789   -0.888883
     10          1           0       -0.108906    2.011673    0.001585
 ---------------------------------------------------------------------

 SCF Done:  E(RHF) =  -299.726708037     A.U. after    2 cycles

 The electronic state is 1-A.
 Alpha  occ. eigenvalues --  -20.65547 -15.70416 -15.70026 -11.36520 -11.32798
 Alpha  occ. eigenvalues --  -11.28981  -1.43791  -1.24290  -1.16124  -1.02039
 Alpha  occ. eigenvalues --   -0.86697  -0.82313  -0.74638  -0.67445  -0.63769
 Alpha  occ. eigenvalues --   -0.61319  -0.60633  -0.57412  -0.51950  -0.50097
 Alpha  occ. eigenvalues --   -0.42176  -0.39335
 Alpha virt. eigenvalues --    0.01952   0.03894   0.04274   0.06219   0.08258
 Alpha virt. eigenvalues --    0.09939   0.09971   0.11473   0.12752   0.12952
 Alpha virt. eigenvalues --    0.13593   0.14566   0.14617   0.15802   0.16732

 Mulliken charges:
               1
     1  C    0.351565
     2  C    0.640359
     3  N   -0.321380
     4  O   -0.509302
     5  C    0.197045
     6  N   -0.376313
     7  H   -0.003835
     8  H    0.042266
     9  H    0.041967
    10  H   -0.062371
 Sum of Mulliken charges =  -0.00000

 Dipole moment (field-independent basis, Debye):
    X=             -5.5593    Y=              2.7570    Z=              0.0023  Tot=              6.2054

 Test job not archived.
 1\1\GINC-SE043\SP\RHF\Aug-CC-pVDZ\C3H4N2O1\OHZDE\09-Apr-2025\0\\#t hf
 aug-cc-pvdz iop(5/13=1,5/36=2,99/5=2) pseudo=read geom=check guess=(re
 ad,tcheck) scf=(maxcycle=1)\\title\\0,1\C,0,-1.42308286,0.13060503,0.1
 2378212\C,0,0.00383195,-0.12724409,-0.23934107\N,0,0.40386168,-0.71835
 851,-1.31689363\O,0,1.92367176,-0.68190867,-1.12340624\C,0,2.26932251,
 -0.09690909,0.00457981\N,0,1.07835518,0.25589928,0.57067756\H,0,-2.083
 30567,-0.25233681,-0.66097161\H,0,-1.6788883,-0.36363966,1.07174224\H,
 0,-1.6045724,1.20843853,0.24162429\H,0,0.99380015,0.73284298,1.4625675

 Normal termination of Gaussian 16 at Wed Apr  9 14:20:07 2025.
