 Gaussian 16, Revision C.01,

 ----------------------------------------------------------------------
 #t hf aug-cc-pvdz symm=none int=(grid=ultrafine) guess=(read,tcheck) s
 table=(opt,rrhf)
 ----------------------------------------------------------------------
 -----
 title
 -----
 Symbolic Z-matrix:
 Charge =  0 Multiplicity = 1

 SCF Done:  E(RHF) =  -375.602970634     A.U. after   15 cycles
 Normal termination of Gaussian 16 at Wed Apr  9 03:45:28 2025.
 Gaussian 16:  ES64L-G16RevC.01  3-Jul-2019

 ----------------------------------------------------------------------
 #t hf aug-cc-pvdz iop(5/13=1,5/36=2,99/5=2) pseudo=read geom=check gue
 ss=(read,tcheck) scf=(maxcycle=1)
 ----------------------------------------------------------------------
 -----
 title
 -----
 Structure from the checkpoint file:  "Grambow2020_wb97xd3_007865_forward_mol1.chk"
 Charge =  0 Multiplicity = 1

                         Standard orientation:
 ---------------------------------------------------------------------
 Center     Atomic      Atomic             Coordinates (Angstroms)
 Number     Number       Type             X           Y           Z
 ---------------------------------------------------------------------
      1          7           0        2.169262   -0.580212   -0.223164
      2          6           0        0.913641   -0.165170   -0.035457
      3          8           0        0.088373   -0.896087    0.677622
      4          6           0        0.540314    1.303139    0.050978
      5          8           0       -0.856299    1.187897    0.126216
      6          6           0       -1.098372   -0.139556   -0.175940
      7          7           0       -2.244566   -0.636801   -0.266025
      8          1           0        2.358965   -1.565554   -0.170590
      9          1           0        2.838456    0.007900   -0.685234
     10          1           0        0.864331    1.889842   -0.812653
     11          1           0        0.925469    1.734830    0.979017
     12          1           0       -0.178533   -0.232031   -1.179514
     13          1           0       -2.271654   -1.640858   -0.174897
 ---------------------------------------------------------------------

 SCF Done:  E(RHF) =  -375.719419463     A.U. after    2 cycles

 The electronic state is 1-A.
 Alpha  occ. eigenvalues --  -20.61317 -20.59508 -15.70252 -15.56149 -11.42967
 Alpha  occ. eigenvalues --  -11.41567 -11.33353  -1.44735  -1.35514  -1.24165
 Alpha  occ. eigenvalues --   -1.15412  -1.00717  -0.88214  -0.84529  -0.77296
 Alpha  occ. eigenvalues --   -0.73738  -0.73181  -0.68364  -0.65699  -0.62451
 Alpha  occ. eigenvalues --   -0.58028  -0.55594  -0.54087  -0.49439  -0.46190
 Alpha  occ. eigenvalues --   -0.40742  -0.31961
 Alpha virt. eigenvalues --    0.01327   0.03295   0.04218   0.04908   0.06446
 Alpha virt. eigenvalues --    0.07415   0.09535   0.09899   0.11113   0.11863
 Alpha virt. eigenvalues --    0.12562   0.13702   0.14329   0.14676   0.16277

 Mulliken charges:
               1
     1  N   -0.104923
     2  C    0.312480
     3  O   -0.763715
     4  C    0.805002
     5  O   -0.640437
     6  C    0.720265
     7  N   -0.329615
     8  H    0.005408
     9  H    0.011350
    10  H   -0.074620
    11  H   -0.087619
    12  H    0.155336
    13  H   -0.008911
 Sum of Mulliken charges =  -0.00000

 Dipole moment (field-independent basis, Debye):
    X=              7.9265    Y=              0.0714    Z=             -1.4795  Tot=              8.0637

 Test job not archived.
 1\1\GINC-SE143\SP\RHF\Aug-CC-pVDZ\C3H6N2O2\OHZDE\09-Apr-2025\0\\#t hf
 aug-cc-pvdz iop(5/13=1,5/36=2,99/5=2) pseudo=read geom=check guess=(re
 ad,tcheck) scf=(maxcycle=1)\\title\\0,1\N,0,-1.97552433,0.14496125,-0.
 39323121\C,0,-0.69951949,0.09418765,-0.0016817\O,0,-0.06643358,1.20603
 856,0.29290294\C,0,-0.12971966,-1.07147702,0.7852926\O,0,1.2203677,-0.
 69075009,0.82748784\C,0,1.2988398,0.36027174,-0.06762365\N,0,2.3646240
 7,0.95047864,-0.35898127\H,0,-2.30949725,0.98963624,-0.82292524\H,0,-2
 .50157569,-0.6983196,-0.53234154\H,0,-0.27465845,-2.04065374,0.3007780

 Normal termination of Gaussian 16 at Wed Apr  9 03:45:33 2025.
