 Gaussian 16, Revision C.01,

 ----------------------------------------------------------------------
 #t hf aug-cc-pvdz symm=none int=(grid=ultrafine) guess=(read,tcheck) s
 table=(opt,rrhf)
 ----------------------------------------------------------------------
 -----
 title
 -----
 Symbolic Z-matrix:
 Charge =  0 Multiplicity = 1

 SCF Done:  E(RHF) =  -306.568941077     A.U. after   16 cycles
 Normal termination of Gaussian 16 at Wed Apr  9 16:52:21 2025.
 Gaussian 16:  ES64L-G16RevC.01  3-Jul-2019

 ----------------------------------------------------------------------
 #t hf aug-cc-pvdz iop(5/13=1,5/36=2,99/5=2) pseudo=read geom=check gue
 ss=(read,tcheck) scf=(maxcycle=1)
 ----------------------------------------------------------------------
 -----
 title
 -----
 Structure from the checkpoint file:  "Grambow2020_wb97xd3_009024_forward_mol1.chk"
 Charge =  0 Multiplicity = 1

                         Standard orientation:
 ---------------------------------------------------------------------
 Center     Atomic      Atomic             Coordinates (Angstroms)
 Number     Number       Type             X           Y           Z
 ---------------------------------------------------------------------
      1          6           0       -2.080103   -0.309525   -0.398558
      2          6           0       -0.706729    0.019001    0.088412
      3          8           0        0.101539   -1.233434    0.245145
      4          6           0        1.312962   -0.886716    0.196062
      5          6           0        1.612074    0.405348   -0.462280
      6          6           0        0.262743    1.072320   -0.385999
      7          6           0       -0.224452    1.028468    1.032842
      8          1           0       -2.636609   -0.860102    0.362121
      9          1           0       -2.610959    0.622331   -0.591283
     10          1           0       -2.072275   -0.895435   -1.320228
     11          1           0        2.042929   -1.667124    0.400321
     12          1           0        2.375362    0.972019    0.070267
     13          1           0        2.012690    0.161589   -1.463369
     14          1           0       -0.023146    1.781470   -1.158837
     15          1           0       -0.959275    1.779347    1.316984
 ---------------------------------------------------------------------

 SCF Done:  E(RHF) =  -306.663142050     A.U. after    2 cycles

 The electronic state is 1-A.
 Alpha  occ. eigenvalues --  -20.67554 -11.41886 -11.28961 -11.26947 -11.23043
 Alpha  occ. eigenvalues --  -11.22759 -11.15109  -1.46719  -1.13574  -1.06618
 Alpha  occ. eigenvalues --   -0.95693  -0.89317  -0.79949  -0.77228  -0.72899
 Alpha  occ. eigenvalues --   -0.67450  -0.63503  -0.59946  -0.58713  -0.57038
 Alpha  occ. eigenvalues --   -0.56524  -0.54102  -0.52180  -0.39845  -0.38985
 Alpha  occ. eigenvalues --   -0.25685
 Alpha virt. eigenvalues --    0.02443   0.03760   0.04332   0.04811   0.05157
 Alpha virt. eigenvalues --    0.06076   0.06583   0.07294   0.07588   0.10570
 Alpha virt. eigenvalues --    0.11196   0.11800   0.12692   0.13396   0.13868

 Mulliken charges:
               1
     1  C    0.504227
     2  C   -0.132675
     3  O   -0.505735
     4  C    0.635094
     5  C    0.257651
     6  C    0.523684
     7  C   -0.310538
     8  H    0.037008
     9  H    0.043719
    10  H    0.015926
    11  H   -0.270327
    12  H    0.012146
    13  H   -0.016709
    14  H   -0.417401
    15  H   -0.376071
 Sum of Mulliken charges =  -0.00000

 Dipole moment (field-independent basis, Debye):
    X=              2.4635    Y=             -2.3225    Z=             -3.4156  Tot=              4.8093

 Test job not archived.
 1\1\GINC-SE138\SP\RHF\Aug-CC-pVDZ\C6H8O1\OHZDE\09-Apr-2025\0\\#t hf au
 g-cc-pvdz iop(5/13=1,5/36=2,99/5=2) pseudo=read geom=check guess=(read
 ,tcheck) scf=(maxcycle=1)\\title\\0,1\C,0,2.00933136,0.26219791,-0.232
 73556\C,0,0.56992752,0.26937287,0.16637559\O,0,-0.19405329,1.25503643,
 -0.66504281\C,0,-1.40277079,0.89800989,-0.62377591\C,0,-1.6704163,-0.5
 156338,-0.27407644\C,0,-0.37497738,-0.88187258,0.4034708\C,0,-0.078977
 28,0.13019569,1.47141018\H,0,2.48443529,1.21089236,0.02362729\H,0,2.51
 803936,-0.52620705,0.32128794\H,0,2.15065509,0.07615653,-1.29962034\H,

 Normal termination of Gaussian 16 at Wed Apr  9 16:52:26 2025.
