 Gaussian 16, Revision C.01,

 ----------------------------------------------------------------------
 #t hf aug-cc-pvdz symm=none int=(grid=ultrafine) guess=(read,tcheck) s
 table=(opt,rrhf)
 ----------------------------------------------------------------------
 -----
 title
 -----
 Symbolic Z-matrix:
 Charge =  0 Multiplicity = 1

 SCF Done:  E(RHF) =  -317.615447046     A.U. after   16 cycles
 Normal termination of Gaussian 16 at Wed Apr  9 16:11:48 2025.
 Gaussian 16:  ES64L-G16RevC.01  3-Jul-2019

 ----------------------------------------------------------------------
 #t hf aug-cc-pvdz iop(5/13=1,5/36=2,99/5=2) pseudo=read geom=check gue
 ss=(read,tcheck) scf=(maxcycle=1)
 ----------------------------------------------------------------------
 -----
 title
 -----
 Structure from the checkpoint file:  "Grambow2020_wb97xd3_007985_reverse_mol2.chk"
 Charge =  0 Multiplicity = 1

                         Standard orientation:
 ---------------------------------------------------------------------
 Center     Atomic      Atomic             Coordinates (Angstroms)
 Number     Number       Type             X           Y           Z
 ---------------------------------------------------------------------
      1          7           0       -2.356063   -0.563379    0.288676
      2          6           0       -1.462144   -0.151166   -0.604074
      3          7           0       -0.778979    0.905543   -0.313846
      4          6           0        0.363248    1.264911    0.095524
      5          6           0        1.412116    0.305042    0.518387
      6          6           0        1.277898   -1.101437    0.208714
      7          7           0        2.050313   -0.540487   -0.588138
      8          1           0       -2.977165   -1.311567    0.046184
      9          1           0       -2.512147   -0.099390    1.174681
     10          1           0        0.605081    2.325460    0.087534
     11          1           0        2.097747    0.641060    1.290520
     12          1           0        0.832881   -2.071397    0.382924
 ---------------------------------------------------------------------

 SCF Done:  E(RHF) =  -317.708510088     A.U. after    2 cycles

 The electronic state is 1-A.
 Alpha  occ. eigenvalues --  -15.66643 -15.65983 -15.65530 -11.31342 -11.30383
 Alpha  occ. eigenvalues --  -11.29688 -11.29122  -1.30468  -1.25995  -1.17100
 Alpha  occ. eigenvalues --   -0.98229  -0.88188  -0.80545  -0.75835  -0.72116
 Alpha  occ. eigenvalues --   -0.69179  -0.68542  -0.63230  -0.56017  -0.52164
 Alpha  occ. eigenvalues --   -0.50484  -0.45097  -0.41919  -0.39213  -0.31894
 Alpha virt. eigenvalues --    0.02632   0.03363   0.04103   0.05360   0.06041
 Alpha virt. eigenvalues --    0.08614   0.10146   0.10219   0.10670   0.11851
 Alpha virt. eigenvalues --    0.12459   0.13747   0.13949   0.14194   0.15169

 Mulliken charges:
               1
     1  N    0.009150
     2  C   -0.011357
     3  N   -0.209817
     4  C    0.463176
     5  C    0.628523
     6  C    0.471878
     7  N   -0.579814
     8  H    0.015403
     9  H   -0.045536
    10  H   -0.277511
    11  H   -0.287306
    12  H   -0.176791
 Sum of Mulliken charges =  -0.00000

 Dipole moment (field-independent basis, Debye):
    X=             -1.3961    Y=             -0.7567    Z=              4.1879  Tot=              4.4788

 Test job not archived.
 1\1\GINC-SE100\SP\RHF\Aug-CC-pVDZ\C4H5N3\OHZDE\09-Apr-2025\0\\#t hf au
 g-cc-pvdz iop(5/13=1,5/36=2,99/5=2) pseudo=read geom=check guess=(read
 ,tcheck) scf=(maxcycle=1)\\title\\0,1\N,0,2.26249418,-0.35614313,0.188
 49603\C,0,1.30479489,-0.51485515,-0.71904756\N,0,0.2559887,-1.17906178
 ,-0.36349906\C,0,-0.94731802,-1.01420556,-0.00813127\C,0,-1.55133584,0
 .32218351,0.21438707\C,0,-0.87112818,1.51303912,-0.24525958\N,0,-1.777
 65859,1.18528683,-1.03078043\H,0,3.13264299,0.05650963,-0.08883628\H,0
 ,2.19992326,-0.71696799,1.13218122\H,0,-1.58271553,-1.89188446,0.08809

 Normal termination of Gaussian 16 at Wed Apr  9 16:11:53 2025.
