 Gaussian 16, Revision C.01,

 ----------------------------------------------------------------------
 #t hf aug-cc-pvdz symm=none int=(grid=ultrafine) guess=(read,tcheck) s
 table=(opt,rrhf)
 ----------------------------------------------------------------------
 -----
 title
 -----
 Symbolic Z-matrix:
 Charge =  0 Multiplicity = 1

 SCF Done:  E(RHF) =  -308.836928981     A.U. after   16 cycles

 1\1\GINC-SE219\Stability\RHF\Aug-CC-pVDZ\C6H12O1\OHZDE\09-Apr-2025\0\\
 #t hf aug-cc-pvdz symm=none int=(grid=ultrafine) guess=(read,tcheck) s
 table=(opt,rrhf)\\title\\0,1\C,0,2.8005515,0.9454214,-0.04070638\C,0,1
 .74395108,-0.13548429,-0.16128275\O,0,0.63513984,0.13985637,0.67218799
 \C,0,-0.94635833,-1.04721298,0.2897068\C,0,-2.17247023,-0.83358418,1.0
 5536893\C,0,-2.1038342,-0.58570939,-0.43675234\C,0,-1.49579926,0.76368
 089,-0.66303629\H,0,3.1285792,1.04416553,0.99474091\H,0,2.4005041,1.90
 698373,-0.36642763\H,0,3.66701536,0.70619699,-0.66139492\H,0,2.1555872

 Normal termination of Gaussian 16 at Wed Apr  9 17:15:58 2025.
 Gaussian 16:  ES64L-G16RevC.01  3-Jul-2019

 ----------------------------------------------------------------------
 #t hf aug-cc-pvdz iop(5/13=1,5/36=2,99/5=2) pseudo=read geom=check gue
 ss=(read,tcheck) scf=(maxcycle=1)
 ----------------------------------------------------------------------
 -----
 title
 -----
 Structure from the checkpoint file:  "Grambow2020_wb97xd3_009428_forward_mol1.chk"
 Charge =  0 Multiplicity = 1

                         Standard orientation:
 ---------------------------------------------------------------------
 Center     Atomic      Atomic             Coordinates (Angstroms)
 Number     Number       Type             X           Y           Z
 ---------------------------------------------------------------------
      1          6           0       -3.076104    0.186926   -0.176877
      2          6           0       -1.792181   -0.292935    0.471641
      3          8           0       -0.748445   -0.394437   -0.477180
      4          6           0        1.057717   -0.667627    0.371177
      5          6           0        2.227105   -0.744567   -0.501656
      6          6           0        2.030851    0.391459    0.479929
      7          6           0        1.098933    1.389509   -0.134229
      8          1           0       -3.370350   -0.485598   -0.983496
      9          1           0       -2.941094    1.185512   -0.595606
     10          1           0       -3.884370    0.228812    0.556739
     11          1           0       -1.937849   -1.284682    0.912048
     12          1           0       -1.494931    0.390587    1.280539
     13          1           0        0.605304   -1.391133    1.029033
     14          1           0        2.158048   -0.549068   -1.564322
     15          1           0        2.916462   -1.540022   -0.230067
     16          1           0        2.716809    0.557629    1.305924
     17          1           0        0.654591    2.049212    0.607587
     18          1           0        1.468759    1.894883   -1.025567
     19          1           0       -0.181751    0.522773   -0.535277
 ---------------------------------------------------------------------

 SCF Done:  E(RHF) =  -308.935657486     A.U. after    2 cycles

 The electronic state is 1-A.
 Alpha  occ. eigenvalues --  -20.55695 -11.35055 -11.28053 -11.26244 -11.25662
 Alpha  occ. eigenvalues --  -11.22058 -11.17780  -1.30531  -1.18941  -1.00061
 Alpha  occ. eigenvalues --   -0.91691  -0.83973  -0.83233  -0.77950  -0.70940
 Alpha  occ. eigenvalues --   -0.68707  -0.64042  -0.61220  -0.57618  -0.56727
 Alpha  occ. eigenvalues --   -0.54919  -0.52504  -0.51484  -0.48094  -0.46721
 Alpha  occ. eigenvalues --   -0.43696  -0.43040  -0.28609
 Alpha virt. eigenvalues --    0.03033   0.04183   0.04447   0.04599   0.05966
 Alpha virt. eigenvalues --    0.06134   0.06232   0.07093   0.07465   0.08882
 Alpha virt. eigenvalues --    0.09106   0.09685   0.10795   0.12099   0.13196

 Mulliken charges:
               1
     1  C    0.286715
     2  C    0.589329
     3  O   -0.806837
     4  C    0.619461
     5  C    0.689529
     6  C    0.391593
     7  C    0.142441
     8  H   -0.018963
     9  H   -0.084116
    10  H   -0.022231
    11  H   -0.315580
    12  H   -0.110144
    13  H   -0.499907
    14  H   -0.302951
    15  H   -0.286924
    16  H   -0.372326
    17  H   -0.248521
    18  H   -0.295920
    19  H    0.645354
 Sum of Mulliken charges =  -0.00000

 Dipole moment (field-independent basis, Debye):
    X=              0.6784    Y=             -1.7680    Z=              1.9381  Tot=              2.7096

 Test job not archived.
 1\1\GINC-SE219\SP\RHF\Aug-CC-pVDZ\C6H12O1\OHZDE\09-Apr-2025\0\\#t hf a
 ug-cc-pvdz iop(5/13=1,5/36=2,99/5=2) pseudo=read geom=check guess=(rea
 d,tcheck) scf=(maxcycle=1)\\title\\0,1\C,0,2.8005515,0.9454214,-0.0407
 0638\C,0,1.74395108,-0.13548429,-0.16128275\O,0,0.63513984,0.13985637,
 0.67218799\C,0,-0.94635833,-1.04721298,0.2897068\C,0,-2.17247023,-0.83
 358418,1.05536893\C,0,-2.1038342,-0.58570939,-0.43675234\C,0,-1.495799
 26,0.76368089,-0.66303629\H,0,3.1285792,1.04416553,0.99474091\H,0,2.40
 05041,1.90698373,-0.36642763\H,0,3.66701536,0.70619699,-0.66139492\H,0

 Normal termination of Gaussian 16 at Wed Apr  9 17:16:05 2025.
