 Gaussian 16, Revision C.01,

 ----------------------------------------------------------------------
 #t hf aug-cc-pvdz symm=none int=(grid=ultrafine) guess=(read,tcheck) s
 table=(opt,rrhf)
 ----------------------------------------------------------------------
 -----
 title
 -----
 Symbolic Z-matrix:
 Charge =  0 Multiplicity = 1

 SCF Done:  E(RHF) =  -302.752426822     A.U. after   16 cycles
 Normal termination of Gaussian 16 at Wed Apr  9 16:48:43 2025.
 Gaussian 16:  ES64L-G16RevC.01  3-Jul-2019

 ----------------------------------------------------------------------
 #t hf aug-cc-pvdz iop(5/13=1,5/36=2,99/5=2) pseudo=read geom=check gue
 ss=(read,tcheck) scf=(maxcycle=1)
 ----------------------------------------------------------------------
 -----
 title
 -----
 Structure from the checkpoint file:  "Grambow2020_wb97xd3_008907_reverse_mol1.chk"
 Charge =  0 Multiplicity = 1

                         Standard orientation:
 ---------------------------------------------------------------------
 Center     Atomic      Atomic             Coordinates (Angstroms)
 Number     Number       Type             X           Y           Z
 ---------------------------------------------------------------------
      1          6           0        1.085712    1.718440    0.250136
      2          7           0        0.255049    0.613699   -0.300301
      3          6           0       -1.105830    1.003073   -0.106132
      4          6           0       -1.808449   -0.229720    0.132541
      5          6           0       -0.918208   -1.265045    0.094938
      6          6           0        0.373189   -0.689482   -0.131960
      7          7           0        1.578444   -1.292057   -0.090311
      8          1           0        1.557630    1.376701    1.176848
      9          1           0        1.829929    2.070663   -0.466118
     10          1           0       -0.522347    1.922958    0.610182
     11          1           0       -1.498328    1.651365   -0.891848
     12          1           0       -2.876570   -0.319539    0.269757
     13          1           0       -1.113258   -2.313209    0.266172
     14          1           0        2.376089   -0.677326   -0.024537
     15          1           0        1.653923   -2.186703    0.356690
 ---------------------------------------------------------------------

 SCF Done:  E(RHF) =  -302.843178030     A.U. after    2 cycles

 The electronic state is 1-A.
 Alpha  occ. eigenvalues --  -15.67038 -15.65302 -11.36012 -11.28190 -11.25576
 Alpha  occ. eigenvalues --  -11.24596 -11.18764  -1.30306  -1.19840  -1.07486
 Alpha  occ. eigenvalues --   -0.97341  -0.87742  -0.82494  -0.78038  -0.71632
 Alpha  occ. eigenvalues --   -0.70310  -0.64792  -0.62281  -0.57872  -0.55870
 Alpha  occ. eigenvalues --   -0.53316  -0.51014  -0.48652  -0.38640  -0.36244
 Alpha  occ. eigenvalues --   -0.25534
 Alpha virt. eigenvalues --    0.02302   0.03329   0.04487   0.05469   0.06386
 Alpha virt. eigenvalues --    0.06502   0.07715   0.08370   0.09105   0.10525
 Alpha virt. eigenvalues --    0.11280   0.12297   0.12953   0.13975   0.14511

 Mulliken charges:
               1
     1  C    0.329924
     2  N   -0.557983
     3  C    0.526770
     4  C    0.017373
     5  C    0.862231
     6  C    0.211421
     7  N   -0.231095
     8  H   -0.324818
     9  H   -0.354677
    10  H    0.299287
    11  H   -0.175503
    12  H   -0.219238
    13  H   -0.366863
    14  H    0.009476
    15  H   -0.026306
 Sum of Mulliken charges =  -0.00000

 Dipole moment (field-independent basis, Debye):
    X=             -0.5963    Y=             -4.7962    Z=              0.1902  Tot=              4.8368

 Test job not archived.
 1\1\GINC-SE057\SP\RHF\Aug-CC-pVDZ\C5H8N2\OHZDE\09-Apr-2025\0\\#t hf au
 g-cc-pvdz iop(5/13=1,5/36=2,99/5=2) pseudo=read geom=check guess=(read
 ,tcheck) scf=(maxcycle=1)\\title\\0,1\C,0,-1.37792766,-1.25092659,0.51
 408438\N,0,-0.26476359,-0.58079302,-0.21063828\C,0,0.94386789,-1.10455
 812,0.34270034\C,0,1.87700251,-0.01083227,0.2840442\C,0,1.25313458,1.0
 795276,-0.25237397\C,0,-0.10276879,0.69490768,-0.50546143\N,0,-1.13795
 315,1.47189101,-0.88250444\H,0,-1.85741142,-0.52212978,1.17532458\H,0,
 -2.1008914,-1.70207476,-0.16762542\H,0,0.09392069,-1.58854809,1.204727

 Normal termination of Gaussian 16 at Wed Apr  9 16:48:58 2025.
