 Gaussian 16, Revision C.01,

 ----------------------------------------------------------------------
 #t hf aug-cc-pvdz symm=none int=(grid=ultrafine) guess=(read,tcheck) s
 table=(opt,rrhf)
 ----------------------------------------------------------------------
 -----
 title
 -----
 Symbolic Z-matrix:
 Charge =  0 Multiplicity = 1

 SCF Done:  E(RHF) =  -270.639508615     A.U. after   16 cycles
 Normal termination of Gaussian 16 at Wed Apr  9 03:52:52 2025.
 Gaussian 16:  ES64L-G16RevC.01  3-Jul-2019

 ----------------------------------------------------------------------
 #t hf aug-cc-pvdz iop(5/13=1,5/36=2,99/5=2) pseudo=read geom=check gue
 ss=(read,tcheck) scf=(maxcycle=1)
 ----------------------------------------------------------------------
 -----
 title
 -----
 Structure from the checkpoint file:  "Grambow2020_wb97xd3_008386_reverse_mol1.chk"
 Charge =  0 Multiplicity = 1

                         Standard orientation:
 ---------------------------------------------------------------------
 Center     Atomic      Atomic             Coordinates (Angstroms)
 Number     Number       Type             X           Y           Z
 ---------------------------------------------------------------------
      1          6           0        1.909111    0.361842   -0.140104
      2          6           0        0.357816    0.673327    0.777687
      3          6           0       -0.332470   -0.625855    1.217845
      4          6           0       -0.843820   -0.943220   -0.177038
      5          6           0        0.556917   -0.851806   -0.807148
      6          6           0       -1.504821    0.362331   -0.562268
      7          6           0       -0.705532    1.310135   -0.071852
      8          1           0        2.379412   -0.130183   -1.016462
      9          1           0        2.037138    1.418055   -0.370214
     10          1           0        2.521001    0.072692    0.709106
     11          1           0       -1.105980   -0.405711    1.956027
     12          1           0        0.359851   -1.368732    1.620984
     13          1           0       -1.400439   -1.861338   -0.403000
     14          1           0        0.584927   -0.538263   -1.848507
     15          1           0        1.159610   -1.745401   -0.644187
     16          1           0       -2.385858    0.460678   -1.184771
     17          1           0       -0.772869    2.377678   -0.241711
 ---------------------------------------------------------------------

 SCF Done:  E(RHF) =  -270.717674536     A.U. after    2 cycles

 The electronic state is 1-A.
 Alpha  occ. eigenvalues --  -11.30194 -11.26317 -11.24985 -11.23819 -11.22783
 Alpha  occ. eigenvalues --  -11.22422 -11.22378  -1.16801  -0.99978  -0.95981
 Alpha  occ. eigenvalues --   -0.93605  -0.84190  -0.75852  -0.70937  -0.65807
 Alpha  occ. eigenvalues --   -0.64842  -0.61123  -0.56566  -0.55296  -0.53556
 Alpha  occ. eigenvalues --   -0.49588  -0.48475  -0.46128  -0.45995  -0.35058
 Alpha  occ. eigenvalues --   -0.26969
 Alpha virt. eigenvalues --    0.03001   0.04149   0.04239   0.04557   0.05984
 Alpha virt. eigenvalues --    0.06162   0.06593   0.06856   0.07974   0.09069
 Alpha virt. eigenvalues --    0.09652   0.11802   0.12085   0.13103   0.14041

 Mulliken charges:
               1
     1  C    0.695056
     2  C   -0.969035
     3  C    0.847353
     4  C    0.281972
     5  C    0.500527
     6  C    0.272284
     7  C    0.804774
     8  H   -0.315464
     9  H   -0.091338
    10  H   -0.078625
    11  H   -0.188432
    12  H   -0.204135
    13  H   -0.323167
    14  H   -0.289272
    15  H   -0.233267
    16  H   -0.354148
    17  H   -0.355083
 Sum of Mulliken charges =  -0.00000

 Dipole moment (field-independent basis, Debye):
    X=             -0.1305    Y=             -1.9252    Z=             -2.1163  Tot=              2.8639

 Test job not archived.
 1\1\GINC-SE456\SP\RHF\Aug-CC-pVDZ\C7H10\OHZDE\09-Apr-2025\0\\#t hf aug
 -cc-pvdz iop(5/13=1,5/36=2,99/5=2) pseudo=read geom=check guess=(read,
 tcheck) scf=(maxcycle=1)\\title\\0,1\C,0,1.75365615,-0.21695099,-0.355
 44454\C,0,0.56587506,0.27873438,0.94430576\C,0,-0.55323984,-0.75459706
 ,1.1390197\C,0,-1.2819646,-0.35122255,-0.13147217\C,0,-0.03642844,-0.5
 4727415,-1.01332432\C,0,-1.37872086,1.14939135,0.03759685\C,0,-0.21618
 383,1.50963362,0.58205843\H,0,1.89188252,-0.49836911,-1.4198569\H,0,2.
 28350403,0.73203454,-0.29532723\H,0,2.27036248,-0.98646994,0.21026657\

 Normal termination of Gaussian 16 at Wed Apr  9 03:52:58 2025.
