 Gaussian 16, Revision C.01,

 ----------------------------------------------------------------------
 #t hf aug-cc-pvdz symm=none int=(grid=ultrafine) guess=(read,tcheck) s
 table=(opt,rrhf)
 ----------------------------------------------------------------------
 -----
 title
 -----
 Symbolic Z-matrix:
 Charge =  0 Multiplicity = 1

 SCF Done:  E(RHF) =  -281.659561675     A.U. after   14 cycles
 Normal termination of Gaussian 16 at Wed Apr  9 03:06:34 2025.
 Gaussian 16:  ES64L-G16RevC.01  3-Jul-2019

 ----------------------------------------------------------------------
 #t hf aug-cc-pvdz iop(5/13=1,5/36=2,99/5=2) pseudo=read geom=check gue
 ss=(read,tcheck) scf=(maxcycle=1)
 ----------------------------------------------------------------------
 -----
 title
 -----
 Structure from the checkpoint file:  "Grambow2020_b97d3_006582_reverse_mol2.chk"
 Charge =  0 Multiplicity = 1

                         Standard orientation:
 ---------------------------------------------------------------------
 Center     Atomic      Atomic             Coordinates (Angstroms)
 Number     Number       Type             X           Y           Z
 ---------------------------------------------------------------------
      1          8           0        2.300636   -0.275432   -0.000662
      2          6           0        1.269878    0.367002    0.000043
      3          7           0       -0.006445   -0.218484    0.001230
      4          6           0       -1.125840    0.559296    0.000050
      5          8           0       -2.177170   -0.289672   -0.000602
      6          1           0        1.199013    1.470970    0.000258
      7          1           0       -0.029932   -1.249084    0.001186
      8          1           0       -2.975919    0.270551   -0.000501
 ---------------------------------------------------------------------

 SCF Done:  E(RHF) =  -281.748091835     A.U. after    2 cycles

 The electronic state is 1-A.
 Alpha  occ. eigenvalues --  -20.64808 -20.58105 -15.69585 -11.39502 -11.35813
 Alpha  occ. eigenvalues --   -1.41376  -1.37669  -1.22987  -0.93106  -0.84855
 Alpha  occ. eigenvalues --   -0.74870  -0.71412  -0.67996  -0.65345  -0.63968
 Alpha  occ. eigenvalues --   -0.58554  -0.47886  -0.46238  -0.41503
 Alpha virt. eigenvalues --    0.02976   0.04593   0.04943   0.07581   0.09970
 Alpha virt. eigenvalues --    0.10096   0.11582   0.12478   0.13998   0.14401
 Alpha virt. eigenvalues --    0.16860   0.16879   0.18373   0.18957   0.20549

 Mulliken charges:
               1
     1  O   -0.433400
     2  C    0.869048
     3  N   -0.285113
     4  C    0.265277
     5  O   -0.503489
     6  H   -0.097487
     7  H   -0.056733
     8  H    0.241898
 Sum of Mulliken charges =  -0.00000

 Dipole moment (field-independent basis, Debye):
    X=             -3.3699    Y=              0.5470    Z=              0.0023  Tot=              3.4140

 Test job not archived.
 1\1\GINC-SE049\SP\RHF\Aug-CC-pVDZ\C2H3N1O2\OHZDE\09-Apr-2025\0\\#t hf
 aug-cc-pvdz iop(5/13=1,5/36=2,99/5=2) pseudo=read geom=check guess=(re
 ad,tcheck) scf=(maxcycle=1)\\title\\0,1\O,0,-2.47589818,0.39414869,0.2
 0227681\C,0,-1.45951709,-0.07267747,-0.27124924\N,0,-0.17676025,0.1968
 4893,0.23242339\C,0,0.92575926,-0.35776732,-0.34623026\O,0,1.98895175,
 0.09065004,0.35703717\H,0,-1.4082703,-0.75554185,-1.14006317\H,0,-0.13
 523519,0.82795743,1.04646551\H,0,2.775497,-0.30905446,-0.0594162\\Vers
 ion=ES64L-G16RevC.01\State=1-A\HF=-281.7480918\RMSD=2.307e-03\Dipole=1

 Normal termination of Gaussian 16 at Wed Apr  9 03:06:36 2025.
