 Gaussian 16, Revision C.01,

 ----------------------------------------------------------------------
 #t hf aug-cc-pvdz symm=none int=(grid=ultrafine) guess=(read,tcheck) s
 table=(opt,rrhf)
 ----------------------------------------------------------------------
 -----
 title
 -----
 Symbolic Z-matrix:
 Charge =  0 Multiplicity = 1

 SCF Done:  E(RHF) =  -306.653876647     A.U. after   14 cycles
 Normal termination of Gaussian 16 at Wed Apr  9 15:42:58 2025.
 Gaussian 16:  ES64L-G16RevC.01  3-Jul-2019

 ----------------------------------------------------------------------
 #t hf aug-cc-pvdz iop(5/13=1,5/36=2,99/5=2) pseudo=read geom=check gue
 ss=(read,tcheck) scf=(maxcycle=1)
 ----------------------------------------------------------------------
 -----
 title
 -----
 Structure from the checkpoint file:  "Grambow2020_wb97xd3_007307_reverse_mol2.chk"
 Charge =  0 Multiplicity = 1

                         Standard orientation:
 ---------------------------------------------------------------------
 Center     Atomic      Atomic             Coordinates (Angstroms)
 Number     Number       Type             X           Y           Z
 ---------------------------------------------------------------------
      1          6           0       -2.302032   -1.758332   -0.133556
      2          6           0       -2.396750   -0.477686    0.183934
      3          6           0        0.175165    1.604055   -0.030382
      4          8           0       -0.504380    2.547299   -0.041390
      5          6           0        1.090484    0.692892   -0.007610
      6          6           0        1.348717   -0.605022   -0.019198
      7          6           0        2.712390   -1.201345    0.032964
      8          1           0        0.517953   -1.312550   -0.068191
      9          1           0       -2.361397   -2.094766   -1.162657
     10          1           0       -2.168425   -2.524297    0.622399
     11          1           0       -2.342541   -0.140132    1.212901
     12          1           0       -2.538218    0.289614   -0.568434
     13          1           0        3.483764   -0.435500    0.077902
     14          1           0        2.797675   -1.855830    0.905328
     15          1           0        2.878379   -1.832302   -0.845038
 ---------------------------------------------------------------------

 SCF Done:  E(RHF) =  -306.754569719     A.U. after    2 cycles

 The electronic state is 1-A.
 Alpha  occ. eigenvalues --  -20.62809 -11.38717 -11.30841 -11.25225 -11.24674
 Alpha  occ. eigenvalues --  -11.24493 -11.23458  -1.42528  -1.09852  -1.03704
 Alpha  occ. eigenvalues --   -1.00174  -0.87095  -0.79778  -0.73866  -0.69790
 Alpha  occ. eigenvalues --   -0.65336  -0.64815  -0.62448  -0.59900  -0.59061
 Alpha  occ. eigenvalues --   -0.59033  -0.55183  -0.51201  -0.39471  -0.38870
 Alpha  occ. eigenvalues --   -0.34956
 Alpha virt. eigenvalues --    0.02830   0.04436   0.04459   0.05033   0.05168
 Alpha virt. eigenvalues --    0.06298   0.06514   0.07282   0.07459   0.09340
 Alpha virt. eigenvalues --    0.10192   0.11873   0.12586   0.13433   0.13792

 Mulliken charges:
               1
     1  C    0.618793
     2  C    0.585096
     3  C   -0.630806
     4  O   -0.256530
     5  C    0.382892
     6  C    0.574575
     7  C    0.190062
     8  H   -0.303474
     9  H   -0.299961
    10  H   -0.317829
    11  H   -0.294646
    12  H   -0.286807
    13  H   -0.091429
    14  H    0.063576
    15  H    0.066488
 Sum of Mulliken charges =  -0.00000

 Dipole moment (field-independent basis, Debye):
    X=              1.2244    Y=             -3.7272    Z=              0.0033  Tot=              3.9232

 Test job not archived.
 1\1\GINC-SE026\SP\RHF\Aug-CC-pVDZ\C6H8O1\OHZDE\09-Apr-2025\0\\#t hf au
 g-cc-pvdz iop(5/13=1,5/36=2,99/5=2) pseudo=read geom=check guess=(read
 ,tcheck) scf=(maxcycle=1)\\title\\0,1\C,0,-2.29389396,-0.94751794,-0.6
 367658\C,0,-2.38408912,0.25506028,-0.09317062\C,0,0.28027127,2.1181716
 8,0.55823123\O,0,-0.33895919,3.10038665,0.61671317\C,0,1.1302308,1.145
 48852,0.55831573\C,0,1.32309146,-0.14455894,0.33475266\C,0,2.62276964,
 -0.85192418,0.50326873\H,0,0.48278439,-0.75873508,0.00333591\H,0,-2.17
 677623,-1.08046851,-1.70651747\H,0,-2.34055485,-1.84918326,-0.03606447

 Normal termination of Gaussian 16 at Wed Apr  9 15:43:03 2025.
