 Gaussian 16, Revision C.01,

 ----------------------------------------------------------------------
 #t hf aug-cc-pvdz symm=none int=(grid=ultrafine) guess=(read,tcheck) s
 table=(opt,rrhf)
 ----------------------------------------------------------------------
 -----
 title
 -----
 Symbolic Z-matrix:
 Charge =  0 Multiplicity = 1

 SCF Done:  E(RHF) =  -339.281157287     A.U. after   17 cycles
 Normal termination of Gaussian 16 at Wed Apr  9 14:11:55 2025.
 Gaussian 16:  ES64L-G16RevC.01  3-Jul-2019

 ----------------------------------------------------------------------
 #t hf aug-cc-pvdz iop(5/13=1,5/36=2,99/5=2) pseudo=read geom=check gue
 ss=(read,tcheck) scf=(maxcycle=1)
 ----------------------------------------------------------------------
 -----
 title
 -----
 Structure from the checkpoint file:  "Grambow2020_b97d3_006812_reverse_mol2.chk"
 Charge =  0 Multiplicity = 1

                         Standard orientation:
 ---------------------------------------------------------------------
 Center     Atomic      Atomic             Coordinates (Angstroms)
 Number     Number       Type             X           Y           Z
 ---------------------------------------------------------------------
      1          8           0       -1.840994   -0.778300   -0.330946
      2          6           0       -0.987221   -0.317298    0.544785
      3          6           0        0.047923    0.588249    0.052538
      4          8           0       -0.193042    1.800799   -0.039562
      5          6           0        1.452873    0.016579   -0.090482
      6          8           0        1.688407   -1.174804    0.017346
      7          1           0       -2.538728   -1.285359    0.144821
      8          1           0        2.222313    0.778619   -0.360574
 ---------------------------------------------------------------------

 SCF Done:  E(RHF) =  -339.384836308     A.U. after    2 cycles

 The electronic state is 1-A.
 Alpha  occ. eigenvalues --  -20.69219 -20.62844 -20.61109 -11.39028 -11.38326
 Alpha  occ. eigenvalues --  -11.36017  -1.44971  -1.40162  -1.37444  -1.02302
 Alpha  occ. eigenvalues --   -0.92955  -0.81402  -0.73974  -0.72911  -0.71940
 Alpha  occ. eigenvalues --   -0.67531  -0.63988  -0.60752  -0.55202  -0.54187
 Alpha  occ. eigenvalues --   -0.47654  -0.39274
 Alpha virt. eigenvalues --    0.01520   0.03129   0.04207   0.06652   0.08281
 Alpha virt. eigenvalues --    0.09625   0.10323   0.11131   0.12067   0.12428
 Alpha virt. eigenvalues --    0.13835   0.14386   0.14742   0.16054   0.18776

 Mulliken charges:
               1
     1  O   -0.392861
     2  C    0.172165
     3  C    0.311099
     4  O   -0.527255
     5  C    0.615064
     6  O   -0.404508
     7  H    0.274442
     8  H   -0.048145
 Sum of Mulliken charges =  -0.00000

 Dipole moment (field-independent basis, Debye):
    X=             -1.1983    Y=             -1.1230    Z=             -0.3823  Tot=              1.6862

 Test job not archived.
 1\1\GINC-SE054\SP\RHF\Aug-CC-pVDZ\C3H2O3\OHZDE\09-Apr-2025\0\\#t hf au
 g-cc-pvdz iop(5/13=1,5/36=2,99/5=2) pseudo=read geom=check guess=(read
 ,tcheck) scf=(maxcycle=1)\\title\\0,1\O,0,-1.50607403,0.56863773,1.175
 01942\C,0,-0.22234805,0.62797615,0.93652047\C,0,0.21040003,0.39877183,
 -0.43972066\O,0,0.23023271,1.34484034,-1.24058634\C,0,0.8473406,-0.950
 81725,-0.7464168\O,0,0.8403986,-1.87359609,0.0504063\H,0,-1.66711047,0
 .84275469,2.10734041\H,0,1.25990862,-1.0279194,-1.78059981\\Version=ES
 64L-G16RevC.01\State=1-A\HF=-339.3848363\RMSD=4.084e-03\Dipole=-0.4901

 Normal termination of Gaussian 16 at Wed Apr  9 14:11:58 2025.
