 Gaussian 16, Revision C.01,

 ----------------------------------------------------------------------
 #t hf aug-cc-pvdz symm=none int=(grid=ultrafine) guess=(read,tcheck) s
 table=(opt,rrhf)
 ----------------------------------------------------------------------
 -----
 title
 -----
 Symbolic Z-matrix:
 Charge =  0 Multiplicity = 1

 SCF Done:  E(RHF) =  -343.739987346     A.U. after   15 cycles
 Normal termination of Gaussian 16 at Wed Apr  9 16:01:03 2025.
 Gaussian 16:  ES64L-G16RevC.01  3-Jul-2019

 ----------------------------------------------------------------------
 #t hf aug-cc-pvdz iop(5/13=1,5/36=2,99/5=2) pseudo=read geom=check gue
 ss=(read,tcheck) scf=(maxcycle=1)
 ----------------------------------------------------------------------
 -----
 title
 -----
 Structure from the checkpoint file:  "Grambow2020_wb97xd3_007678_reverse_mol2.chk"
 Charge =  0 Multiplicity = 1

                         Standard orientation:
 ---------------------------------------------------------------------
 Center     Atomic      Atomic             Coordinates (Angstroms)
 Number     Number       Type             X           Y           Z
 ---------------------------------------------------------------------
      1          6           0        3.165024   -0.255136   -0.256671
      2          6           0        1.832371   -0.046662    0.385496
      3          6           0        0.700779    0.177218   -0.266119
      4          8           0       -1.311416    1.477903   -0.086610
      5          6           0       -0.635220    0.356727    0.399283
      6          6           0       -1.472093   -0.891718    0.198054
      7          8           0       -2.554198   -0.857746   -0.322094
      8          1           0        3.885390    0.486510    0.096761
      9          1           0        3.101340   -0.181281   -1.342676
     10          1           0        3.569798   -1.238260   -0.003392
     11          1           0        1.809011   -0.077457    1.473580
     12          1           0        0.687146    0.238477   -1.351699
     13          1           0       -0.478761    0.439576    1.486936
     14          1           0       -1.024896   -1.837436    0.555931
     15          1           0       -2.169284    1.166046   -0.406065
 ---------------------------------------------------------------------

 SCF Done:  E(RHF) =  -343.848782063     A.U. after    2 cycles

 The electronic state is 1-A.
 Alpha  occ. eigenvalues --  -20.59520 -20.57698 -11.35855 -11.31439 -11.25985
 Alpha  occ. eigenvalues --  -11.24990 -11.24435  -1.39300  -1.33323  -1.09595
 Alpha  occ. eigenvalues --   -1.01067  -0.92075  -0.81969  -0.77732  -0.74420
 Alpha  occ. eigenvalues --   -0.70011  -0.67025  -0.64275  -0.58839  -0.58364
 Alpha  occ. eigenvalues --   -0.57187  -0.55762  -0.54931  -0.52144  -0.47199
 Alpha  occ. eigenvalues --   -0.45893  -0.37552
 Alpha virt. eigenvalues --    0.03050   0.04059   0.04513   0.04939   0.06468
 Alpha virt. eigenvalues --    0.06612   0.06657   0.08166   0.08987   0.10068
 Alpha virt. eigenvalues --    0.12450   0.13155   0.13336   0.13753   0.14304

 Mulliken charges:
               1
     1  C    0.158566
     2  C    0.067827
     3  C    0.538910
     4  O   -0.618339
     5  C    0.632256
     6  C    0.579410
     7  O   -0.488377
     8  H    0.066585
     9  H   -0.119332
    10  H    0.066279
    11  H   -0.403620
    12  H   -0.433335
    13  H   -0.110958
    14  H   -0.134970
    15  H    0.199097
 Sum of Mulliken charges =   0.00000

 Dipole moment (field-independent basis, Debye):
    X=              2.9741    Y=             -1.6151    Z=              1.2962  Tot=              3.6240

 Test job not archived.
 1\1\GINC-SE026\SP\RHF\Aug-CC-pVDZ\C5H8O2\OHZDE\09-Apr-2025\0\\#t hf au
 g-cc-pvdz iop(5/13=1,5/36=2,99/5=2) pseudo=read geom=check guess=(read
 ,tcheck) scf=(maxcycle=1)\\title\\0,1\C,0,2.48280375,0.00936804,0.7254
 738\C,0,1.02859411,0.34839906,0.67926373\C,0,0.216506,0.07869211,-0.33
 216931\O,0,-1.63064027,1.04181451,-1.52940713\C,0,-1.25107796,0.404073
 3,-0.34636557\C,0,-2.05295338,-0.86832707,-0.15283071\O,0,-2.87871593,
 -1.2293382,-0.94683684\H,0,3.08566172,0.90895408,0.87103464\H,0,2.8091
 7548,-0.47734477,-0.19404129\H,0,2.70045956,-0.65881324,1.56254325\H,0

 Normal termination of Gaussian 16 at Wed Apr  9 16:01:09 2025.
