 Gaussian 16, Revision C.01,

 ----------------------------------------------------------------------
 #t hf aug-cc-pvdz symm=none int=(grid=ultrafine) guess=(read,tcheck) s
 table=(opt,rrhf)
 ----------------------------------------------------------------------
 -----
 title
 -----
 Symbolic Z-matrix:
 Charge =  0 Multiplicity = 1

 SCF Done:  E(RHF) =  -269.956442179     A.U. after   15 cycles

 1\1\GINC-SE435\Stability\RHF\Aug-CC-pVDZ\C5H10O1\OHZDE\09-Apr-2025\0\\
 #t hf aug-cc-pvdz symm=none int=(grid=ultrafine) guess=(read,tcheck) s
 table=(opt,rrhf)\\title\\0,1\C,0,-2.41310825,0.46956142,-0.16475045\C,
 0,-1.21161292,-0.46883876,0.00692351\C,0,0.11851806,0.29440835,0.09891
 131\C,0,1.30603125,-0.6461258,0.23871344\C,0,3.2370392,0.31141122,-0.7
 0487417\O,0,2.53694363,0.1390307,0.39686408\H,0,-3.35322075,-0.0960931
 4,-0.22523517\H,0,-2.49119556,1.16755514,0.68151387\H,0,-2.31722848,1.
 06590284,-1.08366513\H,0,-1.34659036,-1.07936744,0.9145049\H,0,-1.1700

 Normal termination of Gaussian 16 at Wed Apr  9 03:07:59 2025.
 Gaussian 16:  ES64L-G16RevC.01  3-Jul-2019

 ----------------------------------------------------------------------
 #t hf aug-cc-pvdz iop(5/13=1,5/36=2,99/5=2) pseudo=read geom=check gue
 ss=(read,tcheck) scf=(maxcycle=1)
 ----------------------------------------------------------------------
 -----
 title
 -----
 Structure from the checkpoint file:  "Grambow2020_b97d3_006644_reverse_mol2.chk"
 Charge =  0 Multiplicity = 1

                         Standard orientation:
 ---------------------------------------------------------------------
 Center     Atomic      Atomic             Coordinates (Angstroms)
 Number     Number       Type             X           Y           Z
 ---------------------------------------------------------------------
      1          6           0       -2.893398   -0.461898   -0.010908
      2          6           0       -1.686472    0.462203    0.196520
      3          6           0       -0.361879   -0.207260   -0.200377
      4          6           0        0.831223    0.706186    0.037238
      5          6           0        2.760059   -0.555908    0.509191
      6          8           0        2.056157    0.043356   -0.428403
      7          1           0       -3.829443    0.037113    0.275873
      8          1           0       -2.979949   -0.765499   -1.064375
      9          1           0       -2.797339   -1.374862    0.594476
     10          1           0       -1.821482    1.383846   -0.392559
     11          1           0       -1.636364    0.772312    1.252654
     12          1           0       -0.212531   -1.126606    0.387031
     13          1           0       -0.392241   -0.499929   -1.261295
     14          1           0        0.962299    0.936917    1.101916
     15          1           0        0.761238    1.629917   -0.551546
     16          1           0        3.599355   -0.999995   -0.104935
 ---------------------------------------------------------------------

 SCF Done:  E(RHF) =  -270.041638542     A.U. after    2 cycles

 The electronic state is 1-A.
 Alpha  occ. eigenvalues --  -20.63590 -11.30747 -11.30195 -11.24317 -11.24181
 Alpha  occ. eigenvalues --  -11.23326  -1.39250  -1.07829  -1.00011  -0.90438
 Alpha  occ. eigenvalues --   -0.81492  -0.79786  -0.69963  -0.64311  -0.63935
 Alpha  occ. eigenvalues --   -0.61052  -0.57556  -0.57121  -0.53577  -0.51147
 Alpha  occ. eigenvalues --   -0.48868  -0.47976  -0.47690  -0.36419
 Alpha virt. eigenvalues --    0.03443   0.04416   0.04520   0.04932   0.06045
 Alpha virt. eigenvalues --    0.06545   0.06701   0.07418   0.08668   0.09313
 Alpha virt. eigenvalues --    0.10396   0.10653   0.12166   0.13557   0.14639

 Mulliken charges:
               1
     1  C    0.370137
     2  C    0.189160
     3  C   -0.116154
     4  C    1.030768
     5  C    0.117074
     6  O   -0.574010
     7  H   -0.052182
     8  H   -0.057405
     9  H   -0.062719
    10  H   -0.124811
    11  H   -0.106858
    12  H   -0.124513
    13  H   -0.089980
    14  H   -0.095021
    15  H   -0.177011
    16  H   -0.126474
 Sum of Mulliken charges =  -0.00000

 Dipole moment (field-independent basis, Debye):
    X=             -1.6709    Y=              0.7568    Z=             -0.7799  Tot=              1.9932

 Test job not archived.
 1\1\GINC-SE435\SP\RHF\Aug-CC-pVDZ\C5H10O1\OHZDE\09-Apr-2025\0\\#t hf a
 ug-cc-pvdz iop(5/13=1,5/36=2,99/5=2) pseudo=read geom=check guess=(rea
 d,tcheck) scf=(maxcycle=1)\\title\\0,1\C,0,-2.41310825,0.46956142,-0.1
 6475045\C,0,-1.21161292,-0.46883876,0.00692351\C,0,0.11851806,0.294408
 35,0.09891131\C,0,1.30603125,-0.6461258,0.23871344\C,0,3.2370392,0.311
 41122,-0.70487417\O,0,2.53694363,0.1390307,0.39686408\H,0,-3.35322075,
 -0.09609314,-0.22523517\H,0,-2.49119556,1.16755514,0.68151387\H,0,-2.3
 1722848,1.06590284,-1.08366513\H,0,-1.34659036,-1.07936744,0.9145049\H

 Normal termination of Gaussian 16 at Wed Apr  9 03:08:03 2025.
