 Gaussian 16, Revision C.01,

 ----------------------------------------------------------------------
 #t hf aug-cc-pvdz symm=none int=(grid=ultrafine) guess=(read,tcheck) s
 table=(opt,rrhf)
 ----------------------------------------------------------------------
 -----
 title
 -----
 Symbolic Z-matrix:
 Charge =  0 Multiplicity = 1

 SCF Done:  E(RHF) =  -306.555902059     A.U. after   16 cycles
 Normal termination of Gaussian 16 at Wed Apr  9 16:22:13 2025.
 Gaussian 16:  ES64L-G16RevC.01  3-Jul-2019

 ----------------------------------------------------------------------
 #t hf aug-cc-pvdz iop(5/13=1,5/36=2,99/5=2) pseudo=read geom=check gue
 ss=(read,tcheck) scf=(maxcycle=1)
 ----------------------------------------------------------------------
 -----
 title
 -----
 Structure from the checkpoint file:  "Grambow2020_wb97xd3_008152_reverse_mol1.chk"
 Charge =  0 Multiplicity = 1

                         Standard orientation:
 ---------------------------------------------------------------------
 Center     Atomic      Atomic             Coordinates (Angstroms)
 Number     Number       Type             X           Y           Z
 ---------------------------------------------------------------------
      1          8           0        1.986104   -0.647772   -0.324377
      2          6           0        1.151663    0.048501    0.432606
      3          6           0        0.526012    1.299988   -0.098024
      4          6           0       -0.881412    0.854561    0.303697
      5          6           0       -1.479343   -0.026513   -0.823141
      6          6           0       -0.946760   -1.199268   -0.062967
      7          6           0       -0.518357   -0.471521    1.027612
      8          1           0        1.987543   -0.343184   -1.244135
      9          1           0        0.631294    1.523646   -1.171265
     10          1           0        0.894549    2.155455    0.473353
     11          1           0       -1.519310    1.598205    0.778675
     12          1           0       -2.572074    0.015334   -0.862391
     13          1           0       -1.096549    0.181573   -1.831995
     14          1           0       -0.886736   -2.253303   -0.300422
     15          1           0       -0.438366   -0.730039    2.074496
 ---------------------------------------------------------------------

 SCF Done:  E(RHF) =  -306.647089666     A.U. after    2 cycles

 The electronic state is 1-A.
 Alpha  occ. eigenvalues --  -20.61405 -11.30525 -11.25988 -11.25357 -11.23947
 Alpha  occ. eigenvalues --  -11.23819 -11.23084  -1.37985  -1.17196  -1.01037
 Alpha  occ. eigenvalues --   -0.91637  -0.85462  -0.81882  -0.72263  -0.70426
 Alpha  occ. eigenvalues --   -0.66102  -0.65218  -0.63529  -0.58138  -0.54211
 Alpha  occ. eigenvalues --   -0.52698  -0.48748  -0.46615  -0.44842  -0.42218
 Alpha  occ. eigenvalues --   -0.26614
 Alpha virt. eigenvalues --    0.03259   0.04060   0.04437   0.04713   0.05942
 Alpha virt. eigenvalues --    0.06555   0.06927   0.06978   0.09038   0.10794
 Alpha virt. eigenvalues --    0.12115   0.12751   0.13332   0.13934   0.14601

 Mulliken charges:
               1
     1  O   -0.457412
     2  C    0.194986
     3  C    0.472553
     4  C    0.128096
     5  C    0.407020
     6  C    0.485826
     7  C    0.156950
     8  H    0.173551
     9  H   -0.250640
    10  H   -0.085762
    11  H   -0.277008
    12  H   -0.105844
    13  H   -0.172187
    14  H   -0.348372
    15  H   -0.321756
 Sum of Mulliken charges =  -0.00000

 Dipole moment (field-independent basis, Debye):
    X=             -0.9655    Y=              1.4375    Z=             -1.6503  Tot=              2.3921

 Test job not archived.
 1\1\GINC-SE037\SP\RHF\Aug-CC-pVDZ\C6H8O1\OHZDE\09-Apr-2025\0\\#t hf au
 g-cc-pvdz iop(5/13=1,5/36=2,99/5=2) pseudo=read geom=check guess=(read
 ,tcheck) scf=(maxcycle=1)\\title\\0,1\O,0,2.17769074,0.84758716,0.0070
 6942\C,0,1.32533429,0.05069774,-0.61948242\C,0,0.76364487,-1.14530072,
 0.08288568\C,0,-0.67470638,-0.78032369,-0.28935523\C,0,-1.23836893,0.2
 106262,0.76130226\C,0,-0.77921094,1.30003648,-0.15478862\C,0,-0.387254
 48,0.46174866,-1.17760294\H,0,2.23526411,0.65058942,0.95396373\H,0,0.9
 3051454,-1.24200991,1.16720801\H,0,1.12627577,-2.05222801,-0.40711071\

 Normal termination of Gaussian 16 at Wed Apr  9 16:22:18 2025.
