 Gaussian 16, Revision C.01,

 ----------------------------------------------------------------------
 #t hf aug-cc-pvdz symm=none int=(grid=ultrafine) guess=(read,tcheck) s
 table=(opt,rrhf)
 ----------------------------------------------------------------------
 -----
 title
 -----
 Symbolic Z-matrix:
 Charge =  0 Multiplicity = 1

 SCF Done:  E(RHF) =  -318.698490643     A.U. after   16 cycles
 Normal termination of Gaussian 16 at Wed Apr  9 03:46:34 2025.
 Gaussian 16:  ES64L-G16RevC.01  3-Jul-2019

 ----------------------------------------------------------------------
 #t hf aug-cc-pvdz iop(5/13=1,5/36=2,99/5=2) pseudo=read geom=check gue
 ss=(read,tcheck) scf=(maxcycle=1)
 ----------------------------------------------------------------------
 -----
 title
 -----
 Structure from the checkpoint file:  "Grambow2020_wb97xd3_007952_reverse_mol1.chk"
 Charge =  0 Multiplicity = 1

                         Standard orientation:
 ---------------------------------------------------------------------
 Center     Atomic      Atomic             Coordinates (Angstroms)
 Number     Number       Type             X           Y           Z
 ---------------------------------------------------------------------
      1          6           0        2.329960   -0.738570   -0.458033
      2          6           0        1.695210    0.284391    0.455353
      3          6           0        0.004906    0.299526    0.185225
      4          6           0        0.405243    1.423379   -0.316099
      5          7           0       -2.425888    0.355530   -0.210014
      6          7           0       -1.955311   -0.766862   -0.009200
      7          7           0       -0.620765   -0.789446    0.393640
      8          1           0        3.337577   -0.966882   -0.104955
      9          1           0        1.750188   -1.660458   -0.464359
     10          1           0        2.396478   -0.354136   -1.475397
     11          1           0        1.609609   -0.034230    1.496172
     12          1           0        2.261415    1.217012    0.466786
     13          1           0        0.439663    2.387928    0.167367
     14          1           0       -3.393099    0.203847   -0.505275
 ---------------------------------------------------------------------

 SCF Done:  E(RHF) =  -318.791909920     A.U. after    2 cycles

 The electronic state is 1-A.
 Alpha  occ. eigenvalues --  -15.72799 -15.66843 -15.63788 -11.34614 -11.30546
 Alpha  occ. eigenvalues --  -11.28719 -11.24481  -1.35474  -1.19943  -1.10620
 Alpha  occ. eigenvalues --   -1.00585  -0.89415  -0.85414  -0.73555  -0.70539
 Alpha  occ. eigenvalues --   -0.66205  -0.64298  -0.59953  -0.58661  -0.55649
 Alpha  occ. eigenvalues --   -0.53028  -0.50541  -0.45837  -0.42690  -0.40073
 Alpha  occ. eigenvalues --   -0.34305
 Alpha virt. eigenvalues --    0.02778   0.03903   0.04542   0.05033   0.06140
 Alpha virt. eigenvalues --    0.06901   0.07595   0.09355   0.09613   0.11209
 Alpha virt. eigenvalues --    0.11947   0.12797   0.13794   0.14167   0.14651

 Mulliken charges:
               1
     1  C    0.318214
     2  C   -0.148126
     3  C    0.626334
     4  C    0.171930
     5  N   -0.036507
     6  N   -0.168759
     7  N   -0.478940
     8  H   -0.040273
     9  H   -0.012667
    10  H   -0.019605
    11  H   -0.008460
    12  H   -0.073190
    13  H   -0.162771
    14  H    0.032819
 Sum of Mulliken charges =  -0.00000

 Dipole moment (field-independent basis, Debye):
    X=              2.3731    Y=              2.0834    Z=              0.7090  Tot=              3.2364

 Test job not archived.
 1\1\GINC-SE336\SP\RHF\Aug-CC-pVDZ\C4H7N3\OHZDE\09-Apr-2025\0\\#t hf au
 g-cc-pvdz iop(5/13=1,5/36=2,99/5=2) pseudo=read geom=check guess=(read
 ,tcheck) scf=(maxcycle=1)\\title\\0,1\C,0,-1.79633677,0.70377594,0.048
 2898\C,0,-1.01305416,-0.49190745,-0.4420581\C,0,0.63538597,-0.28515281
 ,-0.02947482\C,0,0.62007052,-0.13416652,-1.31462455\N,0,3.0161798,0.00
 833996,0.53069748\N,0,2.23493138,0.16721622,1.47194175\N,0,0.9088537,-
 0.17354644,1.20887943\H,0,-2.86133573,0.46336715,0.05624312\H,0,-1.496
 12854,0.97112439,1.06044218\H,0,-1.63772236,1.55990679,-0.60678609\H,0

 Normal termination of Gaussian 16 at Wed Apr  9 03:46:39 2025.
