 Gaussian 16, Revision C.01,

 ----------------------------------------------------------------------
 #t hf aug-cc-pvdz symm=none int=(grid=ultrafine) guess=(read,tcheck) s
 table=(opt,rrhf)
 ----------------------------------------------------------------------
 -----
 title
 -----
 Symbolic Z-matrix:
 Charge =  0 Multiplicity = 1

 SCF Done:  E(RHF) =  -358.349789329     A.U. after   18 cycles
 Normal termination of Gaussian 16 at Wed Apr  9 03:28:04 2025.
 Gaussian 16:  ES64L-G16RevC.01  3-Jul-2019

 ----------------------------------------------------------------------
 #t hf aug-cc-pvdz iop(5/13=1,5/36=2,99/5=2) pseudo=read geom=check gue
 ss=(read,tcheck) scf=(maxcycle=1)
 ----------------------------------------------------------------------
 -----
 title
 -----
 Structure from the checkpoint file:  "Grambow2020_wb97xd3_006783_forward_mol1.chk"
 Charge =  0 Multiplicity = 1

                         Standard orientation:
 ---------------------------------------------------------------------
 Center     Atomic      Atomic             Coordinates (Angstroms)
 Number     Number       Type             X           Y           Z
 ---------------------------------------------------------------------
      1          8           0       -1.710176   -0.287114    0.428767
      2          6           0       -0.973401   -0.063444   -0.626986
      3          6           0        0.210713   -0.989738   -0.378060
      4          6           0        1.583375   -0.338916   -0.387039
      5          7           0        0.322141   -0.464928    0.986899
      6          6           0        0.657453    0.812427    0.538797
      7          8           0       -0.175138    1.262852   -0.399325
      8          1           0       -1.463415    0.072740   -1.594565
      9          1           0        0.067753   -2.058262   -0.473814
     10          1           0        1.870160    0.305816   -1.211930
     11          1           0        2.391917   -0.925537    0.032204
     12          1           0        1.092268    1.531855    1.224007
 ---------------------------------------------------------------------

 SCF Done:  E(RHF) =  -358.455611686     A.U. after    2 cycles

 The electronic state is 1-A.
 Alpha  occ. eigenvalues --  -20.59395 -20.49072 -15.77762 -11.39477 -11.34973
 Alpha  occ. eigenvalues --  -11.32364 -11.32098  -1.43818  -1.27520  -1.24572
 Alpha  occ. eigenvalues --   -1.01403  -0.95765  -0.83611  -0.81792  -0.76767
 Alpha  occ. eigenvalues --   -0.68162  -0.66293  -0.63944  -0.61591  -0.58566
 Alpha  occ. eigenvalues --   -0.56353  -0.55300  -0.50873  -0.44423  -0.40606
 Alpha  occ. eigenvalues --   -0.38410
 Alpha virt. eigenvalues --    0.02111   0.03339   0.03677   0.04401   0.05360
 Alpha virt. eigenvalues --    0.06319   0.08862   0.09855   0.10266   0.10890
 Alpha virt. eigenvalues --    0.12364   0.13305   0.14636   0.14925   0.15037

 Mulliken charges:
               1
     1  O   -0.804706
     2  C    1.002970
     3  C    0.538268
     4  C    0.633312
     5  N   -0.518184
     6  C    0.971922
     7  O   -0.752137
     8  H   -0.177264
     9  H   -0.275912
    10  H   -0.074483
    11  H   -0.282097
    12  H   -0.261687
 Sum of Mulliken charges =  -0.00000

 Dipole moment (field-independent basis, Debye):
    X=              6.1926    Y=             -1.0035    Z=             -1.7901  Tot=              6.5238

 Test job not archived.
 1\1\GINC-SE462\SP\RHF\Aug-CC-pVDZ\C4H5N1O2\OHZDE\09-Apr-2025\0\\#t hf
 aug-cc-pvdz iop(5/13=1,5/36=2,99/5=2) pseudo=read geom=check guess=(re
 ad,tcheck) scf=(maxcycle=1)\\title\\0,1\O,0,1.62406949,-1.33638961,0.0
 9955266\C,0,1.01051699,-0.54432009,-0.73929088\C,0,0.65717003,0.637554
 24,0.15537698\C,0,-0.81098921,1.02479549,0.20440173\N,0,0.11695047,-0.
 29156879,1.1532996\C,0,-0.90517632,-0.71342229,0.30349904\O,0,-0.46101
 969,-1.04870756,-0.90748129\H,0,1.39077031,-0.45900848,-1.76056319\H,0
 ,1.44876777,1.29624838,0.48831057\H,0,-1.36326397,1.1671452,-0.7192319

 Normal termination of Gaussian 16 at Wed Apr  9 03:28:08 2025.
