 Gaussian 16, Revision C.01,

 ----------------------------------------------------------------------
 #t hf aug-cc-pvdz symm=none int=(grid=ultrafine) guess=(read,tcheck) s
 table=(opt,rrhf)
 ----------------------------------------------------------------------
 -----
 title
 -----
 Symbolic Z-matrix:
 Charge =  0 Multiplicity = 1

 SCF Done:  E(RHF) =  -305.644588451     A.U. after   16 cycles
 Normal termination of Gaussian 16 at Wed Apr  9 03:04:24 2025.
 Gaussian 16:  ES64L-G16RevC.01  3-Jul-2019

 ----------------------------------------------------------------------
 #t hf aug-cc-pvdz iop(5/13=1,5/36=2,99/5=2) pseudo=read geom=check gue
 ss=(read,tcheck) scf=(maxcycle=1)
 ----------------------------------------------------------------------
 -----
 title
 -----
 Structure from the checkpoint file:  "Grambow2020_b97d3_006518_reverse_mol1.chk"
 Charge =  0 Multiplicity = 1

                         Standard orientation:
 ---------------------------------------------------------------------
 Center     Atomic      Atomic             Coordinates (Angstroms)
 Number     Number       Type             X           Y           Z
 ---------------------------------------------------------------------
      1          8           0        2.060121    0.376222    0.322083
      2          6           0        1.163188   -0.673768    0.194925
      3          6           0       -0.885208   -1.063012   -0.257047
      4          6           0       -1.625789   -0.071076    0.657232
      5          6           0       -0.896431    1.069350   -0.058948
      6          8           0       -0.043122    0.186141   -0.866105
      7          1           0        2.356223    0.632406   -0.575196
      8          1           0        1.445970   -1.475987   -0.484052
      9          1           0        0.907933   -0.970282    1.209463
     10          1           0       -1.494771   -1.435822   -1.095898
     11          1           0       -2.721919   -0.038734    0.580384
     12          1           0       -1.362044   -0.172107    1.725649
     13          1           0       -0.281916    1.756185    0.539788
     14          1           0       -1.520036    1.636483   -0.764933
 ---------------------------------------------------------------------

 SCF Done:  E(RHF) =  -305.738102022     A.U. after    2 cycles

 The electronic state is 1-A.
 Alpha  occ. eigenvalues --  -20.61876 -20.59541 -11.40938 -11.29513 -11.22364
 Alpha  occ. eigenvalues --  -11.21649  -1.38027  -1.31836  -1.00266  -0.95267
 Alpha  occ. eigenvalues --   -0.88035  -0.75566  -0.74551  -0.68853  -0.66440
 Alpha  occ. eigenvalues --   -0.64116  -0.59665  -0.58809  -0.55203  -0.51888
 Alpha  occ. eigenvalues --   -0.49293  -0.47759  -0.43998  -0.27641
 Alpha virt. eigenvalues --    0.03333   0.04477   0.04792   0.05120   0.06240
 Alpha virt. eigenvalues --    0.06978   0.07062   0.07970   0.10449   0.11830
 Alpha virt. eigenvalues --    0.13292   0.13450   0.14037   0.14995   0.15530

 Mulliken charges:
               1
     1  O   -0.512813
     2  C    1.120076
     3  C    0.276917
     4  C    0.358241
     5  C    0.847112
     6  O   -0.903202
     7  H    0.203145
     8  H   -0.066305
     9  H   -0.146859
    10  H   -0.373196
    11  H   -0.186186
    12  H   -0.186251
    13  H   -0.196817
    14  H   -0.233860
 Sum of Mulliken charges =  -0.00000

 Dipole moment (field-independent basis, Debye):
    X=              1.1049    Y=              1.0411    Z=             -0.0145  Tot=              1.5182

 Test job not archived.
 1\1\GINC-SE097\SP\RHF\Aug-CC-pVDZ\C4H8O2\OHZDE\09-Apr-2025\0\\#t hf au
 g-cc-pvdz iop(5/13=1,5/36=2,99/5=2) pseudo=read geom=check guess=(read
 ,tcheck) scf=(maxcycle=1)\\title\\0,1\O,0,-1.95999794,1.22491556,-0.11
 990869\C,0,-1.51968719,-0.08021406,0.04102632\C,0,0.2621586,-1.2012890
 9,0.38734062\C,0,1.23084907,-0.62557666,-0.66075046\C,0,1.06073879,0.7
 4706429,-0.00320275\O,0,0.01907889,0.30871148,0.93620573\H,0,-2.048599
 55,1.62673481,0.76840853\H,0,-2.01795643,-0.67103246,0.80731014\H,0,-1
 .49531549,-0.51023027,-0.95740026\H,0,0.76333847,-1.73090518,1.2135075

 Normal termination of Gaussian 16 at Wed Apr  9 03:04:28 2025.
