 Gaussian 16, Revision C.01,

 ----------------------------------------------------------------------
 #t hf aug-cc-pvdz symm=none int=(grid=ultrafine) guess=(read,tcheck) s
 table=(opt,rrhf)
 ----------------------------------------------------------------------
 -----
 title
 -----
 Symbolic Z-matrix:
 Charge =  0 Multiplicity = 1

 SCF Done:  E(RHF) =  -323.807542676     A.U. after   16 cycles
 Normal termination of Gaussian 16 at Wed Apr  9 15:39:08 2025.
 Gaussian 16:  ES64L-G16RevC.01  3-Jul-2019

 ----------------------------------------------------------------------
 #t hf aug-cc-pvdz iop(5/13=1,5/36=2,99/5=2) pseudo=read geom=check gue
 ss=(read,tcheck) scf=(maxcycle=1)
 ----------------------------------------------------------------------
 -----
 title
 -----
 Structure from the checkpoint file:  "Grambow2020_wb97xd3_007252_reverse_mol2.chk"
 Charge =  0 Multiplicity = 1

                         Standard orientation:
 ---------------------------------------------------------------------
 Center     Atomic      Atomic             Coordinates (Angstroms)
 Number     Number       Type             X           Y           Z
 ---------------------------------------------------------------------
      1          6           0       -1.347388    1.599197    0.096593
      2          6           0       -0.246690    0.704527   -0.367691
      3          6           0       -1.511470   -1.426993   -0.006287
      4          6           0        1.160979    1.049847    0.032537
      5          8           0        1.842594   -0.228718   -0.045731
      6          6           0        0.887774   -1.151403    0.147906
      7          7           0       -0.297919   -0.641008   -0.043259
      8          1           0       -2.336429    1.233668   -0.187215
      9          1           0       -1.241509    2.585209   -0.359081
     10          1           0       -1.344742    1.751035    1.193940
     11          1           0       -2.033976   -1.311668   -0.955078
     12          1           0       -1.260810   -2.473640    0.153517
     13          1           0       -2.154966   -1.084755    0.803514
     14          1           0        1.686543    1.752217   -0.613520
     15          1           0        1.236667    1.413495    1.086556
     16          1           0        1.134677   -2.199815    0.127683
 ---------------------------------------------------------------------

 SCF Done:  E(RHF) =  -323.909253207     A.U. after    2 cycles

 The electronic state is 1-A.
 Alpha  occ. eigenvalues --  -20.60459 -15.71957 -11.34508 -11.29825 -11.28549
 Alpha  occ. eigenvalues --  -11.21978 -11.20753  -1.40768  -1.25725  -1.04017
 Alpha  occ. eigenvalues --   -0.99604  -0.93324  -0.85014  -0.78084  -0.73367
 Alpha  occ. eigenvalues --   -0.69295  -0.63531  -0.62156  -0.61952  -0.58290
 Alpha  occ. eigenvalues --   -0.56373  -0.55757  -0.53217  -0.51209  -0.48160
 Alpha  occ. eigenvalues --   -0.45660  -0.22026
 Alpha virt. eigenvalues --    0.02844   0.04033   0.04685   0.04722   0.06373
 Alpha virt. eigenvalues --    0.06821   0.07088   0.07887   0.09068   0.10028
 Alpha virt. eigenvalues --    0.10416   0.12196   0.12967   0.14232   0.14805

 Mulliken charges:
               1
     1  C    0.413887
     2  C   -0.755114
     3  C    0.814812
     4  C    0.847804
     5  O   -0.611397
     6  C    0.563761
     7  N   -0.171440
     8  H   -0.109319
     9  H   -0.039475
    10  H    0.047113
    11  H   -0.070698
    12  H   -0.240702
    13  H   -0.050099
    14  H   -0.170790
    15  H   -0.111131
    16  H   -0.357211
 Sum of Mulliken charges =  -0.00000

 Dipole moment (field-independent basis, Debye):
    X=             -1.9627    Y=             -2.4157    Z=              0.9532  Tot=              3.2552

 Test job not archived.
 1\1\GINC-SE162\SP\RHF\Aug-CC-pVDZ\C5H9N1O1\OHZDE\09-Apr-2025\0\\#t hf
 aug-cc-pvdz iop(5/13=1,5/36=2,99/5=2) pseudo=read geom=check guess=(re
 ad,tcheck) scf=(maxcycle=1)\\title\\0,1\C,0,1.26039787,0.71903613,1.05
 484521\C,0,0.17117304,-0.23519013,0.69349856\C,0,0.70390246,-0.2803779
 7,-1.75350264\C,0,-1.1622841,-0.07431077,1.36949427\O,0,-2.07775062,-0
 .69734597,0.43183655\C,0,-1.48371489,-0.59108288,-0.76664255\N,0,-0.20
 953524,-0.3425879,-0.63385644\H,0,2.16808186,0.56536872,0.4676008\H,0,
 1.54318884,0.58113629,2.09987174\H,0,0.95923171,1.77905109,0.9412638\H

 Normal termination of Gaussian 16 at Wed Apr  9 15:39:14 2025.
