 Gaussian 16, Revision C.01,

 ----------------------------------------------------------------------
 #t hf aug-cc-pvdz symm=none int=(grid=ultrafine) guess=(read,tcheck) s
 table=(opt,rrhf)
 ----------------------------------------------------------------------
 -----
 title
 -----
 Symbolic Z-matrix:
 Charge =  0 Multiplicity = 1

 SCF Done:  E(RHF) =  -322.712607367     A.U. after   14 cycles
 Normal termination of Gaussian 16 at Wed Apr  9 15:47:00 2025.
 Gaussian 16:  ES64L-G16RevC.01  3-Jul-2019

 ----------------------------------------------------------------------
 #t hf aug-cc-pvdz iop(5/13=1,5/36=2,99/5=2) pseudo=read geom=check gue
 ss=(read,tcheck) scf=(maxcycle=1)
 ----------------------------------------------------------------------
 -----
 title
 -----
 Structure from the checkpoint file:  "Grambow2020_wb97xd3_007370_forward_mol2.chk"
 Charge =  0 Multiplicity = 1

                         Standard orientation:
 ---------------------------------------------------------------------
 Center     Atomic      Atomic             Coordinates (Angstroms)
 Number     Number       Type             X           Y           Z
 ---------------------------------------------------------------------
      1          6           0       -1.507504   -0.033758    0.782538
      2          6           0       -0.936851    0.746052   -0.359350
      3          6           0        0.419380    1.386188   -0.249104
      4          8           0        1.400549    0.531988    0.345801
      5          6           0        1.306977   -0.792050    0.098515
      6          7           0        0.297853   -1.450409   -0.265117
      7          6           0       -0.939318   -0.750678   -0.414448
      8          1           0       -0.934710   -0.092450    1.700144
      9          1           0       -2.581348   -0.035213    0.913750
     10          1           0       -1.625904    1.281246   -1.002289
     11          1           0        0.403242    2.284769    0.368920
     12          1           0        0.773376    1.660797   -1.248040
     13          1           0        2.257233   -1.286211    0.280598
     14          1           0       -1.637348   -1.250508   -1.072573
 ---------------------------------------------------------------------

 SCF Done:  E(RHF) =  -322.811803314     A.U. after    2 cycles

 The electronic state is 1-A.
 Alpha  occ. eigenvalues --  -20.60983 -15.61263 -11.34236 -11.30765 -11.27205
 Alpha  occ. eigenvalues --  -11.25041 -11.24125  -1.39218  -1.20865  -1.12846
 Alpha  occ. eigenvalues --   -0.97918  -0.88756  -0.82926  -0.74531  -0.71789
 Alpha  occ. eigenvalues --   -0.68891  -0.67757  -0.63128  -0.60054  -0.55743
 Alpha  occ. eigenvalues --   -0.53503  -0.51558  -0.48406  -0.45566  -0.39603
 Alpha  occ. eigenvalues --   -0.36162
 Alpha virt. eigenvalues --    0.03122   0.04180   0.04380   0.04769   0.06295
 Alpha virt. eigenvalues --    0.06686   0.07087   0.09984   0.10305   0.12221
 Alpha virt. eigenvalues --    0.12707   0.13504   0.13628   0.14429   0.14730

 Mulliken charges:
               1
     1  C    0.723611
     2  C    0.166880
     3  C    0.813365
     4  O   -0.513296
     5  C    0.518508
     6  N   -0.443541
     7  C    0.768554
     8  H   -0.349481
     9  H   -0.333683
    10  H   -0.335696
    11  H   -0.162905
    12  H   -0.086078
    13  H   -0.360821
    14  H   -0.405418
 Sum of Mulliken charges =  -0.00000

 Dipole moment (field-independent basis, Debye):
    X=             -1.0219    Y=              2.0246    Z=             -0.3805  Tot=              2.2996

 Test job not archived.
 1\1\GINC-SE138\SP\RHF\Aug-CC-pVDZ\C5H7N1O1\OHZDE\09-Apr-2025\0\\#t hf
 aug-cc-pvdz iop(5/13=1,5/36=2,99/5=2) pseudo=read geom=check guess=(re
 ad,tcheck) scf=(maxcycle=1)\\title\\0,1\C,0,-1.39738794,-0.43404229,0.
 37139511\C,0,-0.65406958,0.48090601,-0.54947624\C,0,0.47701115,1.33001
 972,-0.03863933\O,0,1.36679456,0.62270296,0.8298372\C,0,1.57916563,-0.
 68583704,0.5737042\N,0,0.85275671,-1.4840323,-0.07376103\C,0,-0.383989
 37,-0.99161877,-0.59385991\H,0,-1.12341621,-0.43974568,1.41946263\H,0,
 -2.4446086,-0.61848144,0.1722204\H,0,-1.20067528,0.92427333,-1.3736387

 Normal termination of Gaussian 16 at Wed Apr  9 15:47:05 2025.
