 Gaussian 16, Revision C.01,

 ----------------------------------------------------------------------
 #t hf aug-cc-pvdz symm=none int=(grid=ultrafine) guess=(read,tcheck) s
 table=(opt,rrhf)
 ----------------------------------------------------------------------
 -----
 title
 -----
 Symbolic Z-matrix:
 Charge =  0 Multiplicity = 1

 SCF Done:  E(RHF) =  -354.523160400     A.U. after   17 cycles
 Normal termination of Gaussian 16 at Wed Apr  9 15:44:46 2025.
 Gaussian 16:  ES64L-G16RevC.01  3-Jul-2019

 ----------------------------------------------------------------------
 #t hf aug-cc-pvdz iop(5/13=1,5/36=2,99/5=2) pseudo=read geom=check gue
 ss=(read,tcheck) scf=(maxcycle=1)
 ----------------------------------------------------------------------
 -----
 title
 -----
 Structure from the checkpoint file:  "Grambow2020_wb97xd3_007321_forward_mol1.chk"
 Charge =  0 Multiplicity = 1

                         Standard orientation:
 ---------------------------------------------------------------------
 Center     Atomic      Atomic             Coordinates (Angstroms)
 Number     Number       Type             X           Y           Z
 ---------------------------------------------------------------------
      1          8           0        1.275143   -0.059144    1.068458
      2          6           0        1.738009   -0.039832   -0.232063
      3          6           0        0.329614    0.049101   -0.781972
      4          7           0       -0.396484   -1.113604   -0.443073
      5          7           0       -1.418699   -0.668975    0.142453
      6          6           0       -1.250877    0.732966    0.382113
      7          7           0       -0.355157    1.152390   -0.578077
      8          1           0       -0.291309    0.566320    1.191877
      9          1           0        2.243233   -0.967127   -0.531035
     10          1           0        2.334858    0.836901   -0.504555
     11          1           0       -2.068685   -1.310165    0.575933
     12          1           0       -2.127338    1.305126    0.662531
 ---------------------------------------------------------------------

 SCF Done:  E(RHF) =  -354.623749849     A.U. after    2 cycles

 The electronic state is 1-A.
 Alpha  occ. eigenvalues --  -20.49277 -15.80427 -15.76903 -15.65326 -11.34720
 Alpha  occ. eigenvalues --  -11.33519 -11.28192  -1.46061  -1.25690  -1.20716
 Alpha  occ. eigenvalues --   -1.10936  -0.92970  -0.90448  -0.81164  -0.78873
 Alpha  occ. eigenvalues --   -0.73551  -0.67344  -0.59904  -0.59672  -0.55354
 Alpha  occ. eigenvalues --   -0.54958  -0.52100  -0.46746  -0.39811  -0.38694
 Alpha  occ. eigenvalues --   -0.37064
 Alpha virt. eigenvalues --    0.01207   0.02356   0.03646   0.04933   0.05663
 Alpha virt. eigenvalues --    0.07092   0.08837   0.09887   0.10569   0.12119
 Alpha virt. eigenvalues --    0.12325   0.13733   0.14162   0.14879   0.15276

 Mulliken charges:
               1
     1  O   -0.890432
     2  C    0.962285
     3  C    0.129184
     4  N   -0.331876
     5  N   -0.072040
     6  C    0.552468
     7  N   -0.677605
     8  H    0.626125
     9  H   -0.118350
    10  H   -0.080703
    11  H   -0.004644
    12  H   -0.094413
 Sum of Mulliken charges =  -0.00000

 Dipole moment (field-independent basis, Debye):
    X=             -5.7300    Y=             -1.5245    Z=             -0.8115  Tot=              5.9846

 Test job not archived.
 1\1\GINC-SE173\SP\RHF\Aug-CC-pVDZ\C3H5N3O1\OHZDE\09-Apr-2025\0\\#t hf
 aug-cc-pvdz iop(5/13=1,5/36=2,99/5=2) pseudo=read geom=check guess=(re
 ad,tcheck) scf=(maxcycle=1)\\title\\0,1\O,0,-1.24921176,0.98428802,0.1
 7247861\C,0,-1.7446491,-0.26503257,-0.1432946\C,0,-0.35044541,-0.81442
 471,-0.3629512\N,0,0.26808304,-0.1470139,-1.44273766\N,0,1.34497256,0.
 28333156,-0.952258\C,0,1.32156233,0.09931487,0.46782341\N,0,0.44418244
 ,-0.94328088,0.67613246\H,0,0.3736464,0.9206653,0.64417061\H,0,-2.3461
 8417,-0.2785605,-1.06116337\H,0,-2.26061092,-0.78456842,0.67095851\H,0

 Normal termination of Gaussian 16 at Wed Apr  9 15:44:50 2025.
