 Gaussian 16, Revision C.01,

 ----------------------------------------------------------------------
 #t hf aug-cc-pvdz symm=none int=(grid=ultrafine) guess=(read,tcheck) s
 table=(opt,rrhf)
 ----------------------------------------------------------------------
 -----
 title
 -----
 Symbolic Z-matrix:
 Charge =  0 Multiplicity = 1

 SCF Done:  E(RHF) =  -264.969062807     A.U. after   15 cycles
 Normal termination of Gaussian 16 at Wed Apr  9 14:15:17 2025.
 Gaussian 16:  ES64L-G16RevC.01  3-Jul-2019

 ----------------------------------------------------------------------
 #t hf aug-cc-pvdz iop(5/13=1,5/36=2,99/5=2) pseudo=read geom=check gue
 ss=(read,tcheck) scf=(maxcycle=1)
 ----------------------------------------------------------------------
 -----
 title
 -----
 Structure from the checkpoint file:  "Grambow2020_b97d3_006850_reverse_mol1.chk"
 Charge =  0 Multiplicity = 1

                         Standard orientation:
 ---------------------------------------------------------------------
 Center     Atomic      Atomic             Coordinates (Angstroms)
 Number     Number       Type             X           Y           Z
 ---------------------------------------------------------------------
      1          6           0       -2.128269    0.221273    0.029682
      2          7           0       -0.965908   -0.594635   -0.309202
      3          6           0        0.171909   -0.486271    0.390270
      4          6           0        1.310559   -1.406980    0.042299
      5          6           0        0.619385    1.692964    0.315904
      6          7           0        1.458236    1.255745   -0.415473
      7          1           0       -2.466148   -0.029818    1.042683
      8          1           0       -2.936077    0.009472   -0.678003
      9          1           0       -1.841281    1.284972    0.002294
     10          1           0       -0.848536   -0.814841   -1.296181
     11          1           0        0.033896   -0.260441    1.444139
     12          1           0        2.234060   -1.072139    0.519444
     13          1           0        1.057984   -2.416315    0.408945
     14          1           0        1.478301   -1.454576   -1.039524
 ---------------------------------------------------------------------

 SCF Done:  E(RHF) =  -265.048913192     A.U. after    2 cycles

 The electronic state is 1-A.
 Alpha  occ. eigenvalues --  -15.69378 -15.58458 -11.38779 -11.29422 -11.26950
 Alpha  occ. eigenvalues --  -11.20397  -1.26797  -1.12366  -1.04916  -0.94821
 Alpha  occ. eigenvalues --   -0.87086  -0.70471  -0.69696  -0.65152  -0.60980
 Alpha  occ. eigenvalues --   -0.58118  -0.57218  -0.56850  -0.54114  -0.48596
 Alpha  occ. eigenvalues --   -0.40758  -0.40224  -0.38397
 Alpha virt. eigenvalues --    0.02352   0.03279   0.03522   0.05781   0.06353
 Alpha virt. eigenvalues --    0.06607   0.07220   0.08730   0.09853   0.11177
 Alpha virt. eigenvalues --    0.11960   0.12724   0.12978   0.14481   0.15033

 Mulliken charges:
               1
     1  C    0.687552
     2  N   -0.459525
     3  C    0.568078
     4  C    0.332794
     5  C   -0.196686
     6  N   -0.453182
     7  H   -0.086005
     8  H   -0.173696
     9  H    0.023737
    10  H   -0.037719
    11  H   -0.236447
    12  H    0.013643
    13  H    0.037395
    14  H   -0.019938
 Sum of Mulliken charges =   0.00000

 Dipole moment (field-independent basis, Debye):
    X=             -3.5346    Y=             -5.5026    Z=              0.0818  Tot=              6.5406

 Test job not archived.
 1\1\GINC-SE039\SP\RHF\Aug-CC-pVDZ\C4H8N2\OHZDE\09-Apr-2025\0\\#t hf au
 g-cc-pvdz iop(5/13=1,5/36=2,99/5=2) pseudo=read geom=check guess=(read
 ,tcheck) scf=(maxcycle=1)\\title\\0,1\C,0,1.9644114,0.00277648,0.32781
 9\N,0,0.59714846,-0.49936581,0.42818831\C,0,-0.34862846,-0.08007043,-0
 .42347553\C,0,-1.72064953,-0.68983573,-0.3183322\C,0,-0.24913069,2.137
 35665,-0.25630327\N,0,-1.27779417,1.90514179,0.3073194\H,0,2.39031047,
 -0.29236285,-0.63907478\H,0,2.56807591,-0.4322716,1.13066004\H,0,1.948
 93926,1.10296511,0.39038818\H,0,0.26952866,-0.71511581,1.36760895\H,0,

 Normal termination of Gaussian 16 at Wed Apr  9 14:15:22 2025.
