 Gaussian 16, Revision C.01,

 ----------------------------------------------------------------------
 #t hf aug-cc-pvdz symm=none int=(grid=ultrafine) guess=(read,tcheck) s
 table=(opt,rrhf)
 ----------------------------------------------------------------------
 -----
 title
 -----
 Symbolic Z-matrix:
 Charge =  0 Multiplicity = 1

 SCF Done:  E(RHF) =  -322.691747247     A.U. after   15 cycles
 Normal termination of Gaussian 16 at Wed Apr  9 15:36:00 2025.
 Gaussian 16:  ES64L-G16RevC.01  3-Jul-2019

 ----------------------------------------------------------------------
 #t hf aug-cc-pvdz iop(5/13=1,5/36=2,99/5=2) pseudo=read geom=check gue
 ss=(read,tcheck) scf=(maxcycle=1)
 ----------------------------------------------------------------------
 -----
 title
 -----
 Structure from the checkpoint file:  "Grambow2020_wb97xd3_007024_reverse_mol2.chk"
 Charge =  0 Multiplicity = 1

                         Standard orientation:
 ---------------------------------------------------------------------
 Center     Atomic      Atomic             Coordinates (Angstroms)
 Number     Number       Type             X           Y           Z
 ---------------------------------------------------------------------
      1          6           0        1.919912   -1.329095    0.020706
      2          6           0        0.693109   -0.537596   -0.357367
      3          6           0       -0.297769   -0.038437    0.737160
      4          6           0       -1.750614   -0.089933    0.462931
      5          7           0       -2.205850   -0.502992   -0.641810
      6          6           0        0.573609    0.877247   -0.060161
      7          8           0        0.920063    2.000696   -0.225258
      8          1           0        1.660249   -2.373841    0.198026
      9          1           0        2.382557   -0.932401    0.926328
     10          1           0        2.662046   -1.289608   -0.777456
     11          1           0        0.156681   -0.855125   -1.249346
     12          1           0       -0.002005   -0.166171    1.774610
     13          1           0       -2.388968    0.280695    1.271880
     14          1           0       -3.219594   -0.441279   -0.668924
 ---------------------------------------------------------------------

 SCF Done:  E(RHF) =  -322.790799550     A.U. after    2 cycles

 The electronic state is 1-A.
 Alpha  occ. eigenvalues --  -20.58836 -15.62832 -11.36404 -11.31418 -11.26676
 Alpha  occ. eigenvalues --  -11.26446 -11.25070  -1.37930  -1.20989  -1.15026
 Alpha  occ. eigenvalues --   -0.98908  -0.89916  -0.78397  -0.73918  -0.71127
 Alpha  occ. eigenvalues --   -0.68134  -0.65539  -0.62710  -0.58930  -0.56933
 Alpha  occ. eigenvalues --   -0.54747  -0.52757  -0.48871  -0.45055  -0.42223
 Alpha  occ. eigenvalues --   -0.37929
 Alpha virt. eigenvalues --    0.02925   0.03678   0.04222   0.05588   0.06186
 Alpha virt. eigenvalues --    0.06411   0.08092   0.09283   0.10169   0.11482
 Alpha virt. eigenvalues --    0.11894   0.12467   0.13099   0.13588   0.13910

 Mulliken charges:
               1
     1  C    0.440813
     2  C    0.224692
     3  C    0.340876
     4  C    0.757848
     5  N   -0.375823
     6  C   -0.123344
     7  O   -0.398384
     8  H    0.007021
     9  H   -0.059367
    10  H    0.046020
    11  H   -0.235035
    12  H   -0.340156
    13  H   -0.298307
    14  H    0.013144
 Sum of Mulliken charges =  -0.00000

 Dipole moment (field-independent basis, Debye):
    X=             -1.1144    Y=             -2.7161    Z=              2.1083  Tot=              3.6145

 Test job not archived.
 1\1\GINC-SE026\SP\RHF\Aug-CC-pVDZ\C5H7N1O1\OHZDE\09-Apr-2025\0\\#t hf
 aug-cc-pvdz iop(5/13=1,5/36=2,99/5=2) pseudo=read geom=check guess=(re
 ad,tcheck) scf=(maxcycle=1)\\title\\0,1\C,0,-1.91750375,0.79333762,-0.
 04891434\C,0,-0.67485306,0.01070952,-0.39208689\C,0,0.47592932,-0.1470
 4969,0.64704673\C,0,1.87715015,-0.07436798,0.17810178\N,0,2.16363635,0
 .08629041,-1.04272843\C,0,-0.39361907,-1.2801215,0.20712498\O,0,-0.652
 7181,-2.42921883,0.35500715\H,0,-1.73568688,1.86385305,-0.15522117\H,0
 ,-2.23555517,0.5998998,0.97723505\H,0,-2.73922543,0.51646122,-0.710350

 Normal termination of Gaussian 16 at Wed Apr  9 15:36:06 2025.
