 Gaussian 16, Revision C.01,

 ----------------------------------------------------------------------
 #t hf aug-cc-pvdz symm=none int=(grid=ultrafine) guess=(read,tcheck) s
 table=(opt,rrhf)
 ----------------------------------------------------------------------
 -----
 title
 -----
 Symbolic Z-matrix:
 Charge =  0 Multiplicity = 1

 SCF Done:  E(RHF) =  -305.319928130     A.U. after   17 cycles
 Normal termination of Gaussian 16 at Wed Apr  9 03:52:37 2025.
 Gaussian 16:  ES64L-G16RevC.01  3-Jul-2019

 ----------------------------------------------------------------------
 #t hf aug-cc-pvdz iop(5/13=1,5/36=2,99/5=2) pseudo=read geom=check gue
 ss=(read,tcheck) scf=(maxcycle=1)
 ----------------------------------------------------------------------
 -----
 title
 -----
 Structure from the checkpoint file:  "Grambow2020_wb97xd3_008359_forward_mol1.chk"
 Charge =  0 Multiplicity = 1

                         Standard orientation:
 ---------------------------------------------------------------------
 Center     Atomic      Atomic             Coordinates (Angstroms)
 Number     Number       Type             X           Y           Z
 ---------------------------------------------------------------------
      1          6           0       -1.934222    0.098899   -0.700434
      2          6           0       -1.431762   -0.543967    0.255196
      3          6           0       -0.198561   -0.547921    0.840037
      4          6           0        0.118253    0.816596    1.003354
      5          6           0        0.742315    1.107756   -0.219217
      6          8           0        1.396370   -0.003455   -0.725569
      7          6           0        0.914629   -1.150288    0.000047
      8          1           0       -2.785936    0.218544   -1.341981
      9          1           0       -0.515840    1.522509    1.518445
     10          1           0       -0.598671    1.022564   -0.794672
     11          1           0        1.185059    2.044301   -0.533257
     12          1           0        1.738481   -1.568999    0.583832
     13          1           0        0.542041   -1.897730   -0.701722
 ---------------------------------------------------------------------

 SCF Done:  E(RHF) =  -305.413869678     A.U. after    2 cycles

 The electronic state is 1-A.
 Alpha  occ. eigenvalues --  -20.59194 -11.31985 -11.30222 -11.28571 -11.27309
 Alpha  occ. eigenvalues --  -11.26726 -11.25883  -1.37315  -1.14998  -1.02422
 Alpha  occ. eigenvalues --   -0.99424  -0.85532  -0.80541  -0.74291  -0.70051
 Alpha  occ. eigenvalues --   -0.68082  -0.62830  -0.59996  -0.57659  -0.56040
 Alpha  occ. eigenvalues --   -0.53043  -0.49075  -0.39936  -0.34815  -0.33367
 Alpha virt. eigenvalues --    0.03086   0.04275   0.04718   0.04978   0.06015
 Alpha virt. eigenvalues --    0.06465   0.07848   0.08148   0.09788   0.10169
 Alpha virt. eigenvalues --    0.11359   0.12631   0.13313   0.14163   0.14281

 Mulliken charges:
               1
     1  C    0.514265
     2  C   -0.233454
     3  C   -1.043172
     4  C    0.462868
     5  C    0.450101
     6  O   -0.681872
     7  C    1.111514
     8  H   -0.335334
     9  H   -0.241111
    10  H    0.572092
    11  H   -0.265451
    12  H   -0.162863
    13  H   -0.147583
 Sum of Mulliken charges =  -0.00000

 Dipole moment (field-independent basis, Debye):
    X=             -0.5453    Y=              0.9924    Z=              0.3954  Tot=              1.1994

 Test job not archived.
 1\1\GINC-SE253\SP\RHF\Aug-CC-pVDZ\C6H6O1\OHZDE\09-Apr-2025\0\\#t hf au
 g-cc-pvdz iop(5/13=1,5/36=2,99/5=2) pseudo=read geom=check guess=(read
 ,tcheck) scf=(maxcycle=1)\\title\\0,1\C,0,1.53930784,0.06535212,1.4604
 8502\C,0,1.52754882,-0.22089317,0.23700841\C,0,0.5594668,-0.1962636,-0
 .72478617\C,0,-0.07835372,1.04947623,-0.55080987\C,0,-1.07224818,0.727
 1522,0.38577231\O,0,-1.49237991,-0.5847706,0.23976448\C,0,-0.52024809,
 -1.25553746,-0.58415909\H,0,2.10861869,0.06016287,2.36997561\H,0,0.442
 45239,1.99523579,-0.54808552\H,0,0.02290596,0.64337787,1.35027704\H,0,

 Normal termination of Gaussian 16 at Wed Apr  9 03:52:42 2025.
