 Gaussian 16, Revision C.01,

 ----------------------------------------------------------------------
 #t hf aug-cc-pvdz symm=none int=(grid=ultrafine) guess=(read,tcheck) s
 table=(opt,rrhf)
 ----------------------------------------------------------------------
 -----
 title
 -----
 Symbolic Z-matrix:
 Charge =  0 Multiplicity = 1

 SCF Done:  E(RHF) =  -343.619536676     A.U. after   14 cycles
 Normal termination of Gaussian 16 at Wed Apr  9 15:37:05 2025.
 Gaussian 16:  ES64L-G16RevC.01  3-Jul-2019

 ----------------------------------------------------------------------
 #t hf aug-cc-pvdz iop(5/13=1,5/36=2,99/5=2) pseudo=read geom=check gue
 ss=(read,tcheck) scf=(maxcycle=1)
 ----------------------------------------------------------------------
 -----
 title
 -----
 Structure from the checkpoint file:  "Grambow2020_wb97xd3_007211_forward_mol1.chk"
 Charge =  0 Multiplicity = 1

                         Standard orientation:
 ---------------------------------------------------------------------
 Center     Atomic      Atomic             Coordinates (Angstroms)
 Number     Number       Type             X           Y           Z
 ---------------------------------------------------------------------
      1          8           0        1.103081    0.304677   -0.858114
      2          6           0        0.788219    1.413270    0.028339
      3          6           0       -0.307626    0.686624    0.774963
      4          6           0       -1.641047    0.519277   -0.006363
      5          6           0       -1.241679   -0.917391   -0.443803
      6          6           0        0.122805   -0.672726    0.155785
      7          8           0        1.091595   -1.465696    0.463400
      8          1           0        1.670377   -0.578121   -0.217749
      9          1           0        0.473166    2.277141   -0.557554
     10          1           0        1.653496    1.682729    0.637292
     11          1           0       -0.376571    0.803425    1.853888
     12          1           0       -2.534845    0.576614    0.611441
     13          1           0       -1.744199    1.215160   -0.838822
     14          1           0       -1.267963   -1.163543   -1.503801
     15          1           0       -1.754910   -1.699574    0.119479
 ---------------------------------------------------------------------

 SCF Done:  E(RHF) =  -343.723643181     A.U. after    2 cycles

 The electronic state is 1-A.
 Alpha  occ. eigenvalues --  -20.58360 -20.54293 -11.37962 -11.30391 -11.25386
 Alpha  occ. eigenvalues --  -11.25260 -11.25170  -1.39111  -1.28152  -1.13443
 Alpha  occ. eigenvalues --   -0.98669  -0.88367  -0.87102  -0.73851  -0.72247
 Alpha  occ. eigenvalues --   -0.68534  -0.66855  -0.65352  -0.60174  -0.58166
 Alpha  occ. eigenvalues --   -0.54758  -0.54158  -0.50046  -0.49308  -0.46020
 Alpha  occ. eigenvalues --   -0.44135  -0.40970
 Alpha virt. eigenvalues --    0.03081   0.04226   0.04503   0.04981   0.06259
 Alpha virt. eigenvalues --    0.06595   0.07208   0.07657   0.10054   0.11335
 Alpha virt. eigenvalues --    0.12702   0.13341   0.13738   0.14201   0.14780

 Mulliken charges:
               1
     1  O   -0.923072
     2  C    0.971676
     3  C   -0.032700
     4  C    0.609059
     5  C    0.310915
     6  C    0.577590
     7  O   -0.876671
     8  H    0.503126
     9  H   -0.216058
    10  H   -0.206337
    11  H   -0.277515
    12  H   -0.193767
    13  H   -0.157745
    14  H   -0.094474
    15  H    0.005973
 Sum of Mulliken charges =  -0.00000

 Dipole moment (field-independent basis, Debye):
    X=             -2.5673    Y=              2.6504    Z=              0.6512  Tot=              3.7469

 Test job not archived.
 1\1\GINC-SE219\SP\RHF\Aug-CC-pVDZ\C5H8O2\OHZDE\09-Apr-2025\0\\#t hf au
 g-cc-pvdz iop(5/13=1,5/36=2,99/5=2) pseudo=read geom=check guess=(read
 ,tcheck) scf=(maxcycle=1)\\title\\0,1\O,0,0.89059681,-1.08807739,-0.83
 824561\C,0,1.5096313,0.15070051,-0.39536734\C,0,0.32337525,0.61473092,
 0.41937952\C,0,-0.88140423,1.14293544,-0.40886777\C,0,-1.59188702,-0.2
 3590846,-0.31471315\C,0,-0.33830524,-0.78848692,0.32119095\O,0,-0.1008
 6136,-1.87561782,0.97215225\H,0,0.81770463,-1.86672439,0.11023713\H,0,
 1.76425466,0.7660218,-1.25870333\H,0,2.41138568,-0.05089917,0.18629673

 Normal termination of Gaussian 16 at Wed Apr  9 15:37:10 2025.
