 Gaussian 16, Revision C.01,

 ----------------------------------------------------------------------
 #t hf aug-cc-pvdz symm=none int=(grid=ultrafine) guess=(read,tcheck) s
 table=(opt,rrhf)
 ----------------------------------------------------------------------
 -----
 title
 -----
 Symbolic Z-matrix:
 Charge =  0 Multiplicity = 1

 SCF Done:  E(RHF) =  -358.401082059     A.U. after   17 cycles
 Normal termination of Gaussian 16 at Wed Apr  9 03:28:32 2025.
 Gaussian 16:  ES64L-G16RevC.01  3-Jul-2019

 ----------------------------------------------------------------------
 #t hf aug-cc-pvdz iop(5/13=1,5/36=2,99/5=2) pseudo=read geom=check gue
 ss=(read,tcheck) scf=(maxcycle=1)
 ----------------------------------------------------------------------
 -----
 title
 -----
 Structure from the checkpoint file:  "Grambow2020_wb97xd3_006787_forward_mol1.chk"
 Charge =  0 Multiplicity = 1

                         Standard orientation:
 ---------------------------------------------------------------------
 Center     Atomic      Atomic             Coordinates (Angstroms)
 Number     Number       Type             X           Y           Z
 ---------------------------------------------------------------------
      1          8           0       -2.646853   -0.585683    0.045951
      2          6           0       -1.377537   -0.465784    0.267230
      3          6           0       -0.677864    0.644323   -0.387424
      4          6           0        0.321886    1.358896    0.497114
      5          7           0        0.749774    0.530316   -0.571143
      6          6           0        1.451834   -0.655184   -0.370344
      7          8           0        2.368086   -0.766513    0.392445
      8          1           0       -2.104500   -1.336258    0.777793
      9          1           0       -1.237673    1.197495   -1.139098
     10          1           0        0.457811    0.980222    1.504657
     11          1           0        0.432056    2.427140    0.359963
     12          1           0        1.124109   -1.456740   -1.051944
 ---------------------------------------------------------------------

 SCF Done:  E(RHF) =  -358.511588708     A.U. after    2 cycles

 The electronic state is 1-A.
 Alpha  occ. eigenvalues --  -20.63139 -20.57390 -15.67874 -11.38276 -11.35401
 Alpha  occ. eigenvalues --  -11.31617 -11.31505  -1.41590  -1.38526  -1.30178
 Alpha  occ. eigenvalues --   -1.01199  -0.94372  -0.83164  -0.79437  -0.76485
 Alpha  occ. eigenvalues --   -0.72366  -0.68177  -0.67387  -0.60283  -0.60094
 Alpha  occ. eigenvalues --   -0.57085  -0.53247  -0.53219  -0.46412  -0.42706
 Alpha  occ. eigenvalues --   -0.38600
 Alpha virt. eigenvalues --    0.03165   0.03516   0.04045   0.05293   0.06569
 Alpha virt. eigenvalues --    0.08048   0.09088   0.09860   0.11009   0.11528
 Alpha virt. eigenvalues --    0.12110   0.13342   0.13708   0.14263   0.14669

 Mulliken charges:
               1
     1  O   -0.562093
     2  C   -0.073742
     3  C    0.859441
     4  C    0.898590
     5  N   -0.689044
     6  C    0.762575
     7  O   -0.451376
     8  H    0.271877
     9  H   -0.345660
    10  H   -0.236402
    11  H   -0.257793
    12  H   -0.176372
 Sum of Mulliken charges =  -0.00000

 Dipole moment (field-independent basis, Debye):
    X=             -1.7825    Y=              1.2034    Z=             -0.5485  Tot=              2.2195

 Test job not archived.
 1\1\GINC-SE051\SP\RHF\Aug-CC-pVDZ\C4H5N1O2\OHZDE\09-Apr-2025\0\\#t hf
 aug-cc-pvdz iop(5/13=1,5/36=2,99/5=2) pseudo=read geom=check guess=(re
 ad,tcheck) scf=(maxcycle=1)\\title\\0,1\O,0,2.57998997,-0.34238424,-0.
 57260326\C,0,1.28751248,-0.28890565,-0.60644235\C,0,0.60437105,0.31457
 319,0.54228891\C,0,-0.54786789,1.22521307,0.17404887\N,0,-0.77634112,-
 0.04026803,0.77168135\C,0,-1.41595404,-1.08296066,0.1066201\O,0,-2.413
 48693,-0.94787155,-0.54179212\H,0,1.99995174,-0.74197465,-1.51969625\H
 ,0,1.21771349,0.53266876,1.4144397\H,0,-0.78691439,1.32757343,-0.87922

 Normal termination of Gaussian 16 at Wed Apr  9 03:28:36 2025.
