 Gaussian 16, Revision C.01,

 ----------------------------------------------------------------------
 #t hf aug-cc-pvdz symm=none int=(grid=ultrafine) guess=(read,tcheck) s
 table=(opt,rrhf)
 ----------------------------------------------------------------------
 -----
 title
 -----
 Symbolic Z-matrix:
 Charge =  0 Multiplicity = 1

 SCF Done:  E(RHF) =  -357.240950696     A.U. after   17 cycles
 Normal termination of Gaussian 16 at Wed Apr  9 16:34:47 2025.
 Gaussian 16:  ES64L-G16RevC.01  3-Jul-2019

 ----------------------------------------------------------------------
 #t hf aug-cc-pvdz iop(5/13=1,5/36=2,99/5=2) pseudo=read geom=check gue
 ss=(read,tcheck) scf=(maxcycle=1)
 ----------------------------------------------------------------------
 -----
 title
 -----
 Structure from the checkpoint file:  "Grambow2020_wb97xd3_008633_reverse_mol1.chk"
 Charge =  0 Multiplicity = 1

                         Standard orientation:
 ---------------------------------------------------------------------
 Center     Atomic      Atomic             Coordinates (Angstroms)
 Number     Number       Type             X           Y           Z
 ---------------------------------------------------------------------
      1          7           0        2.225327    0.162028    0.212035
      2          6           0        0.988170    0.057961    0.010224
      3          6           0        0.071422    1.206226   -0.076639
      4          6           0       -1.220011    0.824364   -0.203872
      5          6           0       -1.043398   -0.786786   -0.448107
      6          8           0       -1.495355   -0.373455    0.704567
      7          8           0        0.321883   -1.100329   -0.297629
      8          1           0        2.674823   -0.749395    0.253266
      9          1           0        0.455553    2.206833   -0.212454
     10          1           0       -2.096981    1.388045   -0.470200
 ---------------------------------------------------------------------

 SCF Done:  E(RHF) =  -357.350670139     A.U. after    2 cycles

 The electronic state is 1-A.
 Alpha  occ. eigenvalues --  -20.66843 -20.63115 -15.63523 -11.38477 -11.38451
 Alpha  occ. eigenvalues --  -11.36562 -11.32714  -1.49526  -1.38598  -1.20290
 Alpha  occ. eigenvalues --   -1.10908  -0.90835  -0.88686  -0.81700  -0.76509
 Alpha  occ. eigenvalues --   -0.73130  -0.69311  -0.66020  -0.63947  -0.60569
 Alpha  occ. eigenvalues --   -0.55967  -0.48480  -0.47346  -0.45025  -0.35917
 Alpha virt. eigenvalues --   -0.00315   0.02783   0.04349   0.04773   0.08025
 Alpha virt. eigenvalues --    0.08715   0.10630   0.11218   0.11656   0.12137
 Alpha virt. eigenvalues --    0.13519   0.13766   0.14597   0.15088   0.15751

 Mulliken charges:
               1
     1  N   -0.393734
     2  C    0.545638
     3  C    0.507413
     4  C    0.597119
     5  C    0.301475
     6  O   -0.470193
     7  O   -0.609281
     8  H    0.028377
     9  H   -0.263398
    10  H   -0.243417
 Sum of Mulliken charges =  -0.00000

 Dipole moment (field-independent basis, Debye):
    X=             -0.7070    Y=              2.6114    Z=             -0.3024  Tot=              2.7223

 Test job not archived.
 1\1\GINC-SE162\SP\RHF\Aug-CC-pVDZ\C4H3N1O2\OHZDE\09-Apr-2025\0\\#t hf
 aug-cc-pvdz iop(5/13=1,5/36=2,99/5=2) pseudo=read geom=check guess=(re
 ad,tcheck) scf=(maxcycle=1)\\title\\0,1\N,0,2.132016,-0.26229784,-0.16
 613289\C,0,0.92633097,0.06073323,-0.01092484\C,0,-0.18929552,-0.899233
 85,-0.02897841\C,0,-1.39326165,-0.28985935,0.06554882\C,0,-0.93617702,
 1.24621486,0.40934753\O,0,-1.39585517,0.98114227,-0.78321134\O,0,0.469
 43428,1.30655863,0.33477652\H,0,2.74306073,0.55019733,-0.13586756\H,0,
 -0.00342666,-1.95934059,0.06505849\H,0,-2.37162495,-0.69237869,0.26183

 Normal termination of Gaussian 16 at Wed Apr  9 16:34:52 2025.
