 Gaussian 16, Revision C.01,

 ----------------------------------------------------------------------
 #t hf aug-cc-pvdz symm=none int=(grid=ultrafine) guess=(read,tcheck) s
 table=(opt,rrhf)
 ----------------------------------------------------------------------
 -----
 title
 -----
 Symbolic Z-matrix:
 Charge =  0 Multiplicity = 1

 SCF Done:  E(RHF) =  -305.848073741     A.U. after   13 cycles
 Normal termination of Gaussian 16 at Wed Apr  9 03:03:49 2025.
 Gaussian 16:  ES64L-G16RevC.01  3-Jul-2019

 ----------------------------------------------------------------------
 #t hf aug-cc-pvdz iop(5/13=1,5/36=2,99/5=2) pseudo=read geom=check gue
 ss=(read,tcheck) scf=(maxcycle=1)
 ----------------------------------------------------------------------
 -----
 title
 -----
 Structure from the checkpoint file:  "Grambow2020_b97d3_006510_forward_mol2.chk"
 Charge =  0 Multiplicity = 1

                         Standard orientation:
 ---------------------------------------------------------------------
 Center     Atomic      Atomic             Coordinates (Angstroms)
 Number     Number       Type             X           Y           Z
 ---------------------------------------------------------------------
      1          8           0        1.699499   -0.567855   -0.690746
      2          6           0        1.462842    0.383916    0.335807
      3          6           0       -0.029272    0.565079    0.578445
      4          6           0       -0.928704    0.858629   -0.641702
      5          6           0       -1.647165   -0.446926   -0.257060
      6          8           0       -0.657719   -0.747960    0.771425
      7          1           0        1.116177   -1.317832   -0.450749
      8          1           0        1.945685    0.087269    1.287291
      9          1           0        1.906609    1.336209    0.011461
     10          1           0       -0.209456    1.222982    1.445152
     11          1           0       -1.522313    1.778636   -0.600164
     12          1           0       -0.381215    0.799199   -1.588583
     13          1           0       -1.688037   -1.234175   -1.024260
     14          1           0       -2.647895   -0.309956    0.181478
 ---------------------------------------------------------------------

 SCF Done:  E(RHF) =  -305.943039604     A.U. after    2 cycles

 The electronic state is 1-A.
 Alpha  occ. eigenvalues --  -20.57366 -20.57013 -11.30211 -11.29854 -11.29017
 Alpha  occ. eigenvalues --  -11.24426  -1.34797  -1.31065  -1.02154  -0.98307
 Alpha  occ. eigenvalues --   -0.87232  -0.76778  -0.71468  -0.69318  -0.65726
 Alpha  occ. eigenvalues --   -0.62940  -0.60747  -0.57893  -0.54689  -0.51498
 Alpha  occ. eigenvalues --   -0.50014  -0.47954  -0.44915  -0.43337
 Alpha virt. eigenvalues --    0.03316   0.04337   0.04898   0.04930   0.06479
 Alpha virt. eigenvalues --    0.06613   0.07365   0.07734   0.10810   0.12439
 Alpha virt. eigenvalues --    0.12966   0.13757   0.14336   0.14655   0.15192

 Mulliken charges:
               1
     1  O   -0.598857
     2  C    0.807822
     3  C    0.451966
     4  C    0.327349
     5  C    0.868475
     6  O   -0.903319
     7  H    0.226014
     8  H   -0.055915
     9  H   -0.098512
    10  H   -0.293906
    11  H   -0.132989
    12  H   -0.145605
    13  H   -0.213023
    14  H   -0.239500
 Sum of Mulliken charges =  -0.00000

 Dipole moment (field-independent basis, Debye):
    X=             -1.6914    Y=              1.7504    Z=              0.0803  Tot=              2.4355

 Test job not archived.
 1\1\GINC-SE435\SP\RHF\Aug-CC-pVDZ\C4H8O2\OHZDE\09-Apr-2025\0\\#t hf au
 g-cc-pvdz iop(5/13=1,5/36=2,99/5=2) pseudo=read geom=check guess=(read
 ,tcheck) scf=(maxcycle=1)\\title\\0,1\O,0,-1.88213506,0.58702278,-0.60
 085004\C,0,-1.51430137,-0.61384209,0.06119826\C,0,-0.03820923,-0.60115
 161,0.43414422\C,0,0.98350529,-0.26590849,-0.67383534\C,0,1.37412571,0
 .91661161,0.23041676\O,0,0.27602361,0.64173405,1.15021019\H,0,-1.49288
 072,1.28987473,-0.03977321\H,0,-2.11290423,-0.77429967,0.97901408\H,0,
 -1.71808792,-1.44615476,-0.62779978\H,0,0.22164253,-1.48532454,1.04011

 Normal termination of Gaussian 16 at Wed Apr  9 03:03:53 2025.
