 Gaussian 16, Revision C.01,

 ----------------------------------------------------------------------
 #t hf aug-cc-pvdz symm=none int=(grid=ultrafine) guess=(read,tcheck) s
 table=(opt,rrhf)
 ----------------------------------------------------------------------
 -----
 title
 -----
 Symbolic Z-matrix:
 Charge =  0 Multiplicity = 1

 SCF Done:  E(RHF) =  -304.692015630     A.U. after   15 cycles
 Normal termination of Gaussian 16 at Wed Apr  9 03:14:21 2025.
 Gaussian 16:  ES64L-G16RevC.01  3-Jul-2019

 ----------------------------------------------------------------------
 #t hf aug-cc-pvdz iop(5/13=1,5/36=2,99/5=2) pseudo=read geom=check gue
 ss=(read,tcheck) scf=(maxcycle=1)
 ----------------------------------------------------------------------
 -----
 title
 -----
 Structure from the checkpoint file:  "Grambow2020_b97d3_006981_reverse_mol2.chk"
 Charge =  0 Multiplicity = 1

                         Standard orientation:
 ---------------------------------------------------------------------
 Center     Atomic      Atomic             Coordinates (Angstroms)
 Number     Number       Type             X           Y           Z
 ---------------------------------------------------------------------
      1          6           0       -2.149263   -0.509218   -0.261230
      2          6           0       -0.887036    0.049456    0.405168
      3          6           0        0.318916   -0.844487    0.109551
      4          6           0        1.537480   -0.339594   -0.002027
      5          8           0        2.616064    0.120655   -0.131983
      6          8           0       -0.636385    1.405799    0.032512
      7          1           0       -2.015928   -0.562861   -1.352067
      8          1           0       -3.002360    0.144991   -0.038924
      9          1           0       -2.377389   -1.521029    0.103159
     10          1           0       -1.048730    0.105718    1.491693
     11          1           0        0.205796   -1.923818    0.021155
     12          1           0       -0.519416    1.408435   -0.938016
 ---------------------------------------------------------------------

 SCF Done:  E(RHF) =  -304.787798332     A.U. after    2 cycles

 The electronic state is 1-A.
 Alpha  occ. eigenvalues --  -20.64178 -20.58834 -11.39860 -11.32392 -11.25733
 Alpha  occ. eigenvalues --  -11.24578  -1.42340  -1.33594  -1.07657  -0.99987
 Alpha  occ. eigenvalues --   -0.85885  -0.76460  -0.71500  -0.68221  -0.65580
 Alpha  occ. eigenvalues --   -0.64246  -0.63065  -0.58818  -0.55951  -0.54556
 Alpha  occ. eigenvalues --   -0.50891  -0.48048  -0.36168
 Alpha virt. eigenvalues --    0.03002   0.04373   0.04498   0.05211   0.06927
 Alpha virt. eigenvalues --    0.07215   0.08428   0.10558   0.11277   0.11835
 Alpha virt. eigenvalues --    0.13240   0.14144   0.14457   0.15204   0.15629

 Mulliken charges:
               1
     1  C    0.453175
     2  C    0.076189
     3  C    1.165343
     4  C   -0.470062
     5  O   -0.264344
     6  O   -0.567838
     7  H   -0.035865
     8  H   -0.016693
     9  H   -0.018529
    10  H   -0.137211
    11  H   -0.360358
    12  H    0.176195
 Sum of Mulliken charges =   0.00000

 Dipole moment (field-independent basis, Debye):
    X=             -2.4944    Y=             -2.2847    Z=             -0.7470  Tot=              3.4641

 Test job not archived.
 1\1\GINC-SE143\SP\RHF\Aug-CC-pVDZ\C4H6O2\OHZDE\09-Apr-2025\0\\#t hf au
 g-cc-pvdz iop(5/13=1,5/36=2,99/5=2) pseudo=read geom=check guess=(read
 ,tcheck) scf=(maxcycle=1)\\title\\0,1\C,0,-1.51042204,0.12175977,0.213
 74718\C,0,-0.19073175,-0.40061396,-0.36501225\C,0,0.87889112,0.6930605
 7,-0.33995655\C,0,2.15862318,0.3987767,-0.1727778\O,0,3.29369862,0.132
 75017,0.00859068\O,0,0.25669327,-1.58490305,0.29728194\H,0,-1.3708013,
 0.44706288,1.25550767\H,0,-2.26414034,-0.67601349,0.18822471\H,0,-1.88
 612633,0.97939092,-0.36235791\H,0,-0.35798123,-0.73128185,-1.4006437\H

 Normal termination of Gaussian 16 at Wed Apr  9 03:14:25 2025.
