 Gaussian 16, Revision C.01,

 ----------------------------------------------------------------------
 #t hf aug-cc-pvdz symm=none int=(grid=ultrafine) guess=(read,tcheck) s
 table=(opt,rrhf)
 ----------------------------------------------------------------------
 -----
 title
 -----
 Symbolic Z-matrix:
 Charge =  0 Multiplicity = 1

 SCF Done:  E(RHF) =  -316.520500426     A.U. after   16 cycles
 Normal termination of Gaussian 16 at Wed Apr  9 15:38:38 2025.
 Gaussian 16:  ES64L-G16RevC.01  3-Jul-2019

 ----------------------------------------------------------------------
 #t hf aug-cc-pvdz iop(5/13=1,5/36=2,99/5=2) pseudo=read geom=check gue
 ss=(read,tcheck) scf=(maxcycle=1)
 ----------------------------------------------------------------------
 -----
 title
 -----
 Structure from the checkpoint file:  "Grambow2020_wb97xd3_007262_reverse_mol2.chk"
 Charge =  0 Multiplicity = 1

                         Standard orientation:
 ---------------------------------------------------------------------
 Center     Atomic      Atomic             Coordinates (Angstroms)
 Number     Number       Type             X           Y           Z
 ---------------------------------------------------------------------
      1          7           0       -2.715852   -0.969301   -0.221333
      2          6           0       -1.746429   -0.380874   -0.050236
      3          6           0       -0.539901    0.416879    0.121509
      4          7           0        0.535051   -0.311950    0.647271
      5          6           0        1.647497   -0.307132    0.145628
      6          6           0        2.851171   -0.368963   -0.335627
      7          7           0       -0.476937    1.652899   -0.109006
      8          1           0        3.129002   -1.176185   -0.998244
      9          1           0        3.570985    0.395748   -0.080741
     10          1           0       -1.369843    2.019447   -0.427175
 ---------------------------------------------------------------------

 SCF Done:  E(RHF) =  -316.614244153     A.U. after    2 cycles

 The electronic state is 1-A.
 Alpha  occ. eigenvalues --  -15.68694 -15.67561 -15.66844 -11.40555 -11.36743
 Alpha  occ. eigenvalues --  -11.31580 -11.27420  -1.31256  -1.22863  -1.20528
 Alpha  occ. eigenvalues --   -1.05859  -0.95578  -0.81689  -0.73895  -0.70104
 Alpha  occ. eigenvalues --   -0.65670  -0.62464  -0.58425  -0.54272  -0.51920
 Alpha  occ. eigenvalues --   -0.49876  -0.47627  -0.44662  -0.38317
 Alpha virt. eigenvalues --    0.03057   0.03888   0.04639   0.06016   0.06890
 Alpha virt. eigenvalues --    0.08543   0.08855   0.10481   0.11360   0.11979
 Alpha virt. eigenvalues --    0.12125   0.13030   0.13332   0.13913   0.15109

 Mulliken charges:
               1
     1  N   -0.118949
     2  C   -0.327191
     3  C    1.151540
     4  N   -0.430429
     5  C   -0.412267
     6  C    0.796363
     7  N   -0.372625
     8  H   -0.178537
     9  H   -0.163259
    10  H    0.055355
 Sum of Mulliken charges =  -0.00000

 Dipole moment (field-independent basis, Debye):
    X=              2.6471    Y=              0.9372    Z=             -0.9567  Tot=              2.9666

 Test job not archived.
 1\1\GINC-SE042\SP\RHF\Aug-CC-pVDZ\C4H3N3\OHZDE\09-Apr-2025\0\\#t hf au
 g-cc-pvdz iop(5/13=1,5/36=2,99/5=2) pseudo=read geom=check guess=(read
 ,tcheck) scf=(maxcycle=1)\\title\\0,1\N,0,3.14263562,-1.1665385,0.4301
 2362\C,0,2.21108979,-0.57687265,0.11418475\C,0,1.05311269,0.22841479,-
 0.2494337\N,0,-0.03244945,-0.53488698,-0.69894873\C,0,-1.16378478,-0.3
 9982989,-0.26186169\C,0,-2.38851769,-0.33016037,0.16173768\N,0,1.04035
 916,1.48714925,-0.23294701\H,0,-2.73324352,-1.0011994,0.93551394\H,0,-
 3.05884515,0.40872889,-0.25369682\H,0,1.93556632,1.86586886,0.06377695

 Normal termination of Gaussian 16 at Wed Apr  9 15:38:41 2025.
