 Gaussian 16, Revision C.01,

 ----------------------------------------------------------------------
 #t hf aug-cc-pvdz symm=none int=(grid=ultrafine) guess=(read,tcheck) s
 table=(opt,rrhf)
 ----------------------------------------------------------------------
 -----
 title
 -----
 Symbolic Z-matrix:
 Charge =  0 Multiplicity = 1

 SCF Done:  E(RHF) =  -336.344293481     A.U. after   16 cycles
 Normal termination of Gaussian 16 at Wed Apr  9 03:45:30 2025.
 Gaussian 16:  ES64L-G16RevC.01  3-Jul-2019

 ----------------------------------------------------------------------
 #t hf aug-cc-pvdz iop(5/13=1,5/36=2,99/5=2) pseudo=read geom=check gue
 ss=(read,tcheck) scf=(maxcycle=1)
 ----------------------------------------------------------------------
 -----
 title
 -----
 Structure from the checkpoint file:  "Grambow2020_wb97xd3_007920_reverse_mol2.chk"
 Charge =  0 Multiplicity = 1

                         Standard orientation:
 ---------------------------------------------------------------------
 Center     Atomic      Atomic             Coordinates (Angstroms)
 Number     Number       Type             X           Y           Z
 ---------------------------------------------------------------------
      1          7           0       -2.148821    1.058470   -0.002335
      2          6           0       -1.515988   -0.137604    0.000431
      3          8           0       -2.073783   -1.208022   -0.000361
      4          6           0       -0.052461   -0.035427    0.001502
      5          6           0        1.144384   -0.010848    0.001246
      6          6           0        3.629060    0.043069   -0.001594
      7          7           0        2.456705    0.015806    0.000229
      8          1           0       -1.641246    1.923091    0.007344
      9          1           0       -3.153646    1.066009    0.000779
 ---------------------------------------------------------------------

 SCF Done:  E(RHF) =  -336.450020393     A.U. after    2 cycles

 The electronic state is 1-A.
 Alpha  occ. eigenvalues --  -20.56631 -15.72350 -15.67724 -11.41566 -11.35037
 Alpha  occ. eigenvalues --  -11.34947 -11.29575  -1.38446  -1.30200  -1.21321
 Alpha  occ. eigenvalues --   -1.09960  -0.97718  -0.88713  -0.78465  -0.72033
 Alpha  occ. eigenvalues --   -0.65545  -0.63049  -0.61434  -0.60268  -0.52353
 Alpha  occ. eigenvalues --   -0.49174  -0.44496  -0.42496  -0.42462
 Alpha virt. eigenvalues --    0.02384   0.04437   0.05296   0.06631   0.07370
 Alpha virt. eigenvalues --    0.07378   0.08185   0.10155   0.10425   0.10721
 Alpha virt. eigenvalues --    0.12163   0.13688   0.15546   0.15714   0.16090

 Mulliken charges:
               1
     1  N   -0.147457
     2  C    0.493284
     3  O   -0.482483
     4  C    0.721619
     5  C   -0.430823
     6  C   -0.194033
     7  N   -0.002268
     8  H    0.009664
     9  H    0.032496
 Sum of Mulliken charges =   0.00000

 Dipole moment (field-independent basis, Debye):
    X=             -1.1650    Y=              4.1330    Z=              0.0224  Tot=              4.2941

 Test job not archived.
 1\1\GINC-SE141\SP\RHF\Aug-CC-pVDZ\C4H2N2O1\OHZDE\09-Apr-2025\0\\#t hf
 aug-cc-pvdz iop(5/13=1,5/36=2,99/5=2) pseudo=read geom=check guess=(re
 ad,tcheck) scf=(maxcycle=1)\\title\\0,1\N,0,-1.89819289,0.32811046,0.4
 6311532\C,0,-1.03649288,-0.61718402,0.90466734\O,0,-1.36614859,-1.6629
 9794,1.4091772\C,0,0.37596231,-0.26799989,0.71653209\C,0,1.54295742,-0
 .03511307,0.58642398\C,0,3.96504645,0.44992692,0.31302248\N,0,2.822598
 09,0.21966386,0.44322394\H,0,-1.57595226,1.1868228,0.05806018\H,0,-2.8
 8361565,0.15876488,0.56313248\\Version=ES64L-G16RevC.01\State=1-A\HF=-

 Normal termination of Gaussian 16 at Wed Apr  9 03:45:34 2025.
