 Gaussian 16, Revision C.01,

 ----------------------------------------------------------------------
 #t hf aug-cc-pvdz symm=none int=(grid=ultrafine) guess=(read,tcheck) s
 table=(opt,rrhf)
 ----------------------------------------------------------------------
 -----
 title
 -----
 Symbolic Z-matrix:
 Charge =  0 Multiplicity = 1

 SCF Done:  E(RHF) =  -270.615514394     A.U. after   14 cycles
 Normal termination of Gaussian 16 at Wed Apr  9 03:52:51 2025.
 Gaussian 16:  ES64L-G16RevC.01  3-Jul-2019

 ----------------------------------------------------------------------
 #t hf aug-cc-pvdz iop(5/13=1,5/36=2,99/5=2) pseudo=read geom=check gue
 ss=(read,tcheck) scf=(maxcycle=1)
 ----------------------------------------------------------------------
 -----
 title
 -----
 Structure from the checkpoint file:  "Grambow2020_wb97xd3_008379_forward_mol1.chk"
 Charge =  0 Multiplicity = 1

                         Standard orientation:
 ---------------------------------------------------------------------
 Center     Atomic      Atomic             Coordinates (Angstroms)
 Number     Number       Type             X           Y           Z
 ---------------------------------------------------------------------
      1          6           0       -2.344543    0.172498    0.004689
      2          6           0       -0.434406    0.070517   -0.022615
      3          6           0        0.223907   -0.770105   -1.089402
      4          6           0        1.329608   -0.614330    0.023629
      5          6           0        0.168857   -0.757918    1.082938
      6          6           0        1.512174    0.908015    0.017056
      7          6           0        0.280679    1.459356   -0.016628
      8          1           0       -2.613054    0.061162    1.048971
      9          1           0       -2.944880    0.954180   -0.474267
     10          1           0       -2.450472   -0.741691   -0.563610
     11          1           0        0.421438   -0.295189   -2.045988
     12          1           0       -0.159840   -1.789483   -1.183799
     13          1           0        2.162550   -1.313611    0.049640
     14          1           0        0.316726   -0.270184    2.042178
     15          1           0       -0.218917   -1.776064    1.169548
     16          1           0        2.472093    1.409240    0.035928
     17          1           0       -1.403305    0.953443   -0.076598
 ---------------------------------------------------------------------

 SCF Done:  E(RHF) =  -270.694568535     A.U. after    2 cycles

 The electronic state is 1-A.
 Alpha  occ. eigenvalues --  -11.32379 -11.29965 -11.26002 -11.25948 -11.25875
 Alpha  occ. eigenvalues --  -11.19140 -11.17241  -1.21678  -1.04502  -0.96591
 Alpha  occ. eigenvalues --   -0.92897  -0.88510  -0.75722  -0.71293  -0.67038
 Alpha  occ. eigenvalues --   -0.63486  -0.63213  -0.62775  -0.59560  -0.51317
 Alpha  occ. eigenvalues --   -0.50742  -0.48517  -0.46903  -0.45139  -0.30581
 Alpha  occ. eigenvalues --   -0.30016
 Alpha virt. eigenvalues --    0.02267   0.03556   0.04244   0.04732   0.06115
 Alpha virt. eigenvalues --    0.06283   0.06682   0.07074   0.07331   0.08850
 Alpha virt. eigenvalues --    0.11163   0.12138   0.12657   0.12826   0.13099

 Mulliken charges:
               1
     1  C    0.572903
     2  C   -0.564910
     3  C    0.628976
     4  C    0.309055
     5  C    0.621175
     6  C    0.300010
     7  C   -0.656372
     8  H    0.045749
     9  H    0.062720
    10  H    0.085172
    11  H   -0.218961
    12  H   -0.272926
    13  H   -0.474865
    14  H   -0.198552
    15  H   -0.255392
    16  H   -0.377548
    17  H    0.393767
 Sum of Mulliken charges =  -0.00000

 Dipole moment (field-independent basis, Debye):
    X=             -3.3786    Y=             -4.9386    Z=             -0.0461  Tot=              5.9839

 Test job not archived.
 1\1\GINC-SE344\SP\RHF\Aug-CC-pVDZ\C7H10\OHZDE\09-Apr-2025\0\\#t hf aug
 -cc-pvdz iop(5/13=1,5/36=2,99/5=2) pseudo=read geom=check guess=(read,
 tcheck) scf=(maxcycle=1)\\title\\0,1\C,0,2.14031751,0.21826579,0.05331
 527\C,0,0.22740026,0.19565006,0.05147394\C,0,-0.47976224,-0.74695237,0
 .99459656\C,0,-1.56270137,-0.40113795,-0.09780174\C,0,-0.39450303,-0.4
 5607652,-1.15723116\C,0,-1.68204456,1.11397045,0.10496023\C,0,-0.42931
 869,1.60296972,0.22007357\H,0,2.41825924,0.23161045,-0.99434416\H,0,2.
 76594117,0.90490017,0.63465609\H,0,2.20044555,-0.76548415,0.49890182\H

 Normal termination of Gaussian 16 at Wed Apr  9 03:52:58 2025.
