 Gaussian 16, Revision C.01,

 ----------------------------------------------------------------------
 #t hf aug-cc-pvdz symm=none int=(grid=ultrafine) guess=(read,tcheck) s
 table=(opt,rrhf)
 ----------------------------------------------------------------------
 -----
 title
 -----
 Symbolic Z-matrix:
 Charge =  0 Multiplicity = 1

 SCF Done:  E(RHF) =  -268.713791499     A.U. after   18 cycles
 Normal termination of Gaussian 16 at Wed Apr  9 14:26:30 2025.
 Gaussian 16:  ES64L-G16RevC.01  3-Jul-2019

 ----------------------------------------------------------------------
 #t hf aug-cc-pvdz iop(5/13=1,5/36=2,99/5=2) pseudo=read geom=check gue
 ss=(read,tcheck) scf=(maxcycle=1)
 ----------------------------------------------------------------------
 -----
 title
 -----
 Structure from the checkpoint file:  "Grambow2020_wb97xd3_006266_reverse_mol1.chk"
 Charge =  0 Multiplicity = 1

                         Standard orientation:
 ---------------------------------------------------------------------
 Center     Atomic      Atomic             Coordinates (Angstroms)
 Number     Number       Type             X           Y           Z
 ---------------------------------------------------------------------
      1          6           0       -1.841206   -0.762592    0.106647
      2          6           0       -0.603101   -0.090792   -0.441723
      3          6           0       -0.454382    1.403816   -0.113595
      4          6           0        0.849772    0.970167    0.409192
      5          6           0        0.745953   -0.542757    0.404632
      6          8           0        1.750453   -0.860047   -0.326643
      7          1           0       -1.934341   -0.598869    1.182478
      8          1           0       -2.734721   -0.353287   -0.371954
      9          1           0       -1.810873   -1.838771   -0.070319
     10          1           0       -0.388397   -0.315212   -1.481496
     11          1           0       -1.156061    1.718710    0.661540
     12          1           0       -0.457011    2.120825   -0.932486
     13          1           0        1.813029    1.386663    0.120787
     14          1           0        0.482539   -1.106731    1.313679
 ---------------------------------------------------------------------

 SCF Done:  E(RHF) =  -268.795585957     A.U. after    2 cycles

 The electronic state is 1-A.
 Alpha  occ. eigenvalues --  -20.48998 -11.34017 -11.30766 -11.27139 -11.27074
 Alpha  occ. eigenvalues --  -11.24825  -1.28215  -1.14447  -1.00248  -0.89511
 Alpha  occ. eigenvalues --   -0.84771  -0.76938  -0.68267  -0.63755  -0.62263
 Alpha  occ. eigenvalues --   -0.59288  -0.58499  -0.55881  -0.52471  -0.51573
 Alpha  occ. eigenvalues --   -0.47245  -0.37519  -0.35145
 Alpha virt. eigenvalues --    0.02252   0.03091   0.04087   0.04434   0.05117
 Alpha virt. eigenvalues --    0.06420   0.06753   0.07112   0.07427   0.10760
 Alpha virt. eigenvalues --    0.11957   0.12508   0.14266   0.14683   0.14944

 Mulliken charges:
               1
     1  C    0.543521
     2  C   -0.529446
     3  C    0.617001
     4  C    0.400600
     5  C    0.747903
     6  O   -0.774536
     7  H   -0.007138
     8  H   -0.051660
     9  H   -0.029761
    10  H   -0.245821
    11  H   -0.076971
    12  H   -0.141411
    13  H   -0.254298
    14  H   -0.197983
 Sum of Mulliken charges =   0.00000

 Dipole moment (field-independent basis, Debye):
    X=             -4.1505    Y=              3.5809    Z=              1.3183  Tot=              5.6381

 Test job not archived.
 1\1\GINC-SE026\SP\RHF\Aug-CC-pVDZ\C5H8O1\OHZDE\09-Apr-2025\0\\#t hf au
 g-cc-pvdz iop(5/13=1,5/36=2,99/5=2) pseudo=read geom=check guess=(read
 ,tcheck) scf=(maxcycle=1)\\title\\0,1\C,0,-1.30067595,-1.02923682,-0.0
 7274315\C,0,-0.26971805,0.00544423,-0.46196218\C,0,-0.18392228,1.23839
 965,0.45242156\C,0,1.23385636,0.85553273,0.52654388\C,0,1.26203113,-0.
 51812705,-0.11533198\O,0,2.11188734,-0.33606998,-1.05822964\H,0,-1.177
 03919,-1.33621036,0.96810948\H,0,-2.30725788,-0.61715142,-0.1819933\H,
 0,-1.21610098,-1.91805848,-0.69983134\H,0,-0.26214047,0.26369255,-1.51

 Normal termination of Gaussian 16 at Wed Apr  9 14:26:34 2025.
