 Gaussian 16, Revision C.01,

 ----------------------------------------------------------------------
 #t hf aug-cc-pvdz symm=none int=(grid=ultrafine) guess=(read,tcheck) s
 table=(opt,rrhf)
 ----------------------------------------------------------------------
 -----
 title
 -----
 Symbolic Z-matrix:
 Charge =  0 Multiplicity = 1

 SCF Done:  E(RHF) =  -318.839938999     A.U. after   15 cycles
 Normal termination of Gaussian 16 at Wed Apr  9 15:29:57 2025.
 Gaussian 16:  ES64L-G16RevC.01  3-Jul-2019

 ----------------------------------------------------------------------
 #t hf aug-cc-pvdz iop(5/13=1,5/36=2,99/5=2) pseudo=read geom=check gue
 ss=(read,tcheck) scf=(maxcycle=1)
 ----------------------------------------------------------------------
 -----
 title
 -----
 Structure from the checkpoint file:  "Grambow2020_wb97xd3_006930_reverse_mol2.chk"
 Charge =  0 Multiplicity = 1

                         Standard orientation:
 ---------------------------------------------------------------------
 Center     Atomic      Atomic             Coordinates (Angstroms)
 Number     Number       Type             X           Y           Z
 ---------------------------------------------------------------------
      1          7           0       -2.474383   -0.358608   -0.192025
      2          6           0       -1.198792   -0.296036   -0.005114
      3          6           0       -0.055277   -1.038069    0.234108
      4          6           0        1.135970   -0.151887    0.403336
      5          7           0        2.324690   -0.322933   -0.437398
      6          6           0        0.547396    1.201154    0.140779
      7          7           0       -0.701022    1.102922   -0.062551
      8          1           0       -2.794880   -1.318863   -0.161032
      9          1           0        1.505436   -0.101386    1.443814
     10          1           0       -0.044429   -2.095892    0.438969
     11          1           0        2.030237   -0.707950   -1.327089
     12          1           0        2.946690   -0.999147   -0.018333
     13          1           0        1.093279    2.135278    0.092258
     14          1           0       -1.357116    1.847319   -0.263428
 ---------------------------------------------------------------------

 SCF Done:  E(RHF) =  -318.933306170     A.U. after    2 cycles

 The electronic state is 1-A.
 Alpha  occ. eigenvalues --  -15.73380 -15.62386 -15.54687 -11.37009 -11.31181
 Alpha  occ. eigenvalues --  -11.29879 -11.17722  -1.32576  -1.17264  -1.12744
 Alpha  occ. eigenvalues --   -1.01751  -0.94772  -0.83523  -0.79222  -0.75208
 Alpha  occ. eigenvalues --   -0.69502  -0.62550  -0.61986  -0.59127  -0.56113
 Alpha  occ. eigenvalues --   -0.54894  -0.53109  -0.43490  -0.41635  -0.38733
 Alpha  occ. eigenvalues --   -0.24826
 Alpha virt. eigenvalues --    0.02102   0.03311   0.03857   0.04863   0.06141
 Alpha virt. eigenvalues --    0.06734   0.07149   0.07387   0.10569   0.11652
 Alpha virt. eigenvalues --    0.12957   0.13173   0.13992   0.14522   0.14786

 Mulliken charges:
               1
     1  N   -0.451193
     2  C   -0.043725
     3  C    1.319666
     4  C   -0.174669
     5  N   -0.369532
     6  C    0.698630
     7  N   -0.354570
     8  H   -0.037954
     9  H    0.000531
    10  H   -0.369736
    11  H    0.038258
    12  H    0.006778
    13  H   -0.206207
    14  H   -0.056276
 Sum of Mulliken charges =   0.00000

 Dipole moment (field-independent basis, Debye):
    X=              3.8738    Y=              2.7175    Z=              0.6463  Tot=              4.7758

 Test job not archived.
 1\1\GINC-SE057\SP\RHF\Aug-CC-pVDZ\C4H7N3\OHZDE\09-Apr-2025\0\\#t hf au
 g-cc-pvdz iop(5/13=1,5/36=2,99/5=2) pseudo=read geom=check guess=(read
 ,tcheck) scf=(maxcycle=1)\\title\\0,1\N,0,-2.52862729,-0.05368425,-0.9
 2280022\C,0,-1.34943684,-0.10671609,-0.4006114\C,0,-0.35004496,-0.9532
 4309,0.04668695\C,0,0.79238587,-0.18069649,0.62205405\N,0,2.15434479,-
 0.3611828,0.11054588\C,0,0.36231074,1.23214404,0.3671189\N,0,-0.788027
 98,1.24927093,-0.16764005\H,0,-2.89134066,-0.98525774,-1.08521267\H,0,
 0.86910944,-0.25778096,1.7219727\H,0,-0.44576745,-2.02348887,0.1272239

 Normal termination of Gaussian 16 at Wed Apr  9 15:30:01 2025.
