 Gaussian 16, Revision C.01,

 ----------------------------------------------------------------------
 #t hf aug-cc-pvdz symm=none int=(grid=ultrafine) guess=(read,tcheck) s
 table=(opt,rrhf)
 ----------------------------------------------------------------------
 -----
 title
 -----
 Symbolic Z-matrix:
 Charge =  0 Multiplicity = 1

 SCF Done:  E(RHF) =  -268.855549487     A.U. after   14 cycles
 Normal termination of Gaussian 16 at Wed Apr  9 14:25:22 2025.
 Gaussian 16:  ES64L-G16RevC.01  3-Jul-2019

 ----------------------------------------------------------------------
 #t hf aug-cc-pvdz iop(5/13=1,5/36=2,99/5=2) pseudo=read geom=check gue
 ss=(read,tcheck) scf=(maxcycle=1)
 ----------------------------------------------------------------------
 -----
 title
 -----
 Structure from the checkpoint file:  "Grambow2020_wb97xd3_006252_forward_mol2.chk"
 Charge =  0 Multiplicity = 1

                         Standard orientation:
 ---------------------------------------------------------------------
 Center     Atomic      Atomic             Coordinates (Angstroms)
 Number     Number       Type             X           Y           Z
 ---------------------------------------------------------------------
      1          6           0       -1.647201   -1.176937    0.059693
      2          6           0       -1.172271    0.161362   -0.448547
      3          6           0       -0.781819    1.252891    0.477287
      4          6           0        0.281029    0.596716   -0.379643
      5          6           0        1.290214   -0.252736    0.278756
      6          8           0        2.420349   -0.384076   -0.110832
      7          1           0       -1.231524   -1.417447    1.038840
      8          1           0       -2.734106   -1.172156    0.161150
      9          1           0       -1.377916   -1.981877   -0.626692
     10          1           0       -1.656035    0.479687   -1.365286
     11          1           0       -0.761770    1.024957    1.537220
     12          1           0       -1.040605    2.276299    0.242580
     13          1           0        0.668102    1.154922   -1.222462
     14          1           0        0.951343   -0.779559    1.196025
 ---------------------------------------------------------------------

 SCF Done:  E(RHF) =  -268.941082281     A.U. after    2 cycles

 The electronic state is 1-A.
 Alpha  occ. eigenvalues --  -20.56452 -11.34041 -11.26588 -11.25720 -11.25427
 Alpha  occ. eigenvalues --  -11.24417  -1.35622  -1.16813  -0.98505  -0.90930
 Alpha  occ. eigenvalues --   -0.82151  -0.77018  -0.69798  -0.66833  -0.63989
 Alpha  occ. eigenvalues --   -0.59005  -0.57249  -0.56830  -0.54690  -0.52268
 Alpha  occ. eigenvalues --   -0.45264  -0.42808  -0.41847
 Alpha virt. eigenvalues --    0.03033   0.04033   0.04277   0.04971   0.06334
 Alpha virt. eigenvalues --    0.06752   0.07037   0.07642   0.09975   0.12281
 Alpha virt. eigenvalues --    0.12445   0.13101   0.14186   0.14527   0.14963

 Mulliken charges:
               1
     1  C    0.336844
     2  C    0.157000
     3  C    0.833963
     4  C    0.403324
     5  C    0.416286
     6  O   -0.464305
     7  H   -0.109126
     8  H   -0.007229
     9  H    0.005137
    10  H   -0.364921
    11  H   -0.346229
    12  H   -0.326340
    13  H   -0.386265
    14  H   -0.148140
 Sum of Mulliken charges =   0.00000

 Dipole moment (field-independent basis, Debye):
    X=             -4.0193    Y=              0.6877    Z=              0.6727  Tot=              4.1328

 Test job not archived.
 1\1\GINC-SE163\SP\RHF\Aug-CC-pVDZ\C5H8O1\OHZDE\09-Apr-2025\0\\#t hf au
 g-cc-pvdz iop(5/13=1,5/36=2,99/5=2) pseudo=read geom=check guess=(read
 ,tcheck) scf=(maxcycle=1)\\title\\0,1\C,0,-1.29183222,-0.94455191,-0.3
 7163497\C,0,-0.57139405,0.36887143,-0.54713083\C,0,-0.18639074,1.20799
 336,0.61420636\C,0,0.89886199,0.54958069,-0.21238844\C,0,1.67348083,-0
 .55006545,0.39114941\O,0,2.82249998,-0.7897278,0.12932829\H,0,-1.06687
 978,-1.41350901,0.5869238\H,0,-2.3710941,-0.78498295,-0.40918827\H,0,-
 1.02954429,-1.6511391,-1.16125991\H,0,-0.86227891,0.91349117,-1.438503

 Normal termination of Gaussian 16 at Wed Apr  9 14:25:26 2025.
