 Gaussian 16, Revision C.01,

 ----------------------------------------------------------------------
 #t hf aug-cc-pvdz symm=none int=(grid=ultrafine) guess=(read,tcheck) s
 table=(opt,rrhf)
 ----------------------------------------------------------------------
 -----
 title
 -----
 Symbolic Z-matrix:
 Charge =  0 Multiplicity = 1

 SCF Done:  E(RHF) =  -343.645717857     A.U. after   17 cycles
 Normal termination of Gaussian 16 at Wed Apr  9 16:09:07 2025.
 Gaussian 16:  ES64L-G16RevC.01  3-Jul-2019

 ----------------------------------------------------------------------
 #t hf aug-cc-pvdz iop(5/13=1,5/36=2,99/5=2) pseudo=read geom=check gue
 ss=(read,tcheck) scf=(maxcycle=1)
 ----------------------------------------------------------------------
 -----
 title
 -----
 Structure from the checkpoint file:  "Grambow2020_wb97xd3_007807_reverse_mol2.chk"
 Charge =  0 Multiplicity = 1

                         Standard orientation:
 ---------------------------------------------------------------------
 Center     Atomic      Atomic             Coordinates (Angstroms)
 Number     Number       Type             X           Y           Z
 ---------------------------------------------------------------------
      1          6           0        1.977621   -1.119920   -0.140044
      2          6           0       -1.212006   -0.939889   -0.144772
      3          6           0       -2.521585   -0.344059   -0.404033
      4          6           0       -0.477000   -0.207459    0.913983
      5          6           0        0.454088    0.728657    0.109095
      6          8           0        0.142212    1.860640   -0.110529
      7          8           0        1.612509    0.245765   -0.334129
      8          1           0        2.319891   -1.279955    0.884614
      9          1           0        1.146030   -1.782800   -0.383054
     10          1           0        2.804746   -1.298210   -0.822454
     11          1           0       -2.627183    0.723848   -0.171290
     12          1           0       -2.947341   -0.598455   -1.373591
     13          1           0       -3.122758   -0.889739    0.349816
     14          1           0       -1.072110    0.453549    1.553129
     15          1           0        0.134249   -0.883457    1.514719
 ---------------------------------------------------------------------

 SCF Done:  E(RHF) =  -343.754647112     A.U. after    2 cycles

 The electronic state is 1-A.
 Alpha  occ. eigenvalues --  -20.62298 -20.56391 -11.40931 -11.30585 -11.28892
 Alpha  occ. eigenvalues --  -11.26884 -11.24958  -1.43069  -1.34121  -1.09665
 Alpha  occ. eigenvalues --   -0.99276  -0.98107  -0.80143  -0.76391  -0.71467
 Alpha  occ. eigenvalues --   -0.70163  -0.68178  -0.63228  -0.60661  -0.60443
 Alpha  occ. eigenvalues --   -0.57433  -0.57066  -0.54141  -0.51860  -0.47612
 Alpha  occ. eigenvalues --   -0.46437  -0.36194
 Alpha virt. eigenvalues --    0.03058   0.04009   0.04408   0.05152   0.05853
 Alpha virt. eigenvalues --    0.06241   0.06615   0.07585   0.08444   0.09408
 Alpha virt. eigenvalues --    0.11013   0.12541   0.12852   0.13445   0.14244

 Mulliken charges:
               1
     1  C    0.822818
     2  C   -0.593540
     3  C    0.472804
     4  C    0.358685
     5  C    0.597039
     6  O   -0.484125
     7  O   -0.589859
     8  H   -0.094187
     9  H   -0.012918
    10  H   -0.291381
    11  H   -0.074128
    12  H   -0.055896
    13  H    0.126845
    14  H   -0.135676
    15  H   -0.046479
 Sum of Mulliken charges =  -0.00000

 Dipole moment (field-independent basis, Debye):
    X=             -0.7404    Y=             -3.2618    Z=              2.1268  Tot=              3.9637

 Test job not archived.
 1\1\GINC-SE138\SP\RHF\Aug-CC-pVDZ\C5H8O2\OHZDE\09-Apr-2025\0\\#t hf au
 g-cc-pvdz iop(5/13=1,5/36=2,99/5=2) pseudo=read geom=check guess=(read
 ,tcheck) scf=(maxcycle=1)\\title\\0,1\C,0,0.04188099,2.2762654,-0.4943
 6784\C,0,-0.92270395,-0.71274222,0.09006291\C,0,-0.98436489,-1.9870396
 9,0.80391922\C,0,0.38505389,-0.52431307,-0.58218185\C,0,1.16941041,0.3
 5438463,0.41969469\O,0,1.92435104,-0.13720735,1.20409807\O,0,0.9856181
 9,1.67228451,0.38916888\H,0,0.44641196,2.32409696,-1.50765518\H,0,-0.9
 0679869,1.73802923,-0.47657306\H,0,-0.09897432,3.28714935,-0.1203617\H

 Normal termination of Gaussian 16 at Wed Apr  9 16:09:12 2025.
