 Gaussian 16, Revision C.01,

 ----------------------------------------------------------------------
 #t hf aug-cc-pvdz symm=none int=(grid=ultrafine) guess=(read,tcheck) s
 table=(opt,rrhf)
 ----------------------------------------------------------------------
 -----
 title
 -----
 Symbolic Z-matrix:
 Charge =  0 Multiplicity = 1

 SCF Done:  E(RHF) =  -283.482980929     A.U. after   18 cycles
 Normal termination of Gaussian 16 at Wed Apr  9 13:43:37 2025.
 Gaussian 16:  ES64L-G16RevC.01  3-Jul-2019

 ----------------------------------------------------------------------
 #t hf aug-cc-pvdz iop(5/13=1,5/36=2,99/5=2) pseudo=read geom=check gue
 ss=(read,tcheck) scf=(maxcycle=1)
 ----------------------------------------------------------------------
 -----
 title
 -----
 Structure from the checkpoint file:  "Grambow2020_b97d3_006660_forward_mol1.chk"
 Charge =  0 Multiplicity = 1

                         Standard orientation:
 ---------------------------------------------------------------------
 Center     Atomic      Atomic             Coordinates (Angstroms)
 Number     Number       Type             X           Y           Z
 ---------------------------------------------------------------------
      1          7           0        2.916954   -0.170673    0.228526
      2          6           0        1.745907    0.109498   -0.074011
      3          6           0        0.435381    0.563968   -0.270169
      4          6           0       -0.697851   -0.076413    0.407395
      5          6           0       -2.075181    0.431084    0.216173
      6          8           0       -1.689031   -0.793358   -0.406181
      7          1           0        1.890296   -0.795373   -0.770314
      8          1           0        0.248955    1.113289   -1.193445
      9          1           0       -0.469622   -0.580386    1.350190
     10          1           0       -2.788283    0.355070    1.044592
     11          1           0       -2.237315    1.280151   -0.457588
 ---------------------------------------------------------------------

 SCF Done:  E(RHF) =  -283.566740827     A.U. after    2 cycles

 The electronic state is 1-A.
 Alpha  occ. eigenvalues --  -20.58839 -15.72090 -11.36193 -11.32033 -11.30460
 Alpha  occ. eigenvalues --  -11.27245  -1.36924  -1.24873  -1.04863  -0.92441
 Alpha  occ. eigenvalues --   -0.85396  -0.75241  -0.69371  -0.67247  -0.64562
 Alpha  occ. eigenvalues --   -0.59649  -0.57630  -0.55611  -0.49713  -0.47655
 Alpha  occ. eigenvalues --   -0.46797  -0.30273
 Alpha virt. eigenvalues --    0.01946   0.03919   0.04173   0.05323   0.05970
 Alpha virt. eigenvalues --    0.06697   0.09000   0.09475   0.11443   0.11894
 Alpha virt. eigenvalues --    0.12469   0.13229   0.13633   0.14392   0.15009

 Mulliken charges:
               1
     1  N   -0.353062
     2  C   -0.132600
     3  C    0.714481
     4  C    0.544899
     5  C    0.898590
     6  O   -0.729782
     7  H    0.080988
     8  H   -0.268512
     9  H   -0.391667
    10  H   -0.161728
    11  H   -0.201606
 Sum of Mulliken charges =  -0.00000

 Dipole moment (field-independent basis, Debye):
    X=             -0.4260    Y=              1.1429    Z=              0.1452  Tot=              1.2283

 Test job not archived.
 1\1\GINC-SE054\SP\RHF\Aug-CC-pVDZ\C4H5N1O1\OHZDE\09-Apr-2025\0\\#t hf
 aug-cc-pvdz iop(5/13=1,5/36=2,99/5=2) pseudo=read geom=check guess=(re
 ad,tcheck) scf=(maxcycle=1)\\title\\0,1\N,0,3.02156985,-0.72961008,0.6
 9862714\C,0,1.91783602,-0.52135964,0.16968536\C,0,0.73010797,-0.094301
 11,-0.43811716\C,0,-0.43659373,0.28902076,0.36516868\C,0,-1.67648706,0
 .76738005,-0.28674615\O,0,-1.64734893,-0.53927778,0.28551964\H,0,1.776
 85679,-1.63433504,0.42637336\H,0,0.57177889,-0.41839464,-1.46711701\H,
 0,-0.22542241,0.64601627,1.37655455\H,0,-2.29263114,1.51310397,0.22787

 Normal termination of Gaussian 16 at Wed Apr  9 13:43:41 2025.
