 Gaussian 16, Revision C.01,

 ----------------------------------------------------------------------
 #t hf aug-cc-pvdz symm=none int=(grid=ultrafine) guess=(read,tcheck) s
 table=(opt,rrhf)
 ----------------------------------------------------------------------
 -----
 title
 -----
 Symbolic Z-matrix:
 Charge =  0 Multiplicity = 1

 SCF Done:  E(RHF) =  -323.787869380     A.U. after   15 cycles
 Normal termination of Gaussian 16 at Wed Apr  9 15:58:08 2025.
 Gaussian 16:  ES64L-G16RevC.01  3-Jul-2019

 ----------------------------------------------------------------------
 #t hf aug-cc-pvdz iop(5/13=1,5/36=2,99/5=2) pseudo=read geom=check gue
 ss=(read,tcheck) scf=(maxcycle=1)
 ----------------------------------------------------------------------
 -----
 title
 -----
 Structure from the checkpoint file:  "Grambow2020_wb97xd3_007620_reverse_mol2.chk"
 Charge =  0 Multiplicity = 1

                         Standard orientation:
 ---------------------------------------------------------------------
 Center     Atomic      Atomic             Coordinates (Angstroms)
 Number     Number       Type             X           Y           Z
 ---------------------------------------------------------------------
      1          6           0       -1.252513    1.604958   -0.191803
      2          6           0       -1.414311    0.265937    0.470320
      3          7           0       -1.710811   -0.885492   -0.378280
      4          6           0       -0.451912   -0.855264    0.356481
      5          6           0        0.779211   -0.798723   -0.496908
      6          6           0        2.396996    0.830715   -0.098644
      7          8           0        1.878476   -0.285263    0.288285
      8          1           0       -0.703200    1.529742   -1.128662
      9          1           0       -2.232271    2.034249   -0.410196
     10          1           0       -0.713505    2.293946    0.461043
     11          1           0       -1.938110    0.300453    1.422587
     12          1           0       -2.374544   -1.513939    0.054142
     13          1           0       -0.357655   -1.497361    1.227992
     14          1           0        0.653847   -0.157376   -1.367340
     15          1           0        1.074242   -1.799928   -0.815054
     16          1           0        3.194249    1.005014    0.660490
 ---------------------------------------------------------------------

 SCF Done:  E(RHF) =  -323.887352687     A.U. after    2 cycles

 The electronic state is 1-A.
 Alpha  occ. eigenvalues --  -20.64102 -15.62948 -11.30188 -11.30161 -11.27792
 Alpha  occ. eigenvalues --  -11.27677 -11.22753  -1.41296  -1.25366  -1.02545
 Alpha  occ. eigenvalues --   -0.98916  -0.87080  -0.83041  -0.78003  -0.72588
 Alpha  occ. eigenvalues --   -0.69699  -0.65947  -0.61956  -0.58805  -0.57149
 Alpha  occ. eigenvalues --   -0.56356  -0.53926  -0.50020  -0.47582  -0.45840
 Alpha  occ. eigenvalues --   -0.39634  -0.35986
 Alpha virt. eigenvalues --    0.02963   0.03961   0.04477   0.04656   0.06235
 Alpha virt. eigenvalues --    0.06412   0.06958   0.07640   0.09309   0.09751
 Alpha virt. eigenvalues --    0.11379   0.12056   0.13352   0.13909   0.14114

 Mulliken charges:
               1
     1  C    0.381909
     2  C    0.087062
     3  N   -0.601847
     4  C    0.512997
     5  C    0.956835
     6  C    0.121655
     7  O   -0.488397
     8  H   -0.036176
     9  H    0.018294
    10  H    0.061722
    11  H   -0.352411
    12  H   -0.008551
    13  H   -0.371720
    14  H   -0.043965
    15  H   -0.054575
    16  H   -0.182832
 Sum of Mulliken charges =  -0.00000

 Dipole moment (field-independent basis, Debye):
    X=             -1.2179    Y=             -1.3025    Z=              1.8727  Tot=              2.5859

 Test job not archived.
 1\1\GINC-SE229\SP\RHF\Aug-CC-pVDZ\C5H9N1O1\OHZDE\09-Apr-2025\0\\#t hf
 aug-cc-pvdz iop(5/13=1,5/36=2,99/5=2) pseudo=read geom=check guess=(re
 ad,tcheck) scf=(maxcycle=1)\\title\\0,1\C,0,-1.3319069,-0.11848629,1.2
 461511\C,0,-1.288866,0.01446393,-0.24985512\N,0,-1.00307675,1.33226002
 ,-0.81160409\C,0,-0.05856267,0.24598992,-1.04295802\C,0,1.29365493,0.4
 3911882,-0.42542811\C,0,2.21295036,-1.23544707,0.90935202\O,0,1.942004
 11,-0.84534566,-0.28997788\H,0,-0.54612499,0.46151558,1.72703831\H,0,-
 2.29200227,0.23724065,1.6250801\H,0,-1.21088727,-1.16190013,1.5429424\

 Normal termination of Gaussian 16 at Wed Apr  9 15:58:13 2025.
