 Gaussian 16, Revision C.01,

 ----------------------------------------------------------------------
 #t hf aug-cc-pvdz symm=none int=(grid=ultrafine) guess=(read,tcheck) s
 table=(opt,rrhf)
 ----------------------------------------------------------------------
 -----
 title
 -----
 Symbolic Z-matrix:
 Charge =  0 Multiplicity = 1

 SCF Done:  E(RHF) =  -343.577377247     A.U. after   15 cycles
 Normal termination of Gaussian 16 at Wed Apr  9 03:27:18 2025.
 Gaussian 16:  ES64L-G16RevC.01  3-Jul-2019

 ----------------------------------------------------------------------
 #t hf aug-cc-pvdz iop(5/13=1,5/36=2,99/5=2) pseudo=read geom=check gue
 ss=(read,tcheck) scf=(maxcycle=1)
 ----------------------------------------------------------------------
 -----
 title
 -----
 Structure from the checkpoint file:  "Grambow2020_wb97xd3_006717_forward_mol1.chk"
 Charge =  0 Multiplicity = 1

                         Standard orientation:
 ---------------------------------------------------------------------
 Center     Atomic      Atomic             Coordinates (Angstroms)
 Number     Number       Type             X           Y           Z
 ---------------------------------------------------------------------
      1          8           0       -2.503642    0.181987    0.176572
      2          6           0       -1.397218   -0.687900    0.164883
      3          6           0       -0.242862   -0.076154   -0.600290
      4          8           0        0.228184    1.157037   -0.038556
      5          6           0        1.621392    0.884013    0.043100
      6          6           0        1.705430   -0.446270    0.767515
      7          6           0        1.113931   -0.764941   -0.561778
      8          1           0       -2.210748    1.021962    0.540561
      9          1           0       -1.086196   -0.947578    1.183285
     10          1           0       -1.715538   -1.606235   -0.334962
     11          1           0       -0.567008    0.136947   -1.624072
     12          1           0        1.767210    0.203683   -1.142572
     13          1           0        1.076280   -0.550077    1.642316
     14          1           0        2.719021   -0.805195    0.910442
     15          1           0        1.416606   -1.618187   -1.159706
 ---------------------------------------------------------------------

 SCF Done:  E(RHF) =  -343.681923547     A.U. after    2 cycles

 The electronic state is 1-A.
 Alpha  occ. eigenvalues --  -20.58932 -20.58004 -11.31938 -11.31699 -11.30505
 Alpha  occ. eigenvalues --  -11.29969 -11.25513  -1.38481  -1.33365  -1.12214
 Alpha  occ. eigenvalues --   -1.02533  -0.90795  -0.83925  -0.77630  -0.73665
 Alpha  occ. eigenvalues --   -0.69724  -0.68918  -0.65132  -0.61737  -0.57015
 Alpha  occ. eigenvalues --   -0.56351  -0.54814  -0.52676  -0.51324  -0.46758
 Alpha  occ. eigenvalues --   -0.45746  -0.34585
 Alpha virt. eigenvalues --    0.02658   0.03979   0.04460   0.04903   0.06390
 Alpha virt. eigenvalues --    0.06631   0.07046   0.07883   0.09939   0.10999
 Alpha virt. eigenvalues --    0.11807   0.13499   0.13517   0.14239   0.14560

 Mulliken charges:
               1
     1  O   -0.552881
     2  C    0.757565
     3  C    0.580127
     4  O   -0.769688
     5  C   -0.238271
     6  C    0.829502
     7  C   -0.090822
     8  H    0.165386
     9  H   -0.101133
    10  H   -0.093583
    11  H   -0.262647
    12  H    0.472679
    13  H   -0.234044
    14  H   -0.194298
    15  H   -0.267891
 Sum of Mulliken charges =  -0.00000

 Dipole moment (field-independent basis, Debye):
    X=              1.0865    Y=             -3.5260    Z=             -0.1815  Tot=              3.6940

 Test job not archived.
 1\1\GINC-SE367\SP\RHF\Aug-CC-pVDZ\C5H8O2\OHZDE\09-Apr-2025\0\\#t hf au
 g-cc-pvdz iop(5/13=1,5/36=2,99/5=2) pseudo=read geom=check guess=(read
 ,tcheck) scf=(maxcycle=1)\\title\\0,1\O,0,2.49590875,0.68001684,0.6843
 0648\C,0,1.58530279,0.0383706,-0.1759839\C,0,0.31911006,-0.33426381,0.
 56574499\O,0,-0.37883465,0.79396462,1.11178751\C,0,-1.68792011,0.54942
 399,0.61305661\C,0,-1.4923331,0.33264851,-0.87564958\C,0,-0.8720696,-0
 .85532509,-0.22570023\H,0,2.04757898,1.4365837,1.07217279\H,0,1.349905
 66,0.66563959,-1.04341095\H,0,2.07184617,-0.87042215,-0.53913979\H,0,0

 Normal termination of Gaussian 16 at Wed Apr  9 03:27:22 2025.
