 Gaussian 16, Revision C.01,

 ----------------------------------------------------------------------
 #t hf aug-cc-pvdz symm=none int=(grid=ultrafine) guess=(read,tcheck) s
 table=(opt,rrhf)
 ----------------------------------------------------------------------
 -----
 title
 -----
 Symbolic Z-matrix:
 Charge =  0 Multiplicity = 1

 SCF Done:  E(RHF) =  -206.799112624     A.U. after   14 cycles
 Normal termination of Gaussian 16 at Wed Apr  9 03:08:35 2025.
 Gaussian 16:  ES64L-G16RevC.01  3-Jul-2019

 ----------------------------------------------------------------------
 #t hf aug-cc-pvdz iop(5/13=1,5/36=2,99/5=2) pseudo=read geom=check gue
 ss=(read,tcheck) scf=(maxcycle=1)
 ----------------------------------------------------------------------
 -----
 title
 -----
 Structure from the checkpoint file:  "Grambow2020_b97d3_006673_forward_mol2.chk"
 Charge =  0 Multiplicity = 1

                         Standard orientation:
 ---------------------------------------------------------------------
 Center     Atomic      Atomic             Coordinates (Angstroms)
 Number     Number       Type             X           Y           Z
 ---------------------------------------------------------------------
      1          8           0        1.516592   -0.457790   -0.108036
      2          6           0        0.576517    0.592782    0.038830
      3          6           0       -0.826195    0.124521   -0.007316
      4          7           0       -1.922317   -0.284514   -0.015734
      5          1           0        1.362402   -1.097423    0.612665
      6          1           0        0.747747    1.279389   -0.800022
      7          1           0        0.711407    1.168139    0.972702
 ---------------------------------------------------------------------

 SCF Done:  E(RHF) =  -206.862696039     A.U. after    2 cycles

 The electronic state is 1-A.
 Alpha  occ. eigenvalues --  -20.62030 -15.66101 -11.36376 -11.30477  -1.36723
 Alpha  occ. eigenvalues --   -1.19678  -1.01108  -0.77902  -0.71575  -0.66803
 Alpha  occ. eigenvalues --   -0.59541  -0.56193  -0.52731  -0.47700  -0.46685
 Alpha virt. eigenvalues --    0.02676   0.04393   0.05143   0.07595   0.10565
 Alpha virt. eigenvalues --    0.11415   0.11918   0.12447   0.14375   0.15574
 Alpha virt. eigenvalues --    0.15971   0.16888   0.20228   0.21213   0.21879

 Mulliken charges:
               1
     1  O   -0.516758
     2  C    0.833317
     3  C   -0.265278
     4  N   -0.190872
     5  H    0.168971
     6  H   -0.054108
     7  H    0.024727
 Sum of Mulliken charges =   0.00000

 Dipole moment (field-independent basis, Debye):
    X=              2.3985    Y=              1.3422    Z=              1.3968  Tot=              3.0830

 Test job not archived.
 1\1\GINC-SE097\SP\RHF\Aug-CC-pVDZ\C2H3N1O1\OHZDE\09-Apr-2025\0\\#t hf
 aug-cc-pvdz iop(5/13=1,5/36=2,99/5=2) pseudo=read geom=check guess=(re
 ad,tcheck) scf=(maxcycle=1)\\title\\0,1\O,0,-1.21323217,0.51760048,-0.
 42301722\C,0,-0.23619525,-0.42616548,-0.01839772\C,0,1.13509214,0.1292
 2502,-0.00778237\N,0,2.20133734,0.61003364,0.02061455\H,0,-1.17160614,
 1.27184762,0.19479683\H,0,-0.27971876,-1.24645156,-0.74617471\H,0,-0.4
 3567716,-0.85608971,0.97996064\\Version=ES64L-G16RevC.01\State=1-A\HF=
 -206.862696\RMSD=3.154e-03\Dipole=-0.9648655,-0.5021011,0.5368474\Quad

 Normal termination of Gaussian 16 at Wed Apr  9 03:08:36 2025.
