 Gaussian 16, Revision C.01,

 ----------------------------------------------------------------------
 #t hf aug-cc-pvdz symm=none int=(grid=ultrafine) guess=(read,tcheck) s
 table=(opt,rrhf)
 ----------------------------------------------------------------------
 -----
 title
 -----
 Symbolic Z-matrix:
 Charge =  0 Multiplicity = 1

 SCF Done:  E(RHF) =  -320.621512652     A.U. after   14 cycles
 Normal termination of Gaussian 16 at Wed Apr  9 14:18:03 2025.
 Gaussian 16:  ES64L-G16RevC.01  3-Jul-2019

 ----------------------------------------------------------------------
 #t hf aug-cc-pvdz iop(5/13=1,5/36=2,99/5=2) pseudo=read geom=check gue
 ss=(read,tcheck) scf=(maxcycle=1)
 ----------------------------------------------------------------------
 -----
 title
 -----
 Structure from the checkpoint file:  "Grambow2020_b97d3_007124_forward_mol1.chk"
 Charge =  0 Multiplicity = 1

                         Standard orientation:
 ---------------------------------------------------------------------
 Center     Atomic      Atomic             Coordinates (Angstroms)
 Number     Number       Type             X           Y           Z
 ---------------------------------------------------------------------
      1          6           0       -2.564570   -0.201332    0.001532
      2          7           0       -1.181762   -0.698435   -0.006009
      3          6           0       -0.067666    0.030395    0.002899
      4          8           0       -0.116930    1.314056    0.000516
      5          6           0        1.926159    0.178485   -0.001828
      6          8           0        2.766519   -0.639989    0.001346
      7          1           0       -3.157614   -0.733700   -0.754151
      8          1           0       -3.028306   -0.345663    0.988098
      9          1           0       -2.543709    0.865078   -0.235444
     10          1           0       -1.055490   -1.705530    0.016451
     11          1           0        1.097195    1.371041   -0.003404
 ---------------------------------------------------------------------

 SCF Done:  E(RHF) =  -320.722830950     A.U. after    2 cycles

 The electronic state is 1-A.
 Alpha  occ. eigenvalues --  -20.62798 -20.59286 -15.67533 -11.37023 -11.33905
 Alpha  occ. eigenvalues --  -11.28928  -1.41522  -1.37366  -1.21343  -0.96674
 Alpha  occ. eigenvalues --   -0.82673  -0.80940  -0.72969  -0.67678  -0.65875
 Alpha  occ. eigenvalues --   -0.63681  -0.62200  -0.59551  -0.56983  -0.56538
 Alpha  occ. eigenvalues --   -0.49594  -0.42679  -0.36256
 Alpha virt. eigenvalues --    0.02765   0.04348   0.04844   0.05292   0.07592
 Alpha virt. eigenvalues --    0.08510   0.09546   0.11513   0.11897   0.13330
 Alpha virt. eigenvalues --    0.13695   0.14424   0.14648   0.16029   0.17012

 Mulliken charges:
               1
     1  C    0.724521
     2  N   -0.378674
     3  C    0.447920
     4  O   -0.770588
     5  C    0.081466
     6  O   -0.321860
     7  H   -0.104146
     8  H   -0.073827
     9  H   -0.145318
    10  H   -0.052426
    11  H    0.592932
 Sum of Mulliken charges =  -0.00000

 Dipole moment (field-independent basis, Debye):
    X=             -3.4983    Y=             -1.2638    Z=              0.0133  Tot=              3.7196

 Test job not archived.
 1\1\GINC-SE113\SP\RHF\Aug-CC-pVDZ\C3H5N1O2\OHZDE\09-Apr-2025\0\\#t hf
 aug-cc-pvdz iop(5/13=1,5/36=2,99/5=2) pseudo=read geom=check guess=(re
 ad,tcheck) scf=(maxcycle=1)\\title\\0,1\C,0,-1.44074286,1.174925,0.019
 68851\N,0,-0.78975279,-0.14211792,-0.01093053\C,0,0.51821255,-0.390393
 31,-0.0027184\O,0,1.373338,0.56806275,0.01578728\C,0,2.05685939,-1.666
 82107,-0.02701413\O,0,2.0941966,-2.83915143,-0.04605255\H,0,-2.2348589
 3,1.2174123,-0.73777284\H,0,-1.87788591,1.37392095,1.00888141\H,0,-0.6
 8512035,1.93278105,-0.20056892\H,0,-1.397601,-0.95524992,-0.00582584\H

 Normal termination of Gaussian 16 at Wed Apr  9 14:18:07 2025.
