 Gaussian 16, Revision C.01,

 ----------------------------------------------------------------------
 #t hf aug-cc-pvdz symm=none int=(grid=ultrafine) guess=(read,tcheck) s
 table=(opt,rrhf)
 ----------------------------------------------------------------------
 -----
 title
 -----
 Symbolic Z-matrix:
 Charge =  0 Multiplicity = 1

 SCF Done:  E(RHF) =  -343.753264698     A.U. after   14 cycles
 Normal termination of Gaussian 16 at Wed Apr  9 15:25:04 2025.
 Gaussian 16:  ES64L-G16RevC.01  3-Jul-2019

 ----------------------------------------------------------------------
 #t hf aug-cc-pvdz iop(5/13=1,5/36=2,99/5=2) pseudo=read geom=check gue
 ss=(read,tcheck) scf=(maxcycle=1)
 ----------------------------------------------------------------------
 -----
 title
 -----
 Structure from the checkpoint file:  "Grambow2020_wb97xd3_006882_reverse_mol2.chk"
 Charge =  0 Multiplicity = 1

                         Standard orientation:
 ---------------------------------------------------------------------
 Center     Atomic      Atomic             Coordinates (Angstroms)
 Number     Number       Type             X           Y           Z
 ---------------------------------------------------------------------
      1          6           0       -2.008205   -0.903883   -0.501888
      2          6           0       -1.198866    0.197150    0.116259
      3          6           0       -0.034705   -0.231044    0.964816
      4          6           0       -1.471168    1.484962   -0.040849
      5          8           0        2.080422    0.890073   -0.306913
      6          6           0        1.901659   -0.288820   -0.388592
      7          8           0        0.923669   -0.983787    0.193581
      8          1           0       -1.386033   -1.522429   -1.152736
      9          1           0       -2.835064   -0.507334   -1.090029
     10          1           0       -2.417501   -1.563355    0.268694
     11          1           0       -0.357059   -0.922849    1.744714
     12          1           0        0.459692    0.626734    1.417265
     13          1           0       -2.322528    1.816269   -0.624315
     14          1           0       -0.846374    2.250650    0.403296
     15          1           0        2.539851   -0.978164   -0.958707
 ---------------------------------------------------------------------

 SCF Done:  E(RHF) =  -343.864856000     A.U. after    2 cycles

 The electronic state is 1-A.
 Alpha  occ. eigenvalues --  -20.62547 -20.57007 -11.39774 -11.30632 -11.25391
 Alpha  occ. eigenvalues --  -11.23662 -11.23566  -1.43031  -1.33867  -1.09733
 Alpha  occ. eigenvalues --   -0.97842  -0.94236  -0.82991  -0.75455  -0.74485
 Alpha  occ. eigenvalues --   -0.69933  -0.67368  -0.62863  -0.61677  -0.59293
 Alpha  occ. eigenvalues --   -0.57249  -0.53480  -0.52998  -0.51454  -0.48356
 Alpha  occ. eigenvalues --   -0.47105  -0.37040
 Alpha virt. eigenvalues --    0.03324   0.04408   0.04594   0.04863   0.06460
 Alpha virt. eigenvalues --    0.06739   0.07355   0.09210   0.09451   0.10303
 Alpha virt. eigenvalues --    0.12054   0.12782   0.13009   0.14099   0.14915

 Mulliken charges:
               1
     1  C    0.189096
     2  C   -0.581355
     3  C    0.855565
     4  C    1.180453
     5  O   -0.378554
     6  C    0.658775
     7  O   -0.515463
     8  H    0.052486
     9  H   -0.135708
    10  H    0.060260
    11  H   -0.203824
    12  H   -0.173711
    13  H   -0.405885
    14  H   -0.370175
    15  H   -0.231959
 Sum of Mulliken charges =  -0.00000

 Dipole moment (field-independent basis, Debye):
    X=             -1.3484    Y=             -1.7658    Z=              0.2953  Tot=              2.2413

 Test job not archived.
 1\1\GINC-SE100\SP\RHF\Aug-CC-pVDZ\C5H8O2\OHZDE\09-Apr-2025\0\\#t hf au
 g-cc-pvdz iop(5/13=1,5/36=2,99/5=2) pseudo=read geom=check guess=(read
 ,tcheck) scf=(maxcycle=1)\\title\\0,1\C,0,-0.82912684,1.60632039,-0.33
 783835\C,0,-0.73480841,0.19296202,0.15504083\C,0,-0.01235252,-0.774919
 7,-0.73934793\C,0,-1.25804852,-0.22108843,1.30049934\O,0,2.03529926,-1
 .62222081,0.82179306\C,0,2.25404362,-0.864242,-0.0760018\O,0,1.3597875
 1,-0.37744831,-0.93722519\H,0,0.16622375,2.03226968,-0.48325264\H,0,-1
 .37495068,2.23631316,0.36361795\H,0,-1.33739296,1.6460568,-1.30547014\

 Normal termination of Gaussian 16 at Wed Apr  9 15:25:09 2025.
