 Gaussian 16, Revision C.01,

 ----------------------------------------------------------------------
 #t hf aug-cc-pvdz symm=none int=(grid=ultrafine) guess=(read,tcheck) s
 table=(opt,rrhf)
 ----------------------------------------------------------------------
 -----
 title
 -----
 Symbolic Z-matrix:
 Charge =  0 Multiplicity = 1

 SCF Done:  E(RHF) =  -323.713625660     A.U. after   15 cycles
 Normal termination of Gaussian 16 at Wed Apr  9 15:58:10 2025.
 Gaussian 16:  ES64L-G16RevC.01  3-Jul-2019

 ----------------------------------------------------------------------
 #t hf aug-cc-pvdz iop(5/13=1,5/36=2,99/5=2) pseudo=read geom=check gue
 ss=(read,tcheck) scf=(maxcycle=1)
 ----------------------------------------------------------------------
 -----
 title
 -----
 Structure from the checkpoint file:  "Grambow2020_wb97xd3_007612_forward_mol1.chk"
 Charge =  0 Multiplicity = 1

                         Standard orientation:
 ---------------------------------------------------------------------
 Center     Atomic      Atomic             Coordinates (Angstroms)
 Number     Number       Type             X           Y           Z
 ---------------------------------------------------------------------
      1          6           0       -2.653413   -0.901972   -0.164277
      2          6           0       -1.674137    0.183872   -0.507432
      3          7           0       -1.322971    1.132227    0.583092
      4          6           0       -0.339004    0.236679    0.075537
      5          6           0        0.649546   -0.515510    0.653593
      6          6           0        2.370894    0.150753   -0.252987
      7          8           0        3.415809   -0.293291   -0.159420
      8          1           0       -2.481918   -1.254373    0.852851
      9          1           0       -3.678731   -0.533226   -0.235334
     10          1           0       -2.547204   -1.745901   -0.849236
     11          1           0       -1.795038    0.620064   -1.495969
     12          1           0       -1.218853    2.078147    0.234699
     13          1           0        0.462939    1.028628   -0.998898
     14          1           0        0.789291   -1.540913    0.331981
     15          1           0        0.974490   -0.280519    1.659742
     16          1           0        1.306025    1.125892   -1.132734
 ---------------------------------------------------------------------

 SCF Done:  E(RHF) =  -323.815525484     A.U. after    2 cycles

 The electronic state is 1-A.
 Alpha  occ. eigenvalues --  -20.64805 -15.63528 -11.36559 -11.29439 -11.28746
 Alpha  occ. eigenvalues --  -11.25345 -11.23443  -1.45675  -1.26016  -1.01199
 Alpha  occ. eigenvalues --   -0.99524  -0.84565  -0.79900  -0.76063  -0.72528
 Alpha  occ. eigenvalues --   -0.65720  -0.64239  -0.63653  -0.61428  -0.61114
 Alpha  occ. eigenvalues --   -0.57800  -0.55176  -0.49207  -0.47885  -0.44552
 Alpha  occ. eigenvalues --   -0.41191  -0.32348
 Alpha virt. eigenvalues --    0.03215   0.03906   0.04427   0.04733   0.06544
 Alpha virt. eigenvalues --    0.06811   0.07076   0.07610   0.09500   0.10045
 Alpha virt. eigenvalues --    0.10933   0.11576   0.12166   0.13367   0.13889

 Mulliken charges:
               1
     1  C    0.365011
     2  C    0.265279
     3  N   -0.604709
     4  C   -0.233650
     5  C    0.311434
     6  C    0.174447
     7  O   -0.290155
     8  H    0.016986
     9  H    0.030099
    10  H    0.079149
    11  H   -0.291108
    12  H    0.008492
    13  H    0.357481
    14  H   -0.078020
    15  H   -0.042725
    16  H   -0.068012
 Sum of Mulliken charges =   0.00000

 Dipole moment (field-independent basis, Debye):
    X=             -1.6846    Y=              0.0022    Z=             -0.9809  Tot=              1.9494

 Test job not archived.
 1\1\GINC-SE138\SP\RHF\Aug-CC-pVDZ\C5H9N1O1\OHZDE\09-Apr-2025\0\\#t hf
 aug-cc-pvdz iop(5/13=1,5/36=2,99/5=2) pseudo=read geom=check guess=(re
 ad,tcheck) scf=(maxcycle=1)\\title\\0,1\C,0,-1.98247907,0.35320503,1.2
 1982979\C,0,-1.30671998,0.04538401,-0.08569352\N,0,-0.69797257,1.19468
 63,-0.80712775\C,0,0.13444132,0.17566312,-0.26261972\C,0,1.33669783,0.
 18117683,0.39443346\C,0,2.54976634,-0.98675853,-0.78591505\O,0,3.60188
 587,-1.35131027,-0.54524141\H,0,-1.42881998,1.12359914,1.75658007\H,0,
 -3.00048991,0.7108134,1.0522919\H,0,-2.03447453,-0.54018796,1.84577724

 Normal termination of Gaussian 16 at Wed Apr  9 15:58:15 2025.
