 Gaussian 16, Revision C.01,

 ----------------------------------------------------------------------
 #t hf aug-cc-pvdz symm=none int=(grid=ultrafine) guess=(read,tcheck) s
 table=(opt,rrhf)
 ----------------------------------------------------------------------
 -----
 title
 -----
 Symbolic Z-matrix:
 Charge =  0 Multiplicity = 1

 SCF Done:  E(RHF) =  -302.776403403     A.U. after   15 cycles
 Normal termination of Gaussian 16 at Wed Apr  9 03:59:47 2025.
 Gaussian 16:  ES64L-G16RevC.01  3-Jul-2019

 ----------------------------------------------------------------------
 #t hf aug-cc-pvdz iop(5/13=1,5/36=2,99/5=2) pseudo=read geom=check gue
 ss=(read,tcheck) scf=(maxcycle=1)
 ----------------------------------------------------------------------
 -----
 title
 -----
 Structure from the checkpoint file:  "Grambow2020_wb97xd3_008842_forward_mol1.chk"
 Charge =  0 Multiplicity = 1

                         Standard orientation:
 ---------------------------------------------------------------------
 Center     Atomic      Atomic             Coordinates (Angstroms)
 Number     Number       Type             X           Y           Z
 ---------------------------------------------------------------------
      1          6           0        0.534375    1.663759   -0.118166
      2          6           0        0.561139    0.151624   -0.014441
      3          6           0       -0.596864   -0.480712    0.746990
      4          6           0       -1.883395   -0.279988    0.084003
      5          7           0       -2.879837   -0.102445   -0.455070
      6          6           0        1.801216   -0.974966   -0.832851
      7          7           0        1.842503   -0.375963    0.458598
      8          1           0       -0.419998    2.011521   -0.514308
      9          1           0        0.682967    2.102744    0.871111
     10          1           0        1.328499    2.009627   -0.780416
     11          1           0       -0.642846   -0.040744    1.746132
     12          1           0       -0.419638   -1.549353    0.870822
     13          1           0        0.535379   -0.161410   -1.150920
     14          1           0        1.178437   -1.881284   -0.708380
     15          1           0        2.519715    0.379457    0.448055
 ---------------------------------------------------------------------

 SCF Done:  E(RHF) =  -302.863990292     A.U. after    2 cycles

 The electronic state is 1-A.
 Alpha  occ. eigenvalues --  -15.65534 -15.65006 -11.34266 -11.31010 -11.30301
 Alpha  occ. eigenvalues --  -11.29839 -11.26704  -1.27281  -1.20948  -1.08294
 Alpha  occ. eigenvalues --   -1.00644  -0.89176  -0.82215  -0.73787  -0.67194
 Alpha  occ. eigenvalues --   -0.65360  -0.63970  -0.61164  -0.57244  -0.56090
 Alpha  occ. eigenvalues --   -0.54757  -0.53464  -0.48059  -0.47294  -0.45682
 Alpha  occ. eigenvalues --   -0.35894
 Alpha virt. eigenvalues --    0.02817   0.03701   0.04410   0.04864   0.06578
 Alpha virt. eigenvalues --    0.06936   0.07470   0.08028   0.08925   0.10784
 Alpha virt. eigenvalues --    0.12089   0.12571   0.13307   0.13879   0.13945

 Mulliken charges:
               1
     1  C    0.632879
     2  C   -1.145992
     3  C    0.796552
     4  C   -0.114665
     5  N   -0.207109
     6  C    0.017246
     7  N   -0.519172
     8  H   -0.045860
     9  H    0.091454
    10  H    0.004023
    11  H    0.104839
    12  H    0.035591
    13  H    0.344380
    14  H   -0.072351
    15  H    0.078184
 Sum of Mulliken charges =  -0.00000

 Dipole moment (field-independent basis, Debye):
    X=              1.8295    Y=              1.2239    Z=              2.3814  Tot=              3.2429

 Test job not archived.
 1\1\GINC-SE080\SP\RHF\Aug-CC-pVDZ\C5H8N2\OHZDE\09-Apr-2025\0\\#t hf au
 g-cc-pvdz iop(5/13=1,5/36=2,99/5=2) pseudo=read geom=check guess=(read
 ,tcheck) scf=(maxcycle=1)\\title\\0,1\C,0,-1.02859394,1.12749572,-0.15
 130252\C,0,-0.23181409,-0.14989891,0.02599032\C,0,1.19536568,-0.119607
 04,-0.50583594\C,0,2.04425792,0.82802898,0.21275572\N,0,2.68566734,1.5
 8308135,0.79025541\C,0,-0.80486732,-1.67450175,0.93372764\N,0,-0.93569
 872,-1.34417836,-0.44544627\H,0,-0.48788147,1.98445195,0.2511279\H,0,-
 1.21544327,1.29969401,-1.21379478\H,0,-1.98476111,1.04956422,0.3668716

 Normal termination of Gaussian 16 at Wed Apr  9 03:59:52 2025.
