 Gaussian 16, Revision C.01,

 ----------------------------------------------------------------------
 #t hf aug-cc-pvdz symm=none int=(grid=ultrafine) guess=(read,tcheck) s
 table=(opt,rrhf)
 ----------------------------------------------------------------------
 -----
 title
 -----
 Symbolic Z-matrix:
 Charge =  0 Multiplicity = 1

 SCF Done:  E(RHF) =  -304.556639031     A.U. after   17 cycles
 Normal termination of Gaussian 16 at Wed Apr  9 03:14:26 2025.
 Gaussian 16:  ES64L-G16RevC.01  3-Jul-2019

 ----------------------------------------------------------------------
 #t hf aug-cc-pvdz iop(5/13=1,5/36=2,99/5=2) pseudo=read geom=check gue
 ss=(read,tcheck) scf=(maxcycle=1)
 ----------------------------------------------------------------------
 -----
 title
 -----
 Structure from the checkpoint file:  "Grambow2020_b97d3_006988_reverse_mol1.chk"
 Charge =  0 Multiplicity = 1

                         Standard orientation:
 ---------------------------------------------------------------------
 Center     Atomic      Atomic             Coordinates (Angstroms)
 Number     Number       Type             X           Y           Z
 ---------------------------------------------------------------------
      1          6           0        2.386837   -0.254962   -0.119663
      2          6           0        0.975652    0.022574    0.408452
      3          6           0        0.243275    1.161438   -0.179590
      4          6           0       -1.695028    0.272225    0.240913
      5          8           0       -2.619303   -0.335536   -0.117092
      6          8           0        0.016832   -0.848913   -0.128610
      7          1           0        2.395441   -0.244640   -1.217198
      8          1           0        2.679529   -1.261066    0.211915
      9          1           0        3.121806    0.468880    0.260404
     10          1           0        0.990659    0.051049    1.513050
     11          1           0       -0.093824    2.039225    0.362511
     12          1           0        0.261745    1.214505   -1.265733
 ---------------------------------------------------------------------

 SCF Done:  E(RHF) =  -304.649695673     A.U. after    2 cycles

 The electronic state is 1-A.
 Alpha  occ. eigenvalues --  -20.64147 -20.50754 -11.38377 -11.37642 -11.30136
 Alpha  occ. eigenvalues --  -11.23935  -1.43129  -1.25975  -1.02236  -0.96634
 Alpha  occ. eigenvalues --   -0.81337  -0.78033  -0.71108  -0.65056  -0.62662
 Alpha  occ. eigenvalues --   -0.61003  -0.59794  -0.58104  -0.54347  -0.53174
 Alpha  occ. eigenvalues --   -0.50601  -0.40623  -0.37306
 Alpha virt. eigenvalues --    0.00904   0.04139   0.04299   0.04516   0.05534
 Alpha virt. eigenvalues --    0.06452   0.07407   0.08230   0.11034   0.11493
 Alpha virt. eigenvalues --    0.11838   0.13317   0.14356   0.14959   0.15434

 Mulliken charges:
               1
     1  C    0.243699
     2  C    0.630888
     3  C    0.435997
     4  C    0.304243
     5  O   -0.296341
     6  O   -0.903567
     7  H    0.007009
     8  H    0.013220
     9  H    0.011458
    10  H   -0.246216
    11  H   -0.095177
    12  H   -0.105213
 Sum of Mulliken charges =   0.00000

 Dipole moment (field-independent basis, Debye):
    X=              2.6933    Y=              5.2248    Z=              0.5543  Tot=              5.9042

 Test job not archived.
 1\1\GINC-SE149\SP\RHF\Aug-CC-pVDZ\C4H6O2\OHZDE\09-Apr-2025\0\\#t hf au
 g-cc-pvdz iop(5/13=1,5/36=2,99/5=2) pseudo=read geom=check guess=(read
 ,tcheck) scf=(maxcycle=1)\\title\\0,1\C,0,-1.71577306,-0.04283774,0.20
 194988\C,0,-0.30139803,-0.18814077,-0.36884351\C,0,0.68016991,0.858974
 23,-0.02351085\C,0,2.36604915,-0.49412071,-0.2504124\O,0,3.15451599,-1
 .20372672,0.22561901\O,0,0.4723677,-1.12162679,0.33624611\H,0,-1.67568
 371,0.18746509,1.2743849\H,0,-2.22907733,-1.00714009,0.08154498\H,0,-2
 .29571011,0.7323557,-0.31894044\H,0,-0.35660166,-0.37765851,-1.4561381

 Normal termination of Gaussian 16 at Wed Apr  9 03:14:30 2025.
