 Gaussian 16, Revision C.01,

 ----------------------------------------------------------------------
 #t hf aug-cc-pvdz symm=none int=(grid=ultrafine) guess=(read,tcheck) s
 table=(opt,rrhf)
 ----------------------------------------------------------------------
 -----
 title
 -----
 Symbolic Z-matrix:
 Charge =  0 Multiplicity = 1

 SCF Done:  E(RHF) =  -332.414474203     A.U. after   17 cycles
 Normal termination of Gaussian 16 at Wed Apr  9 16:50:53 2025.
 Gaussian 16:  ES64L-G16RevC.01  3-Jul-2019

 ----------------------------------------------------------------------
 #t hf aug-cc-pvdz iop(5/13=1,5/36=2,99/5=2) pseudo=read geom=check gue
 ss=(read,tcheck) scf=(maxcycle=1)
 ----------------------------------------------------------------------
 -----
 title
 -----
 Structure from the checkpoint file:  "Grambow2020_wb97xd3_009005_reverse_mol2.chk"
 Charge =  0 Multiplicity = 1

                         Standard orientation:
 ---------------------------------------------------------------------
 Center     Atomic      Atomic             Coordinates (Angstroms)
 Number     Number       Type             X           Y           Z
 ---------------------------------------------------------------------
      1          7           0       -2.193043    1.032491   -0.000031
      2          6           0       -1.513472    0.104357   -0.000076
      3          6           0        1.238762    1.898713   -0.000129
      4          6           0       -0.833347   -1.133086    0.000067
      5          7           0        0.470242   -1.317759   -0.000093
      6          7           0        1.530529   -0.568672   -0.000018
      7          7           0        1.237016    0.726133    0.000248
      8          1           0       -1.423392   -2.036391    0.000725
      9          1           0        0.758518   -2.288859   -0.000644
 ---------------------------------------------------------------------

 SCF Done:  E(RHF) =  -332.512153796     A.U. after    2 cycles

 The electronic state is 1-A.
 Alpha  occ. eigenvalues --  -15.84613 -15.74495 -15.70216 -15.66590 -11.36761
 Alpha  occ. eigenvalues --  -11.31565 -11.30456  -1.43430  -1.27318  -1.21988
 Alpha  occ. eigenvalues --   -1.13852  -1.01029  -0.87356  -0.82658  -0.70070
 Alpha  occ. eigenvalues --   -0.69272  -0.61704  -0.57003  -0.55656  -0.51085
 Alpha  occ. eigenvalues --   -0.50302  -0.48322  -0.45446  -0.33623
 Alpha virt. eigenvalues --    0.00587   0.02213   0.03676   0.07129   0.07380
 Alpha virt. eigenvalues --    0.09375   0.10094   0.11028   0.11455   0.11489
 Alpha virt. eigenvalues --    0.13566   0.13731   0.14157   0.15427   0.16026

 Mulliken charges:
               1
     1  N   -0.190412
     2  C   -0.440967
     3  C   -0.284871
     4  C    1.093406
     5  N    0.172066
     6  N   -0.176085
     7  N    0.044526
     8  H   -0.295629
     9  H    0.077967
 Sum of Mulliken charges =  -0.00000

 Dipole moment (field-independent basis, Debye):
    X=              0.1681    Y=             -7.2311    Z=             -0.0000  Tot=              7.2331

 Test job not archived.
 1\1\GINC-SE042\SP\RHF\Aug-CC-pVDZ\C3H2N4\OHZDE\09-Apr-2025\0\\#t hf au
 g-cc-pvdz iop(5/13=1,5/36=2,99/5=2) pseudo=read geom=check guess=(read
 ,tcheck) scf=(maxcycle=1)\\title\\0,1\N,0,2.46808143,-0.18295307,-0.64
 317126\C,0,1.34884775,-0.43511586,-0.55963263\C,0,0.69883911,2.2341952
 7,1.24224775\C,0,0.01292644,-0.89243988,-0.55750854\N,0,-1.01829744,-0
 .31573136,0.02338249\N,0,-1.22830021,0.75108356,0.73270791\N,0,-0.1198
 9359,1.45420069,0.93203473\H,0,-0.21045478,-1.80902469,-1.08104035\H,0
 ,-1.89669272,-0.80668366,-0.0929171\\Version=ES64L-G16RevC.01\State=1-

 Normal termination of Gaussian 16 at Wed Apr  9 16:50:57 2025.
