 Gaussian 16, Revision C.01,

 ----------------------------------------------------------------------
 #t hf aug-cc-pvdz symm=none int=(grid=ultrafine) guess=(read,tcheck) s
 table=(opt,rrhf)
 ----------------------------------------------------------------------
 -----
 title
 -----
 Symbolic Z-matrix:
 Charge =  0 Multiplicity = 1

 SCF Done:  E(RHF) =  -247.739518485     A.U. after   15 cycles
 Normal termination of Gaussian 16 at Wed Apr  9 03:21:35 2025.
 Gaussian 16:  ES64L-G16RevC.01  3-Jul-2019

 ----------------------------------------------------------------------
 #t hf aug-cc-pvdz iop(5/13=1,5/36=2,99/5=2) pseudo=read geom=check gue
 ss=(read,tcheck) scf=(maxcycle=1)
 ----------------------------------------------------------------------
 -----
 title
 -----
 Structure from the checkpoint file:  "Grambow2020_wb97xd3_006166_forward_mol1.chk"
 Charge =  0 Multiplicity = 1

                         Standard orientation:
 ---------------------------------------------------------------------
 Center     Atomic      Atomic             Coordinates (Angstroms)
 Number     Number       Type             X           Y           Z
 ---------------------------------------------------------------------
      1          6           0        0.489584    1.584775   -0.007776
      2          6           0        1.132466    0.395089   -0.309398
      3          6           0        1.094266   -0.826346    0.531550
      4          6           0       -0.088014   -1.279358   -0.305961
      5          6           0       -1.224735   -0.604696   -0.082867
      6          7           0       -1.842095    0.383548    0.178826
      7          1           0        0.369670    1.856387    1.038026
      8          1           0       -0.949299    1.203576   -0.112871
      9          1           0        0.610790    2.412752   -0.697167
     10          1           0        1.591885    0.275646   -1.284972
     11          1           0        0.851406   -0.646433    1.576546
     12          1           0        1.951922   -1.487649    0.442378
     13          1           0        0.046890   -1.915902   -1.167005
 ---------------------------------------------------------------------

 SCF Done:  E(RHF) =  -247.813768596     A.U. after    2 cycles

 The electronic state is 1-A.
 Alpha  occ. eigenvalues --  -15.63634 -11.29770 -11.29218 -11.27504 -11.26449
 Alpha  occ. eigenvalues --  -11.23187  -1.21735  -1.11956  -1.00819  -0.91234
 Alpha  occ. eigenvalues --   -0.79446  -0.71916  -0.67792  -0.62821  -0.60780
 Alpha  occ. eigenvalues --   -0.59642  -0.55655  -0.53861  -0.52050  -0.45235
 Alpha  occ. eigenvalues --   -0.36666  -0.33125
 Alpha virt. eigenvalues --    0.02876   0.04260   0.04413   0.05168   0.06507
 Alpha virt. eigenvalues --    0.07076   0.07591   0.09289   0.09970   0.11723
 Alpha virt. eigenvalues --    0.12780   0.13260   0.13759   0.14391   0.14822

 Mulliken charges:
               1
     1  C    0.020091
     2  C    0.309957
     3  C    0.695630
     4  C    0.673349
     5  C   -0.489038
     6  N   -0.359856
     7  H   -0.115719
     8  H    0.539238
     9  H   -0.205153
    10  H   -0.367802
    11  H   -0.206044
    12  H   -0.159693
    13  H   -0.334960
 Sum of Mulliken charges =   0.00000

 Dipole moment (field-independent basis, Debye):
    X=              3.2629    Y=             -0.7003    Z=             -0.8155  Tot=              3.4354

 Test job not archived.
 1\1\GINC-SE016\SP\RHF\Aug-CC-pVDZ\C5H7N1\OHZDE\09-Apr-2025\0\\#t hf au
 g-cc-pvdz iop(5/13=1,5/36=2,99/5=2) pseudo=read geom=check guess=(read
 ,tcheck) scf=(maxcycle=1)\\title\\0,1\C,0,1.2681535,0.5776624,-0.38350
 665\C,0,0.47831068,-0.5523954,-0.52040832\C,0,-0.38464554,-1.11805241,
 0.54537608\C,0,-1.5166673,-0.28518237,-0.02845856\C,0,-1.41405393,1.03
 221264,0.19740418\N,0,-0.79391286,2.04385452,0.33249128\H,0,1.69127549
 ,0.79684622,0.5936224\H,0,0.25135793,1.65865503,-0.2275513\H,0,1.86912
 69,0.87935732,-1.23398165\H,0,0.35897843,-0.99749401,-1.5026112\H,0,-0

 Normal termination of Gaussian 16 at Wed Apr  9 03:21:39 2025.
