 Gaussian 16, Revision C.01,

 ----------------------------------------------------------------------
 #t hf aug-cc-pvdz symm=none int=(grid=ultrafine) guess=(read,tcheck) s
 table=(opt,rrhf)
 ----------------------------------------------------------------------
 -----
 title
 -----
 Symbolic Z-matrix:
 Charge =  0 Multiplicity = 1

 SCF Done:  E(RHF) =  -360.881462674     A.U. after   13 cycles
 Normal termination of Gaussian 16 at Wed Apr  9 03:28:19 2025.
 Gaussian 16:  ES64L-G16RevC.01  3-Jul-2019

 ----------------------------------------------------------------------
 #t hf aug-cc-pvdz iop(5/13=1,5/36=2,99/5=2) pseudo=read geom=check gue
 ss=(read,tcheck) scf=(maxcycle=1)
 ----------------------------------------------------------------------
 -----
 title
 -----
 Structure from the checkpoint file:  "Grambow2020_wb97xd3_006769_reverse_mol2.chk"
 Charge =  0 Multiplicity = 1

                         Standard orientation:
 ---------------------------------------------------------------------
 Center     Atomic      Atomic             Coordinates (Angstroms)
 Number     Number       Type             X           Y           Z
 ---------------------------------------------------------------------
      1          6           0       -2.469062    0.076809    0.185355
      2          7           0       -1.288783   -0.422674   -0.495648
      3          6           0       -0.150930   -0.580496    0.327531
      4          8           0        0.878463   -1.353589   -0.304009
      5          6           0        1.884139   -0.381610    0.007172
      6          6           0        0.838027    0.601798    0.532069
      7          8           0        0.512578    1.666256   -0.327284
      8          1           0       -2.341695    1.072295    0.632126
      9          1           0       -3.297577    0.125484   -0.521479
     10          1           0       -2.753362   -0.619077    0.978019
     11          1           0       -0.466734   -1.036013    1.274047
     12          1           0        2.590969   -0.746663    0.759152
     13          1           0        2.426427   -0.052894   -0.883760
     14          1           0        0.966372    0.944462    1.562600
     15          1           0        1.213640    2.319059   -0.298127
     16          1           0       -1.057937    0.151720   -1.295458
 ---------------------------------------------------------------------

 SCF Done:  E(RHF) =  -360.994454821     A.U. after    2 cycles

 The electronic state is 1-A.
 Alpha  occ. eigenvalues --  -20.59023 -20.56289 -15.60401 -11.31771 -11.29732
 Alpha  occ. eigenvalues --  -11.28809 -11.25434  -1.36818  -1.32994  -1.17322
 Alpha  occ. eigenvalues --   -0.99232  -0.94630  -0.87306  -0.79235  -0.72775
 Alpha  occ. eigenvalues --   -0.71122  -0.67536  -0.63523  -0.62430  -0.58591
 Alpha  occ. eigenvalues --   -0.58022  -0.55830  -0.54650  -0.52283  -0.48587
 Alpha  occ. eigenvalues --   -0.45060  -0.43970  -0.36307
 Alpha virt. eigenvalues --    0.02859   0.04061   0.04381   0.05025   0.06098
 Alpha virt. eigenvalues --    0.06853   0.07100   0.07241   0.09413   0.10921
 Alpha virt. eigenvalues --    0.11643   0.13150   0.13787   0.13883   0.15536

 Mulliken charges:
               1
     1  C    0.767106
     2  N   -0.585800
     3  C    0.945941
     4  O   -0.821457
     5  C    0.943614
     6  C    0.485065
     7  O   -0.633878
     8  H   -0.077338
     9  H   -0.230276
    10  H   -0.131020
    11  H   -0.300753
    12  H   -0.213591
    13  H   -0.182997
    14  H   -0.141861
    15  H    0.140771
    16  H    0.036473
 Sum of Mulliken charges =   0.00000

 Dipole moment (field-independent basis, Debye):
    X=              1.3437    Y=              2.9558    Z=              1.9470  Tot=              3.7860

 Test job not archived.
 1\1\GINC-SE366\SP\RHF\Aug-CC-pVDZ\C4H9N1O2\OHZDE\09-Apr-2025\0\\#t hf
 aug-cc-pvdz iop(5/13=1,5/36=2,99/5=2) pseudo=read geom=check guess=(re
 ad,tcheck) scf=(maxcycle=1)\\title\\0,1\C,0,1.95723073,-0.62497824,-1.
 18910482\N,0,0.89474761,0.36140731,-1.12216688\C,0,0.34133408,0.551109
 3,0.16429653\O,0,-0.47066907,1.73040167,0.24230164\C,0,-1.5547671,1.01
 773443,0.85041001\C,0,-0.85266327,-0.32384515,0.64023143\O,0,-1.337410
 91,-1.10912366,-0.42082148\H,0,1.64833904,-1.63771422,-0.89623992\H,0,
 2.3424356,-0.66893564,-2.20798015\H,0,2.77997614,-0.31791616,-0.539333

 Normal termination of Gaussian 16 at Wed Apr  9 03:28:24 2025.
