 Gaussian 16, Revision C.01,

 ----------------------------------------------------------------------
 #t hf aug-cc-pvdz symm=none int=(grid=ultrafine) guess=(read,tcheck) s
 table=(opt,rrhf)
 ----------------------------------------------------------------------
 -----
 title
 -----
 Symbolic Z-matrix:
 Charge =  0 Multiplicity = 1

 SCF Done:  E(RHF) =  -270.602921187     A.U. after   16 cycles
 Normal termination of Gaussian 16 at Wed Apr  9 03:52:53 2025.
 Gaussian 16:  ES64L-G16RevC.01  3-Jul-2019

 ----------------------------------------------------------------------
 #t hf aug-cc-pvdz iop(5/13=1,5/36=2,99/5=2) pseudo=read geom=check gue
 ss=(read,tcheck) scf=(maxcycle=1)
 ----------------------------------------------------------------------
 -----
 title
 -----
 Structure from the checkpoint file:  "Grambow2020_wb97xd3_008382_reverse_mol1.chk"
 Charge =  0 Multiplicity = 1

                         Standard orientation:
 ---------------------------------------------------------------------
 Center     Atomic      Atomic             Coordinates (Angstroms)
 Number     Number       Type             X           Y           Z
 ---------------------------------------------------------------------
      1          6           0       -1.986671   -0.419595   -0.013154
      2          6           0       -0.229251   -1.031019    0.287433
      3          6           0        0.654086   -0.843531   -0.962456
      4          6           0        1.374063    0.294062   -0.224713
      5          6           0        0.951780   -0.440811    1.083821
      6          6           0        0.388437    1.417182   -0.208772
      7          6           0       -0.850621    1.071932    0.081703
      8          1           0       -2.428200   -0.627091    0.956058
      9          1           0       -2.614138    0.346838   -0.503769
     10          1           0       -2.104568   -1.277320   -0.668470
     11          1           0        0.195248   -0.637138   -1.929123
     12          1           0        1.276435   -1.739806   -1.036757
     13          1           0        2.411761    0.560943   -0.438559
     14          1           0        0.792031    0.143101    1.986810
     15          1           0        1.594344   -1.299927    1.306714
     16          1           0        0.688458    2.457712   -0.266256
     17          1           0       -1.622313    1.783373    0.330175
 ---------------------------------------------------------------------

 SCF Done:  E(RHF) =  -270.681850782     A.U. after    2 cycles

 The electronic state is 1-A.
 Alpha  occ. eigenvalues --  -11.27322 -11.26766 -11.24591 -11.24495 -11.24169
 Alpha  occ. eigenvalues --  -11.23307 -11.22742  -1.16526  -1.01789  -0.96725
 Alpha  occ. eigenvalues --   -0.89567  -0.85467  -0.74826  -0.71331  -0.66182
 Alpha  occ. eigenvalues --   -0.61964  -0.59908  -0.58274  -0.55432  -0.53081
 Alpha  occ. eigenvalues --   -0.49291  -0.47932  -0.45736  -0.44012  -0.35506
 Alpha  occ. eigenvalues --   -0.27949
 Alpha virt. eigenvalues --    0.03205   0.04085   0.04430   0.04742   0.05964
 Alpha virt. eigenvalues --    0.06202   0.06701   0.06886   0.07686   0.08897
 Alpha virt. eigenvalues --    0.10935   0.11712   0.12728   0.13430   0.13577

 Mulliken charges:
               1
     1  C    0.639220
     2  C   -0.766735
     3  C    0.793543
     4  C    0.279873
     5  C    0.693882
     6  C    0.480752
     7  C    0.440160
     8  H    0.001836
     9  H   -0.116499
    10  H   -0.174427
    11  H   -0.289207
    12  H   -0.178884
    13  H   -0.385164
    14  H   -0.290232
    15  H   -0.166242
    16  H   -0.385823
    17  H   -0.576054
 Sum of Mulliken charges =  -0.00000

 Dipole moment (field-independent basis, Debye):
    X=              0.4116    Y=              1.3981    Z=             -0.3422  Tot=              1.4970

 Test job not archived.
 1\1\GINC-SE437\SP\RHF\Aug-CC-pVDZ\C7H10\OHZDE\09-Apr-2025\0\\#t hf aug
 -cc-pvdz iop(5/13=1,5/36=2,99/5=2) pseudo=read geom=check guess=(read,
 tcheck) scf=(maxcycle=1)\\title\\0,1\C,0,1.87569551,0.45521707,0.19508
 037\C,0,0.57985886,-0.80536275,-0.33826757\C,0,-0.39386725,-1.1333751,
 0.81148245\C,0,-1.47154414,-0.3366591,0.06274658\C,0,-0.67344461,-0.69
 028721,-1.22899911\C,0,-1.06479929,1.09227127,0.22345284\C,0,0.2212188
 2,1.33148563,0.05680513\H,0,2.4382953,0.55113809,-0.72777144\H,0,2.073
 17924,1.36104483,0.79700667\H,0,2.29799914,-0.33423712,0.80945286\H,0,

 Normal termination of Gaussian 16 at Wed Apr  9 03:53:00 2025.
