 Gaussian 16, Revision C.01,

 ----------------------------------------------------------------------
 #t hf aug-cc-pvdz symm=none int=(grid=ultrafine) guess=(read,tcheck) s
 table=(opt,rrhf)
 ----------------------------------------------------------------------
 -----
 title
 -----
 Symbolic Z-matrix:
 Charge =  0 Multiplicity = 1

 SCF Done:  E(RHF) =  -324.890274045     A.U. after   15 cycles
 Normal termination of Gaussian 16 at Wed Apr  9 16:50:29 2025.
 Gaussian 16:  ES64L-G16RevC.01  3-Jul-2019

 ----------------------------------------------------------------------
 #t hf aug-cc-pvdz iop(5/13=1,5/36=2,99/5=2) pseudo=read geom=check gue
 ss=(read,tcheck) scf=(maxcycle=1)
 ----------------------------------------------------------------------
 -----
 title
 -----
 Structure from the checkpoint file:  "Grambow2020_wb97xd3_008966_reverse_mol1.chk"
 Charge =  0 Multiplicity = 1

                         Standard orientation:
 ---------------------------------------------------------------------
 Center     Atomic      Atomic             Coordinates (Angstroms)
 Number     Number       Type             X           Y           Z
 ---------------------------------------------------------------------
      1          6           0       -1.964935   -1.418561    0.195540
      2          6           0       -1.807520    0.013304   -0.279361
      3          7           0       -0.735912    0.677916    0.447924
      4          6           0       -0.121660    1.808303   -0.250759
      5          6           0        0.579710    0.524862   -0.131599
      6          6           0        1.729745    0.159888    0.626777
      7          8           0        2.230012   -1.120950   -0.478231
      8          1           0       -2.785898   -1.916833   -0.323530
      9          1           0       -2.162493   -1.449534    1.268476
     10          1           0       -1.051977   -1.987953    0.000857
     11          1           0       -1.611498    0.025317   -1.363253
     12          1           0       -2.732295    0.571038   -0.102505
     13          1           0       -0.530545    2.079779   -1.221470
     14          1           0        0.132376    2.653238    0.382587
     15          1           0        1.323219   -0.656005   -0.922578
     16          1           0        2.634411    0.755118    0.565839
     17          1           0        1.611795   -0.394027    1.555972
     18          1           0        1.992150   -1.984727   -0.113604
 ---------------------------------------------------------------------

 SCF Done:  E(RHF) =  -324.990638893     A.U. after    2 cycles

 The electronic state is 1-A.
 Alpha  occ. eigenvalues --  -20.61930 -15.60276 -11.33117 -11.24738 -11.24233
 Alpha  occ. eigenvalues --  -11.21563 -11.21488  -1.35062  -1.22733  -1.03167
 Alpha  occ. eigenvalues --   -0.98624  -0.87067  -0.80359  -0.78306  -0.72821
 Alpha  occ. eigenvalues --   -0.66926  -0.64792  -0.62334  -0.59766  -0.58670
 Alpha  occ. eigenvalues --   -0.57117  -0.55068  -0.51769  -0.48837  -0.45434
 Alpha  occ. eigenvalues --   -0.42820  -0.36350  -0.30433
 Alpha virt. eigenvalues --    0.03093   0.04033   0.04290   0.04768   0.06150
 Alpha virt. eigenvalues --    0.06611   0.06910   0.07292   0.07942   0.09029
 Alpha virt. eigenvalues --    0.09597   0.11038   0.11807   0.13234   0.13815

 Mulliken charges:
               1
     1  C    0.290686
     2  C    0.720410
     3  N   -0.821601
     4  C    0.753327
     5  C   -0.375638
     6  C    0.761627
     7  O   -0.494086
     8  H   -0.041410
     9  H   -0.053170
    10  H   -0.125866
    11  H   -0.161108
    12  H   -0.270080
    13  H   -0.286548
    14  H   -0.308305
    15  H    0.508118
    16  H   -0.138251
    17  H   -0.172775
    18  H    0.214669
 Sum of Mulliken charges =  -0.00000

 Dipole moment (field-independent basis, Debye):
    X=              1.2259    Y=             -1.2129    Z=              0.8105  Tot=              1.9055

 Test job not archived.
 1\1\GINC-SE174\SP\RHF\Aug-CC-pVDZ\C5H11N1O1\OHZDE\09-Apr-2025\0\\#t hf
  aug-cc-pvdz iop(5/13=1,5/36=2,99/5=2) pseudo=read geom=check guess=(r
 ead,tcheck) scf=(maxcycle=1)\\title\\0,1\C,0,-1.83252044,-1.2245948,-0
 .32256639\C,0,-1.43343338,-0.25361143,0.77217955\N,0,0.00003015,-0.320
 25534,1.01658934\C,0,0.58511036,0.88718534,1.60225681\C,0,0.80028023,0
 .55458324,0.18931049\C,0,1.97258801,0.12403037,-0.49715791\O,0,1.48860
 139,0.80662011,-2.05011745\H,0,-2.91055844,-1.20327777,-0.49306378\H,0
 ,-1.54247246,-2.2432557,-0.05916187\H,0,-1.34024683,-0.96284932,-1.263

 Normal termination of Gaussian 16 at Wed Apr  9 16:50:36 2025.
