 Gaussian 16, Revision C.01,

 ----------------------------------------------------------------------
 #t hf aug-cc-pvdz symm=none int=(grid=ultrafine) guess=(read,tcheck) s
 table=(opt,rrhf)
 ----------------------------------------------------------------------
 -----
 title
 -----
 Symbolic Z-matrix:
 Charge =  0 Multiplicity = 1

 SCF Done:  E(RHF) =  -323.881082411     A.U. after   14 cycles
 Normal termination of Gaussian 16 at Wed Apr  9 15:34:05 2025.
 Gaussian 16:  ES64L-G16RevC.01  3-Jul-2019

 ----------------------------------------------------------------------
 #t hf aug-cc-pvdz iop(5/13=1,5/36=2,99/5=2) pseudo=read geom=check gue
 ss=(read,tcheck) scf=(maxcycle=1)
 ----------------------------------------------------------------------
 -----
 title
 -----
 Structure from the checkpoint file:  "Grambow2020_wb97xd3_006971_reverse_mol2.chk"
 Charge =  0 Multiplicity = 1

                         Standard orientation:
 ---------------------------------------------------------------------
 Center     Atomic      Atomic             Coordinates (Angstroms)
 Number     Number       Type             X           Y           Z
 ---------------------------------------------------------------------
      1          6           0        2.308566   -1.125597    0.027641
      2          6           0        0.811396   -0.851015    0.009700
      3          6           0        0.464500    0.589560    0.369119
      4          8           0        1.040575    1.521126   -0.541388
      5          6           0       -1.012760    0.862016    0.384988
      6          6           0       -1.922641   -0.011132    0.046959
      7          7           0       -2.776092   -0.859978   -0.150576
      8          1           0        2.747203   -0.883923    0.999904
      9          1           0        2.515823   -2.177501   -0.172346
     10          1           0        2.832261   -0.546489   -0.736531
     11          1           0        0.304838   -1.514490    0.716504
     12          1           0        0.405348   -1.067695   -0.982703
     13          1           0        0.853165    0.797773    1.377345
     14          1           0        1.987583    1.547458   -0.390764
     15          1           0       -3.088289   -0.943591   -1.114251
     16          1           0       -1.344258    1.856299    0.657546
 ---------------------------------------------------------------------

 SCF Done:  E(RHF) =  -323.981979743     A.U. after    2 cycles

 The electronic state is 1-A.
 Alpha  occ. eigenvalues --  -20.57427 -15.64709 -11.32565 -11.30588 -11.24159
 Alpha  occ. eigenvalues --  -11.23555 -11.23373  -1.32957  -1.21664  -1.07455
 Alpha  occ. eigenvalues --   -1.01902  -0.90961  -0.82742  -0.74888  -0.72017
 Alpha  occ. eigenvalues --   -0.67623  -0.63803  -0.62102  -0.59533  -0.54987
 Alpha  occ. eigenvalues --   -0.54921  -0.52876  -0.50821  -0.49415  -0.46531
 Alpha  occ. eigenvalues --   -0.44778  -0.34736
 Alpha virt. eigenvalues --    0.03264   0.03996   0.04266   0.05117   0.05812
 Alpha virt. eigenvalues --    0.06558   0.07371   0.07943   0.08537   0.11385
 Alpha virt. eigenvalues --    0.11760   0.13098   0.13394   0.13910   0.14776

 Mulliken charges:
               1
     1  C    0.433569
     2  C    0.024297
     3  C    0.155320
     4  O   -0.599367
     5  C    1.450968
     6  C   -0.792936
     7  N   -0.183030
     8  H   -0.040266
     9  H   -0.052052
    10  H   -0.043506
    11  H   -0.054443
    12  H   -0.095579
    13  H   -0.120675
    14  H    0.138539
    15  H    0.079019
    16  H   -0.299857
 Sum of Mulliken charges =  -0.00000

 Dipole moment (field-independent basis, Debye):
    X=              1.5761    Y=             -0.3447    Z=             -0.0726  Tot=              1.6150

 Test job not archived.
 1\1\GINC-SE057\SP\RHF\Aug-CC-pVDZ\C5H9N1O1\OHZDE\09-Apr-2025\0\\#t hf
 aug-cc-pvdz iop(5/13=1,5/36=2,99/5=2) pseudo=read geom=check guess=(re
 ad,tcheck) scf=(maxcycle=1)\\title\\0,1\C,0,2.15717104,-0.01480435,0.0
 0413875\C,0,0.69829831,0.30161598,0.30213958\C,0,-0.25318303,-0.193636
 92,-0.7814577\O,0,-0.18837227,-1.607129,-0.94436903\C,0,-1.69237588,0.
 14198686,-0.51152787\C,0,-2.11715102,0.72566485,0.57632396\N,0,-2.4986
 0059,1.37781829,1.53399326\H,0,2.46656545,0.39873423,-0.95989674\H,0,2
 .81272075,0.40733376,0.76670448\H,0,2.33925863,-1.09191082,-0.01222882

 Normal termination of Gaussian 16 at Wed Apr  9 15:34:11 2025.
