 Gaussian 16, Revision C.01,

 ----------------------------------------------------------------------
 #t hf aug-cc-pvdz symm=none int=(grid=ultrafine) guess=(read,tcheck) s
 table=(opt,rrhf)
 ----------------------------------------------------------------------
 -----
 title
 -----
 Symbolic Z-matrix:
 Charge =  0 Multiplicity = 1

 SCF Done:  E(RHF) =  -302.701654375     A.U. after   17 cycles
 Normal termination of Gaussian 16 at Wed Apr  9 04:05:53 2025.
 Gaussian 16:  ES64L-G16RevC.01  3-Jul-2019

 ----------------------------------------------------------------------
 #t hf aug-cc-pvdz iop(5/13=1,5/36=2,99/5=2) pseudo=read geom=check gue
 ss=(read,tcheck) scf=(maxcycle=1)
 ----------------------------------------------------------------------
 -----
 title
 -----
 Structure from the checkpoint file:  "Grambow2020_wb97xd3_009336_forward_mol1.chk"
 Charge =  0 Multiplicity = 1

                         Standard orientation:
 ---------------------------------------------------------------------
 Center     Atomic      Atomic             Coordinates (Angstroms)
 Number     Number       Type             X           Y           Z
 ---------------------------------------------------------------------
      1          6           0        2.328506   -0.638615    0.164721
      2          7           0        1.145624    0.055881   -0.141755
      3          6           0        0.097229   -0.869977   -0.204765
      4          6           0       -1.077497   -0.070203    0.032784
      5          6           0       -2.490686   -0.530519    0.106493
      6          6           0       -0.593239    1.217700    0.028168
      7          7           0        0.768198    1.289427   -0.047917
      8          1           0        1.038306   -1.683766    0.240250
      9          1           0        2.391580   -0.879693    1.221017
     10          1           0        3.240978   -0.219592   -0.250461
     11          1           0        0.096768   -1.452811   -1.127699
     12          1           0       -3.177741    0.315342    0.112157
     13          1           0       -2.666781   -1.113046    1.013263
     14          1           0       -2.746827   -1.170042   -0.742035
     15          1           0       -1.158908    2.136135    0.096806
 ---------------------------------------------------------------------

 SCF Done:  E(RHF) =  -302.790638508     A.U. after    2 cycles

 The electronic state is 1-A.
 Alpha  occ. eigenvalues --  -15.74692 -15.68249 -11.28504 -11.27750 -11.26730
 Alpha  occ. eigenvalues --  -11.25381 -11.24444  -1.37819  -1.12906  -1.09082
 Alpha  occ. eigenvalues --   -0.97561  -0.91277  -0.81468  -0.77164  -0.70736
 Alpha  occ. eigenvalues --   -0.66410  -0.62538  -0.59829  -0.59111  -0.57519
 Alpha  occ. eigenvalues --   -0.55186  -0.52178  -0.48209  -0.44181  -0.36417
 Alpha  occ. eigenvalues --   -0.28265
 Alpha virt. eigenvalues --    0.02875   0.03632   0.03996   0.04591   0.06106
 Alpha virt. eigenvalues --    0.06321   0.07051   0.07328   0.08884   0.10526
 Alpha virt. eigenvalues --    0.11081   0.11623   0.12314   0.13719   0.14567

 Mulliken charges:
               1
     1  C    0.536666
     2  N   -0.331041
     3  C    0.280848
     4  C   -0.678513
     5  C    0.406854
     6  C    1.109986
     7  N   -0.548514
     8  H    0.240195
     9  H   -0.251185
    10  H   -0.353984
    11  H   -0.120730
    12  H   -0.078887
    13  H    0.089211
    14  H    0.048689
    15  H   -0.349594
 Sum of Mulliken charges =  -0.00000

 Dipole moment (field-independent basis, Debye):
    X=             -2.9105    Y=             -0.8181    Z=             -0.1939  Tot=              3.0295

 Test job not archived.
 1\1\GINC-SE166\SP\RHF\Aug-CC-pVDZ\C5H8N2\OHZDE\09-Apr-2025\0\\#t hf au
 g-cc-pvdz iop(5/13=1,5/36=2,99/5=2) pseudo=read geom=check guess=(read
 ,tcheck) scf=(maxcycle=1)\\title\\0,1\C,0,-2.51108239,-0.3703143,-0.19
 829097\N,0,-1.31826264,0.14743866,0.33516574\C,0,-0.26200407,-0.677018
 47,-0.07091849\C,0,0.89337545,0.17854101,0.0248179\C,0,2.3036973,-0.15
 799079,-0.31009419\C,0,0.40166287,1.31268624,0.62909746\N,0,-0.9543265
 8,1.30255305,0.78920512\H,0,-1.21986842,-1.23207878,-0.7922511\H,0,-2.
 62805059,-0.11376074,-1.24631578\H,0,-3.40316385,-0.20908313,0.4006724

 Normal termination of Gaussian 16 at Wed Apr  9 04:05:59 2025.
