 Gaussian 16, Revision C.01,

 ----------------------------------------------------------------------
 #t hf aug-cc-pvdz symm=none int=(grid=ultrafine) guess=(read,tcheck) s
 table=(opt,rrhf)
 ----------------------------------------------------------------------
 -----
 title
 -----
 Symbolic Z-matrix:
 Charge =  0 Multiplicity = 1

 SCF Done:  E(RHF) =  -286.795469427     A.U. after   15 cycles
 Normal termination of Gaussian 16 at Wed Apr  9 16:33:11 2025.
 Gaussian 16:  ES64L-G16RevC.01  3-Jul-2019

 ----------------------------------------------------------------------
 #t hf aug-cc-pvdz iop(5/13=1,5/36=2,99/5=2) pseudo=read geom=check gue
 ss=(read,tcheck) scf=(maxcycle=1)
 ----------------------------------------------------------------------
 -----
 title
 -----
 Structure from the checkpoint file:  "Grambow2020_wb97xd3_008572_reverse_mol2.chk"
 Charge =  0 Multiplicity = 1

                         Standard orientation:
 ---------------------------------------------------------------------
 Center     Atomic      Atomic             Coordinates (Angstroms)
 Number     Number       Type             X           Y           Z
 ---------------------------------------------------------------------
      1          6           0       -3.060545   -0.826968    0.075576
      2          6           0       -1.589575   -0.589733   -0.008205
      3          6           0        2.175090    0.025950    0.539032
      4          6           0        1.078623    0.623450    0.183778
      5          6           0        2.977693   -0.875511   -0.352592
      6          6           0       -0.004754    1.237712   -0.195706
      7          7           0       -1.314611    0.680981   -0.119601
      8          1           0       -3.351348   -1.535074   -0.703754
      9          1           0       -3.272007   -1.330197    1.022764
     10          1           0       -3.695686    0.072964    0.000814
     11          1           0        2.526232    0.166660    1.558867
     12          1           0        2.524029   -0.954327   -1.339151
     13          1           0        3.037955   -1.876030    0.081181
     14          1           0        3.998572   -0.502076   -0.462097
     15          1           0        0.032300    2.238704   -0.610998
     16          1           0       -2.056952    1.383116   -0.161716
 ---------------------------------------------------------------------

 SCF Done:  E(RHF) =  -286.885369382     A.U. after    2 cycles

 The electronic state is 1-A.
 Alpha  occ. eigenvalues --  -15.67644 -11.28394 -11.25391 -11.25105 -11.24990
 Alpha  occ. eigenvalues --  -11.23486 -11.22791  -1.23963  -1.07897  -1.01736
 Alpha  occ. eigenvalues --   -0.95746  -0.89014  -0.82070  -0.71259  -0.68013
 Alpha  occ. eigenvalues --   -0.64703  -0.59480  -0.57696  -0.57328  -0.57184
 Alpha  occ. eigenvalues --   -0.53227  -0.52866  -0.50417  -0.37027  -0.34521
 Alpha  occ. eigenvalues --   -0.33247
 Alpha virt. eigenvalues --    0.03231   0.03873   0.04314   0.05089   0.06111
 Alpha virt. eigenvalues --    0.06496   0.06876   0.07655   0.08228   0.10123
 Alpha virt. eigenvalues --    0.10798   0.11680   0.12386   0.13000   0.13704

 Mulliken charges:
               1
     1  C    0.425509
     2  C   -0.455028
     3  C    0.536162
     4  C   -0.804346
     5  C    0.223631
     6  C    1.349306
     7  N   -0.230590
     8  H   -0.010360
     9  H   -0.009432
    10  H   -0.188920
    11  H   -0.350003
    12  H   -0.146337
    13  H    0.032111
    14  H    0.005113
    15  H   -0.317964
    16  H   -0.058852
 Sum of Mulliken charges =   0.00000

 Dipole moment (field-independent basis, Debye):
    X=             -0.4997    Y=              1.9235    Z=             -0.1284  Tot=              1.9914

 Test job not archived.
 1\1\GINC-SE173\SP\RHF\Aug-CC-pVDZ\C6H9N1\OHZDE\09-Apr-2025\0\\#t hf au
 g-cc-pvdz iop(5/13=1,5/36=2,99/5=2) pseudo=read geom=check guess=(read
 ,tcheck) scf=(maxcycle=1)\\title\\0,1\C,0,3.05461907,0.07727177,0.7413
 6797\C,0,1.58996299,-0.01774991,0.47153793\C,0,-1.97834705,-0.70332238
 ,-0.81235653\C,0,-1.06143667,0.21483691,-0.77101267\C,0,-2.87794134,-1
 .0567551,0.33551625\C,0,-0.16457094,1.1573679,-0.72306499\N,0,1.173737
 26,0.97291282,-0.26878047\H,0,3.21954286,0.05196897,1.82094899\H,0,3.5
 3321563,-0.82450629,0.3503937\H,0,3.56283862,0.96180172,0.3192425\H,0,

 Normal termination of Gaussian 16 at Wed Apr  9 16:33:18 2025.
