 Gaussian 16, Revision C.01,

 ----------------------------------------------------------------------
 #t hf aug-cc-pvdz symm=none int=(grid=ultrafine) guess=(read,tcheck) s
 table=(opt,rrhf)
 ----------------------------------------------------------------------
 -----
 title
 -----
 Symbolic Z-matrix:
 Charge =  0 Multiplicity = 1

 SCF Done:  E(RHF) =  -359.556064544     A.U. after   16 cycles
 Normal termination of Gaussian 16 at Wed Apr  9 03:52:39 2025.
 Gaussian 16:  ES64L-G16RevC.01  3-Jul-2019

 ----------------------------------------------------------------------
 #t hf aug-cc-pvdz iop(5/13=1,5/36=2,99/5=2) pseudo=read geom=check gue
 ss=(read,tcheck) scf=(maxcycle=1)
 ----------------------------------------------------------------------
 -----
 title
 -----
 Structure from the checkpoint file:  "Grambow2020_wb97xd3_008375_forward_mol1.chk"
 Charge =  0 Multiplicity = 1

                         Standard orientation:
 ---------------------------------------------------------------------
 Center     Atomic      Atomic             Coordinates (Angstroms)
 Number     Number       Type             X           Y           Z
 ---------------------------------------------------------------------
      1          8           0        1.511492   -1.390172   -0.352545
      2          6           0        1.095474   -0.242929    0.111198
      3          6           0        0.916225    1.091612   -0.622629
      4          7           0       -0.131904    1.455005    0.353769
      5          6           0       -0.251412    0.075297    0.819569
      6          6           0       -1.357782   -0.742835    0.188604
      7          8           0       -2.174122   -0.269407   -0.551864
      8          1           0        2.160795   -0.692834    0.674491
      9          1           0        1.981342    0.146533    1.117721
     10          1           0        0.549795    0.862151   -1.629238
     11          1           0        1.764134    1.773787   -0.682520
     12          1           0       -0.987633    1.796152   -0.067167
     13          1           0       -0.289999   -0.067337    1.904655
     14          1           0       -1.369104   -1.813714    0.460482
 ---------------------------------------------------------------------

 SCF Done:  E(RHF) =  -359.664733747     A.U. after    2 cycles

 The electronic state is 1-A.
 Alpha  occ. eigenvalues --  -20.59464 -20.53767 -15.63690 -11.39601 -11.36165
 Alpha  occ. eigenvalues --  -11.30499 -11.29229  -1.38718  -1.34308  -1.24199
 Alpha  occ. eigenvalues --   -0.99846  -0.96931  -0.86604  -0.79566  -0.74103
 Alpha  occ. eigenvalues --   -0.72290  -0.69134  -0.64284  -0.62955  -0.60650
 Alpha  occ. eigenvalues --   -0.56988  -0.56341  -0.54228  -0.47705  -0.42642
 Alpha  occ. eigenvalues --   -0.41926  -0.40498
 Alpha virt. eigenvalues --    0.02390   0.03735   0.04322   0.04815   0.06404
 Alpha virt. eigenvalues --    0.06821   0.07833   0.09139   0.09970   0.11555
 Alpha virt. eigenvalues --    0.12169   0.12421   0.12848   0.13596   0.14477

 Mulliken charges:
               1
     1  O   -0.848278
     2  C    0.118112
     3  C    0.829563
     4  N   -0.609103
     5  C    0.322898
     6  C    0.774398
     7  O   -0.482339
     8  H    0.090199
     9  H    0.210501
    10  H   -0.083536
    11  H   -0.145573
    12  H    0.066728
    13  H   -0.126338
    14  H   -0.117232
 Sum of Mulliken charges =  -0.00000

 Dipole moment (field-independent basis, Debye):
    X=              1.4110    Y=              1.6070    Z=              2.7055  Tot=              3.4486

 Test job not archived.
 1\1\GINC-SE335\SP\RHF\Aug-CC-pVDZ\C4H7N1O2\OHZDE\09-Apr-2025\0\\#t hf
 aug-cc-pvdz iop(5/13=1,5/36=2,99/5=2) pseudo=read geom=check guess=(re
 ad,tcheck) scf=(maxcycle=1)\\title\\0,1\O,0,-0.8112277,-1.46251764,1.1
 7473202\C,0,-0.67482596,-0.61820238,0.18841484\C,0,-1.07126809,0.86146
 622,0.11736792\N,0,-0.00002891,1.07113203,-0.87885882\C,0,0.63017772,-
 0.20508697,-0.54878168\C,0,1.77116118,-0.14265552,0.44407854\O,0,2.226
 63992,0.89177865,0.8457283\H,0,-1.40647661,-1.64134918,-0.0808054\H,0,
 -1.40042194,-1.11980381,-0.89391521\H,0,-0.87655787,1.29762603,1.10328

 Normal termination of Gaussian 16 at Wed Apr  9 03:52:44 2025.
