 Gaussian 16, Revision C.01,

 ----------------------------------------------------------------------
 #t hf aug-cc-pvdz symm=none int=(grid=ultrafine) guess=(read,tcheck) s
 table=(opt,rrhf)
 ----------------------------------------------------------------------
 -----
 title
 -----
 Symbolic Z-matrix:
 Charge =  0 Multiplicity = 1

 SCF Done:  E(RHF) =  -343.569719709     A.U. after   15 cycles
 Normal termination of Gaussian 16 at Wed Apr  9 03:27:23 2025.
 Gaussian 16:  ES64L-G16RevC.01  3-Jul-2019

 ----------------------------------------------------------------------
 #t hf aug-cc-pvdz iop(5/13=1,5/36=2,99/5=2) pseudo=read geom=check gue
 ss=(read,tcheck) scf=(maxcycle=1)
 ----------------------------------------------------------------------
 -----
 title
 -----
 Structure from the checkpoint file:  "Grambow2020_wb97xd3_006713_forward_mol1.chk"
 Charge =  0 Multiplicity = 1

                         Standard orientation:
 ---------------------------------------------------------------------
 Center     Atomic      Atomic             Coordinates (Angstroms)
 Number     Number       Type             X           Y           Z
 ---------------------------------------------------------------------
      1          8           0        2.496127    0.193010   -0.258681
      2          6           0        1.411387   -0.695495   -0.139194
      3          6           0        0.293621   -0.063756    0.659142
      4          8           0       -0.187390    1.146997    0.042055
      5          6           0       -1.515586    0.618437    0.012743
      6          6           0       -1.798112   -0.363960   -1.023286
      7          6           0       -1.095724   -0.705159    0.627038
      8          1           0        2.172457    0.977543   -0.710218
      9          1           0        1.031274   -0.997099   -1.121915
     10          1           0        1.776867   -1.583266    0.382876
     11          1           0        0.614442    0.143232    1.684155
     12          1           0       -2.277871    1.253272    0.449471
     13          1           0       -1.111597   -1.390552   -0.382202
     14          1           0       -2.829675   -0.701966   -0.842379
     15          1           0       -1.619303   -1.161611    1.454562
 ---------------------------------------------------------------------

 SCF Done:  E(RHF) =  -343.674916921     A.U. after    2 cycles

 The electronic state is 1-A.
 Alpha  occ. eigenvalues --  -20.58190 -20.57270 -11.32191 -11.31772 -11.29613
 Alpha  occ. eigenvalues --  -11.29111 -11.26306  -1.38059  -1.32623  -1.12693
 Alpha  occ. eigenvalues --   -1.02057  -0.90321  -0.82800  -0.79012  -0.74430
 Alpha  occ. eigenvalues --   -0.71039  -0.66248  -0.64223  -0.59633  -0.58943
 Alpha  occ. eigenvalues --   -0.57771  -0.56502  -0.51142  -0.49048  -0.46486
 Alpha  occ. eigenvalues --   -0.43878  -0.35115
 Alpha virt. eigenvalues --    0.02593   0.03997   0.04352   0.05018   0.06178
 Alpha virt. eigenvalues --    0.06543   0.07351   0.08192   0.09715   0.11484
 Alpha virt. eigenvalues --    0.12480   0.13206   0.13381   0.13737   0.14406

 Mulliken charges:
               1
     1  O   -0.549653
     2  C    0.772457
     3  C    0.528095
     4  O   -0.908727
     5  C    1.088782
     6  C   -0.372458
     7  C   -0.074284
     8  H    0.163497
     9  H   -0.030878
    10  H   -0.104836
    11  H   -0.253966
    12  H   -0.291713
    13  H    0.395772
    14  H   -0.105371
    15  H   -0.256716
 Sum of Mulliken charges =   0.00000

 Dipole moment (field-independent basis, Debye):
    X=             -2.8390    Y=             -1.4728    Z=              2.4895  Tot=              4.0530

 Test job not archived.
 1\1\GINC-SE333\SP\RHF\Aug-CC-pVDZ\C5H8O2\OHZDE\09-Apr-2025\0\\#t hf au
 g-cc-pvdz iop(5/13=1,5/36=2,99/5=2) pseudo=read geom=check guess=(read
 ,tcheck) scf=(maxcycle=1)\\title\\0,1\O,0,2.48535267,0.80646835,0.7671
 6157\C,0,1.65077981,0.17907661,-0.17636726\C,0,0.43827825,-0.41759472,
 0.50161485\O,0,-0.33866202,0.58396711,1.18814782\C,0,-1.50061743,0.209
 91663,0.44364515\C,0,-1.56915172,0.68500389,-0.93035543\C,0,-0.7558894
 ,-0.8450372,-0.35510361\H,0,1.96873277,1.50017465,1.18670224\H,0,1.325
 13642,0.88158086,-0.95201886\H,0,2.23495867,-0.61598076,-0.64635425\H,

 Normal termination of Gaussian 16 at Wed Apr  9 03:27:28 2025.
