 Gaussian 16, Revision C.01,

 ----------------------------------------------------------------------
 #t hf aug-cc-pvdz symm=none int=(grid=ultrafine) guess=(read,tcheck) s
 table=(opt,rrhf)
 ----------------------------------------------------------------------
 -----
 title
 -----
 Symbolic Z-matrix:
 Charge =  0 Multiplicity = 1

 SCF Done:  E(RHF) =  -316.490327410     A.U. after   15 cycles
 Normal termination of Gaussian 16 at Wed Apr  9 15:39:40 2025.
 Gaussian 16:  ES64L-G16RevC.01  3-Jul-2019

 ----------------------------------------------------------------------
 #t hf aug-cc-pvdz iop(5/13=1,5/36=2,99/5=2) pseudo=read geom=check gue
 ss=(read,tcheck) scf=(maxcycle=1)
 ----------------------------------------------------------------------
 -----
 title
 -----
 Structure from the checkpoint file:  "Grambow2020_wb97xd3_007263_reverse_mol2.chk"
 Charge =  0 Multiplicity = 1

                         Standard orientation:
 ---------------------------------------------------------------------
 Center     Atomic      Atomic             Coordinates (Angstroms)
 Number     Number       Type             X           Y           Z
 ---------------------------------------------------------------------
      1          7           0       -2.782711    0.769196    0.162161
      2          6           0       -1.790695    0.204065    0.049162
      3          6           0       -0.562225   -0.489597   -0.029597
      4          7           0        0.049330   -1.297606   -0.754742
      5          6           0        0.750152   -0.786746    0.500977
      6          6           0        1.850585    0.193830    0.309293
      7          7           0        1.642313    1.247207   -0.352488
      8          1           0        0.860542   -1.514982    1.297680
      9          1           0        2.811056   -0.065493    0.765885
     10          1           0        2.478979    1.819588   -0.427094
 ---------------------------------------------------------------------

 SCF Done:  E(RHF) =  -316.580192248     A.U. after    2 cycles

 The electronic state is 1-A.
 Alpha  occ. eigenvalues --  -15.70705 -15.68328 -15.64702 -11.36662 -11.32890
 Alpha  occ. eigenvalues --  -11.32646 -11.32236  -1.34301  -1.23021  -1.20898
 Alpha  occ. eigenvalues --   -0.97404  -0.93820  -0.80558  -0.74674  -0.68070
 Alpha  occ. eigenvalues --   -0.65406  -0.60880  -0.58379  -0.54099  -0.52421
 Alpha  occ. eigenvalues --   -0.48802  -0.45857  -0.43791  -0.42119
 Alpha virt. eigenvalues --    0.02342   0.03615   0.05268   0.05953   0.06934
 Alpha virt. eigenvalues --    0.07718   0.09723   0.10189   0.11030   0.11548
 Alpha virt. eigenvalues --    0.12343   0.13006   0.13873   0.14052   0.14336

 Mulliken charges:
               1
     1  N   -0.104913
     2  C   -0.606085
     3  C    1.012968
     4  N   -0.587530
     5  C    0.499718
     6  C    0.686189
     7  N   -0.369482
     8  H   -0.312970
     9  H   -0.251118
    10  H    0.033222
 Sum of Mulliken charges =   0.00000

 Dipole moment (field-independent basis, Debye):
    X=              4.0099    Y=             -1.0598    Z=              2.2047  Tot=              4.6971

 Test job not archived.
 1\1\GINC-SE009\SP\RHF\Aug-CC-pVDZ\C4H3N3\OHZDE\09-Apr-2025\0\\#t hf au
 g-cc-pvdz iop(5/13=1,5/36=2,99/5=2) pseudo=read geom=check guess=(read
 ,tcheck) scf=(maxcycle=1)\\title\\0,1\N,0,3.04744799,-1.42768177,-0.49
 307479\C,0,1.98085499,-1.22714968,-0.12104875\C,0,0.64711999,-0.989665
 76,0.28052535\N,0,-0.086755,-1.04719921,1.28592584\C,0,-0.6990981,-0.5
 5635303,-0.02291586\C,0,-0.98754805,0.89774682,-0.13070038\N,0,-0.0711
 9913,1.7358662,0.0901917\H,0,-1.39616674,-1.24205961,-0.49318253\H,0,-
 2.01379305,1.16592493,-0.40112527\H,0,-0.4039149,2.6925291,0.0047997\\

 Normal termination of Gaussian 16 at Wed Apr  9 15:39:44 2025.
