 Gaussian 16, Revision C.01,

 ----------------------------------------------------------------------
 #t hf aug-cc-pvdz symm=none int=(grid=ultrafine) guess=(read,tcheck) s
 table=(opt,rrhf)
 ----------------------------------------------------------------------
 -----
 title
 -----
 Symbolic Z-matrix:
 Charge =  0 Multiplicity = 1

 SCF Done:  E(RHF) =  -343.766223076     A.U. after   15 cycles
 Normal termination of Gaussian 16 at Wed Apr  9 15:06:58 2025.
 Gaussian 16:  ES64L-G16RevC.01  3-Jul-2019

 ----------------------------------------------------------------------
 #t hf aug-cc-pvdz iop(5/13=1,5/36=2,99/5=2) pseudo=read geom=check gue
 ss=(read,tcheck) scf=(maxcycle=1)
 ----------------------------------------------------------------------
 -----
 title
 -----
 Structure from the checkpoint file:  "Grambow2020_wb97xd3_006675_reverse_mol2.chk"
 Charge =  0 Multiplicity = 1

                         Standard orientation:
 ---------------------------------------------------------------------
 Center     Atomic      Atomic             Coordinates (Angstroms)
 Number     Number       Type             X           Y           Z
 ---------------------------------------------------------------------
      1          6           0        2.744916   -0.089828    0.148237
      2          6           0        1.255260   -0.207929   -0.043489
      3          8           0        0.723101   -1.259365   -0.299410
      4          6           0        0.443792    1.064815    0.100002
      5          6           0       -0.988703    0.911405   -0.379901
      6          6           0       -1.790677   -0.106523    0.398120
      7          8           0       -2.826640   -0.568314    0.012603
      8          1           0        2.980388    0.508188    1.030759
      9          1           0        3.190942   -1.078193    0.230865
     10          1           0        3.174682    0.426298   -0.714396
     11          1           0       -1.384559   -0.384986    1.394386
     12          1           0        0.474251    1.346835    1.159950
     13          1           0        0.954001    1.874733   -0.428119
     14          1           0       -1.517164    1.865337   -0.283257
     15          1           0       -1.031759    0.631576   -1.433553
 ---------------------------------------------------------------------

 SCF Done:  E(RHF) =  -343.874590648     A.U. after    2 cycles

 The electronic state is 1-A.
 Alpha  occ. eigenvalues --  -20.57676 -20.56403 -11.35678 -11.34022 -11.26864
 Alpha  occ. eigenvalues --  -11.25722 -11.25615  -1.37423  -1.35724  -1.08867
 Alpha  occ. eigenvalues --   -1.02372  -0.92729  -0.80395  -0.75845  -0.69178
 Alpha  occ. eigenvalues --   -0.67604  -0.66477  -0.64248  -0.61762  -0.60538
 Alpha  occ. eigenvalues --   -0.57235  -0.55891  -0.54075  -0.51777  -0.51129
 Alpha  occ. eigenvalues --   -0.43953  -0.42572
 Alpha virt. eigenvalues --    0.02417   0.03731   0.03903   0.05210   0.05952
 Alpha virt. eigenvalues --    0.06527   0.07161   0.07438   0.10212   0.10674
 Alpha virt. eigenvalues --    0.11429   0.12620   0.13523   0.13942   0.14311

 Mulliken charges:
               1
     1  C    0.444701
     2  C   -0.286153
     3  O   -0.485977
     4  C    0.307642
     5  C    0.103949
     6  C    0.620639
     7  O   -0.496911
     8  H    0.012364
     9  H   -0.068776
    10  H    0.074947
    11  H   -0.198408
    12  H    0.016684
    13  H   -0.040338
    14  H    0.046277
    15  H   -0.050642
 Sum of Mulliken charges =  -0.00000

 Dipole moment (field-independent basis, Debye):
    X=              4.6964    Y=              4.4402    Z=              1.2983  Tot=              6.5922

 Test job not archived.
 1\1\GINC-SE113\SP\RHF\Aug-CC-pVDZ\C5H8O2\OHZDE\09-Apr-2025\0\\#t hf au
 g-cc-pvdz iop(5/13=1,5/36=2,99/5=2) pseudo=read geom=check guess=(read
 ,tcheck) scf=(maxcycle=1)\\title\\0,1\C,0,-2.20665895,-0.49378905,0.65
 579816\C,0,-0.95374928,-0.22342659,-0.13597493\O,0,-0.96931492,-0.0870
 0033,-1.33403672\C,0,0.34240426,-0.12929032,0.64509411\C,0,1.57252272,
 -0.13701567,-0.24520457\C,0,1.64903424,1.03544624,-1.19606483\O,0,2.37
 359694,1.06866325,-2.14947805\H,0,-2.25143675,0.13651775,1.54609214\H,
 0,-3.08415558,-0.33307208,0.03386429\H,0,-2.19456643,-1.53238619,0.996

 Normal termination of Gaussian 16 at Wed Apr  9 15:07:03 2025.
