 Gaussian 16, Revision C.01,

 ----------------------------------------------------------------------
 #t hf aug-cc-pvdz symm=none int=(grid=ultrafine) guess=(read,tcheck) s
 table=(opt,rrhf)
 ----------------------------------------------------------------------
 -----
 title
 -----
 Symbolic Z-matrix:
 Charge =  0 Multiplicity = 1

 SCF Done:  E(RHF) =  -339.893557248     A.U. after   13 cycles
 Normal termination of Gaussian 16 at Wed Apr  9 14:27:45 2025.
 Gaussian 16:  ES64L-G16RevC.01  3-Jul-2019

 ----------------------------------------------------------------------
 #t hf aug-cc-pvdz iop(5/13=1,5/36=2,99/5=2) pseudo=read geom=check gue
 ss=(read,tcheck) scf=(maxcycle=1)
 ----------------------------------------------------------------------
 -----
 title
 -----
 Structure from the checkpoint file:  "Grambow2020_wb97xd3_006550_reverse_mol2.chk"
 Charge =  0 Multiplicity = 1

                         Standard orientation:
 ---------------------------------------------------------------------
 Center     Atomic      Atomic             Coordinates (Angstroms)
 Number     Number       Type             X           Y           Z
 ---------------------------------------------------------------------
      1          6           0       -1.438127    1.758418   -0.121606
      2          7           0       -0.267807    1.052446    0.377113
      3          6           0        0.045789   -0.169119   -0.305257
      4          6           0        1.414491   -0.673236    0.149743
      5          8           0        2.400918    0.276122   -0.140588
      6          6           0       -1.749380   -2.012477    0.108586
      7          7           0       -0.938920   -1.202835   -0.100746
      8          1           0       -2.357896    1.162814   -0.075334
      9          1           0       -1.582049    2.668220    0.460024
     10          1           0       -1.267371    2.048237   -1.159788
     11          1           0       -0.353937    0.874614    1.370439
     12          1           0        0.080788    0.034752   -1.378158
     13          1           0        1.664541   -1.592167   -0.380646
     14          1           0        1.363850   -0.904607    1.223836
     15          1           0        2.055182    1.130365    0.140967
 ---------------------------------------------------------------------

 SCF Done:  E(RHF) =  -339.999873906     A.U. after    2 cycles

 The electronic state is 1-A.
 Alpha  occ. eigenvalues --  -20.58195 -15.66310 -15.64551 -11.34888 -11.30678
 Alpha  occ. eigenvalues --  -11.29161 -11.27677  -1.34457  -1.26472  -1.19601
 Alpha  occ. eigenvalues --   -1.03813  -0.92044  -0.89522  -0.77431  -0.73370
 Alpha  occ. eigenvalues --   -0.68338  -0.65476  -0.62028  -0.60774  -0.58853
 Alpha  occ. eigenvalues --   -0.55704  -0.53765  -0.49651  -0.49284  -0.47877
 Alpha  occ. eigenvalues --   -0.45778  -0.41374
 Alpha virt. eigenvalues --    0.02941   0.03497   0.04232   0.05104   0.06509
 Alpha virt. eigenvalues --    0.06880   0.07478   0.08955   0.10186   0.10203
 Alpha virt. eigenvalues --    0.11608   0.12007   0.13574   0.14012   0.14634

 Mulliken charges:
               1
     1  C    0.715106
     2  N   -0.667246
     3  C    0.722300
     4  C    1.028911
     5  O   -0.543826
     6  C   -0.552824
     7  N   -0.002955
     8  H   -0.056371
     9  H   -0.218621
    10  H   -0.142492
    11  H    0.017311
    12  H   -0.296869
    13  H   -0.093271
    14  H   -0.113151
    15  H    0.203999
 Sum of Mulliken charges =  -0.00000

 Dipole moment (field-independent basis, Debye):
    X=             -0.2838    Y=              2.6279    Z=              0.5101  Tot=              2.6920

 Test job not archived.
 1\1\GINC-SE219\SP\RHF\Aug-CC-pVDZ\C4H8N2O1\OHZDE\09-Apr-2025\0\\#t hf
 aug-cc-pvdz iop(5/13=1,5/36=2,99/5=2) pseudo=read geom=check guess=(re
 ad,tcheck) scf=(maxcycle=1)\\title\\0,1\C,0,-1.8026261,0.61291969,0.71
 36304\N,0,-0.42461041,0.15449948,0.80131528\C,0,0.23454184,-0.04414183
 ,-0.45656098\C,0,1.72504945,-0.28426754,-0.22154721\O,0,2.29723761,0.8
 1854466,0.42266981\C,0,-0.77615389,-2.04314513,-1.78860732\N,0,-0.3138
 9358,-1.13900276,-1.21849342\H,0,-2.4539993,-0.07117226,0.15632321\H,0
 ,-2.20379644,0.73508417,1.71905858\H,0,-1.82640693,1.58742524,0.222968

 Normal termination of Gaussian 16 at Wed Apr  9 14:27:50 2025.
