 Gaussian 16, Revision C.01,

 ----------------------------------------------------------------------
 #t hf aug-cc-pvdz symm=none int=(grid=ultrafine) guess=(read,tcheck) s
 table=(opt,rrhf)
 ----------------------------------------------------------------------
 -----
 title
 -----
 Symbolic Z-matrix:
 Charge =  0 Multiplicity = 1

 SCF Done:  E(RHF) =  -342.416651839     A.U. after   15 cycles
 Normal termination of Gaussian 16 at Wed Apr  9 03:58:36 2025.
 Gaussian 16:  ES64L-G16RevC.01  3-Jul-2019

 ----------------------------------------------------------------------
 #t hf aug-cc-pvdz iop(5/13=1,5/36=2,99/5=2) pseudo=read geom=check gue
 ss=(read,tcheck) scf=(maxcycle=1)
 ----------------------------------------------------------------------
 -----
 title
 -----
 Structure from the checkpoint file:  "Grambow2020_wb97xd3_008762_reverse_mol2.chk"
 Charge =  0 Multiplicity = 1

                         Standard orientation:
 ---------------------------------------------------------------------
 Center     Atomic      Atomic             Coordinates (Angstroms)
 Number     Number       Type             X           Y           Z
 ---------------------------------------------------------------------
      1          8           0        2.264466   -0.698040   -0.123280
      2          6           0        1.628468    0.306483   -0.270374
      3          6           0        0.347795    0.598879    0.480129
      4          8           0       -0.628680    1.201241   -0.362118
      5          6           0       -1.605424    0.181963   -0.022866
      6          6           0       -1.735778   -1.051143   -0.674379
      7          6           0       -0.511931   -0.619779    0.840698
      8          1           0        1.938370    1.101416   -0.976685
      9          1           0        0.584591    1.234683    1.343307
     10          1           0       -2.419780    0.597434    0.565150
     11          1           0       -0.123358   -1.561030    0.440320
     12          1           0       -0.984337   -1.127671   -1.476092
     13          1           0       -0.820552   -0.768852    1.867939
 ---------------------------------------------------------------------

 SCF Done:  E(RHF) =  -342.520668431     A.U. after    2 cycles

 The electronic state is 1-A.
 Alpha  occ. eigenvalues --  -20.60114 -20.59928 -11.36354 -11.33611 -11.33336
 Alpha  occ. eigenvalues --  -11.29542 -11.27045  -1.39751  -1.38100  -1.10056
 Alpha  occ. eigenvalues --   -1.02857  -0.90189  -0.81456  -0.79337  -0.73164
 Alpha  occ. eigenvalues --   -0.71933  -0.68356  -0.65825  -0.60580  -0.58560
 Alpha  occ. eigenvalues --   -0.56606  -0.53333  -0.51757  -0.46475  -0.44496
 Alpha  occ. eigenvalues --   -0.37684
 Alpha virt. eigenvalues --    0.02954   0.04126   0.04567   0.05037   0.06094
 Alpha virt. eigenvalues --    0.07396   0.08106   0.09305   0.10429   0.10821
 Alpha virt. eigenvalues --    0.12056   0.12685   0.13714   0.14177   0.14484

 Mulliken charges:
               1
     1  O   -0.453074
     2  C    0.597409
     3  C    0.442157
     4  O   -0.849012
     5  C    1.004679
     6  C   -0.210725
     7  C    0.138274
     8  H   -0.056957
     9  H   -0.118153
    10  H   -0.186211
    11  H   -0.115492
    12  H   -0.021729
    13  H   -0.171165
 Sum of Mulliken charges =   0.00000

 Dipole moment (field-independent basis, Debye):
    X=             -0.0668    Y=              2.2646    Z=              1.6848  Tot=              2.8234

 Test job not archived.
 1\1\GINC-SE335\SP\RHF\Aug-CC-pVDZ\C5H6O2\OHZDE\09-Apr-2025\0\\#t hf au
 g-cc-pvdz iop(5/13=1,5/36=2,99/5=2) pseudo=read geom=check guess=(read
 ,tcheck) scf=(maxcycle=1)\\title\\0,1\O,0,1.25099036,2.02976213,-0.872
 70955\C,0,1.56029392,1.02067513,-0.30590088\C,0,0.7805788,-0.27085872,
 -0.41929531\O,0,0.6791721,-0.93501096,0.8354335\C,0,-0.76824589,-0.987
 18295,0.73392183\C,0,-1.63761207,0.02974487,1.148738\C,0,-0.73326962,-
 0.12520781,-0.62255702\H,0,2.45081945,0.96320877,0.35021958\H,0,1.2616
 6814,-0.90568322,-1.17490471\H,0,-1.11708956,-2.0084081,0.60368177\H,0

 Normal termination of Gaussian 16 at Wed Apr  9 03:58:40 2025.
