 Gaussian 16, Revision C.01,

 ----------------------------------------------------------------------
 #t hf aug-cc-pvdz symm=none int=(grid=ultrafine) guess=(read,tcheck) s
 table=(opt,rrhf)
 ----------------------------------------------------------------------
 -----
 title
 -----
 Symbolic Z-matrix:
 Charge =  0 Multiplicity = 1

 SCF Done:  E(RHF) =  -394.245140653     A.U. after   17 cycles
 Normal termination of Gaussian 16 at Wed Apr  9 15:36:46 2025.
 Gaussian 16:  ES64L-G16RevC.01  3-Jul-2019

 ----------------------------------------------------------------------
 #t hf aug-cc-pvdz iop(5/13=1,5/36=2,99/5=2) pseudo=read geom=check gue
 ss=(read,tcheck) scf=(maxcycle=1)
 ----------------------------------------------------------------------
 -----
 title
 -----
 Structure from the checkpoint file:  "Grambow2020_wb97xd3_007197_reverse_mol1.chk"
 Charge =  0 Multiplicity = 1

                         Standard orientation:
 ---------------------------------------------------------------------
 Center     Atomic      Atomic             Coordinates (Angstroms)
 Number     Number       Type             X           Y           Z
 ---------------------------------------------------------------------
      1          7           0       -0.086430    0.988891    0.036592
      2          6           0       -0.396174   -0.235283    0.175898
      3          8           0        2.181512   -1.021259   -0.452405
      4          6           0        1.533952   -0.389467    0.307654
      5          8           0        1.228654    1.173771   -0.042360
      6          6           0       -1.827474   -0.603874    0.280870
      7          8           0       -2.675455   -0.103083   -0.412845
      8          1           0       -0.671308    1.821741    0.009091
      9          1           0        1.600807   -0.366682    1.403148
     10          1           0       -2.063995   -1.400977    1.005957
 ---------------------------------------------------------------------

 SCF Done:  E(RHF) =  -394.366904281     A.U. after    2 cycles

 The electronic state is 1-A.
 Alpha  occ. eigenvalues --  -20.63872 -20.62269 -20.56252 -15.80312 -11.42435
 Alpha  occ. eigenvalues --  -11.39262 -11.32872  -1.47136  -1.40907  -1.37317
 Alpha  occ. eigenvalues --   -1.18869  -0.98692  -0.91734  -0.82423  -0.78123
 Alpha  occ. eigenvalues --   -0.71894  -0.70883  -0.70347  -0.64517  -0.63707
 Alpha  occ. eigenvalues --   -0.60181  -0.58904  -0.50834  -0.46676  -0.45592
 Alpha  occ. eigenvalues --   -0.40460
 Alpha virt. eigenvalues --    0.02354   0.02605   0.03345   0.04468   0.08315
 Alpha virt. eigenvalues --    0.09206   0.09887   0.10743   0.10959   0.12990
 Alpha virt. eigenvalues --    0.13778   0.14191   0.14727   0.15302   0.16466

 Mulliken charges:
               1
     1  N    0.218102
     2  C   -0.290175
     3  O   -0.497032
     4  C    1.047185
     5  O   -0.795092
     6  C    0.814092
     7  O   -0.474698
     8  H    0.049879
     9  H    0.011494
    10  H   -0.083755
 Sum of Mulliken charges =  -0.00000

 Dipole moment (field-independent basis, Debye):
    X=             -2.7493    Y=              1.1578    Z=              4.0062  Tot=              4.9949

 Test job not archived.
 1\1\GINC-SE057\SP\RHF\Aug-CC-pVDZ\C3H3N1O3\OHZDE\09-Apr-2025\0\\#t hf
 aug-cc-pvdz iop(5/13=1,5/36=2,99/5=2) pseudo=read geom=check guess=(re
 ad,tcheck) scf=(maxcycle=1)\\title\\0,1\N,0,-0.01035687,0.84476922,-0.
 57040095\C,0,-0.2711563,-0.18699871,0.12342063\O,0,2.02010771,-1.44792
 092,-0.78055419\C,0,1.61658224,-0.5020208,-0.19863977\O,0,1.22875159,0
 .83089145,-1.05442157\C,0,-1.61481742,-0.31788483,0.7341096\O,0,-2.623
 4403,-0.02703669,0.14318433\H,0,-0.57673074,1.66505633,-0.77735062\H,0
 ,1.99163607,-0.06816786,0.73741677\H,0,-1.63800797,-0.74200418,1.75227

 Normal termination of Gaussian 16 at Wed Apr  9 15:36:50 2025.
