 Gaussian 16, Revision C.01,

 ----------------------------------------------------------------------
 #t hf aug-cc-pvdz symm=none int=(grid=ultrafine) guess=(read,tcheck) s
 table=(opt,rrhf)
 ----------------------------------------------------------------------
 -----
 title
 -----
 Symbolic Z-matrix:
 Charge =  0 Multiplicity = 1

 SCF Done:  E(RHF) =  -320.356700404     A.U. after   16 cycles
 Normal termination of Gaussian 16 at Wed Apr  9 15:58:41 2025.
 Gaussian 16:  ES64L-G16RevC.01  3-Jul-2019

 ----------------------------------------------------------------------
 #t hf aug-cc-pvdz iop(5/13=1,5/36=2,99/5=2) pseudo=read geom=check gue
 ss=(read,tcheck) scf=(maxcycle=1)
 ----------------------------------------------------------------------
 -----
 title
 -----
 Structure from the checkpoint file:  "Grambow2020_wb97xd3_007649_reverse_mol2.chk"
 Charge =  0 Multiplicity = 1

                         Standard orientation:
 ---------------------------------------------------------------------
 Center     Atomic      Atomic             Coordinates (Angstroms)
 Number     Number       Type             X           Y           Z
 ---------------------------------------------------------------------
      1          7           0        2.735636   -0.372013   -0.000157
      2          6           0        1.597155   -0.221655   -0.000526
      3          6           0        0.186189    0.032286    0.000059
      4          6           0       -0.267288    1.463367    0.001039
      5          8           0       -1.416567    1.794450   -0.000880
      6          6           0       -1.575238   -1.884310    0.000255
      7          6           0       -0.684233   -0.953343   -0.000351
      8          1           0        0.558951    2.198258    0.003285
      9          1           0       -1.956237   -2.283596    0.933194
     10          1           0       -1.959146   -2.284237   -0.931197
 ---------------------------------------------------------------------

 SCF Done:  E(RHF) =  -320.454933450     A.U. after    2 cycles

 The electronic state is 1-A.
 Alpha  occ. eigenvalues --  -20.59815 -15.65645 -11.37953 -11.34074 -11.32098
 Alpha  occ. eigenvalues --  -11.30748 -11.30480  -1.39322  -1.21705  -1.14335
 Alpha  occ. eigenvalues --   -1.05163  -0.88811  -0.81644  -0.74049  -0.70407
 Alpha  occ. eigenvalues --   -0.67761  -0.66868  -0.59295  -0.56542  -0.52704
 Alpha  occ. eigenvalues --   -0.50461  -0.47096  -0.44253  -0.40882
 Alpha virt. eigenvalues --    0.02523   0.03422   0.04302   0.04543   0.06838
 Alpha virt. eigenvalues --    0.07725   0.08774   0.08928   0.10447   0.11668
 Alpha virt. eigenvalues --    0.12684   0.12822   0.13307   0.14522   0.15242

 Mulliken charges:
               1
     1  N   -0.146673
     2  C   -0.935354
     3  C    1.019627
     4  C    0.638329
     5  O   -0.433945
     6  C    0.727332
     7  C   -0.364908
     8  H   -0.180047
     9  H   -0.161727
    10  H   -0.162635
 Sum of Mulliken charges =  -0.00000

 Dipole moment (field-independent basis, Debye):
    X=             -2.2914    Y=             -2.1115    Z=              0.0049  Tot=              3.1159

 Test job not archived.
 1\1\GINC-SE097\SP\RHF\Aug-CC-pVDZ\C5H3N1O1\OHZDE\09-Apr-2025\0\\#t hf
 aug-cc-pvdz iop(5/13=1,5/36=2,99/5=2) pseudo=read geom=check guess=(re
 ad,tcheck) scf=(maxcycle=1)\\title\\0,1\N,0,2.88340132,-0.84188205,-0.
 0240164\C,0,1.81487563,-0.42299202,0.01511486\C,0,0.50627706,0.1584061
 9,0.08481849\C,0,0.40006907,1.59378869,0.51146707\O,0,-0.63669323,2.18
 301623,0.60310509\C,0,-1.64775293,-1.18254872,-0.49652559\C,0,-0.56709
 06,-0.53974433,-0.21446106\H,0,1.37204193,2.07023607,0.73731501\H,0,-2
 .18277919,-1.72780438,0.27250486\H,0,-2.04052604,-1.18940368,-1.506778

 Normal termination of Gaussian 16 at Wed Apr  9 15:58:45 2025.
