 Gaussian 16, Revision C.01,

 ----------------------------------------------------------------------
 #t hf aug-cc-pvdz symm=none int=(grid=ultrafine) guess=(read,tcheck) s
 table=(opt,rrhf)
 ----------------------------------------------------------------------
 -----
 title
 -----
 Symbolic Z-matrix:
 Charge =  0 Multiplicity = 1

 SCF Done:  E(RHF) =  -339.802825032     A.U. after   15 cycles
 Normal termination of Gaussian 16 at Wed Apr  9 14:27:34 2025.
 Gaussian 16:  ES64L-G16RevC.01  3-Jul-2019

 ----------------------------------------------------------------------
 #t hf aug-cc-pvdz iop(5/13=1,5/36=2,99/5=2) pseudo=read geom=check gue
 ss=(read,tcheck) scf=(maxcycle=1)
 ----------------------------------------------------------------------
 -----
 title
 -----
 Structure from the checkpoint file:  "Grambow2020_wb97xd3_006545_reverse_mol2.chk"
 Charge =  0 Multiplicity = 1

                         Standard orientation:
 ---------------------------------------------------------------------
 Center     Atomic      Atomic             Coordinates (Angstroms)
 Number     Number       Type             X           Y           Z
 ---------------------------------------------------------------------
      1          6           0       -1.270161    1.975216   -0.295126
      2          7           0       -0.184647    1.131972    0.365686
      3          6           0        0.011882   -0.154635   -0.338864
      4          6           0        1.308408   -0.836871    0.087559
      5          8           0        2.328036    0.117426   -0.099876
      6          6           0       -1.125992   -1.042883   -0.096562
      7          7           0       -1.968074   -1.787378    0.125937
      8          1           0       -2.211540    1.515274    0.030140
      9          1           0       -1.194154    2.943126    0.214658
     10          1           0        0.694111    1.634824    0.258259
     11          1           0       -0.289180    0.935118    1.367972
     12          1           0        0.030388    0.115546   -1.397145
     13          1           0        1.451812   -1.725206   -0.535124
     14          1           0        1.242910   -1.157518    1.134714
     15          1           0        3.175595   -0.257700    0.142134
 ---------------------------------------------------------------------

 SCF Done:  E(RHF) =  -339.906077371     A.U. after    2 cycles

 The electronic state is 1-A.
 Alpha  occ. eigenvalues --  -20.62873 -15.74320 -15.66373 -11.35457 -11.34892
 Alpha  occ. eigenvalues --  -11.30726 -11.18098  -1.38738  -1.28234  -1.21572
 Alpha  occ. eigenvalues --   -1.07175  -0.92886  -0.86785  -0.81380  -0.75245
 Alpha  occ. eigenvalues --   -0.71830  -0.70533  -0.66773  -0.62668  -0.59501
 Alpha  occ. eigenvalues --   -0.56745  -0.54738  -0.52013  -0.49165  -0.48540
 Alpha  occ. eigenvalues --   -0.47933  -0.27577
 Alpha virt. eigenvalues --    0.01280   0.03148   0.04035   0.04736   0.06737
 Alpha virt. eigenvalues --    0.06791   0.07051   0.08697   0.10215   0.11052
 Alpha virt. eigenvalues --    0.11380   0.12737   0.13103   0.13981   0.14511

 Mulliken charges:
               1
     1  C    0.273846
     2  N   -0.491130
     3  C    0.842972
     4  C    1.061859
     5  O   -0.572975
     6  C   -0.506459
     7  N   -0.140681
     8  H   -0.344861
     9  H   -0.284801
    10  H    0.220325
    11  H    0.112543
    12  H   -0.152614
    13  H   -0.079823
    14  H   -0.107535
    15  H    0.169332
 Sum of Mulliken charges =   0.00000

 Dipole moment (field-independent basis, Debye):
    X=              6.7073    Y=             -2.1912    Z=              3.1529  Tot=              7.7285

 Test job not archived.
 1\1\GINC-SE229\SP\RHF\Aug-CC-pVDZ\C4H8N2O1\OHZDE\09-Apr-2025\0\\#t hf
 aug-cc-pvdz iop(5/13=1,5/36=2,99/5=2) pseudo=read geom=check guess=(re
 ad,tcheck) scf=(maxcycle=1)\\title\\0,1\C,0,-2.12220601,0.67133282,0.3
 7494155\N,0,-0.69486515,0.25938686,0.72000823\C,0,0.08252191,-0.083478
 59,-0.49180234\C,0,1.57853318,-0.15205816,-0.19938453\O,0,1.91161635,1
 .07612735,0.40565444\C,0,-0.37962809,-1.35713968,-1.04556986\N,0,-0.67
 10715,-2.38196208,-1.46709132\H,0,-2.63789451,-0.27393978,0.16502663\H
 ,0,-2.52064622,1.04914397,1.32415798\H,0,-0.23280081,1.0765652,1.11413

 Normal termination of Gaussian 16 at Wed Apr  9 14:27:39 2025.
