 Gaussian 16, Revision C.01,

 ----------------------------------------------------------------------
 #t hf aug-cc-pvdz symm=none int=(grid=ultrafine) guess=(read,tcheck) s
 table=(opt,rrhf)
 ----------------------------------------------------------------------
 -----
 title
 -----
 Symbolic Z-matrix:
 Charge =  0 Multiplicity = 1

 SCF Done:  E(RHF) =  -321.289191174     A.U. after   19 cycles
 Normal termination of Gaussian 16 at Wed Apr  9 03:39:14 2025.
 Gaussian 16:  ES64L-G16RevC.01  3-Jul-2019

 ----------------------------------------------------------------------
 #t hf aug-cc-pvdz iop(5/13=1,5/36=2,99/5=2) pseudo=read geom=check gue
 ss=(read,tcheck) scf=(maxcycle=1)
 ----------------------------------------------------------------------
 -----
 title
 -----
 Structure from the checkpoint file:  "Grambow2020_wb97xd3_007500_forward_mol1.chk"
 Charge =  0 Multiplicity = 1

                         Standard orientation:
 ---------------------------------------------------------------------
 Center     Atomic      Atomic             Coordinates (Angstroms)
 Number     Number       Type             X           Y           Z
 ---------------------------------------------------------------------
      1          8           0        0.662634   -0.888245   -0.535575
      2          6           0        0.237317   -0.558275    0.709335
      3          6           0        1.654348   -0.089337    0.043073
      4          6           0        2.634386    0.625253   -0.056658
      5          6           0       -1.129320   -0.042101    0.746622
      6          6           0       -1.474127    1.011417   -0.268334
      7          7           0       -2.048719   -0.300018   -0.365149
      8          1           0        3.491639    1.243140    0.064567
      9          1           0       -1.583498    0.017657    1.726326
     10          1           0       -0.693260    1.298999   -0.964356
     11          1           0       -2.142348    1.801243    0.051574
     12          1           0       -1.568195   -0.836703   -1.081708
 ---------------------------------------------------------------------

 SCF Done:  E(RHF) =  -321.387325162     A.U. after    2 cycles

 The electronic state is 1-A.
 Alpha  occ. eigenvalues --  -20.67540 -15.65519 -11.36122 -11.34088 -11.30247
 Alpha  occ. eigenvalues --  -11.29420 -11.25257  -1.47046  -1.27520  -1.03311
 Alpha  occ. eigenvalues --   -0.97377  -0.89789  -0.82892  -0.80450  -0.73793
 Alpha  occ. eigenvalues --   -0.69214  -0.68930  -0.64402  -0.58263  -0.54126
 Alpha  occ. eigenvalues --   -0.51205  -0.49049  -0.41885  -0.40236  -0.31703
 Alpha virt. eigenvalues --    0.02412   0.03378   0.03955   0.04657   0.05141
 Alpha virt. eigenvalues --    0.06941   0.09195   0.10112   0.10451   0.11081
 Alpha virt. eigenvalues --    0.12504   0.12802   0.13528   0.14421   0.14969

 Mulliken charges:
               1
     1  O   -0.601409
     2  C   -0.437823
     3  C    0.142084
     4  C    0.837548
     5  C    0.848544
     6  C    0.952075
     7  N   -0.619699
     8  H   -0.405885
     9  H   -0.291481
    10  H   -0.253304
    11  H   -0.231098
    12  H    0.060448
 Sum of Mulliken charges =  -0.00000

 Dipole moment (field-independent basis, Debye):
    X=             -0.2593    Y=              1.8014    Z=              0.0047  Tot=              1.8199

 Test job not archived.
 1\1\GINC-SE456\SP\RHF\Aug-CC-pVDZ\C5H5N1O1\OHZDE\09-Apr-2025\0\\#t hf
 aug-cc-pvdz iop(5/13=1,5/36=2,99/5=2) pseudo=read geom=check guess=(re
 ad,tcheck) scf=(maxcycle=1)\\title\\0,1\O,0,0.78014323,0.71070728,1.12
 346714\C,0,0.59107066,1.00468063,-0.18703159\C,0,1.80190078,0.08034859
 ,0.40566255\C,0,2.68149979,-0.75671406,0.32386698\C,0,-0.77624065,0.77
 696279,-0.64977009\C,0,-1.40209253,-0.53472128,-0.26672752\N,0,-1.8783
 9708,0.6889559,0.31218327\H,0,3.49370765,-1.39523384,0.07093513\H,0,-1
 .02576308,1.20611666,-1.6106208\H,0,-0.80380864,-1.20781938,0.33816878

 Normal termination of Gaussian 16 at Wed Apr  9 03:39:18 2025.
