 Gaussian 16, Revision C.01,

 ----------------------------------------------------------------------
 #t hf aug-cc-pvdz symm=none int=(grid=ultrafine) guess=(read,tcheck) s
 table=(opt,rrhf)
 ----------------------------------------------------------------------
 -----
 title
 -----
 Symbolic Z-matrix:
 Charge =  0 Multiplicity = 1

 SCF Done:  E(RHF) =  -338.691066385     A.U. after   15 cycles
 Normal termination of Gaussian 16 at Wed Apr  9 03:59:37 2025.
 Gaussian 16:  ES64L-G16RevC.01  3-Jul-2019

 ----------------------------------------------------------------------
 #t hf aug-cc-pvdz iop(5/13=1,5/36=2,99/5=2) pseudo=read geom=check gue
 ss=(read,tcheck) scf=(maxcycle=1)
 ----------------------------------------------------------------------
 -----
 title
 -----
 Structure from the checkpoint file:  "Grambow2020_wb97xd3_008831_reverse_mol2.chk"
 Charge =  0 Multiplicity = 1

                         Standard orientation:
 ---------------------------------------------------------------------
 Center     Atomic      Atomic             Coordinates (Angstroms)
 Number     Number       Type             X           Y           Z
 ---------------------------------------------------------------------
      1          6           0        2.486043   -0.487280    0.072679
      2          6           0        1.191053   -0.169248   -0.019643
      3          6           0        0.016730   -1.030517   -0.040814
      4          6           0       -1.055818   -0.237971   -0.001526
      5          8           0       -2.352374   -0.568791    0.057073
      6          7           0       -0.734533    1.130388   -0.020453
      7          7           0        0.684492    1.135696   -0.192291
      8          1           0       -0.993065    1.555259    0.868664
      9          1           0        3.258528    0.270081    0.062713
     10          1           0        2.786926   -1.522487    0.134276
     11          1           0        0.022538   -2.105623   -0.094470
     12          1           0       -2.870132    0.155698   -0.307064
     13          1           0        1.136433    1.884902    0.304325
 ---------------------------------------------------------------------

 SCF Done:  E(RHF) =  -338.793738193     A.U. after    2 cycles

 The electronic state is 1-A.
 Alpha  occ. eigenvalues --  -20.63097 -15.68427 -15.66540 -11.35739 -11.28826
 Alpha  occ. eigenvalues --  -11.23026 -11.19977  -1.40882  -1.30737  -1.09636
 Alpha  occ. eigenvalues --   -1.05715  -0.95007  -0.84297  -0.79454  -0.73788
 Alpha  occ. eigenvalues --   -0.70797  -0.67927  -0.63142  -0.60825  -0.59953
 Alpha  occ. eigenvalues --   -0.56277  -0.54622  -0.52077  -0.43486  -0.38612
 Alpha  occ. eigenvalues --   -0.27909
 Alpha virt. eigenvalues --    0.02612   0.03655   0.04385   0.05607   0.06579
 Alpha virt. eigenvalues --    0.07706   0.10307   0.11471   0.12044   0.12591
 Alpha virt. eigenvalues --    0.13309   0.13497   0.15221   0.15319   0.16066

 Mulliken charges:
               1
     1  C    0.916106
     2  C    0.011037
     3  C    0.657025
     4  C    0.515292
     5  O   -0.505587
     6  N   -0.327684
     7  N   -0.350453
     8  H    0.055550
     9  H   -0.412187
    10  H   -0.307465
    11  H   -0.370239
    12  H    0.138673
    13  H   -0.020067
 Sum of Mulliken charges =  -0.00000

 Dipole moment (field-independent basis, Debye):
    X=             -1.6526    Y=              2.0375    Z=              1.3414  Tot=              2.9465

 Test job not archived.
 1\1\GINC-SE454\SP\RHF\Aug-CC-pVDZ\C4H6N2O1\OHZDE\09-Apr-2025\0\\#t hf
 aug-cc-pvdz iop(5/13=1,5/36=2,99/5=2) pseudo=read geom=check guess=(re
 ad,tcheck) scf=(maxcycle=1)\\title\\0,1\C,0,-2.16418055,-0.48579243,-0
 .30316167\C,0,-0.8669727,-0.26165307,-0.07146823\C,0,0.27081146,-0.338
 62656,-0.97744191\C,0,1.33653898,0.11195611,-0.31318989\O,0,2.59241207
 ,0.28696506,-0.74456913\N,0,1.05649149,0.44383297,1.02375393\N,0,-0.30
 675495,0.0457608,1.18588771\H,0,1.15823896,1.44887798,1.15571785\H,0,-
 2.90376356,-0.40135917,0.48189531\H,0,-2.49559139,-0.7836219,-1.286748

 Normal termination of Gaussian 16 at Wed Apr  9 03:59:41 2025.
