 Gaussian 16, Revision C.01,

 ----------------------------------------------------------------------
 #t hf aug-cc-pvdz symm=none int=(grid=ultrafine) guess=(read,tcheck) s
 table=(opt,rrhf)
 ----------------------------------------------------------------------
 -----
 title
 -----
 Symbolic Z-matrix:
 Charge =  0 Multiplicity = 1

 SCF Done:  E(RHF) =  -321.458799731     A.U. after   16 cycles
 Normal termination of Gaussian 16 at Wed Apr  9 15:53:45 2025.
 Gaussian 16:  ES64L-G16RevC.01  3-Jul-2019

 ----------------------------------------------------------------------
 #t hf aug-cc-pvdz iop(5/13=1,5/36=2,99/5=2) pseudo=read geom=check gue
 ss=(read,tcheck) scf=(maxcycle=1)
 ----------------------------------------------------------------------
 -----
 title
 -----
 Structure from the checkpoint file:  "Grambow2020_wb97xd3_007501_reverse_mol2.chk"
 Charge =  0 Multiplicity = 1

                         Standard orientation:
 ---------------------------------------------------------------------
 Center     Atomic      Atomic             Coordinates (Angstroms)
 Number     Number       Type             X           Y           Z
 ---------------------------------------------------------------------
      1          8           0       -0.932197    1.763501   -0.113449
      2          6           0       -0.722443    0.589098    0.115566
      3          6           0       -1.771213   -0.426539    0.036013
      4          6           0       -2.602184   -1.282135   -0.077717
      5          6           0        0.560703    0.091650    0.593289
      6          6           0        2.825198   -0.542126    0.019574
      7          7           0        1.471201   -0.110148   -0.294233
      8          1           0       -3.356076   -2.028350   -0.174238
      9          1           0        2.899273   -0.645526    1.098762
     10          1           0        3.034606   -1.498877   -0.460931
     11          1           0        3.542720    0.200454   -0.332416
     12          1           0        1.298281    0.055637   -1.284307
 ---------------------------------------------------------------------

 SCF Done:  E(RHF) =  -321.558697528     A.U. after    2 cycles

 The electronic state is 1-A.
 Alpha  occ. eigenvalues --  -20.57078 -15.70851 -11.36917 -11.29248 -11.28467
 Alpha  occ. eigenvalues --  -11.27460 -11.26520  -1.36446  -1.26380  -1.06373
 Alpha  occ. eigenvalues --   -1.01267  -0.91775  -0.83275  -0.76734  -0.72382
 Alpha  occ. eigenvalues --   -0.67339  -0.65393  -0.63814  -0.58147  -0.56833
 Alpha  occ. eigenvalues --   -0.48183  -0.47209  -0.42672  -0.42530  -0.36481
 Alpha virt. eigenvalues --    0.02681   0.03444   0.04333   0.04913   0.06365
 Alpha virt. eigenvalues --    0.07284   0.09165   0.09676   0.10046   0.10961
 Alpha virt. eigenvalues --    0.11433   0.12252   0.13120   0.14088   0.14178

 Mulliken charges:
               1
     1  O   -0.553946
     2  C    0.222137
     3  C   -0.283153
     4  C    0.896925
     5  C   -0.112840
     6  C    0.826005
     7  N   -0.148696
     8  H   -0.429902
     9  H   -0.148962
    10  H   -0.101603
    11  H   -0.098842
    12  H   -0.067123
 Sum of Mulliken charges =  -0.00000

 Dipole moment (field-independent basis, Debye):
    X=              2.5354    Y=             -3.8982    Z=             -2.1599  Tot=              5.1273

 Test job not archived.
 1\1\GINC-SE009\SP\RHF\Aug-CC-pVDZ\C5H5N1O1\OHZDE\09-Apr-2025\0\\#t hf
 aug-cc-pvdz iop(5/13=1,5/36=2,99/5=2) pseudo=read geom=check guess=(re
 ad,tcheck) scf=(maxcycle=1)\\title\\0,1\O,0,0.95754749,1.57195042,1.69
 832562\C,0,1.02558865,0.63844509,0.92398443\C,0,1.99430642,-0.44514518
 ,1.0826823\C,0,2.74177712,-1.37060879,1.22514631\C,0,0.22753414,0.5576
 3208,-0.29203954\C,0,-1.92754326,0.04381732,-1.26692079\N,0,-0.9784296
 ,0.12484399,-0.16646419\H,0,3.41994943,-2.18045182,1.36205789\H,0,-1.4
 3127731,0.41048007,-2.16140643\H,0,-2.24376755,-0.98981554,-1.41428072

 Normal termination of Gaussian 16 at Wed Apr  9 15:53:49 2025.
