 Gaussian 16, Revision C.01,

 ----------------------------------------------------------------------
 #t hf aug-cc-pvdz symm=none int=(grid=ultrafine) guess=(read,tcheck) s
 table=(opt,rrhf)
 ----------------------------------------------------------------------
 -----
 title
 -----
 Symbolic Z-matrix:
 Charge =  0 Multiplicity = 1

 SCF Done:  E(RHF) =  -191.817603098     A.U. after   14 cycles
 Normal termination of Gaussian 16 at Wed Apr  9 14:23:02 2025.
 Gaussian 16:  ES64L-G16RevC.01  3-Jul-2019

 ----------------------------------------------------------------------
 #t hf aug-cc-pvdz iop(5/13=1,5/36=2,99/5=2) pseudo=read geom=check gue
 ss=(read,tcheck) scf=(maxcycle=1)
 ----------------------------------------------------------------------
 -----
 title
 -----
 Structure from the checkpoint file:  "Grambow2020_wb97xd3_006094_reverse_mol1.chk"
 Charge =  0 Multiplicity = 1

                         Standard orientation:
 ---------------------------------------------------------------------
 Center     Atomic      Atomic             Coordinates (Angstroms)
 Number     Number       Type             X           Y           Z
 ---------------------------------------------------------------------
      1          6           0       -1.574079    0.025367   -0.197539
      2          6           0       -0.223751   -0.334604    0.365541
      3          6           0        1.473806   -0.261747   -0.462632
      4          8           0        0.714352    0.716624    0.158941
      5          1           0       -1.953583    0.909526    0.315555
      6          1           0       -2.279515   -0.795183   -0.060752
      7          1           0       -1.485654    0.250197   -1.259809
      8          1           0       -0.206662   -0.662449    1.404968
      9          1           0        1.993654   -0.800938    0.375936
     10          1           0        0.161080   -1.208239   -0.279646
 ---------------------------------------------------------------------

 SCF Done:  E(RHF) =  -191.879359791     A.U. after    2 cycles

 The electronic state is 1-A.
 Alpha  occ. eigenvalues --  -20.60312 -11.33325 -11.32747 -11.24962  -1.39554
 Alpha  occ. eigenvalues --   -1.03686  -0.89158  -0.85008  -0.71037  -0.64709
 Alpha  occ. eigenvalues --   -0.60564  -0.59456  -0.55124  -0.52538  -0.49826
 Alpha  occ. eigenvalues --   -0.36163
 Alpha virt. eigenvalues --    0.03157   0.04516   0.05056   0.05539   0.07024
 Alpha virt. eigenvalues --    0.07686   0.09798   0.11516   0.11696   0.12714
 Alpha virt. eigenvalues --    0.14473   0.15426   0.15802   0.16827   0.17130

 Mulliken charges:
               1
     1  C    0.303186
     2  C    0.231657
     3  C    0.049783
     4  O   -0.640123
     5  H    0.016777
     6  H   -0.000216
     7  H    0.039309
     8  H   -0.194296
     9  H   -0.020107
    10  H    0.214031
 Sum of Mulliken charges =  -0.00000

 Dipole moment (field-independent basis, Debye):
    X=             -1.8906    Y=             -1.6657    Z=              1.6711  Tot=              3.0235

 Test job not archived.
 1\1\GINC-SE043\SP\RHF\Aug-CC-pVDZ\C3H6O1\OHZDE\09-Apr-2025\0\\#t hf au
 g-cc-pvdz iop(5/13=1,5/36=2,99/5=2) pseudo=read geom=check guess=(read
 ,tcheck) scf=(maxcycle=1)\\title\\0,1\C,0,-1.24636436,0.27283312,0.208
 55022\C,0,0.08646831,-0.22898586,-0.28313812\C,0,1.81518371,0.09998018
 ,0.4069361\O,0,0.83814546,-0.81018326,0.77751815\H,0,-1.82416992,-0.56
 520281,0.59952802\H,0,-1.80449991,0.74160165,-0.60286385\H,0,-1.098379
 69,0.99727546,1.00859432\H,0,0.06231715,-0.89685699,-1.14427029\H,0,2.
 34018378,-0.37789897,-0.46494197\H,0,0.68022148,0.7097855,-0.58934657\

 Normal termination of Gaussian 16 at Wed Apr  9 14:23:04 2025.
