 Gaussian 16, Revision C.01,

 ----------------------------------------------------------------------
 #t hf aug-cc-pvdz symm=none int=(grid=ultrafine) guess=(read,tcheck) s
 table=(opt,rrhf)
 ----------------------------------------------------------------------
 -----
 title
 -----
 Symbolic Z-matrix:
 Charge =  0 Multiplicity = 1

 SCF Done:  E(RHF) =  -305.784213681     A.U. after   15 cycles
 Normal termination of Gaussian 16 at Wed Apr  9 14:26:26 2025.
 Gaussian 16:  ES64L-G16RevC.01  3-Jul-2019

 ----------------------------------------------------------------------
 #t hf aug-cc-pvdz iop(5/13=1,5/36=2,99/5=2) pseudo=read geom=check gue
 ss=(read,tcheck) scf=(maxcycle=1)
 ----------------------------------------------------------------------
 -----
 title
 -----
 Structure from the checkpoint file:  "Grambow2020_wb97xd3_006278_reverse_mol2.chk"
 Charge =  0 Multiplicity = 1

                         Standard orientation:
 ---------------------------------------------------------------------
 Center     Atomic      Atomic             Coordinates (Angstroms)
 Number     Number       Type             X           Y           Z
 ---------------------------------------------------------------------
      1          6           0       -1.689407   -0.763989   -0.525775
      2          6           0       -0.936232    0.130347    0.445046
      3          6           0        0.407576   -0.443842    0.868174
      4          8           0        1.253484   -0.577789   -0.296977
      5          6           0        2.251428    0.204202   -0.530872
      6          8           0       -0.771384    1.439762   -0.059694
      7          1           0       -1.875328   -1.747230   -0.089916
      8          1           0       -2.648303   -0.310168   -0.775550
      9          1           0       -1.119195   -0.906954   -1.446415
     10          1           0       -1.521581    0.246803    1.362154
     11          1           0        0.905136    0.225453    1.574644
     12          1           0        0.298259   -1.441559    1.295303
     13          1           0        2.342358    0.892052    0.353276
     14          1           0       -0.438335    1.385509   -0.959562
 ---------------------------------------------------------------------

 SCF Done:  E(RHF) =  -305.881415423     A.U. after    2 cycles

 The electronic state is 1-A.
 Alpha  occ. eigenvalues --  -20.64653 -20.58621 -11.31444 -11.31145 -11.30893
 Alpha  occ. eigenvalues --  -11.24132  -1.41944  -1.34253  -1.06794  -0.97791
 Alpha  occ. eigenvalues --   -0.88179  -0.82195  -0.72078  -0.71445  -0.66736
 Alpha  occ. eigenvalues --   -0.63778  -0.63087  -0.58186  -0.56911  -0.54844
 Alpha  occ. eigenvalues --   -0.53427  -0.50174  -0.46993  -0.35970
 Alpha virt. eigenvalues --    0.03013   0.04222   0.04720   0.04959   0.06256
 Alpha virt. eigenvalues --    0.06775   0.07106   0.08000   0.09683   0.10684
 Alpha virt. eigenvalues --    0.12646   0.13226   0.13811   0.14807   0.15286

 Mulliken charges:
               1
     1  C    0.529801
     2  C    0.002555
     3  C    0.838730
     4  O   -0.487747
     5  C    0.106035
     6  O   -0.592961
     7  H   -0.030578
     8  H   -0.015209
     9  H   -0.045314
    10  H   -0.162719
    11  H   -0.073774
    12  H   -0.132580
    13  H   -0.104639
    14  H    0.168402
 Sum of Mulliken charges =  -0.00000

 Dipole moment (field-independent basis, Debye):
    X=             -2.0891    Y=             -1.2285    Z=              2.1588  Tot=              3.2456

 Test job not archived.
 1\1\GINC-SE120\SP\RHF\Aug-CC-pVDZ\C4H8O2\OHZDE\09-Apr-2025\0\\#t hf au
 g-cc-pvdz iop(5/13=1,5/36=2,99/5=2) pseudo=read geom=check guess=(read
 ,tcheck) scf=(maxcycle=1)\\title\\0,1\C,0,-1.68419152,0.21886959,0.018
 04635\C,0,-0.35268788,0.06492094,0.7342867\C,0,0.60448132,-0.8788041,0
 .021715\O,0,0.9092773,-0.34497897,-1.28718134\C,0,2.04660207,0.1878832
 1,-1.57814327\O,0,0.27145914,1.31120439,0.96607212\H,0,-2.18817441,-0.
 74383663,-0.08441984\H,0,-2.33109477,0.88865013,0.58437962\H,0,-1.5426
 0987,0.63222597,-0.98307824\H,0,-0.52059582,-0.36221871,1.72758513\H,0

 Normal termination of Gaussian 16 at Wed Apr  9 14:26:30 2025.
