 Gaussian 16, Revision C.01,

 ----------------------------------------------------------------------
 #t hf aug-cc-pvdz symm=none int=(grid=ultrafine) guess=(read,tcheck) s
 table=(opt,rrhf)
 ----------------------------------------------------------------------
 -----
 title
 -----
 Symbolic Z-matrix:
 Charge =  0 Multiplicity = 1

 SCF Done:  E(RHF) =  -285.938822426     A.U. after   14 cycles
 Normal termination of Gaussian 16 at Wed Apr  9 14:21:21 2025.
 Gaussian 16:  ES64L-G16RevC.01  3-Jul-2019

 ----------------------------------------------------------------------
 #t hf aug-cc-pvdz iop(5/13=1,5/36=2,99/5=2) pseudo=read geom=check gue
 ss=(read,tcheck) scf=(maxcycle=1)
 ----------------------------------------------------------------------
 -----
 title
 -----
 Structure from the checkpoint file:  "Grambow2020_wb97xd3_006063_forward_mol1.chk"
 Charge =  0 Multiplicity = 1

                         Standard orientation:
 ---------------------------------------------------------------------
 Center     Atomic      Atomic             Coordinates (Angstroms)
 Number     Number       Type             X           Y           Z
 ---------------------------------------------------------------------
      1          6           0       -2.397708   -0.463947    0.510740
      2          6           0       -1.477329    0.211485   -0.480154
      3          6           0       -0.619850    1.223303   -0.102485
      4          6           0        1.251372    0.077202    0.018849
      5          8           0        0.791371   -1.031504   -0.381004
      6          7           0        2.543526    0.104650    0.307807
      7          1           0       -2.596531   -1.504615    0.243239
      8          1           0       -3.366937    0.039332    0.584177
      9          1           0       -1.955794   -0.465994    1.510952
     10          1           0       -0.270435   -0.754940   -0.543812
     11          1           0       -1.768092    0.170677   -1.527283
     12          1           0       -0.235753    1.930407   -0.826196
     13          1           0       -0.576511    1.568718    0.923876
     14          1           0        3.135386   -0.709878    0.217690
     15          1           0        2.960106    0.957510    0.629046
 ---------------------------------------------------------------------

 SCF Done:  E(RHF) =  -286.031354262     A.U. after    2 cycles

 The electronic state is 1-A.
 Alpha  occ. eigenvalues --  -20.58462 -15.65567 -11.31286 -11.26598 -11.21483
 Alpha  occ. eigenvalues --  -11.19090  -1.37866  -1.18504  -1.04270  -0.91803
 Alpha  occ. eigenvalues --   -0.83938  -0.75753  -0.74137  -0.68046  -0.64853
 Alpha  occ. eigenvalues --   -0.63316  -0.59335  -0.57183  -0.54622  -0.50832
 Alpha  occ. eigenvalues --   -0.47869  -0.44305  -0.39413  -0.30307
 Alpha virt. eigenvalues --    0.02828   0.04359   0.04660   0.05154   0.06337
 Alpha virt. eigenvalues --    0.06638   0.07013   0.08042   0.09562   0.11901
 Alpha virt. eigenvalues --    0.12513   0.13378   0.13960   0.15375   0.15685

 Mulliken charges:
               1
     1  C    0.404018
     2  C   -0.113487
     3  C    0.693500
     4  C    0.292981
     5  O   -0.585011
     6  N   -0.073253
     7  H   -0.072223
     8  H   -0.040524
     9  H   -0.120548
    10  H    0.527135
    11  H   -0.299654
    12  H   -0.269194
    13  H   -0.283757
    14  H   -0.032303
    15  H   -0.027680
 Sum of Mulliken charges =  -0.00000

 Dipole moment (field-independent basis, Debye):
    X=              2.3445    Y=              1.5801    Z=              0.8102  Tot=              2.9410

 Test job not archived.
 1\1\GINC-SE114\SP\RHF\Aug-CC-pVDZ\C4H9N1O1\OHZDE\09-Apr-2025\0\\#t hf
 aug-cc-pvdz iop(5/13=1,5/36=2,99/5=2) pseudo=read geom=check guess=(re
 ad,tcheck) scf=(maxcycle=1)\\title\\0,1\C,0,2.11156715,0.50000513,-0.2
 7379406\C,0,0.9878534,-0.42071027,-0.69179997\C,0,0.24527283,-1.126477
 76,0.23131805\C,0,-1.54990696,0.13999831,0.28708875\O,0,-1.19934718,0.
 96171988,-0.60878597\N,0,-2.73907652,0.34232895,0.83376051\H,0,2.23919
 694,1.33387058,-0.9683853\H,0,3.07286701,-0.02033895,-0.21695524\H,0,1
 .91485429,0.92832898,0.71289775\H,0,-0.20380166,0.54979044,-0.8726586\

 Normal termination of Gaussian 16 at Wed Apr  9 14:21:25 2025.
