 Gaussian 16, Revision C.01,

 ----------------------------------------------------------------------
 #t hf aug-cc-pvdz symm=none int=(grid=ultrafine) guess=(read,tcheck) s
 table=(opt,rrhf)
 ----------------------------------------------------------------------
 -----
 title
 -----
 Symbolic Z-matrix:
 Charge =  0 Multiplicity = 1

 SCF Done:  E(RHF) =  -322.640980228     A.U. after   15 cycles
 Normal termination of Gaussian 16 at Wed Apr  9 15:20:54 2025.
 Gaussian 16:  ES64L-G16RevC.01  3-Jul-2019

 ----------------------------------------------------------------------
 #t hf aug-cc-pvdz iop(5/13=1,5/36=2,99/5=2) pseudo=read geom=check gue
 ss=(read,tcheck) scf=(maxcycle=1)
 ----------------------------------------------------------------------
 -----
 title
 -----
 Structure from the checkpoint file:  "Grambow2020_wb97xd3_006859_forward_mol1.chk"
 Charge =  0 Multiplicity = 1

                         Standard orientation:
 ---------------------------------------------------------------------
 Center     Atomic      Atomic             Coordinates (Angstroms)
 Number     Number       Type             X           Y           Z
 ---------------------------------------------------------------------
      1          6           0        2.520866   -0.412418   -0.057428
      2          6           0        1.059962   -0.173640   -0.008338
      3          6           0       -0.002119   -0.977464    0.061720
      4          6           0       -1.162861   -0.078679    0.115836
      5          7           0       -2.473978   -0.466248   -0.218784
      6          6           0       -0.686378    1.287368   -0.023091
      7          8           0        0.664350    1.147027   -0.018197
      8          1           0        2.948630    0.053291   -0.946770
      9          1           0        2.729730   -1.480500   -0.081460
     10          1           0        3.010445    0.022918    0.815407
     11          1           0       -0.006909   -2.054903    0.083004
     12          1           0       -2.879203   -1.135265    0.417419
     13          1           0       -3.078116    0.335878   -0.326641
     14          1           0       -1.098351    0.475097    1.183906
 ---------------------------------------------------------------------

 SCF Done:  E(RHF) =  -322.739410575     A.U. after    2 cycles

 The electronic state is 1-A.
 Alpha  occ. eigenvalues --  -20.63038 -15.63243 -11.31821 -11.30137 -11.29534
 Alpha  occ. eigenvalues --  -11.25376 -11.24285  -1.41857  -1.19411  -1.07716
 Alpha  occ. eigenvalues --   -1.04011  -0.93995  -0.81678  -0.77430  -0.69792
 Alpha  occ. eigenvalues --   -0.68816  -0.65242  -0.62824  -0.58883  -0.57667
 Alpha  occ. eigenvalues --   -0.57043  -0.55037  -0.51636  -0.40161  -0.37450
 Alpha  occ. eigenvalues --   -0.35740
 Alpha virt. eigenvalues --    0.02865   0.03590   0.04583   0.05262   0.06408
 Alpha virt. eigenvalues --    0.06627   0.07047   0.10291   0.10659   0.11278
 Alpha virt. eigenvalues --    0.11829   0.14063   0.14169   0.14232   0.14949

 Mulliken charges:
               1
     1  C    0.438044
     2  C   -0.418032
     3  C    0.787578
     4  C    0.432138
     5  N   -0.402554
     6  C   -0.284943
     7  O   -0.618556
     8  H    0.057981
     9  H   -0.009540
    10  H    0.078612
    11  H   -0.350920
    12  H   -0.014182
    13  H    0.045609
    14  H    0.258765
 Sum of Mulliken charges =  -0.00000

 Dipole moment (field-independent basis, Debye):
    X=              0.3649    Y=             -3.4050    Z=              1.3926  Tot=              3.6968

 Test job not archived.
 1\1\GINC-SE454\SP\RHF\Aug-CC-pVDZ\C5H7N1O1\OHZDE\09-Apr-2025\0\\#t hf
 aug-cc-pvdz iop(5/13=1,5/36=2,99/5=2) pseudo=read geom=check guess=(re
 ad,tcheck) scf=(maxcycle=1)\\title\\0,1\C,0,2.41480584,-0.00296573,0.0
 1151342\C,0,0.94031629,0.12894997,-0.03479396\C,0,-0.064916,-0.7434137
 9,0.05208053\C,0,-1.28713992,0.06720941,-0.03232095\N,0,-2.54657823,-0
 .44438693,-0.39741573\C,0,-0.90068879,1.44850362,-0.26705819\O,0,0.454
 08382,1.4106961,-0.18132787\H,0,2.85876617,0.41674336,-0.89266559\H,0,
 2.69923735,-1.05059796,0.09255246\H,0,2.82204841,0.53996243,0.86616364

 Normal termination of Gaussian 16 at Wed Apr  9 15:20:58 2025.
