 Gaussian 16, Revision C.01,

 ----------------------------------------------------------------------
 #t hf aug-cc-pvdz symm=none int=(grid=ultrafine) guess=(read,tcheck) s
 table=(opt,rrhf)
 ----------------------------------------------------------------------
 -----
 title
 -----
 Symbolic Z-matrix:
 Charge =  0 Multiplicity = 1

 SCF Done:  E(RHF) =  -245.837786004     A.U. after   14 cycles
 Normal termination of Gaussian 16 at Wed Apr  9 14:20:00 2025.
 Gaussian 16:  ES64L-G16RevC.01  3-Jul-2019

 ----------------------------------------------------------------------
 #t hf aug-cc-pvdz iop(5/13=1,5/36=2,99/5=2) pseudo=read geom=check gue
 ss=(read,tcheck) scf=(maxcycle=1)
 ----------------------------------------------------------------------
 -----
 title
 -----
 Structure from the checkpoint file:  "Grambow2020_b97d3_007206_reverse_mol2.chk"
 Charge =  0 Multiplicity = 1

                         Standard orientation:
 ---------------------------------------------------------------------
 Center     Atomic      Atomic             Coordinates (Angstroms)
 Number     Number       Type             X           Y           Z
 ---------------------------------------------------------------------
      1          8           0       -2.246473   -0.688567   -0.111906
      2          6           0       -2.084831    0.405843    0.187881
      3          6           0        1.300305    0.093340    0.424966
      4          6           0        1.746797   -1.045187   -0.142748
      5          7           0        0.883393    1.249999   -0.238700
      6          1           0        0.123501    1.751716    0.215323
      7          1           0        1.299020    0.200048    1.512046
      8          1           0        2.140050   -1.850620    0.472676
      9          1           0        1.763390   -1.182914   -1.225013
     10          1           0        0.688447    1.116335   -1.229478
 ---------------------------------------------------------------------

 SCF Done:  E(RHF) =  -245.915868501     A.U. after    2 cycles

 The electronic state is 1-A.
 Alpha  occ. eigenvalues --  -20.68602 -15.63376 -11.38575 -11.28540 -11.21877
 Alpha  occ. eigenvalues --   -1.47991  -1.17898  -0.98516  -0.81813  -0.78960
 Alpha  occ. eigenvalues --   -0.69754  -0.65287  -0.65177  -0.63553  -0.58232
 Alpha  occ. eigenvalues --   -0.56262  -0.52102  -0.48862  -0.32055
 Alpha virt. eigenvalues --    0.04032   0.04178   0.04841   0.06748   0.07213
 Alpha virt. eigenvalues --    0.07827   0.08939   0.10220   0.11850   0.12528
 Alpha virt. eigenvalues --    0.14143   0.14691   0.15274   0.16443   0.16798

 Mulliken charges:
               1
     1  O   -0.246381
     2  C    0.237393
     3  C    0.813978
     4  C    0.434334
     5  N   -0.317746
     6  H    0.041896
     7  H   -0.356084
     8  H   -0.275921
     9  H   -0.323849
    10  H   -0.007618
 Sum of Mulliken charges =  -0.00000

 Dipole moment (field-independent basis, Debye):
    X=             -1.2275    Y=              1.0128    Z=              0.0736  Tot=              1.5931

 Test job not archived.
 1\1\GINC-SE083\SP\RHF\Aug-CC-pVDZ\C3H5N1O1\OHZDE\09-Apr-2025\0\\#t hf
 aug-cc-pvdz iop(5/13=1,5/36=2,99/5=2) pseudo=read geom=check guess=(re
 ad,tcheck) scf=(maxcycle=1)\\title\\0,1\O,0,1.7637573,-1.63134965,1.56
 772074\C,0,2.263498,-0.65261922,1.2420219\C,0,-0.32989193,0.28805998,-
 0.75859423\C,0,-1.4399443,-0.44196821,-0.52894343\N,0,0.17210659,1.318
 73982,0.04004478\H,0,1.18725417,1.3832172,0.06476854\H,0,0.24164835,0.
 14236705,-1.67796766\H,0,-1.79381439,-1.15493347,-1.26960074\H,0,-2.03
 43406,-0.3194816,0.37782692\H,0,-0.21574519,1.3449481,0.98153019\\Vers

 Normal termination of Gaussian 16 at Wed Apr  9 14:20:03 2025.
