 Gaussian 16, Revision C.01,

 ----------------------------------------------------------------------
 #t hf aug-cc-pvdz symm=none int=(grid=ultrafine) guess=(read,tcheck) s
 table=(opt,rrhf)
 ----------------------------------------------------------------------
 -----
 title
 -----
 Symbolic Z-matrix:
 Charge =  0 Multiplicity = 1

 SCF Done:  E(RHF) =  -268.722520273     A.U. after   17 cycles
 Normal termination of Gaussian 16 at Wed Apr  9 14:25:23 2025.
 Gaussian 16:  ES64L-G16RevC.01  3-Jul-2019

 ----------------------------------------------------------------------
 #t hf aug-cc-pvdz iop(5/13=1,5/36=2,99/5=2) pseudo=read geom=check gue
 ss=(read,tcheck) scf=(maxcycle=1)
 ----------------------------------------------------------------------
 -----
 title
 -----
 Structure from the checkpoint file:  "Grambow2020_wb97xd3_006254_reverse_mol2.chk"
 Charge =  0 Multiplicity = 1

                         Standard orientation:
 ---------------------------------------------------------------------
 Center     Atomic      Atomic             Coordinates (Angstroms)
 Number     Number       Type             X           Y           Z
 ---------------------------------------------------------------------
      1          6           0       -2.788278   -0.485778   -0.017809
      2          6           0       -0.036956    1.378337   -0.797813
      3          6           0        0.493446    1.646641    0.537725
      4          6           0        1.059631    0.504932   -0.241692
      5          6           0        0.786671   -0.869687    0.251974
      6          8           0        1.415307   -1.837007   -0.066553
      7          1           0       -2.688510   -0.138791    1.010840
      8          1           0       -3.834903   -0.428674   -0.311968
      9          1           0       -2.447905   -1.517558   -0.092874
     10          1           0       -2.200785    0.147185   -0.686372
     11          1           0       -0.169520    1.350234    1.351325
     12          1           0        1.009829    2.584123    0.712770
     13          1           0        1.973645    0.588256   -0.822413
     14          1           0       -0.051389   -0.935387    0.976808
 ---------------------------------------------------------------------

 SCF Done:  E(RHF) =  -268.807869447     A.U. after    2 cycles

 The electronic state is 1-A.
 Alpha  occ. eigenvalues --  -20.58299 -11.36301 -11.32560 -11.27999 -11.27700
 Alpha  occ. eigenvalues --  -11.22844  -1.37749  -1.19404  -0.95075  -0.93006
 Alpha  occ. eigenvalues --   -0.83245  -0.76945  -0.69073  -0.67218  -0.61042
 Alpha  occ. eigenvalues --   -0.58506  -0.56571  -0.55952  -0.55667  -0.55098
 Alpha  occ. eigenvalues --   -0.47636  -0.44669  -0.38851
 Alpha virt. eigenvalues --    0.02975   0.03609   0.03860   0.04769   0.05103
 Alpha virt. eigenvalues --    0.06555   0.07134   0.07551   0.08299   0.10574
 Alpha virt. eigenvalues --    0.10981   0.11840   0.12456   0.14100   0.14614

 Mulliken charges:
               1
     1  C    0.751304
     2  C   -0.060406
     3  C    0.703625
     4  C    0.434136
     5  C    0.386759
     6  O   -0.444559
     7  H   -0.177746
     8  H   -0.192771
     9  H   -0.138317
    10  H   -0.219813
    11  H   -0.262516
    12  H   -0.304270
    13  H   -0.346350
    14  H   -0.129075
 Sum of Mulliken charges =  -0.00000

 Dipole moment (field-independent basis, Debye):
    X=             -0.5911    Y=              2.7383    Z=              2.2750  Tot=              3.6088

 Test job not archived.
 1\1\GINC-SE219\SP\RHF\Aug-CC-pVDZ\C5H8O1\OHZDE\09-Apr-2025\0\\#t hf au
 g-cc-pvdz iop(5/13=1,5/36=2,99/5=2) pseudo=read geom=check guess=(read
 ,tcheck) scf=(maxcycle=1)\\title\\0,1\C,0,-1.8161941,-1.38382528,-0.65
 606451\C,0,0.0212835,1.49266896,-0.60546941\C,0,0.28108754,1.620551,0.
 82740344\C,0,1.32154118,0.98410159,-0.03511797\C,0,1.57674202,-0.46794
 269,0.14989704\O,0,2.56416567,-1.03133861,-0.22417566\H,0,-1.95388805,
 -1.27343123,0.41972701\H,0,-2.76856723,-1.65177595,-1.11037879\H,0,-1.
 08766215,-2.16842923,-0.85530463\H,0,-1.47329356,-0.44183295,-1.089465

 Normal termination of Gaussian 16 at Wed Apr  9 14:25:28 2025.
