 Gaussian 16, Revision C.01,

 ----------------------------------------------------------------------
 #t hf aug-cc-pvdz symm=none int=(grid=ultrafine) guess=(read,tcheck) s
 table=(opt,rrhf)
 ----------------------------------------------------------------------
 -----
 title
 -----
 Symbolic Z-matrix:
 Charge =  0 Multiplicity = 1

 SCF Done:  E(RHF) =  -283.603352613     A.U. after   16 cycles
 Normal termination of Gaussian 16 at Wed Apr  9 03:14:51 2025.
 Gaussian 16:  ES64L-G16RevC.01  3-Jul-2019

 ----------------------------------------------------------------------
 #t hf aug-cc-pvdz iop(5/13=1,5/36=2,99/5=2) pseudo=read geom=check gue
 ss=(read,tcheck) scf=(maxcycle=1)
 ----------------------------------------------------------------------
 -----
 title
 -----
 Structure from the checkpoint file:  "Grambow2020_b97d3_006996_forward_mol1.chk"
 Charge =  0 Multiplicity = 1

                         Standard orientation:
 ---------------------------------------------------------------------
 Center     Atomic      Atomic             Coordinates (Angstroms)
 Number     Number       Type             X           Y           Z
 ---------------------------------------------------------------------
      1          6           0       -1.112880    1.433321    0.078108
      2          6           0       -0.886653   -0.033512    0.050829
      3          8           0       -1.809677   -0.872227   -0.265774
      4          6           0        0.337460   -0.781970    0.277899
      5          6           0        1.619480   -0.199473    0.023868
      6          7           0        2.658918    0.289856   -0.227554
      7          1           0       -2.150416    1.684048   -0.162409
      8          1           0       -0.439228    1.888396   -0.665456
      9          1           0       -0.819215    1.849708    1.051563
     10          1           0       -0.770648   -1.637077   -0.309608
     11          1           0        0.300052   -1.346450    1.220760
 ---------------------------------------------------------------------

 SCF Done:  E(RHF) =  -283.688509317     A.U. after    2 cycles

 The electronic state is 1-A.
 Alpha  occ. eigenvalues --  -20.63842 -15.63714 -11.41606 -11.29379 -11.28955
 Alpha  occ. eigenvalues --  -11.27353  -1.41645  -1.17842  -1.08147  -1.02160
 Alpha  occ. eigenvalues --   -0.82552  -0.77252  -0.69299  -0.68248  -0.62720
 Alpha  occ. eigenvalues --   -0.59787  -0.57625  -0.55291  -0.53266  -0.49886
 Alpha  occ. eigenvalues --   -0.45114  -0.36921
 Alpha virt. eigenvalues --    0.02605   0.03829   0.04460   0.05707   0.06656
 Alpha virt. eigenvalues --    0.07209   0.08515   0.09004   0.11411   0.12185
 Alpha virt. eigenvalues --    0.12968   0.14324   0.14615   0.15063   0.15147

 Mulliken charges:
               1
     1  C    0.200627
     2  C   -0.035042
     3  O   -0.687755
     4  C    0.312233
     5  C   -0.315263
     6  N   -0.236458
     7  H   -0.031911
     8  H    0.126694
     9  H    0.118661
    10  H    0.584377
    11  H   -0.036163
 Sum of Mulliken charges =  -0.00000

 Dipole moment (field-independent basis, Debye):
    X=             -3.5514    Y=              1.0040    Z=              1.3775  Tot=              3.9393

 Test job not archived.
 1\1\GINC-SE220\SP\RHF\Aug-CC-pVDZ\C4H5N1O1\OHZDE\09-Apr-2025\0\\#t hf
 aug-cc-pvdz iop(5/13=1,5/36=2,99/5=2) pseudo=read geom=check guess=(re
 ad,tcheck) scf=(maxcycle=1)\\title\\0,1\C,0,0.48431158,1.39416259,0.14
 315213\C,0,0.24381874,0.00935505,0.62063884\O,0,0.38837002,-0.33502654
 ,1.85196266\C,0,-0.24118532,-1.14737246,-0.11213383\C,0,-1.0758081,-0.
 99725615,-1.26464502\N,0,-1.7902295,-0.84757846,-2.18675413\H,0,0.8278
 1425,2.04424018,0.9534606\H,0,-0.46604872,1.77683507,-0.2620199\H,0,1.
 19546247,1.39412095,-0.6944013\H,0,-0.23467962,-1.3669101,1.389877\H,0

 Normal termination of Gaussian 16 at Wed Apr  9 03:14:55 2025.
