 Gaussian 16, Revision C.01,

 ----------------------------------------------------------------------
 #t hf aug-cc-pvdz symm=none int=(grid=ultrafine) guess=(read,tcheck) s
 table=(opt,rrhf)
 ----------------------------------------------------------------------
 -----
 title
 -----
 Symbolic Z-matrix:
 Charge =  0 Multiplicity = 1

 SCF Done:  E(RHF) =  -343.674087095     A.U. after   15 cycles
 Normal termination of Gaussian 16 at Wed Apr  9 16:22:07 2025.
 Gaussian 16:  ES64L-G16RevC.01  3-Jul-2019

 ----------------------------------------------------------------------
 #t hf aug-cc-pvdz iop(5/13=1,5/36=2,99/5=2) pseudo=read geom=check gue
 ss=(read,tcheck) scf=(maxcycle=1)
 ----------------------------------------------------------------------
 -----
 title
 -----
 Structure from the checkpoint file:  "Grambow2020_wb97xd3_008137_reverse_mol2.chk"
 Charge =  0 Multiplicity = 1

                         Standard orientation:
 ---------------------------------------------------------------------
 Center     Atomic      Atomic             Coordinates (Angstroms)
 Number     Number       Type             X           Y           Z
 ---------------------------------------------------------------------
      1          6           0        0.601768   -1.091885    0.568717
      2          8           0        1.472555   -0.663977   -0.536160
      3          6           0        1.501677    0.606121   -0.764423
      4          6           0        0.611629    1.252572    0.265493
      5          6           0       -0.222396    0.137866    0.918145
      6          6           0       -1.642917    0.066084    0.363400
      7          8           0       -1.688347   -0.247986   -1.011928
      8          1           0        1.258920   -1.424991    1.371904
      9          1           0        0.017541   -1.929693    0.192389
     10          1           0       -1.334760    0.482144   -1.525071
     11          1           0        0.028901    2.068304   -0.169401
     12          1           0        1.303509    1.730369    0.969658
     13          1           0       -0.285662    0.269604    1.999795
     14          1           0       -2.195237   -0.732571    0.863311
     15          1           0       -2.165445    1.007996    0.574134
 ---------------------------------------------------------------------

 SCF Done:  E(RHF) =  -343.779551721     A.U. after    2 cycles

 The electronic state is 1-A.
 Alpha  occ. eigenvalues --  -20.63145 -20.58497 -11.30561 -11.30179 -11.29644
 Alpha  occ. eigenvalues --  -11.25919 -11.24665  -1.40989  -1.33930  -1.09278
 Alpha  occ. eigenvalues --   -1.00874  -0.94535  -0.82165  -0.78604  -0.71278
 Alpha  occ. eigenvalues --   -0.70976  -0.69400  -0.64071  -0.61280  -0.58142
 Alpha  occ. eigenvalues --   -0.56148  -0.54484  -0.53931  -0.51959  -0.49013
 Alpha  occ. eigenvalues --   -0.45719  -0.35025
 Alpha virt. eigenvalues --    0.02622   0.04039   0.04429   0.04787   0.06311
 Alpha virt. eigenvalues --    0.06594   0.06978   0.07462   0.09710   0.11436
 Alpha virt. eigenvalues --    0.12176   0.12509   0.13125   0.13927   0.14158

 Mulliken charges:
               1
     1  C    0.973088
     2  O   -0.493221
     3  C   -0.036659
     4  C    0.286650
     5  C   -0.442923
     6  C    1.020197
     7  O   -0.550417
     8  H   -0.164011
     9  H   -0.143580
    10  H    0.188862
    11  H   -0.142136
    12  H   -0.044332
    13  H   -0.147879
    14  H   -0.183752
    15  H   -0.119886
 Sum of Mulliken charges =  -0.00000

 Dipole moment (field-independent basis, Debye):
    X=             -1.8924    Y=              0.8483    Z=              3.8662  Tot=              4.3873

 Test job not archived.
 1\1\GINC-SE229\SP\RHF\Aug-CC-pVDZ\C5H8O2\OHZDE\09-Apr-2025\0\\#t hf au
 g-cc-pvdz iop(5/13=1,5/36=2,99/5=2) pseudo=read geom=check guess=(read
 ,tcheck) scf=(maxcycle=1)\\title\\0,1\C,0,-1.2206584,0.70650594,0.3678
 9124\O,0,-1.37912228,0.95271239,-1.07308011\C,0,-0.84104069,0.07526561
 ,-1.85196222\C,0,-0.23495878,-0.98012286,-0.96334958\C,0,-0.19412356,-
 0.41174495,0.4647258\C,0,1.19099071,0.09882036,0.85402972\O,0,1.631931
 56,1.17613609,0.05578562\H,0,-2.20558699,0.43489639,0.74744541\H,0,-0.
 89810139,1.64896683,0.80674295\H,0,1.80066806,0.87158174,-0.83875568\H

 Normal termination of Gaussian 16 at Wed Apr  9 16:22:12 2025.
