 Gaussian 16, Revision C.01,

 ----------------------------------------------------------------------
 #t hf aug-cc-pvdz symm=none int=(grid=ultrafine) guess=(read,tcheck) s
 table=(opt,rrhf)
 ----------------------------------------------------------------------
 -----
 title
 -----
 Symbolic Z-matrix:
 Charge =  0 Multiplicity = 1

 SCF Done:  E(RHF) =  -354.702972536     A.U. after   15 cycles
 Normal termination of Gaussian 16 at Wed Apr  9 03:39:15 2025.
 Gaussian 16:  ES64L-G16RevC.01  3-Jul-2019

 ----------------------------------------------------------------------
 #t hf aug-cc-pvdz iop(5/13=1,5/36=2,99/5=2) pseudo=read geom=check gue
 ss=(read,tcheck) scf=(maxcycle=1)
 ----------------------------------------------------------------------
 -----
 title
 -----
 Structure from the checkpoint file:  "Grambow2020_wb97xd3_007468_reverse_mol1.chk"
 Charge =  0 Multiplicity = 1

                         Standard orientation:
 ---------------------------------------------------------------------
 Center     Atomic      Atomic             Coordinates (Angstroms)
 Number     Number       Type             X           Y           Z
 ---------------------------------------------------------------------
      1          7           0       -2.343591   -0.460239   -0.185732
      2          6           0       -1.054029   -0.010771    0.093289
      3          6           0       -0.579925    1.327478   -0.029672
      4          7           0        0.783540    1.129579   -0.037235
      5          6           0        1.205638   -0.197927   -0.021165
      6          8           0        2.330591   -0.626696   -0.041358
      7          7           0        0.019850   -0.901913    0.048781
      8          1           0       -2.742016   -1.065393    0.515970
      9          1           0       -2.958947    0.310340   -0.399186
     10          1           0       -1.024227    0.711507    1.148362
     11          1           0        1.454477    1.876456   -0.019011
     12          1           0       -0.022718   -1.904008    0.049316
 ---------------------------------------------------------------------

 SCF Done:  E(RHF) =  -354.809212586     A.U. after    2 cycles

 The electronic state is 1-A.
 Alpha  occ. eigenvalues --  -20.54569 -15.68012 -15.67222 -15.65953 -11.40610
 Alpha  occ. eigenvalues --  -11.36479 -11.28402  -1.38724  -1.30948  -1.21158
 Alpha  occ. eigenvalues --   -1.16601  -1.01200  -0.86965  -0.82776  -0.75077
 Alpha  occ. eigenvalues --   -0.71791  -0.68756  -0.68255  -0.64561  -0.62769
 Alpha  occ. eigenvalues --   -0.54600  -0.48643  -0.48244  -0.44446  -0.39436
 Alpha  occ. eigenvalues --   -0.37529
 Alpha virt. eigenvalues --    0.02070   0.04054   0.04220   0.04997   0.06574
 Alpha virt. eigenvalues --    0.09354   0.10070   0.11077   0.12243   0.12784
 Alpha virt. eigenvalues --    0.13441   0.13937   0.14740   0.15184   0.16563

 Mulliken charges:
               1
     1  N   -0.376006
     2  C    1.161158
     3  C   -0.312637
     4  N   -0.251279
     5  C    0.662326
     6  O   -0.433962
     7  N   -0.440260
     8  H    0.011178
     9  H    0.070666
    10  H    0.139818
    11  H   -0.105296
    12  H   -0.125705
 Sum of Mulliken charges =  -0.00000

 Dipole moment (field-independent basis, Debye):
    X=             -4.0275    Y=             -0.9924    Z=              1.5050  Tot=              4.4125

 Test job not archived.
 1\1\GINC-SE058\SP\RHF\Aug-CC-pVDZ\C3H5N3O1\OHZDE\09-Apr-2025\0\\#t hf
 aug-cc-pvdz iop(5/13=1,5/36=2,99/5=2) pseudo=read geom=check guess=(re
 ad,tcheck) scf=(maxcycle=1)\\title\\0,1\N,0,2.00037736,0.03320159,0.23
 205986\C,0,0.63176564,0.14003286,-0.00946553\C,0,-0.17305584,1.2999775
 6,0.18442575\N,0,-1.43655329,0.7507589,0.19829289\C,0,-1.49663012,-0.6
 3895277,0.12220126\O,0,-2.46925669,-1.34861031,0.13457862\N,0,-0.16994
 108,-1.00295318,0.00395848\H,0,2.52625897,-0.41444897,-0.50305767\H,0,
 2.39749441,0.9281483,0.47574855\H,0,0.38840551,0.87498892,-1.02748701\

 Normal termination of Gaussian 16 at Wed Apr  9 03:39:20 2025.
