 Gaussian 16, Revision C.01,

 ----------------------------------------------------------------------
 #t hf aug-cc-pvdz symm=none int=(grid=ultrafine) guess=(read,tcheck) s
 table=(opt,rrhf)
 ----------------------------------------------------------------------
 -----
 title
 -----
 Symbolic Z-matrix:
 Charge =  0 Multiplicity = 1

 SCF Done:  E(RHF) =  -284.738019108     A.U. after   16 cycles
 Normal termination of Gaussian 16 at Wed Apr  9 14:22:17 2025.
 Gaussian 16:  ES64L-G16RevC.01  3-Jul-2019

 ----------------------------------------------------------------------
 #t hf aug-cc-pvdz iop(5/13=1,5/36=2,99/5=2) pseudo=read geom=check gue
 ss=(read,tcheck) scf=(maxcycle=1)
 ----------------------------------------------------------------------
 -----
 title
 -----
 Structure from the checkpoint file:  "Grambow2020_wb97xd3_006085_reverse_mol1.chk"
 Charge =  0 Multiplicity = 1

                         Standard orientation:
 ---------------------------------------------------------------------
 Center     Atomic      Atomic             Coordinates (Angstroms)
 Number     Number       Type             X           Y           Z
 ---------------------------------------------------------------------
      1          6           0       -1.254413    1.351749   -0.051738
      2          6           0       -1.173000   -0.100832    0.393148
      3          7           0       -1.314048   -1.136254   -0.447168
      4          6           0        0.257035   -0.857394    0.253341
      5          6           0        1.271999    0.050505   -0.380412
      6          8           0        2.281802    0.368897    0.177331
      7          1           0       -0.987578    1.469145   -1.101232
      8          1           0       -0.636476    2.004813    0.568380
      9          1           0       -2.291660    1.669231    0.068472
     10          1           0       -1.476393   -0.212974    1.449565
     11          1           0        0.178151   -1.758425   -0.400282
     12          1           0        0.513359   -1.205987    1.251511
     13          1           0        1.034791    0.372628   -1.410918
 ---------------------------------------------------------------------

 SCF Done:  E(RHF) =  -284.822945329     A.U. after    2 cycles

 The electronic state is 1-A.
 Alpha  occ. eigenvalues --  -20.59107 -15.64695 -11.36554 -11.31696 -11.30526
 Alpha  occ. eigenvalues --  -11.25031  -1.38509  -1.23155  -1.00380  -0.97839
 Alpha  occ. eigenvalues --   -0.82567  -0.79779  -0.69743  -0.68763  -0.63962
 Alpha  occ. eigenvalues --   -0.60520  -0.60082  -0.56043  -0.54891  -0.54441
 Alpha  occ. eigenvalues --   -0.46887  -0.45339  -0.36613
 Alpha virt. eigenvalues --    0.03330   0.03895   0.04325   0.05367   0.06558
 Alpha virt. eigenvalues --    0.06961   0.07718   0.09949   0.10656   0.11685
 Alpha virt. eigenvalues --    0.12136   0.13268   0.14259   0.14739   0.14833

 Mulliken charges:
               1
     1  C    0.340030
     2  C    0.332185
     3  N   -0.821649
     4  C   -0.103738
     5  C    0.800408
     6  O   -0.481132
     7  H    0.042379
     8  H    0.043225
     9  H   -0.074866
    10  H   -0.139341
    11  H    0.191147
    12  H   -0.095405
    13  H   -0.033241
 Sum of Mulliken charges =  -0.00000

 Dipole moment (field-independent basis, Debye):
    X=             -1.5510    Y=              0.5593    Z=              0.2327  Tot=              1.6651

 Test job not archived.
 1\1\GINC-SE112\SP\RHF\Aug-CC-pVDZ\C4H7N1O1\OHZDE\09-Apr-2025\0\\#t hf
 aug-cc-pvdz iop(5/13=1,5/36=2,99/5=2) pseudo=read geom=check guess=(re
 ad,tcheck) scf=(maxcycle=1)\\title\\0,1\C,0,-0.86980959,-0.3157798,1.2
 3322946\C,0,-0.6229719,-0.73948063,-0.20694087\N,0,-1.14967155,-0.1008
 7658,-1.26188051\C,0,0.57319271,-0.00108588,-1.01989606\C,0,1.20703117
 ,1.06303388,-0.17020442\O,0,2.36582051,1.03761043,0.12764329\H,0,-1.10
 616453,0.74485051,1.30820483\H,0,-0.02545876,-0.55932913,1.88179748\H,
 0,-1.73328366,-0.87835347,1.59246373\H,0,-0.41594437,-1.82259324,-0.27

 Normal termination of Gaussian 16 at Wed Apr  9 14:22:20 2025.
