 Gaussian 16, Revision C.01,

 ----------------------------------------------------------------------
 #t hf aug-cc-pvdz symm=none int=(grid=ultrafine) guess=(read,tcheck) s
 table=(opt,rrhf)
 ----------------------------------------------------------------------
 -----
 title
 -----
 Symbolic Z-matrix:
 Charge =  0 Multiplicity = 1

 SCF Done:  E(RHF) =  -343.725385198     A.U. after   15 cycles
 Normal termination of Gaussian 16 at Wed Apr  9 16:00:04 2025.
 Gaussian 16:  ES64L-G16RevC.01  3-Jul-2019

 ----------------------------------------------------------------------
 #t hf aug-cc-pvdz iop(5/13=1,5/36=2,99/5=2) pseudo=read geom=check gue
 ss=(read,tcheck) scf=(maxcycle=1)
 ----------------------------------------------------------------------
 -----
 title
 -----
 Structure from the checkpoint file:  "Grambow2020_wb97xd3_007675_reverse_mol2.chk"
 Charge =  0 Multiplicity = 1

                         Standard orientation:
 ---------------------------------------------------------------------
 Center     Atomic      Atomic             Coordinates (Angstroms)
 Number     Number       Type             X           Y           Z
 ---------------------------------------------------------------------
      1          6           0       -1.746735   -1.427383   -0.262944
      2          6           0       -0.683651   -0.683486    0.500450
      3          6           0        0.453242   -0.019931   -0.263747
      4          8           0        2.821473   -0.106577   -0.386012
      5          6           0        1.819457   -0.068018    0.277705
      6          6           0       -0.601306    0.790412    0.475028
      7          8           0       -1.549563    1.478382   -0.268180
      8          1           0       -1.396858   -2.424328   -0.534839
      9          1           0       -2.019496   -0.894284   -1.172693
     10          1           0       -2.647726   -1.533554    0.343521
     11          1           0       -0.391743   -1.137020    1.442613
     12          1           0        0.377622   -0.026022   -1.344499
     13          1           0        1.881782   -0.062786    1.389685
     14          1           0       -0.281696    1.288778    1.387374
     15          1           0       -1.143217    2.265215   -0.636583
 ---------------------------------------------------------------------

 SCF Done:  E(RHF) =  -343.833922434     A.U. after    2 cycles

 The electronic state is 1-A.
 Alpha  occ. eigenvalues --  -20.59891 -20.56902 -11.34592 -11.31841 -11.26654
 Alpha  occ. eigenvalues --  -11.25482 -11.23851  -1.36224  -1.35812  -1.16193
 Alpha  occ. eigenvalues --   -0.98625  -0.90697  -0.81253  -0.80073  -0.73646
 Alpha  occ. eigenvalues --   -0.70697  -0.65959  -0.63965  -0.60266  -0.58280
 Alpha  occ. eigenvalues --   -0.57225  -0.55696  -0.53812  -0.52045  -0.45976
 Alpha  occ. eigenvalues --   -0.42242  -0.41409
 Alpha virt. eigenvalues --    0.03022   0.03886   0.04124   0.05009   0.06054
 Alpha virt. eigenvalues --    0.06732   0.06908   0.07572   0.10082   0.11633
 Alpha virt. eigenvalues --    0.12250   0.13066   0.13415   0.13857   0.14499

 Mulliken charges:
               1
     1  C    0.342842
     2  C    0.075933
     3  C    0.299227
     4  O   -0.453301
     5  C    0.533300
     6  C    1.028458
     7  O   -0.617910
     8  H    0.024420
     9  H   -0.054798
    10  H    0.014099
    11  H   -0.432309
    12  H   -0.439161
    13  H   -0.149367
    14  H   -0.337802
    15  H    0.166371
 Sum of Mulliken charges =  -0.00000

 Dipole moment (field-independent basis, Debye):
    X=             -2.3234    Y=              0.5717    Z=              1.6071  Tot=              2.8823

 Test job not archived.
 1\1\GINC-SE043\SP\RHF\Aug-CC-pVDZ\C5H8O2\OHZDE\09-Apr-2025\0\\#t hf au
 g-cc-pvdz iop(5/13=1,5/36=2,99/5=2) pseudo=read geom=check guess=(read
 ,tcheck) scf=(maxcycle=1)\\title\\0,1\C,0,1.82512709,-0.35877842,0.471
 18989\C,0,0.38030834,0.01996405,0.6592206\C,0,-0.41005382,0.54900262,-
 0.52917033\O,0,-1.61524367,2.49415647,-1.1575555\C,0,-1.36221947,1.652
 76726,-0.33652824\C,0,-0.71336082,-0.80116393,0.10294725\O,0,-0.369155
 94,-1.95109124,-0.59278245\H,0,2.4597996,0.52836982,0.49112274\H,0,1.9
 74019,-0.87180031,-0.47795485\H,0,2.14974697,-1.03079829,1.26734854\H,

 Normal termination of Gaussian 16 at Wed Apr  9 16:00:09 2025.
