 Gaussian 16, Revision C.01,

 ----------------------------------------------------------------------
 #t hf aug-cc-pvdz symm=none int=(grid=ultrafine) guess=(read,tcheck) s
 table=(opt,rrhf)
 ----------------------------------------------------------------------
 -----
 title
 -----
 Symbolic Z-matrix:
 Charge =  0 Multiplicity = 1

 SCF Done:  E(RHF) =  -343.685330059     A.U. after   15 cycles
 Normal termination of Gaussian 16 at Wed Apr  9 15:07:58 2025.
 Gaussian 16:  ES64L-G16RevC.01  3-Jul-2019

 ----------------------------------------------------------------------
 #t hf aug-cc-pvdz iop(5/13=1,5/36=2,99/5=2) pseudo=read geom=check gue
 ss=(read,tcheck) scf=(maxcycle=1)
 ----------------------------------------------------------------------
 -----
 title
 -----
 Structure from the checkpoint file:  "Grambow2020_wb97xd3_006677_reverse_mol2.chk"
 Charge =  0 Multiplicity = 1

                         Standard orientation:
 ---------------------------------------------------------------------
 Center     Atomic      Atomic             Coordinates (Angstroms)
 Number     Number       Type             X           Y           Z
 ---------------------------------------------------------------------
      1          6           0       -1.082402    1.618872   -0.778111
      2          6           0       -0.881152    0.497538    0.189216
      3          8           0       -0.087097    0.696043    1.306115
      4          6           0        2.930385   -0.090225    0.075661
      5          6           0        2.080595   -0.783996   -0.667303
      6          6           0       -1.481708   -0.667543    0.058638
      7          8           0       -2.021389   -1.690037   -0.061470
      8          1           0       -1.492121    2.492083   -0.264717
      9          1           0       -0.131635    1.910161   -1.234775
     10          1           0       -1.769675    1.335766   -1.576614
     11          1           0        0.829066    0.527025    1.047282
     12          1           0        3.307247    0.875058   -0.243543
     13          1           0        3.298121   -0.469708    1.022772
     14          1           0        1.722313   -0.412193   -1.620496
     15          1           0        1.710254   -1.754118   -0.355674
 ---------------------------------------------------------------------

 SCF Done:  E(RHF) =  -343.797777884     A.U. after    2 cycles

 The electronic state is 1-A.
 Alpha  occ. eigenvalues --  -20.63461 -20.59396 -11.37665 -11.30285 -11.26164
 Alpha  occ. eigenvalues --  -11.25826 -11.25267  -1.42904  -1.34985  -1.05940
 Alpha  occ. eigenvalues --   -1.05173  -0.93771  -0.81086  -0.77023  -0.73269
 Alpha  occ. eigenvalues --   -0.67457  -0.66601  -0.65570  -0.63152  -0.61208
 Alpha  occ. eigenvalues --   -0.58569  -0.57142  -0.56268  -0.52513  -0.50643
 Alpha  occ. eigenvalues --   -0.40476  -0.33933
 Alpha virt. eigenvalues --    0.03187   0.04238   0.04767   0.04967   0.06236
 Alpha virt. eigenvalues --    0.07098   0.07220   0.07697   0.08976   0.10643
 Alpha virt. eigenvalues --    0.11286   0.12058   0.12115   0.13212   0.13854

 Mulliken charges:
               1
     1  C    0.304997
     2  C    0.803590
     3  O   -0.573157
     4  C    0.540561
     5  C    0.631488
     6  C   -0.325983
     7  O   -0.223740
     8  H   -0.006064
     9  H   -0.055875
    10  H   -0.100447
    11  H    0.181840
    12  H   -0.295813
    13  H   -0.288299
    14  H   -0.292307
    15  H   -0.300793
 Sum of Mulliken charges =  -0.00000

 Dipole moment (field-independent basis, Debye):
    X=              2.1465    Y=              1.5487    Z=             -1.6018  Tot=              3.0938

 Test job not archived.
 1\1\GINC-SE100\SP\RHF\Aug-CC-pVDZ\C5H8O2\OHZDE\09-Apr-2025\0\\#t hf au
 g-cc-pvdz iop(5/13=1,5/36=2,99/5=2) pseudo=read geom=check guess=(read
 ,tcheck) scf=(maxcycle=1)\\title\\0,1\C,0,-1.76134396,-0.03480544,-1.1
 9842199\C,0,-1.1121527,-0.8622548,-0.1365882\O,0,-1.10702928,-0.409025
 97,1.17182566\C,0,1.69018261,1.4383835,1.18256178\C,0,1.89913631,0.529
 57723,0.24135638\C,0,-0.59146252,-2.04731362,-0.3808201\O,0,-0.1405790
 1,-3.0950227,-0.60484081\H,0,-2.80484219,0.16087899,-0.94004612\H,0,-1
 .25232362,0.92820542,-1.30262119\H,0,-1.73541305,-0.53868223,-2.165653

 Normal termination of Gaussian 16 at Wed Apr  9 15:08:04 2025.
