 Gaussian 16, Revision C.01,

 ----------------------------------------------------------------------
 #t hf aug-cc-pvdz symm=none int=(grid=ultrafine) guess=(read,tcheck) s
 table=(opt,rrhf)
 ----------------------------------------------------------------------
 -----
 title
 -----
 Symbolic Z-matrix:
 Charge =  0 Multiplicity = 1

 SCF Done:  E(RHF) =  -317.552214037     A.U. after   15 cycles
 Normal termination of Gaussian 16 at Wed Apr  9 16:16:47 2025.
 Gaussian 16:  ES64L-G16RevC.01  3-Jul-2019

 ----------------------------------------------------------------------
 #t hf aug-cc-pvdz iop(5/13=1,5/36=2,99/5=2) pseudo=read geom=check gue
 ss=(read,tcheck) scf=(maxcycle=1)
 ----------------------------------------------------------------------
 -----
 title
 -----
 Structure from the checkpoint file:  "Grambow2020_wb97xd3_008057_forward_mol1.chk"
 Charge =  0 Multiplicity = 1

                         Standard orientation:
 ---------------------------------------------------------------------
 Center     Atomic      Atomic             Coordinates (Angstroms)
 Number     Number       Type             X           Y           Z
 ---------------------------------------------------------------------
      1          7           0       -2.719352   -0.159501   -0.392882
      2          6           0       -1.681928   -0.088244    0.093723
      3          6           0       -0.342431   -0.036166    0.661837
      4          6           0        0.710128   -0.985117   -0.081439
      5          7           0        1.963484   -0.550934    0.186156
      6          6           0        1.361862    0.496961   -0.514513
      7          7           0        0.387537    1.189533    0.295086
      8          1           0       -0.362453   -0.247084    1.730904
      9          1           0        0.468070   -1.988425   -0.441975
     10          1           0        0.490396   -0.231713   -1.294981
     11          1           0        1.889085    0.947702   -1.351845
     12          1           0       -0.192568    1.841231   -0.218265
 ---------------------------------------------------------------------

 SCF Done:  E(RHF) =  -317.640159680     A.U. after    2 cycles

 The electronic state is 1-A.
 Alpha  occ. eigenvalues --  -15.67159 -15.66567 -15.58518 -11.39739 -11.38392
 Alpha  occ. eigenvalues --  -11.34973 -11.30935  -1.35065  -1.22294  -1.17592
 Alpha  occ. eigenvalues --   -1.02879  -0.87504  -0.86263  -0.79901  -0.72647
 Alpha  occ. eigenvalues --   -0.66820  -0.62180  -0.59121  -0.56974  -0.56642
 Alpha  occ. eigenvalues --   -0.50009  -0.48748  -0.47490  -0.41763  -0.34079
 Alpha virt. eigenvalues --    0.02497   0.03147   0.03753   0.05375   0.06769
 Alpha virt. eigenvalues --    0.08447   0.08840   0.09881   0.11116   0.11304
 Alpha virt. eigenvalues --    0.12645   0.13272   0.13601   0.14340   0.14664

 Mulliken charges:
               1
     1  N   -0.143584
     2  C   -0.336043
     3  C    0.840496
     4  C    0.422718
     5  N   -0.886394
     6  C    0.861315
     7  N   -0.622667
     8  H   -0.177532
     9  H   -0.207028
    10  H    0.362036
    11  H   -0.152805
    12  H    0.039488
 Sum of Mulliken charges =  -0.00000

 Dipole moment (field-independent basis, Debye):
    X=              0.0340    Y=              0.7222    Z=             -1.3094  Tot=              1.4957

 Test job not archived.
 1\1\GINC-SE041\SP\RHF\Aug-CC-pVDZ\C4H5N3\OHZDE\09-Apr-2025\0\\#t hf au
 g-cc-pvdz iop(5/13=1,5/36=2,99/5=2) pseudo=read geom=check guess=(read
 ,tcheck) scf=(maxcycle=1)\\title\\0,1\N,0,2.47091989,-1.24469767,0.896
 8235\C,0,1.72213474,-0.66937424,0.2438051\C,0,0.72457588,0.01959542,-0
 .56236866\C,0,-0.71381522,-0.68154156,-0.54549522\N,0,-1.6513997,0.222
 87793,-0.91153315\C,0,-1.11231797,0.72416475,0.27551014\N,0,0.21914194
 ,1.24618701,0.07771408\H,0,1.07433067,0.15535445,-1.58561573\H,0,-0.85
 709303,-1.76501512,-0.57308292\H,0,-0.77162717,-0.46549876,0.88228902\

 Normal termination of Gaussian 16 at Wed Apr  9 16:16:51 2025.
