 Gaussian 16, Revision C.01,

 ----------------------------------------------------------------------
 #t hf aug-cc-pvdz symm=none int=(grid=ultrafine) guess=(read,tcheck) s
 table=(opt,rrhf)
 ----------------------------------------------------------------------
 -----
 title
 -----
 Symbolic Z-matrix:
 Charge =  0 Multiplicity = 1

 SCF Done:  E(RHF) =  -286.613806773     A.U. after   16 cycles
 Normal termination of Gaussian 16 at Wed Apr  9 15:59:15 2025.
 Gaussian 16:  ES64L-G16RevC.01  3-Jul-2019

 ----------------------------------------------------------------------
 #t hf aug-cc-pvdz iop(5/13=1,5/36=2,99/5=2) pseudo=read geom=check gue
 ss=(read,tcheck) scf=(maxcycle=1)
 ----------------------------------------------------------------------
 -----
 title
 -----
 Structure from the checkpoint file:  "Grambow2020_wb97xd3_007644_forward_mol1.chk"
 Charge =  0 Multiplicity = 1

                         Standard orientation:
 ---------------------------------------------------------------------
 Center     Atomic      Atomic             Coordinates (Angstroms)
 Number     Number       Type             X           Y           Z
 ---------------------------------------------------------------------
      1          6           0        1.774625   -0.844644    0.254167
      2          6           0        0.771839   -0.043692   -0.344306
      3          6           0        0.519700    1.349247   -0.696494
      4          6           0       -0.025615    1.028764    0.679397
      5          6           0       -1.114033    0.132856    0.814266
      6          7           0       -1.718531   -0.405193   -0.343102
      7          6           0       -0.431455   -1.057011   -0.347702
      8          1           0        1.981550   -1.772392   -0.277190
      9          1           0        0.435323   -1.467394    0.694249
     10          1           0        2.639316   -0.403585    0.743202
     11          1           0        1.365139    2.025559   -0.690637
     12          1           0       -0.192813    1.567438   -1.487980
     13          1           0        0.506989    1.376759    1.550978
     14          1           0       -1.477322   -0.203013    1.775864
     15          1           0       -1.850072    0.270840   -1.091575
     16          1           0       -0.348762   -1.950977   -0.971171
 ---------------------------------------------------------------------

 SCF Done:  E(RHF) =  -286.696878216     A.U. after    2 cycles

 The electronic state is 1-A.
 Alpha  occ. eigenvalues --  -15.63719 -11.32876 -11.28394 -11.27594 -11.26785
 Alpha  occ. eigenvalues --  -11.25304 -11.20419  -1.27494  -1.13634  -1.00169
 Alpha  occ. eigenvalues --   -0.94448  -0.85619  -0.78773  -0.74821  -0.70670
 Alpha  occ. eigenvalues --   -0.67927  -0.63025  -0.58992  -0.56781  -0.54622
 Alpha  occ. eigenvalues --   -0.53775  -0.50632  -0.46907  -0.40168  -0.32868
 Alpha  occ. eigenvalues --   -0.27831
 Alpha virt. eigenvalues --    0.03217   0.04025   0.04474   0.04557   0.06199
 Alpha virt. eigenvalues --    0.06418   0.07022   0.07406   0.08472   0.09449
 Alpha virt. eigenvalues --    0.10826   0.12813   0.13227   0.13653   0.13744

 Mulliken charges:
               1
     1  C    0.322283
     2  C   -0.666236
     3  C    0.808378
     4  C    0.580279
     5  C    0.571193
     6  N   -0.656096
     7  C    0.337627
     8  H   -0.155132
     9  H    0.700344
    10  H   -0.290966
    11  H   -0.265911
    12  H   -0.316618
    13  H   -0.410043
    14  H   -0.316488
    15  H    0.055040
    16  H   -0.297654
 Sum of Mulliken charges =  -0.00000

 Dipole moment (field-independent basis, Debye):
    X=             -0.2466    Y=              2.0758    Z=             -0.4123  Tot=              2.1307

 Test job not archived.
 1\1\GINC-SE026\SP\RHF\Aug-CC-pVDZ\C6H9N1\OHZDE\09-Apr-2025\0\\#t hf au
 g-cc-pvdz iop(5/13=1,5/36=2,99/5=2) pseudo=read geom=check guess=(read
 ,tcheck) scf=(maxcycle=1)\\title\\0,1\C,0,1.37115286,-0.68075641,0.969
 18357\C,0,0.58765584,-0.31941256,-0.15368667\C,0,0.64715751,0.55377258
 ,-1.32069061\C,0,-0.02283898,1.24945911,-0.15438101\C,0,-1.27830288,0.
 7899423,0.31268327\N,0,-1.92035424,-0.2759257,-0.35523365\C,0,-0.79716
 598,-0.9413791,0.25882877\H,0,1.40913953,-1.7519789,1.16131491\H,0,-0.
 08877551,-0.70642034,1.46230576\H,0,2.28188483,-0.14516974,1.22431769\

 Normal termination of Gaussian 16 at Wed Apr  9 15:59:20 2025.
