 Gaussian 16, Revision C.01,

 ----------------------------------------------------------------------
 #t hf aug-cc-pvdz symm=none int=(grid=ultrafine) guess=(read,tcheck) s
 table=(opt,rrhf)
 ----------------------------------------------------------------------
 -----
 title
 -----
 Symbolic Z-matrix:
 Charge =  0 Multiplicity = 1

 SCF Done:  E(RHF) =  -262.502759212     A.U. after   18 cycles
 Normal termination of Gaussian 16 at Wed Apr  9 14:16:02 2025.
 Gaussian 16:  ES64L-G16RevC.01  3-Jul-2019

 ----------------------------------------------------------------------
 #t hf aug-cc-pvdz iop(5/13=1,5/36=2,99/5=2) pseudo=read geom=check gue
 ss=(read,tcheck) scf=(maxcycle=1)
 ----------------------------------------------------------------------
 -----
 title
 -----
 Structure from the checkpoint file:  "Grambow2020_b97d3_006908_forward_mol1.chk"
 Charge =  0 Multiplicity = 1

                         Standard orientation:
 ---------------------------------------------------------------------
 Center     Atomic      Atomic             Coordinates (Angstroms)
 Number     Number       Type             X           Y           Z
 ---------------------------------------------------------------------
      1          6           0       -1.149339    0.814630    0.183777
      2          6           0       -1.194986   -0.560971   -0.189757
      3          7           0       -0.094278   -1.312273    0.035688
      4          7           0        1.093224   -0.856692    0.229149
      5          6           0        1.218274    0.518060   -0.160393
      6          6           0        0.077242    1.354484   -0.162503
      7          1           0       -1.984119    1.365142    0.615518
      8          1           0       -2.063134   -1.092887   -0.576747
      9          1           0        2.145090    0.780357   -0.680064
     10          1           0        1.202393    1.372920    0.760685
 ---------------------------------------------------------------------

 SCF Done:  E(RHF) =  -262.574710178     A.U. after    2 cycles

 The electronic state is 1-A.
 Alpha  occ. eigenvalues --  -15.71461 -15.70396 -11.32115 -11.31863 -11.29062
 Alpha  occ. eigenvalues --  -11.27568  -1.33701  -1.11580  -1.10052  -0.92201
 Alpha  occ. eigenvalues --   -0.85773  -0.72894  -0.69752  -0.67020  -0.64618
 Alpha  occ. eigenvalues --   -0.59608  -0.50524  -0.48283  -0.44051  -0.37979
 Alpha  occ. eigenvalues --   -0.34168
 Alpha virt. eigenvalues --    0.02808   0.03258   0.03994   0.04430   0.06142
 Alpha virt. eigenvalues --    0.08335   0.09444   0.10255   0.11356   0.11836
 Alpha virt. eigenvalues --    0.12969   0.14403   0.14416   0.15166   0.15570

 Mulliken charges:
               1
     1  C    0.588228
     2  C    0.562735
     3  N   -0.332112
     4  N   -0.489283
     5  C    0.740255
     6  C   -0.871577
     7  H   -0.195373
     8  H   -0.246772
     9  H   -0.058439
    10  H    0.302338
 Sum of Mulliken charges =  -0.00000

 Dipole moment (field-independent basis, Debye):
    X=             -1.0222    Y=              0.9580    Z=              0.0345  Tot=              1.4014

 Test job not archived.
 1\1\GINC-SE226\SP\RHF\Aug-CC-pVDZ\C4H4N2\OHZDE\09-Apr-2025\0\\#t hf au
 g-cc-pvdz iop(5/13=1,5/36=2,99/5=2) pseudo=read geom=check guess=(read
 ,tcheck) scf=(maxcycle=1)\\title\\0,1\C,0,0.79018106,0.91041083,-0.123
 2543\C,0,1.33257493,-0.4042985,-0.01725074\N,0,0.52534109,-1.44549691,
 -0.31910988\N,0,-0.75996986,-1.40607125,-0.3586383\C,0,-1.28826476,-0.
 23980221,0.28792516\C,0,-0.49732933,0.92923874,0.38450217\H,0,1.339155
 54,1.77709181,-0.48905765\H,0,2.36658854,-0.65561068,0.21520352\H,0,-2
 .18298536,-0.40081254,0.89734833\H,0,-1.66349885,0.70100272,-0.4560553

 Normal termination of Gaussian 16 at Wed Apr  9 14:16:05 2025.
