 Gaussian 16, Revision C.01,

 ----------------------------------------------------------------------
 #t hf aug-cc-pvdz symm=none int=(grid=ultrafine) guess=(read,tcheck) s
 table=(opt,rrhf)
 ----------------------------------------------------------------------
 -----
 title
 -----
 Symbolic Z-matrix:
 Charge =  0 Multiplicity = 1

 SCF Done:  E(RHF) =  -323.724562813     A.U. after   17 cycles
 Normal termination of Gaussian 16 at Wed Apr  9 15:17:09 2025.
 Gaussian 16:  ES64L-G16RevC.01  3-Jul-2019

 ----------------------------------------------------------------------
 #t hf aug-cc-pvdz iop(5/13=1,5/36=2,99/5=2) pseudo=read geom=check gue
 ss=(read,tcheck) scf=(maxcycle=1)
 ----------------------------------------------------------------------
 -----
 title
 -----
 Structure from the checkpoint file:  "Grambow2020_wb97xd3_006833_reverse_mol2.chk"
 Charge =  0 Multiplicity = 1

                         Standard orientation:
 ---------------------------------------------------------------------
 Center     Atomic      Atomic             Coordinates (Angstroms)
 Number     Number       Type             X           Y           Z
 ---------------------------------------------------------------------
      1          6           0       -2.197445   -0.804384    0.319540
      2          6           0       -1.359312    0.295838   -0.274255
      3          6           0       -0.382340    1.016265    0.574468
      4          6           0        0.588601    1.494850   -0.445119
      5          6           0        0.113138    0.082211   -0.506758
      6          7           0        0.801178   -1.095689   -0.181951
      7          8           0        2.003689   -1.024092   -0.266733
      8          1           0       -3.090541   -0.389035    0.788691
      9          1           0       -1.637665   -1.366513    1.067469
     10          1           0       -2.516321   -1.503906   -0.453616
     11          1           0       -1.848542    0.881040   -1.052309
     12          1           0       -0.197063    0.860564    1.626175
     13          1           0        2.622964    0.771740    2.659523
     14          1           0        1.611456    1.638139   -0.116523
     15          1           0        0.249170    2.180063   -1.217486
     16          1           0        2.592919    0.281783    2.098338
 ---------------------------------------------------------------------

 SCF Done:  E(RHF) =  -323.826839860     A.U. after    2 cycles

 The electronic state is 1-A.
 Alpha  occ. eigenvalues --  -20.62163 -15.76336 -11.28772 -11.28424 -11.28320
 Alpha  occ. eigenvalues --  -11.27481 -11.24336  -1.45786  -1.25061  -1.02522
 Alpha  occ. eigenvalues --   -1.00741  -0.89966  -0.81451  -0.76960  -0.71601
 Alpha  occ. eigenvalues --   -0.67906  -0.62999  -0.62518  -0.60000  -0.59043
 Alpha  occ. eigenvalues --   -0.58223  -0.54265  -0.53324  -0.52588  -0.45202
 Alpha  occ. eigenvalues --   -0.40318  -0.37525
 Alpha virt. eigenvalues --    0.03140   0.03963   0.04332   0.05601   0.06444
 Alpha virt. eigenvalues --    0.06608   0.07609   0.08285   0.08717   0.08977
 Alpha virt. eigenvalues --    0.09911   0.11216   0.12637   0.13007   0.14116

 Mulliken charges:
               1
     1  C    0.495666
     2  C   -0.135095
     3  C    0.516299
     4  C    0.759149
     5  C    0.454454
     6  N   -0.334848
     7  O   -0.454810
     8  H    0.044947
     9  H   -0.048118
    10  H    0.030619
    11  H   -0.390481
    12  H   -0.378289
    13  H    0.029574
    14  H   -0.271061
    15  H   -0.291064
    16  H   -0.026942
 Sum of Mulliken charges =  -0.00000

 Dipole moment (field-independent basis, Debye):
    X=             -2.8351    Y=              2.1010    Z=              0.4706  Tot=              3.5600

 Test job not archived.
 1\1\GINC-SE114\SP\RHF\Aug-CC-pVDZ\C5H9N1O1\OHZDE\09-Apr-2025\0\\#t hf
 aug-cc-pvdz iop(5/13=1,5/36=2,99/5=2) pseudo=read geom=check guess=(re
 ad,tcheck) scf=(maxcycle=1)\\title\\0,1\C,0,-1.61813895,-1.42319457,-0
 .64415604\C,0,-0.65839612,-0.34683255,-1.07529958\C,0,-0.37809424,0.79
 366477,-0.17279327\C,0,0.96880197,1.21137771,-0.64471859\C,0,0.6967729
 6,-0.23920807,-0.42742747\N,0,1.14892951,-1.07761586,0.60163624\O,0,2.
 18154337,-0.73270972,1.12422139\H,0,-2.64278033,-1.13525808,-0.8838263
 4\H,0,-1.54753598,-1.60798687,0.42804095\H,0,-1.40124813,-2.35956703,-

 Normal termination of Gaussian 16 at Wed Apr  9 15:17:14 2025.
