 Gaussian 16, Revision C.01,

 ----------------------------------------------------------------------
 #t hf aug-cc-pvdz symm=none int=(grid=ultrafine) guess=(read,tcheck) s
 table=(opt,rrhf)
 ----------------------------------------------------------------------
 -----
 title
 -----
 Symbolic Z-matrix:
 Charge =  0 Multiplicity = 1

 SCF Done:  E(RHF) =  -284.774266006     A.U. after   15 cycles
 Normal termination of Gaussian 16 at Wed Apr  9 03:05:26 2025.
 Gaussian 16:  ES64L-G16RevC.01  3-Jul-2019

 ----------------------------------------------------------------------
 #t hf aug-cc-pvdz iop(5/13=1,5/36=2,99/5=2) pseudo=read geom=check gue
 ss=(read,tcheck) scf=(maxcycle=1)
 ----------------------------------------------------------------------
 -----
 title
 -----
 Structure from the checkpoint file:  "Grambow2020_b97d3_006535_forward_mol1.chk"
 Charge =  0 Multiplicity = 1

                         Standard orientation:
 ---------------------------------------------------------------------
 Center     Atomic      Atomic             Coordinates (Angstroms)
 Number     Number       Type             X           Y           Z
 ---------------------------------------------------------------------
      1          6           0        1.646458    0.381759   -0.238361
      2          6           0        1.404313   -0.974096   -0.098661
      3          8           0       -0.775825   -1.247177    0.385822
      4          6           0       -1.444566   -0.368773   -0.215702
      5          7           0       -1.102763    0.938287   -0.333742
      6          6           0       -0.079346    1.332110    0.424520
      7          1           0        2.288625    0.870941    0.495599
      8          1           0        1.668744    0.805306   -1.242437
      9          1           0        1.140557   -1.598801   -0.948355
     10          1           0        1.642626   -1.500280    0.823040
     11          1           0       -2.342386   -0.662196   -0.789020
     12          1           0        0.057410    0.931361    1.437561
     13          1           0        0.309212    2.337078    0.242458
 ---------------------------------------------------------------------

 SCF Done:  E(RHF) =  -284.861517051     A.U. after    2 cycles

 The electronic state is 1-A.
 Alpha  occ. eigenvalues --  -20.55186 -15.60629 -11.34456 -11.33322 -11.30333
 Alpha  occ. eigenvalues --  -11.24794  -1.33018  -1.17781  -1.04850  -0.92464
 Alpha  occ. eigenvalues --   -0.83076  -0.75624  -0.69711  -0.66502  -0.65362
 Alpha  occ. eigenvalues --   -0.61291  -0.59028  -0.56050  -0.53437  -0.47468
 Alpha  occ. eigenvalues --   -0.43397  -0.40766  -0.34215
 Alpha virt. eigenvalues --    0.03045   0.03907   0.04553   0.04816   0.05909
 Alpha virt. eigenvalues --    0.06396   0.07052   0.07357   0.10540   0.11132
 Alpha virt. eigenvalues --    0.12792   0.13380   0.13991   0.14410   0.15176

 Mulliken charges:
               1
     1  C    0.244640
     2  C    0.706341
     3  O   -0.486693
     4  C    0.598019
     5  N   -0.541744
     6  C    0.743438
     7  H   -0.140903
     8  H   -0.215385
     9  H   -0.214808
    10  H   -0.225953
    11  H   -0.204135
    12  H   -0.104487
    13  H   -0.158329
 Sum of Mulliken charges =   0.00000

 Dipole moment (field-independent basis, Debye):
    X=              2.4804    Y=              0.9458    Z=              0.2803  Tot=              2.6694

 Test job not archived.
 1\1\GINC-SE227\SP\RHF\Aug-CC-pVDZ\C4H7N1O1\OHZDE\09-Apr-2025\0\\#t hf
 aug-cc-pvdz iop(5/13=1,5/36=2,99/5=2) pseudo=read geom=check guess=(re
 ad,tcheck) scf=(maxcycle=1)\\title\\0,1\C,0,0.65658677,-1.18691092,0.0
 6123586\C,0,-0.70155501,-1.3052545,0.30193978\O,0,-1.59890086,0.757692
 91,0.26564703\C,0,-0.99089004,1.45639445,-0.58451741\N,0,0.35184384,1.
 4751645,-0.77394223\C,0,1.06936582,0.84806805,0.15844882\H,0,1.3486759
 5,-1.44275669,0.8649335\H,0,1.02250808,-1.36096883,-0.95062548\H,0,-1.
 41347066,-1.46721243,-0.50350921\H,0,-1.09011098,-1.42225118,1.3111640

 Normal termination of Gaussian 16 at Wed Apr  9 03:05:30 2025.
