 Gaussian 16, Revision C.01,

 ----------------------------------------------------------------------
 #t hf aug-cc-pvdz symm=none int=(grid=ultrafine) guess=(read,tcheck) s
 table=(opt,rrhf)
 ----------------------------------------------------------------------
 -----
 title
 -----
 Symbolic Z-matrix:
 Charge =  0 Multiplicity = 1

 SCF Done:  E(RHF) =  -305.731177581     A.U. after   14 cycles
 Normal termination of Gaussian 16 at Wed Apr  9 14:24:20 2025.
 Gaussian 16:  ES64L-G16RevC.01  3-Jul-2019

 ----------------------------------------------------------------------
 #t hf aug-cc-pvdz iop(5/13=1,5/36=2,99/5=2) pseudo=read geom=check gue
 ss=(read,tcheck) scf=(maxcycle=1)
 ----------------------------------------------------------------------
 -----
 title
 -----
 Structure from the checkpoint file:  "Grambow2020_wb97xd3_006219_reverse_mol1.chk"
 Charge =  0 Multiplicity = 1

                         Standard orientation:
 ---------------------------------------------------------------------
 Center     Atomic      Atomic             Coordinates (Angstroms)
 Number     Number       Type             X           Y           Z
 ---------------------------------------------------------------------
      1          6           0       -2.211438    0.282999    0.160877
      2          8           0       -1.009276   -0.153926   -0.456993
      3          6           0       -0.226066   -0.923043    0.364023
      4          6           0        1.123903   -1.088573   -0.321740
      5          6           0        1.353036    0.160893    0.445970
      6          8           0        1.214255    1.370435   -0.182903
      7          1           0       -2.001903    1.074336    0.886910
      8          1           0       -2.695134   -0.551850    0.669460
      9          1           0       -2.852648    0.672600   -0.628166
     10          1           0        0.311976   -0.078284    1.245840
     11          1           0        1.119364   -0.966303   -1.400937
     12          1           0        1.684975   -1.960568   -0.003497
     13          1           0        2.109373    0.186290    1.224019
     14          1           0        0.447563    1.298056   -0.769243
 ---------------------------------------------------------------------

 SCF Done:  E(RHF) =  -305.828458598     A.U. after    2 cycles

 The electronic state is 1-A.
 Alpha  occ. eigenvalues --  -20.60234 -20.59552 -11.33717 -11.30046 -11.29048
 Alpha  occ. eigenvalues --  -11.24355  -1.38325  -1.35253  -1.10088  -0.95302
 Alpha  occ. eigenvalues --   -0.86614  -0.81201  -0.73772  -0.69406  -0.65610
 Alpha  occ. eigenvalues --   -0.64694  -0.63572  -0.59964  -0.55646  -0.53779
 Alpha  occ. eigenvalues --   -0.51101  -0.49945  -0.45114  -0.32623
 Alpha virt. eigenvalues --    0.03647   0.04250   0.04884   0.05308   0.06391
 Alpha virt. eigenvalues --    0.06711   0.07598   0.08304   0.10440   0.11848
 Alpha virt. eigenvalues --    0.13073   0.13954   0.14199   0.15038   0.15453

 Mulliken charges:
               1
     1  C    0.791310
     2  O   -0.678472
     3  C   -0.236835
     4  C    0.595463
     5  C    0.595894
     6  O   -0.521423
     7  H   -0.109898
     8  H   -0.041545
     9  H   -0.220643
    10  H    0.287674
    11  H   -0.195574
    12  H   -0.197724
    13  H   -0.258980
    14  H    0.190753
 Sum of Mulliken charges =   0.00000

 Dipole moment (field-independent basis, Debye):
    X=             -0.2585    Y=              0.1403    Z=             -0.0163  Tot=              0.2946

 Test job not archived.
 1\1\GINC-SE138\SP\RHF\Aug-CC-pVDZ\C4H8O2\OHZDE\09-Apr-2025\0\\#t hf au
 g-cc-pvdz iop(5/13=1,5/36=2,99/5=2) pseudo=read geom=check guess=(read
 ,tcheck) scf=(maxcycle=1)\\title\\0,1\C,0,1.6563751,-0.44369325,-1.239
 1326\O,0,1.02155031,0.14628058,-0.11361513\C,0,0.17854073,-0.71103361,
 0.54469537\C,0,-0.62144199,0.11657259,1.54228438\C,0,-1.48529002,0.218
 9232,0.33964771\O,0,-1.39261837,1.32684795,-0.46138189\H,0,0.9457193,-
 0.55482692,-2.06366911\H,0,2.05354979,-1.42400624,-0.97299473\H,0,2.46
 106368,0.22565849,-1.53908537\H,0,-0.89687182,-0.8313239,-0.23615465\H

 Normal termination of Gaussian 16 at Wed Apr  9 14:24:24 2025.
