 Gaussian 16, Revision C.01,

 ----------------------------------------------------------------------
 #t hf aug-cc-pvdz symm=none int=(grid=ultrafine) guess=(read,tcheck) s
 table=(opt,rrhf)
 ----------------------------------------------------------------------
 -----
 title
 -----
 Symbolic Z-matrix:
 Charge =  0 Multiplicity = 1

 SCF Done:  E(RHF) =  -320.210043674     A.U. after   18 cycles
 Normal termination of Gaussian 16 at Wed Apr  9 04:05:27 2025.
 Gaussian 16:  ES64L-G16RevC.01  3-Jul-2019

 ----------------------------------------------------------------------
 #t hf aug-cc-pvdz iop(5/13=1,5/36=2,99/5=2) pseudo=read geom=check gue
 ss=(read,tcheck) scf=(maxcycle=1)
 ----------------------------------------------------------------------
 -----
 title
 -----
 Structure from the checkpoint file:  "Grambow2020_wb97xd3_009366_reverse_mol2.chk"
 Charge =  0 Multiplicity = 1

                         Standard orientation:
 ---------------------------------------------------------------------
 Center     Atomic      Atomic             Coordinates (Angstroms)
 Number     Number       Type             X           Y           Z
 ---------------------------------------------------------------------
      1          6           0       -3.104631    0.585488   -0.451390
      2          6           0       -2.149339    0.076240    0.060361
      3          6           0        0.119075   -0.724116    0.115995
      4          6           0       -1.030255   -0.533514    0.700216
      5          8           0        2.078605    1.092995    0.377423
      6          7           0        2.304719    0.204504   -0.385968
      7          6           0        1.289603   -0.845933   -0.441897
      8          1           0       -3.948489    1.040544   -0.914145
      9          1           0       -1.148027   -0.863177    1.729008
     10          1           0        1.587927   -1.701850   -1.032177
 ---------------------------------------------------------------------

 SCF Done:  E(RHF) =  -320.309119532     A.U. after    2 cycles

 The electronic state is 1-A.
 Alpha  occ. eigenvalues --  -20.64890 -15.77924 -11.31596 -11.31012 -11.30127
 Alpha  occ. eigenvalues --  -11.27290 -11.26305  -1.48639  -1.13891  -1.07957
 Alpha  occ. eigenvalues --   -1.01683  -0.91835  -0.79439  -0.74709  -0.72461
 Alpha  occ. eigenvalues --   -0.71112  -0.68308  -0.63042  -0.61665  -0.49850
 Alpha  occ. eigenvalues --   -0.42647  -0.42375  -0.41699  -0.37250
 Alpha virt. eigenvalues --    0.03104   0.03578   0.03983   0.04556   0.07054
 Alpha virt. eigenvalues --    0.08581   0.09185   0.09482   0.10668   0.11446
 Alpha virt. eigenvalues --    0.11934   0.12865   0.13696   0.14688   0.15042

 Mulliken charges:
               1
     1  C    1.001867
     2  C   -0.650084
     3  C   -0.562576
     4  C    0.716432
     5  O   -0.368036
     6  N   -0.289453
     7  C    1.143894
     8  H   -0.495039
     9  H   -0.309728
    10  H   -0.187277
 Sum of Mulliken charges =  -0.00000

 Dipole moment (field-independent basis, Debye):
    X=             -2.0613    Y=             -2.0691    Z=             -0.2744  Tot=              2.9335

 Test job not archived.
 1\1\GINC-SE453\SP\RHF\Aug-CC-pVDZ\C5H3N1O1\OHZDE\09-Apr-2025\0\\#t hf
 aug-cc-pvdz iop(5/13=1,5/36=2,99/5=2) pseudo=read geom=check guess=(re
 ad,tcheck) scf=(maxcycle=1)\\title\\0,1\C,0,2.56377013,0.98708531,0.69
 574405\C,0,1.53530378,0.8616246,0.09547692\C,0,-0.48535887,-0.27939332
 ,-0.54042387\C,0,0.31573106,0.74435504,-0.63421801\O,0,-2.54665568,-0.
 22125409,1.17936303\N,0,-2.36899454,-1.26548228,0.63042413\C,0,-1.3225
 8418,-1.26567831,-0.39037535\H,0,3.47602375,1.09062735,1.23461977\H,0,
 0.04629841,1.55116524,-1.31054906\H,0,-1.28245286,-2.18090155,-0.96550

 Normal termination of Gaussian 16 at Wed Apr  9 04:05:30 2025.
