 Gaussian 16, Revision C.01,

 ----------------------------------------------------------------------
 #t hf aug-cc-pvdz symm=none int=(grid=ultrafine) guess=(read,tcheck) s
 table=(opt,rrhf)
 ----------------------------------------------------------------------
 -----
 title
 -----
 Symbolic Z-matrix:
 Charge =  0 Multiplicity = 1

 SCF Done:  E(RHF) =  -322.517897112     A.U. after   17 cycles
 Normal termination of Gaussian 16 at Wed Apr  9 15:30:00 2025.
 Gaussian 16:  ES64L-G16RevC.01  3-Jul-2019

 ----------------------------------------------------------------------
 #t hf aug-cc-pvdz iop(5/13=1,5/36=2,99/5=2) pseudo=read geom=check gue
 ss=(read,tcheck) scf=(maxcycle=1)
 ----------------------------------------------------------------------
 -----
 title
 -----
 Structure from the checkpoint file:  "Grambow2020_wb97xd3_006937_forward_mol1.chk"
 Charge =  0 Multiplicity = 1

                         Standard orientation:
 ---------------------------------------------------------------------
 Center     Atomic      Atomic             Coordinates (Angstroms)
 Number     Number       Type             X           Y           Z
 ---------------------------------------------------------------------
      1          8           0       -0.249053   -1.277210   -0.642931
      2          6           0       -0.697773   -0.182936   -1.055413
      3          7           0       -1.408236    0.585793   -0.183102
      4          6           0       -1.672086    0.259354    1.066946
      5          6           0        1.297545   -1.005032    0.616151
      6          6           0        1.634019    0.300761    0.311942
      7          6           0        1.618347    1.415718   -0.167937
      8          1           0       -0.486909    0.264210   -2.023462
      9          1           0       -1.677276    1.503063   -0.507789
     10          1           0       -1.438148   -0.739256    1.390524
     11          1           0       -2.179491    0.975766    1.691116
     12          1           0        0.912834   -1.224843    1.603219
     13          1           0        1.839629   -1.803610    0.131069
     14          1           0        1.799123    2.414600   -0.489654
 ---------------------------------------------------------------------

 SCF Done:  E(RHF) =  -322.619565890     A.U. after    2 cycles

 The electronic state is 1-A.
 Alpha  occ. eigenvalues --  -20.57166 -15.72810 -11.31711 -11.28374 -11.28073
 Alpha  occ. eigenvalues --  -11.24292 -11.23928  -1.35122  -1.24558  -1.05225
 Alpha  occ. eigenvalues --   -0.96436  -0.93181  -0.82682  -0.75191  -0.72445
 Alpha  occ. eigenvalues --   -0.68565  -0.64479  -0.62796  -0.61036  -0.60622
 Alpha  occ. eigenvalues --   -0.57588  -0.48822  -0.47404  -0.39797  -0.38612
 Alpha  occ. eigenvalues --   -0.21343
 Alpha virt. eigenvalues --    0.02404   0.03260   0.03924   0.04666   0.04846
 Alpha virt. eigenvalues --    0.06606   0.06934   0.08097   0.09956   0.10842
 Alpha virt. eigenvalues --    0.11239   0.12552   0.13165   0.14251   0.14751

 Mulliken charges:
               1
     1  O   -0.516189
     2  C    0.792930
     3  N   -0.017961
     4  C    0.652898
     5  C    0.588006
     6  C   -0.439582
     7  C    0.726511
     8  H   -0.321449
     9  H   -0.028226
    10  H   -0.272296
    11  H   -0.310322
    12  H   -0.180715
    13  H   -0.161415
    14  H   -0.512190
 Sum of Mulliken charges =  -0.00000

 Dipole moment (field-independent basis, Debye):
    X=             -1.7545    Y=              3.0316    Z=              0.2516  Tot=              3.5118

 Test job not archived.
 1\1\GINC-SE114\SP\RHF\Aug-CC-pVDZ\C5H7N1O1\OHZDE\09-Apr-2025\0\\#t hf
 aug-cc-pvdz iop(5/13=1,5/36=2,99/5=2) pseudo=read geom=check guess=(re
 ad,tcheck) scf=(maxcycle=1)\\title\\0,1\O,0,-1.16080843,-0.33993993,-0
 .796653\C,0,-1.20357174,0.63792673,-0.01506783\N,0,-0.96730643,0.40961
 275,1.30730903\C,0,-0.70708382,-0.77113343,1.83354412\C,0,0.73123542,-
 0.96336576,-1.08448323\C,0,1.42503231,0.14624682,-0.63922214\C,0,1.683
 67427,1.23041011,-0.15823042\H,0,-1.31255608,1.6790647,-0.30776929\H,0
 ,-0.9126442,1.22379235,1.9017088\H,0,-0.82528078,-1.64066831,1.2117800

 Normal termination of Gaussian 16 at Wed Apr  9 15:30:05 2025.
