 Gaussian 16, Revision C.01,

 ----------------------------------------------------------------------
 #t hf aug-cc-pvdz symm=none int=(grid=ultrafine) guess=(read,tcheck) s
 table=(opt,rrhf)
 ----------------------------------------------------------------------
 -----
 title
 -----
 Symbolic Z-matrix:
 Charge =  0 Multiplicity = 1

 SCF Done:  E(RHF) =  -302.768251979     A.U. after   15 cycles
 Normal termination of Gaussian 16 at Wed Apr  9 15:39:03 2025.
 Gaussian 16:  ES64L-G16RevC.01  3-Jul-2019

 ----------------------------------------------------------------------
 #t hf aug-cc-pvdz iop(5/13=1,5/36=2,99/5=2) pseudo=read geom=check gue
 ss=(read,tcheck) scf=(maxcycle=1)
 ----------------------------------------------------------------------
 -----
 title
 -----
 Structure from the checkpoint file:  "Grambow2020_wb97xd3_007243_reverse_mol1.chk"
 Charge =  0 Multiplicity = 1

                         Standard orientation:
 ---------------------------------------------------------------------
 Center     Atomic      Atomic             Coordinates (Angstroms)
 Number     Number       Type             X           Y           Z
 ---------------------------------------------------------------------
      1          6           0       -2.443441   -0.508420    0.171292
      2          7           0       -1.087601   -0.100988   -0.174672
      3          6           0       -0.596386    1.190474   -0.042969
      4          7           0        0.685585    1.196852    0.060148
      5          6           0        1.101643   -0.125165    0.010142
      6          6           0        2.559283   -0.436527    0.063950
      7          6           0        0.094799   -1.066324   -0.043225
      8          1           0       -2.581680   -1.534955   -0.160882
      9          1           0       -2.567776   -0.468738    1.251972
     10          1           0       -3.169401    0.145370   -0.311896
     11          1           0       -1.246256    2.054490   -0.061987
     12          1           0        3.090211    0.030708   -0.767486
     13          1           0        2.999417   -0.057238    0.988542
     14          1           0        2.712687   -1.513591    0.020544
     15          1           0       -0.718473   -0.651320   -1.112280
 ---------------------------------------------------------------------

 SCF Done:  E(RHF) =  -302.857451403     A.U. after    2 cycles

 The electronic state is 1-A.
 Alpha  occ. eigenvalues --  -15.72805 -15.63888 -11.32148 -11.30646 -11.25596
 Alpha  occ. eigenvalues --  -11.23492 -11.21839  -1.33505  -1.18600  -1.03392
 Alpha  occ. eigenvalues --   -0.99000  -0.92119  -0.80184  -0.77773  -0.70980
 Alpha  occ. eigenvalues --   -0.69512  -0.62747  -0.59923  -0.58136  -0.55597
 Alpha  occ. eigenvalues --   -0.52942  -0.51849  -0.45685  -0.43879  -0.36354
 Alpha  occ. eigenvalues --   -0.31884
 Alpha virt. eigenvalues --    0.02343   0.04038   0.04091   0.04652   0.06426
 Alpha virt. eigenvalues --    0.07147   0.07414   0.07456   0.09993   0.11219
 Alpha virt. eigenvalues --    0.11565   0.12445   0.12640   0.13459   0.14449

 Mulliken charges:
               1
     1  C    0.897983
     2  N   -0.517565
     3  C    0.440135
     4  N   -0.668991
     5  C   -0.233252
     6  C    0.601625
     7  C   -0.294228
     8  H   -0.172839
     9  H   -0.105222
    10  H   -0.150727
    11  H   -0.321575
    12  H    0.015551
    13  H    0.030178
    14  H   -0.040145
    15  H    0.519072
 Sum of Mulliken charges =  -0.00000

 Dipole moment (field-independent basis, Debye):
    X=             -4.0442    Y=              1.2537    Z=             -0.6778  Tot=              4.2880

 Test job not archived.
 1\1\GINC-SE120\SP\RHF\Aug-CC-pVDZ\C5H8N2\OHZDE\09-Apr-2025\0\\#t hf au
 g-cc-pvdz iop(5/13=1,5/36=2,99/5=2) pseudo=read geom=check guess=(read
 ,tcheck) scf=(maxcycle=1)\\title\\0,1\C,0,-2.36467066,-0.01907204,-0.4
 4831087\N,0,-1.01137549,0.17553666,0.05638006\C,0,-0.54683086,-0.31122
 153,1.27037145\N,0,0.73296355,-0.43862369,1.2662583\C,0,1.17467495,-0.
 04091966,0.01323894\C,0,2.63688169,-0.03840832,-0.28087095\C,0,0.18678
 132,0.28617974,-0.89198694\H,0,-2.47812485,0.58156318,-1.34808147\H,0,
 -2.5071189,-1.06728522,-0.70494531\H,0,-3.09497876,0.28378508,0.301928

 Normal termination of Gaussian 16 at Wed Apr  9 15:39:08 2025.
