 Gaussian 16, Revision C.01,

 ----------------------------------------------------------------------
 #t hf aug-cc-pvdz symm=none int=(grid=ultrafine) guess=(read,tcheck) s
 table=(opt,rrhf)
 ----------------------------------------------------------------------
 -----
 title
 -----
 Symbolic Z-matrix:
 Charge =  0 Multiplicity = 1

 SCF Done:  E(RHF) =  -283.498174352     A.U. after   16 cycles
 Normal termination of Gaussian 16 at Wed Apr  9 13:46:06 2025.
 Gaussian 16:  ES64L-G16RevC.01  3-Jul-2019

 ----------------------------------------------------------------------
 #t hf aug-cc-pvdz iop(5/13=1,5/36=2,99/5=2) pseudo=read geom=check gue
 ss=(read,tcheck) scf=(maxcycle=1)
 ----------------------------------------------------------------------
 -----
 title
 -----
 Structure from the checkpoint file:  "Grambow2020_b97d3_006667_reverse_mol1.chk"
 Charge =  0 Multiplicity = 1

                         Standard orientation:
 ---------------------------------------------------------------------
 Center     Atomic      Atomic             Coordinates (Angstroms)
 Number     Number       Type             X           Y           Z
 ---------------------------------------------------------------------
      1          7           0        1.859781   -1.139295    0.097277
      2          6           0        1.795954    0.073520    0.062130
      3          6           0        1.155743    1.264832   -0.059034
      4          6           0       -0.664358   -0.372476   -0.157671
      5          6           0       -1.806253    0.037809    0.714057
      6          8           0       -1.810083   -0.097258   -0.758928
      7          1           0        1.196514    1.792098   -1.012461
      8          1           0        0.975015    1.867710    0.831666
      9          1           0        0.695112   -1.280025   -0.074792
     10          1           0       -2.405315   -0.716100    1.225951
     11          1           0       -1.885645    1.067338    1.063228
 ---------------------------------------------------------------------

 SCF Done:  E(RHF) =  -283.583973509     A.U. after    2 cycles

 The electronic state is 1-A.
 Alpha  occ. eigenvalues --  -20.66295 -15.63839 -11.36250 -11.33155 -11.32241
 Alpha  occ. eigenvalues --  -11.26200  -1.45726  -1.21134  -1.00030  -0.95510
 Alpha  occ. eigenvalues --   -0.84349  -0.71128  -0.70869  -0.68940  -0.65324
 Alpha  occ. eigenvalues --   -0.62256  -0.56766  -0.54127  -0.51726  -0.45397
 Alpha  occ. eigenvalues --   -0.40594  -0.35664
 Alpha virt. eigenvalues --    0.02934   0.04147   0.05025   0.05453   0.06361
 Alpha virt. eigenvalues --    0.08029   0.08799   0.10375   0.10890   0.11546
 Alpha virt. eigenvalues --    0.12746   0.14050   0.14336   0.14576   0.15410

 Mulliken charges:
               1
     1  N   -0.388610
     2  C   -0.127146
     3  C    0.636730
     4  C   -0.037820
     5  C    0.791552
     6  O   -0.593263
     7  H   -0.169381
     8  H   -0.200295
     9  H    0.444508
    10  H   -0.178049
    11  H   -0.178225
 Sum of Mulliken charges =  -0.00000

 Dipole moment (field-independent basis, Debye):
    X=             -2.4838    Y=              1.9877    Z=              1.8003  Tot=              3.6553

 Test job not archived.
 1\1\GINC-SE054\SP\RHF\Aug-CC-pVDZ\C4H5N1O1\OHZDE\09-Apr-2025\0\\#t hf
 aug-cc-pvdz iop(5/13=1,5/36=2,99/5=2) pseudo=read geom=check guess=(re
 ad,tcheck) scf=(maxcycle=1)\\title\\0,1\N,0,1.99944978,0.34165645,1.24
 163015\C,0,1.82007708,-0.42538655,0.31659022\C,0,1.06409608,-1.1100928
 8,-0.5797612\C,0,-0.57607415,0.25686043,0.62213496\C,0,-1.52506536,0.9
 1667558,-0.32455792\O,0,-1.84768308,-0.0991025,0.70113892\H,0,0.841713
 01,-2.16050413,-0.39034573\H,0,1.03451105,-0.77824069,-1.6182544\H,0,0
 .8435054,0.56993442,1.37410025\H,0,-1.92312221,1.90734793,-0.10227672\

 Normal termination of Gaussian 16 at Wed Apr  9 13:46:10 2025.
