 Gaussian 16, Revision C.01,

 ----------------------------------------------------------------------
 #t hf aug-cc-pvdz symm=none int=(grid=ultrafine) guess=(read,tcheck) s
 table=(opt,rrhf)
 ----------------------------------------------------------------------
 -----
 title
 -----
 Symbolic Z-matrix:
 Charge =  0 Multiplicity = 1

 SCF Done:  E(RHF) =  -269.897076398     A.U. after   14 cycles

 1\1\GINC-SE435\Stability\RHF\Aug-CC-pVDZ\C5H10O1\OHZDE\09-Apr-2025\0\\
 #t hf aug-cc-pvdz symm=none int=(grid=ultrafine) guess=(read,tcheck) s
 table=(opt,rrhf)\\title\\0,1\C,0,-2.28668225,0.09331485,0.05272936\C,0
 ,-1.19637648,-0.55100167,-0.78695167\O,0,-0.25421829,0.4818288,-1.1863
 4676\C,0,0.5605559,-0.09179851,-0.17096135\C,0,1.78658582,-0.75202614,
 -0.7813526\C,0,0.77837838,0.792146,1.04017687\H,0,-3.01151766,0.421270
 86,-0.71539383\H,0,-2.02073586,0.99006101,0.63535608\H,0,-2.80024089,-
 0.64718045,0.68031145\H,0,-0.15785025,-1.04715633,0.10295041\H,0,1.467

 Normal termination of Gaussian 16 at Wed Apr  9 03:16:07 2025.
 Gaussian 16:  ES64L-G16RevC.01  3-Jul-2019

 ----------------------------------------------------------------------
 #t hf aug-cc-pvdz iop(5/13=1,5/36=2,99/5=2) pseudo=read geom=check gue
 ss=(read,tcheck) scf=(maxcycle=1)
 ----------------------------------------------------------------------
 -----
 title
 -----
 Structure from the checkpoint file:  "Grambow2020_b97d3_007063_reverse_mol1.chk"
 Charge =  0 Multiplicity = 1

                         Standard orientation:
 ---------------------------------------------------------------------
 Center     Atomic      Atomic             Coordinates (Angstroms)
 Number     Number       Type             X           Y           Z
 ---------------------------------------------------------------------
      1          6           0        2.221302    0.138552   -0.222249
      2          6           0        1.056961   -0.836427   -0.274211
      3          8           0        0.198583   -0.587478    0.872580
      4          6           0       -0.636128    0.044919   -0.090356
      5          6           0       -1.930953   -0.732488   -0.265554
      6          6           0       -0.743637    1.549152    0.055882
      7          1           0        2.951489   -0.401316    0.408881
      8          1           0        2.050367    1.113904    0.261284
      9          1           0        2.684498    0.263480   -1.210064
     10          1           0        0.002897   -0.256871   -1.092560
     11          1           0       -1.696719   -1.773849   -0.518542
     12          1           0       -2.476664   -0.721358    0.688617
     13          1           0       -2.565896   -0.296838   -1.048269
     14          1           0       -1.340106    1.972567   -0.764024
     15          1           0        0.239540    2.032972    0.065961
     16          1           0       -1.243346    1.784895    1.007008
 ---------------------------------------------------------------------

 SCF Done:  E(RHF) =  -269.980413674     A.U. after    2 cycles

 The electronic state is 1-A.
 Alpha  occ. eigenvalues --  -20.58455 -11.33760 -11.31567 -11.24963 -11.24345
 Alpha  occ. eigenvalues --  -11.23717  -1.36298  -1.05151  -0.99862  -0.95553
 Alpha  occ. eigenvalues --   -0.83597  -0.77920  -0.65513  -0.64520  -0.62610
 Alpha  occ. eigenvalues --   -0.58565  -0.56601  -0.56093  -0.55149  -0.54208
 Alpha  occ. eigenvalues --   -0.52576  -0.48486  -0.47117  -0.33756
 Alpha virt. eigenvalues --    0.03244   0.04477   0.04793   0.05035   0.06302
 Alpha virt. eigenvalues --    0.06701   0.07174   0.07394   0.08352   0.09566
 Alpha virt. eigenvalues --    0.11432   0.12720   0.13495   0.13699   0.14325

 Mulliken charges:
               1
     1  C    0.402907
     2  C   -0.596736
     3  O   -0.779952
     4  C   -0.699992
     5  C    0.615997
     6  C    0.517864
     7  H    0.032086
     8  H   -0.137125
     9  H    0.008146
    10  H    0.490089
    11  H   -0.001320
    12  H    0.074738
    13  H    0.030143
    14  H    0.064667
    15  H   -0.111829
    16  H    0.090317
 Sum of Mulliken charges =  -0.00000

 Dipole moment (field-independent basis, Debye):
    X=             -0.9789    Y=              2.5630    Z=             -1.0799  Tot=              2.9484

 Test job not archived.
 1\1\GINC-SE435\SP\RHF\Aug-CC-pVDZ\C5H10O1\OHZDE\09-Apr-2025\0\\#t hf a
 ug-cc-pvdz iop(5/13=1,5/36=2,99/5=2) pseudo=read geom=check guess=(rea
 d,tcheck) scf=(maxcycle=1)\\title\\0,1\C,0,-2.28668225,0.09331485,0.05
 272936\C,0,-1.19637648,-0.55100167,-0.78695167\O,0,-0.25421829,0.48182
 88,-1.18634676\C,0,0.5605559,-0.09179851,-0.17096135\C,0,1.78658582,-0
 .75202614,-0.7813526\C,0,0.77837838,0.792146,1.04017687\H,0,-3.0115176
 6,0.42127086,-0.71539383\H,0,-2.02073586,0.99006101,0.63535608\H,0,-2.
 80024089,-0.64718045,0.68031145\H,0,-0.15785025,-1.04715633,0.10295041

 Normal termination of Gaussian 16 at Wed Apr  9 03:16:12 2025.
