 Gaussian 16, Revision C.01,

 ----------------------------------------------------------------------
 #t hf aug-cc-pvdz symm=none int=(grid=ultrafine) guess=(read,tcheck) s
 table=(opt,rrhf)
 ----------------------------------------------------------------------
 -----
 title
 -----
 Symbolic Z-matrix:
 Charge =  0 Multiplicity = 1

 SCF Done:  E(RHF) =  -307.853929735     A.U. after   13 cycles

 1\1\GINC-SE131\Stability\RHF\Aug-CC-pVDZ\C6H10O1\OHZDE\09-Apr-2025\0\\
 #t hf aug-cc-pvdz symm=none int=(grid=ultrafine) guess=(read,tcheck) s
 table=(opt,rrhf)\\title\\0,1\C,0,1.80459163,-0.55507443,-0.22013399\C,
 0,0.77313448,0.33671978,0.43986983\C,0,0.04404087,1.39558648,-0.435840
 43\C,0,-1.30900242,0.83786663,0.03020177\O,0,-1.85203215,-0.13167499,-
 0.87634463\C,0,-1.26312104,-1.21497224,-0.13448578\C,0,-0.59728101,-0.
 25712856,0.85470851\H,0,2.12571402,-1.3560709,0.45023218\H,0,2.6885355
 9,0.02253945,-0.49947448\H,0,1.41439621,-1.01294667,-1.13173698\H,0,1.

 Normal termination of Gaussian 16 at Wed Apr  9 16:31:13 2025.
 Gaussian 16:  ES64L-G16RevC.01  3-Jul-2019

 ----------------------------------------------------------------------
 #t hf aug-cc-pvdz iop(5/13=1,5/36=2,99/5=2) pseudo=read geom=check gue
 ss=(read,tcheck) scf=(maxcycle=1)
 ----------------------------------------------------------------------
 -----
 title
 -----
 Structure from the checkpoint file:  "Grambow2020_wb97xd3_008492_forward_mol2.chk"
 Charge =  0 Multiplicity = 1

                         Standard orientation:
 ---------------------------------------------------------------------
 Center     Atomic      Atomic             Coordinates (Angstroms)
 Number     Number       Type             X           Y           Z
 ---------------------------------------------------------------------
      1          6           0        2.054223   -0.635215   -0.371067
      2          6           0        1.112355    0.243879    0.425730
      3          6           0        0.345836    1.372304   -0.321767
      4          6           0       -0.979822    0.825263    0.228097
      5          8           0       -1.629434   -0.073675   -0.681097
      6          6           0       -1.014736   -1.214714   -0.055893
      7          6           0       -0.236147   -0.335706    0.924136
      8          1           0        2.405296   -1.482985    0.222347
      9          1           0        2.929334   -0.066519   -0.693233
     10          1           0        1.572958   -1.027461   -1.269647
     11          1           0        1.649074    0.661869    1.280283
     12          1           0        0.599353    2.382995   -0.000252
     13          1           0        0.391981    1.322896   -1.410803
     14          1           0       -1.678689    1.510885    0.708837
     15          1           0       -0.436142   -1.815375   -0.763410
     16          1           0       -1.766172   -1.852511    0.418640
     17          1           0       -0.321776   -0.579260    1.980589
 ---------------------------------------------------------------------

 SCF Done:  E(RHF) =  -307.948798913     A.U. after    2 cycles

 The electronic state is 1-A.
 Alpha  occ. eigenvalues --  -20.55783 -11.28552 -11.28415 -11.23978 -11.23452
 Alpha  occ. eigenvalues --  -11.22560 -11.22543  -1.34464  -1.10984  -0.97578
 Alpha  occ. eigenvalues --   -0.96608  -0.86271  -0.82331  -0.71668  -0.69788
 Alpha  occ. eigenvalues --   -0.65781  -0.63530  -0.60131  -0.57459  -0.56871
 Alpha  occ. eigenvalues --   -0.54697  -0.51319  -0.49246  -0.45654  -0.44842
 Alpha  occ. eigenvalues --   -0.41767  -0.40386
 Alpha virt. eigenvalues --    0.03184   0.04216   0.04320   0.04928   0.06172
 Alpha virt. eigenvalues --    0.06400   0.06703   0.07024   0.07665   0.09752
 Alpha virt. eigenvalues --    0.11256   0.12542   0.12972   0.14080   0.14268

 Mulliken charges:
               1
     1  C    0.534417
     2  C   -0.422343
     3  C    0.563385
     4  C    0.817831
     5  O   -0.847584
     6  C    1.073276
     7  C    0.124116
     8  H   -0.030453
     9  H   -0.032069
    10  H   -0.075054
    11  H   -0.202195
    12  H   -0.195435
    13  H   -0.170493
    14  H   -0.338391
    15  H   -0.199491
    16  H   -0.223630
    17  H   -0.375886
 Sum of Mulliken charges =  -0.00000

 Dipole moment (field-independent basis, Debye):
    X=              1.5975    Y=             -0.1473    Z=              1.6692  Tot=              2.3151

 Test job not archived.
 1\1\GINC-SE131\SP\RHF\Aug-CC-pVDZ\C6H10O1\OHZDE\09-Apr-2025\0\\#t hf a
 ug-cc-pvdz iop(5/13=1,5/36=2,99/5=2) pseudo=read geom=check guess=(rea
 d,tcheck) scf=(maxcycle=1)\\title\\0,1\C,0,1.80459163,-0.55507443,-0.2
 2013399\C,0,0.77313448,0.33671978,0.43986983\C,0,0.04404087,1.39558648
 ,-0.43584043\C,0,-1.30900242,0.83786663,0.03020177\O,0,-1.85203215,-0.
 13167499,-0.87634463\C,0,-1.26312104,-1.21497224,-0.13448578\C,0,-0.59
 728101,-0.25712856,0.85470851\H,0,2.12571402,-1.3560709,0.45023218\H,0
 ,2.68853559,0.02253945,-0.49947448\H,0,1.41439621,-1.01294667,-1.13173

 Normal termination of Gaussian 16 at Wed Apr  9 16:31:20 2025.
