 Gaussian 16, Revision C.01,

 ----------------------------------------------------------------------
 #t hf aug-cc-pvdz symm=none int=(grid=ultrafine) guess=(read,tcheck) s
 table=(opt,rrhf)
 ----------------------------------------------------------------------
 -----
 title
 -----
 Symbolic Z-matrix:
 Charge =  0 Multiplicity = 1

 SCF Done:  E(RHF) =  -232.900943741     A.U. after   15 cycles
 Normal termination of Gaussian 16 at Wed Apr  9 03:07:01 2025.
 Gaussian 16:  ES64L-G16RevC.01  3-Jul-2019

 ----------------------------------------------------------------------
 #t hf aug-cc-pvdz iop(5/13=1,5/36=2,99/5=2) pseudo=read geom=check gue
 ss=(read,tcheck) scf=(maxcycle=1)
 ----------------------------------------------------------------------
 -----
 title
 -----
 Structure from the checkpoint file:  "Grambow2020_b97d3_006589_reverse_mol2.chk"
 Charge =  0 Multiplicity = 1

                         Standard orientation:
 ---------------------------------------------------------------------
 Center     Atomic      Atomic             Coordinates (Angstroms)
 Number     Number       Type             X           Y           Z
 ---------------------------------------------------------------------
      1          6           0        1.078365   -0.908503   -0.686349
      2          6           0        1.623860   -0.312991    0.563881
      3          6           0        0.258261    0.223662   -0.065299
      4          6           0       -1.028229   -0.162946    0.659939
      5          6           0       -2.226390   -0.069792   -0.294891
      6          6           0        0.625018    1.599694   -0.160528
      7          1           0        0.647167   -1.909495   -0.623137
      8          1           0        1.611202   -0.688355   -1.610902
      9          1           0        2.525485    0.295538    0.522270
     10          1           0        1.448290   -0.794029    1.525318
     11          1           0       -1.167153    0.528755    1.502059
     12          1           0       -0.952805   -1.184023    1.067958
     13          1           0       -3.163433   -0.323696    0.219915
     14          1           0       -2.108091   -0.754150   -1.147866
     15          1           0       -2.314390    0.952887   -0.687802
     16          1           0        1.488425    1.661831   -0.868322
 ---------------------------------------------------------------------

 SCF Done:  E(RHF) =  -232.970688895     A.U. after    2 cycles

 The electronic state is 1-A.
 Alpha  occ. eigenvalues --  -11.28258 -11.26384 -11.26255 -11.25343 -11.23614
 Alpha  occ. eigenvalues --  -11.22593  -1.16873  -1.02091  -0.92745  -0.85634
 Alpha  occ. eigenvalues --   -0.84293  -0.72321  -0.65509  -0.63871  -0.60708
 Alpha  occ. eigenvalues --   -0.56502  -0.54147  -0.51981  -0.51008  -0.48164
 Alpha  occ. eigenvalues --   -0.46345  -0.41117  -0.34139
 Alpha virt. eigenvalues --    0.03264   0.04039   0.04171   0.05011   0.06349
 Alpha virt. eigenvalues --    0.06632   0.06804   0.07326   0.07707   0.09261
 Alpha virt. eigenvalues --    0.09994   0.11922   0.12357   0.13285   0.13489

 Mulliken charges:
               1
     1  C    0.816379
     2  C    0.823394
     3  C   -0.457123
     4  C    0.440472
     5  C    0.437737
     6  C   -0.331160
     7  H   -0.317460
     8  H   -0.312540
     9  H   -0.298935
    10  H   -0.274267
    11  H   -0.049268
    12  H   -0.189898
    13  H   -0.062018
    14  H   -0.066770
    15  H   -0.044706
    16  H   -0.113836
 Sum of Mulliken charges =  -0.00000

 Dipole moment (field-independent basis, Debye):
    X=              0.9748    Y=             -2.9324    Z=             -0.3844  Tot=              3.1140

 Test job not archived.
 1\1\GINC-SE023\SP\RHF\Aug-CC-pVDZ\C6H10\OHZDE\09-Apr-2025\0\\#t hf aug
 -cc-pvdz iop(5/13=1,5/36=2,99/5=2) pseudo=read geom=check guess=(read,
 tcheck) scf=(maxcycle=1)\\title\\0,1\C,0,-1.21044207,0.42745653,0.8990
 875\C,0,-1.76612829,0.00067914,-0.41405675\C,0,-0.21438685,0.3423198,-
 0.2587967\C,0,0.75088465,-0.84035492,-0.26363973\C,0,2.0713352,-0.4527
 8171,0.41618639\C,0,-0.13397559,1.31935987,-1.29608672\H,0,-1.11355028
 ,-0.33167996,1.67769936\H,0,-1.48252282,1.42248113,1.24990994\H,0,-2.4
 2474275,0.6705952,-0.9639719\H,0,-1.91323836,-1.05629472,-0.63257146\H

 Normal termination of Gaussian 16 at Wed Apr  9 03:07:06 2025.
