 Gaussian 16, Revision C.01,

 ----------------------------------------------------------------------
 #t hf aug-cc-pvdz symm=none int=(grid=ultrafine) guess=(read,tcheck) s
 table=(opt,rrhf)
 ----------------------------------------------------------------------
 -----
 title
 -----
 Symbolic Z-matrix:
 Charge =  0 Multiplicity = 1

 SCF Done:  E(RHF) =  -284.783780095     A.U. after   15 cycles
 Normal termination of Gaussian 16 at Wed Apr  9 14:20:15 2025.
 Gaussian 16:  ES64L-G16RevC.01  3-Jul-2019

 ----------------------------------------------------------------------
 #t hf aug-cc-pvdz iop(5/13=1,5/36=2,99/5=2) pseudo=read geom=check gue
 ss=(read,tcheck) scf=(maxcycle=1)
 ----------------------------------------------------------------------
 -----
 title
 -----
 Structure from the checkpoint file:  "Grambow2020_b97d3_007214_reverse_mol1.chk"
 Charge =  0 Multiplicity = 1

                         Standard orientation:
 ---------------------------------------------------------------------
 Center     Atomic      Atomic             Coordinates (Angstroms)
 Number     Number       Type             X           Y           Z
 ---------------------------------------------------------------------
      1          6           0        2.557761   -0.177606   -0.266346
      2          6           0        1.183178   -0.373687    0.347190
      3          8           0        0.304225    0.629764   -0.231454
      4          6           0       -0.882673    0.790428    0.353358
      5          6           0       -1.904220   -0.907015    0.271411
      6          7           0       -2.359575   -0.197749   -0.585228
      7          1           0        2.940967    0.827937   -0.048231
      8          1           0        3.257379   -0.914480    0.149630
      9          1           0        2.519381   -0.309485   -1.355014
     10          1           0        1.202533   -0.240092    1.440135
     11          1           0        0.755000   -1.361667    0.126680
     12          1           0       -1.398613    1.661889   -0.039565
     13          1           0       -0.917698    0.689314    1.440919
 ---------------------------------------------------------------------

 SCF Done:  E(RHF) =  -284.871290525     A.U. after    2 cycles

 The electronic state is 1-A.
 Alpha  occ. eigenvalues --  -20.63369 -15.64830 -11.40050 -11.32002 -11.26006
 Alpha  occ. eigenvalues --  -11.25045  -1.40766  -1.19271  -1.05772  -0.93630
 Alpha  occ. eigenvalues --   -0.86601  -0.72946  -0.72088  -0.69691  -0.61298
 Alpha  occ. eigenvalues --   -0.59615  -0.56710  -0.54719  -0.53159  -0.51619
 Alpha  occ. eigenvalues --   -0.46015  -0.45327  -0.44402
 Alpha virt. eigenvalues --    0.02830   0.04001   0.04422   0.05412   0.06241
 Alpha virt. eigenvalues --    0.06946   0.07829   0.08896   0.10722   0.11941
 Alpha virt. eigenvalues --    0.12555   0.13404   0.13820   0.14755   0.15244

 Mulliken charges:
               1
     1  C    0.218779
     2  C    0.486179
     3  O   -0.554887
     4  C    0.687855
     5  C   -0.023838
     6  N   -0.413343
     7  H   -0.019506
     8  H   -0.003147
     9  H   -0.020621
    10  H   -0.114783
    11  H   -0.112435
    12  H   -0.230493
    13  H    0.100242
 Sum of Mulliken charges =  -0.00000

 Dipole moment (field-independent basis, Debye):
    X=              3.3928    Y=              1.5666    Z=              1.9730  Tot=              4.2258

 Test job not archived.
 1\1\GINC-SE225\SP\RHF\Aug-CC-pVDZ\C4H7N1O1\OHZDE\09-Apr-2025\0\\#t hf
 aug-cc-pvdz iop(5/13=1,5/36=2,99/5=2) pseudo=read geom=check guess=(re
 ad,tcheck) scf=(maxcycle=1)\\title\\0,1\C,0,-1.93636503,-0.64004467,-0
 .02507043\C,0,-0.62565071,-0.13361096,-0.59944243\O,0,0.26124479,0.137
 34606,0.52051242\C,0,1.37190958,0.82219539,0.24857242\C,0,2.474254,-0.
 18220527,-1.0581797\N,0,2.98299756,-0.35646449,0.0165524\H,0,-2.386573
 57,0.1110984,0.63722522\H,0,-2.64052815,-0.8519507,-0.84038332\H,0,-1.
 77855296,-1.56264808,0.54760913\H,0,-0.76508845,0.7954803,-1.17398402\

 Normal termination of Gaussian 16 at Wed Apr  9 14:20:19 2025.
