 Gaussian 16, Revision C.01,

 ----------------------------------------------------------------------
 #t hf aug-cc-pvdz symm=none int=(grid=ultrafine) guess=(read,tcheck) s
 table=(opt,rrhf)
 ----------------------------------------------------------------------
 -----
 title
 -----
 Symbolic Z-matrix:
 Charge =  0 Multiplicity = 1

 SCF Done:  E(RHF) =  -380.621302124     A.U. after   15 cycles
 Normal termination of Gaussian 16 at Wed Apr  9 03:40:02 2025.
 Gaussian 16:  ES64L-G16RevC.01  3-Jul-2019

 ----------------------------------------------------------------------
 #t hf aug-cc-pvdz iop(5/13=1,5/36=2,99/5=2) pseudo=read geom=check gue
 ss=(read,tcheck) scf=(maxcycle=1)
 ----------------------------------------------------------------------
 -----
 title
 -----
 Structure from the checkpoint file:  "Grambow2020_wb97xd3_007508_forward_mol1.chk"
 Charge =  0 Multiplicity = 1

                         Standard orientation:
 ---------------------------------------------------------------------
 Center     Atomic      Atomic             Coordinates (Angstroms)
 Number     Number       Type             X           Y           Z
 ---------------------------------------------------------------------
      1          8           0       -2.850933   -0.476108   -0.200996
      2          6           0       -1.643274   -0.029809   -0.065418
      3          6           0        0.398455    1.786238   -0.480932
      4          6           0        0.812739    0.675340    0.211291
      5          8           0        0.272393    0.267432    1.291686
      6          6           0        1.823069   -0.287546   -0.404072
      7          8           0        1.390242   -1.615263   -0.180602
      8          1           0       -2.871385   -1.313744   -0.679975
      9          1           0       -0.831119   -0.587298   -0.503600
     10          1           0       -1.539895    0.893210    0.469129
     11          1           0       -0.217093    2.536333    0.001011
     12          1           0        0.848260    2.045811   -1.430961
     13          1           0        1.919498   -0.137702   -1.480149
     14          1           0        2.806030   -0.116473    0.054565
     15          1           0        1.046154   -1.593971    0.724064
 ---------------------------------------------------------------------

 SCF Done:  E(RHF) =  -380.743331863     A.U. after    2 cycles

 The electronic state is 1-A.
 Alpha  occ. eigenvalues --  -20.72406 -20.55842 -20.50933 -11.43683 -11.28132
 Alpha  occ. eigenvalues --  -11.27134 -11.19933  -1.49715  -1.32338  -1.27296
 Alpha  occ. eigenvalues --   -1.01030  -0.98930  -0.90034  -0.84983  -0.77019
 Alpha  occ. eigenvalues --   -0.73387  -0.68888  -0.67728  -0.64809  -0.62363
 Alpha  occ. eigenvalues --   -0.61752  -0.56647  -0.55459  -0.51696  -0.48075
 Alpha  occ. eigenvalues --   -0.45665  -0.40252  -0.29965
 Alpha virt. eigenvalues --    0.01141   0.03255   0.04682   0.05067   0.05893
 Alpha virt. eigenvalues --    0.06552   0.06925   0.07750   0.08576   0.10212
 Alpha virt. eigenvalues --    0.11419   0.12699   0.14051   0.14528   0.15090

 Mulliken charges:
               1
     1  O   -0.334253
     2  C    1.078030
     3  C    0.850434
     4  C   -0.053553
     5  O   -0.825155
     6  C    0.800833
     7  O   -0.596887
     8  H    0.212307
     9  H   -0.173584
    10  H   -0.098989
    11  H   -0.369309
    12  H   -0.389846
    13  H   -0.239587
    14  H   -0.056272
    15  H    0.195830
 Sum of Mulliken charges =   0.00000

 Dipole moment (field-independent basis, Debye):
    X=             -4.6799    Y=             -1.4300    Z=             -2.7921  Tot=              5.6340

 Test job not archived.
 1\1\GINC-SE123\SP\RHF\Aug-CC-pVDZ\C4H8O3\OHZDE\09-Apr-2025\0\\#t hf au
 g-cc-pvdz iop(5/13=1,5/36=2,99/5=2) pseudo=read geom=check guess=(read
 ,tcheck) scf=(maxcycle=1)\\title\\0,1\O,0,-1.74699168,1.79543758,-1.33
 242928\C,0,-1.11559239,0.85323933,-0.70824782\C,0,-0.87362582,-1.15234
 747,1.17812626\C,0,0.2983588,-0.91920822,0.50211169\O,0,0.40724169,-0.
 95709381,-0.76766168\C,0,1.51737959,-0.36752786,1.23438738\O,0,2.10034
 243,0.65698732,0.45295816\H,0,-1.33398961,2.65651136,-1.19295356\H,0,-
 0.26155293,1.1124038,-0.10339867\H,0,-1.50982486,-0.13615679,-0.826848

 Normal termination of Gaussian 16 at Wed Apr  9 03:40:06 2025.
