 Gaussian 16, Revision C.01,

 ----------------------------------------------------------------------
 #t hf aug-cc-pvdz symm=none int=(grid=ultrafine) guess=(read,tcheck) s
 table=(opt,rrhf)
 ----------------------------------------------------------------------
 -----
 title
 -----
 Symbolic Z-matrix:
 Charge =  0 Multiplicity = 1

 SCF Done:  E(RHF) =  -309.073838628     A.U. after   14 cycles

 1\1\GINC-SE072\Stability\RHF\Aug-CC-pVDZ\C6H12O1\OHZDE\09-Apr-2025\0\\
 #t hf aug-cc-pvdz symm=none int=(grid=ultrafine) guess=(read,tcheck) s
 table=(opt,rrhf)\\title\\0,1\C,0,-1.36084335,-1.20195508,-1.03009819\C
 ,0,-0.24171024,-0.64628632,-0.1930298\C,0,-0.67524861,0.17520481,0.994
 8535\C,0,-1.01636697,1.61293197,0.59996726\O,0,0.08999852,2.29959361,0
 .05760157\C,0,1.03251913,-0.86129472,-0.5225292\C,0,2.2628853,-0.40434
 452,0.1998207\H,0,-2.04712646,-0.41327061,-1.35147952\H,0,-0.98633636,
 -1.70793412,-1.91991634\H,0,-1.95364637,-1.91674385,-0.45187597\H,0,0.

 Normal termination of Gaussian 16 at Wed Apr  9 03:27:41 2025.
 Gaussian 16:  ES64L-G16RevC.01  3-Jul-2019

 ----------------------------------------------------------------------
 #t hf aug-cc-pvdz iop(5/13=1,5/36=2,99/5=2) pseudo=read geom=check gue
 ss=(read,tcheck) scf=(maxcycle=1)
 ----------------------------------------------------------------------
 -----
 title
 -----
 Structure from the checkpoint file:  "Grambow2020_wb97xd3_006724_reverse_mol2.chk"
 Charge =  0 Multiplicity = 1

                         Standard orientation:
 ---------------------------------------------------------------------
 Center     Atomic      Atomic             Coordinates (Angstroms)
 Number     Number       Type             X           Y           Z
 ---------------------------------------------------------------------
      1          6           0       -0.519639    2.111054   -0.350876
      2          6           0       -0.536846    0.684736    0.125810
      3          6           0        0.642153    0.276539    0.972691
      4          6           0        1.859420   -0.083949    0.119658
      5          8           0        1.615079   -1.182509   -0.730737
      6          6           0       -1.526233   -0.140814   -0.217759
      7          6           0       -1.712742   -1.573676    0.177858
      8          1           0        0.413398    2.345763   -0.871113
      9          1           0       -1.346979    2.319856   -1.029078
     10          1           0       -0.587578    2.799376    0.496636
     11          1           0        0.814680   -0.991458   -1.228838
     12          1           0        0.399197   -0.575460    1.608402
     13          1           0        0.918572    1.104113    1.633948
     14          1           0        2.689610   -0.376004    0.764727
     15          1           0        2.186879    0.790238   -0.459752
     16          1           0       -2.314880    0.267262   -0.847036
     17          1           0       -0.884079   -1.964968    0.765097
     18          1           0       -2.633196   -1.694343    0.755705
     19          1           0       -1.812939   -2.207645   -0.707084
 ---------------------------------------------------------------------

 SCF Done:  E(RHF) =  -309.172334593     A.U. after    2 cycles

 The electronic state is 1-A.
 Alpha  occ. eigenvalues --  -20.56338 -11.28349 -11.24389 -11.23456 -11.23426
 Alpha  occ. eigenvalues --  -11.23266 -11.22957  -1.31914  -1.10044  -1.00759
 Alpha  occ. eigenvalues --   -0.97477  -0.88872  -0.85143  -0.71209  -0.69929
 Alpha  occ. eigenvalues --   -0.65109  -0.62592  -0.61411  -0.58648  -0.57342
 Alpha  occ. eigenvalues --   -0.56254  -0.53304  -0.52811  -0.50967  -0.50570
 Alpha  occ. eigenvalues --   -0.46345  -0.45174  -0.34569
 Alpha virt. eigenvalues --    0.03371   0.04095   0.04396   0.04988   0.05902
 Alpha virt. eigenvalues --    0.06381   0.06456   0.07257   0.07695   0.08934
 Alpha virt. eigenvalues --    0.09332   0.10034   0.12196   0.13156   0.13244

 Mulliken charges:
               1
     1  C    0.282715
     2  C   -0.283012
     3  C    0.276472
     4  C    0.851750
     5  O   -0.566246
     6  C    0.081541
     7  C    0.318628
     8  H   -0.021580
     9  H   -0.173947
    10  H    0.064281
    11  H    0.197641
    12  H   -0.039646
    13  H   -0.020259
    14  H   -0.186024
    15  H   -0.165906
    16  H   -0.505048
    17  H   -0.216576
    18  H    0.041132
    19  H    0.064085
 Sum of Mulliken charges =  -0.00000

 Dipole moment (field-independent basis, Debye):
    X=             -1.1042    Y=              1.5288    Z=              0.4828  Tot=              1.9466

 Test job not archived.
 1\1\GINC-SE072\SP\RHF\Aug-CC-pVDZ\C6H12O1\OHZDE\09-Apr-2025\0\\#t hf a
 ug-cc-pvdz iop(5/13=1,5/36=2,99/5=2) pseudo=read geom=check guess=(rea
 d,tcheck) scf=(maxcycle=1)\\title\\0,1\C,0,-1.36084335,-1.20195508,-1.
 03009819\C,0,-0.24171024,-0.64628632,-0.1930298\C,0,-0.67524861,0.1752
 0481,0.9948535\C,0,-1.01636697,1.61293197,0.59996726\O,0,0.08999852,2.
 29959361,0.05760157\C,0,1.03251913,-0.86129472,-0.5225292\C,0,2.262885
 3,-0.40434452,0.1998207\H,0,-2.04712646,-0.41327061,-1.35147952\H,0,-0
 .98633636,-1.70793412,-1.91991634\H,0,-1.95364637,-1.91674385,-0.45187

 Normal termination of Gaussian 16 at Wed Apr  9 03:27:49 2025.
