 Gaussian 16, Revision C.01,

 ----------------------------------------------------------------------
 #t hf aug-cc-pvdz symm=none int=(grid=ultrafine) guess=(read,tcheck) s
 table=(opt,rrhf)
 ----------------------------------------------------------------------
 -----
 title
 -----
 Symbolic Z-matrix:
 Charge =  0 Multiplicity = 1

 SCF Done:  E(RHF) =  -305.345674348     A.U. after   17 cycles
 Normal termination of Gaussian 16 at Wed Apr  9 03:52:36 2025.
 Gaussian 16:  ES64L-G16RevC.01  3-Jul-2019

 ----------------------------------------------------------------------
 #t hf aug-cc-pvdz iop(5/13=1,5/36=2,99/5=2) pseudo=read geom=check gue
 ss=(read,tcheck) scf=(maxcycle=1)
 ----------------------------------------------------------------------
 -----
 title
 -----
 Structure from the checkpoint file:  "Grambow2020_wb97xd3_008356_forward_mol1.chk"
 Charge =  0 Multiplicity = 1

                         Standard orientation:
 ---------------------------------------------------------------------
 Center     Atomic      Atomic             Coordinates (Angstroms)
 Number     Number       Type             X           Y           Z
 ---------------------------------------------------------------------
      1          6           0        2.302587   -0.291172    0.374518
      2          6           0        1.805085    0.710064   -0.270939
      3          6           0        0.375499    0.512114   -0.301758
      4          6           0       -0.729599    1.204624   -0.015240
      5          6           0       -1.848284    0.257765    0.261849
      6          8           0       -1.316446   -1.045256   -0.019639
      7          6           0       -0.011782   -0.920015   -0.265358
      8          1           0        3.239491   -0.679482    0.746104
      9          1           0       -0.817848    2.275841    0.089420
     10          1           0       -2.188455    0.298661    1.301535
     11          1           0       -2.714647    0.385431   -0.391542
     12          1           0        0.366886   -1.682403   -0.938591
     13          1           0        1.285104   -1.076286    0.651754
 ---------------------------------------------------------------------

 SCF Done:  E(RHF) =  -305.438383306     A.U. after    2 cycles

 The electronic state is 1-A.
 Alpha  occ. eigenvalues --  -20.65781 -11.38900 -11.33917 -11.28240 -11.27697
 Alpha  occ. eigenvalues --  -11.24210 -11.19666  -1.44224  -1.13642  -1.06650
 Alpha  occ. eigenvalues --   -0.98903  -0.86187  -0.82204  -0.77120  -0.72396
 Alpha  occ. eigenvalues --   -0.71002  -0.64827  -0.60890  -0.59168  -0.55784
 Alpha  occ. eigenvalues --   -0.54807  -0.51745  -0.42151  -0.33691  -0.30282
 Alpha virt. eigenvalues --    0.02084   0.02892   0.04096   0.04488   0.04996
 Alpha virt. eigenvalues --    0.05732   0.07365   0.09017   0.09339   0.11029
 Alpha virt. eigenvalues --    0.11938   0.12379   0.13081   0.14061   0.14577

 Mulliken charges:
               1
     1  C    0.441710
     2  C   -0.592217
     3  C   -0.043068
     4  C    0.079089
     5  C    0.975046
     6  O   -0.526376
     7  C    0.256457
     8  H   -0.369989
     9  H   -0.196966
    10  H   -0.035111
    11  H   -0.066571
    12  H   -0.234237
    13  H    0.312234
 Sum of Mulliken charges =   0.00000

 Dipole moment (field-independent basis, Debye):
    X=             -4.3706    Y=             -1.0838    Z=              0.7320  Tot=              4.5621

 Test job not archived.
 1\1\GINC-SE412\SP\RHF\Aug-CC-pVDZ\C6H6O1\OHZDE\09-Apr-2025\0\\#t hf au
 g-cc-pvdz iop(5/13=1,5/36=2,99/5=2) pseudo=read geom=check guess=(read
 ,tcheck) scf=(maxcycle=1)\\title\\0,1\C,0,2.06626774,-0.98061131,0.775
 67276\C,0,1.97135253,0.23295038,0.34572585\C,0,0.58058177,0.44985205,0
 .02547587\C,0,-0.37363862,1.34347045,0.29716569\C,0,-1.71116631,0.7069
 2105,0.12223598\O,0,-1.43935957,-0.60105524,-0.40242498\C,0,-0.1197901
 5,-0.79247256,-0.38490597\H,0,2.77924586,-1.6831154,1.18163014\H,0,-0.
 23771956,2.34919882,0.66633187\H,0,-2.26268213,0.61751394,1.06360399\H

 Normal termination of Gaussian 16 at Wed Apr  9 03:52:40 2025.
