 Gaussian 16, Revision C.01,

 ----------------------------------------------------------------------
 #t hf aug-cc-pvdz symm=none int=(grid=ultrafine) guess=(read,tcheck) s
 table=(opt,rrhf)
 ----------------------------------------------------------------------
 -----
 title
 -----
 Symbolic Z-matrix:
 Charge =  0 Multiplicity = 1

 SCF Done:  E(RHF) =  -344.888047409     A.U. after   15 cycles

 1\1\GINC-SE100\Stability\RHF\Aug-CC-pVDZ\C5H10O2\OHZDE\09-Apr-2025\0\\
 #t hf aug-cc-pvdz symm=none int=(grid=ultrafine) guess=(read,tcheck) s
 table=(opt,rrhf)\\title\\0,1\C,0,1.82590533,-0.15654295,-0.34783708\C,
 0,0.98345008,-0.8609711,0.71697933\O,0,-0.25441363,2.73960055,-0.75091
 451\C,0,-1.22431451,2.05325553,-0.91003884\C,0,-1.44084752,-0.39663105
 ,1.16851576\C,0,-0.48292626,-0.90081509,0.3987822\O,0,-0.82307907,-1.5
 0053658,-0.77931216\H,0,1.4913421,0.87049775,-0.50063237\H,0,1.7875429
 5,-0.66660084,-1.31440202\H,0,2.87356719,-0.13364322,-0.04592272\H,0,1

 Normal termination of Gaussian 16 at Wed Apr  9 15:48:10 2025.
 Gaussian 16:  ES64L-G16RevC.01  3-Jul-2019

 ----------------------------------------------------------------------
 #t hf aug-cc-pvdz iop(5/13=1,5/36=2,99/5=2) pseudo=read geom=check gue
 ss=(read,tcheck) scf=(maxcycle=1)
 ----------------------------------------------------------------------
 -----
 title
 -----
 Structure from the checkpoint file:  "Grambow2020_wb97xd3_007405_reverse_mol2.chk"
 Charge =  0 Multiplicity = 1

                         Standard orientation:
 ---------------------------------------------------------------------
 Center     Atomic      Atomic             Coordinates (Angstroms)
 Number     Number       Type             X           Y           Z
 ---------------------------------------------------------------------
      1          6           0       -0.788055    1.864114    0.083083
      2          6           0       -1.463085    0.677995   -0.607744
      3          8           0        2.593735    0.690142   -0.168192
      4          6           0        2.289745   -0.367472    0.307350
      5          6           0       -0.437751   -1.595425   -0.885175
      6          6           0       -0.984812   -0.658281   -0.119154
      7          8           0       -1.131134   -0.893629    1.217438
      8          1           0        0.294831    1.831951   -0.045040
      9          1           0       -0.995683    1.894746    1.156316
     10          1           0       -1.154184    2.802527   -0.334772
     11          1           0       -1.290346    0.726767   -1.682767
     12          1           0        1.578314   -0.454300    1.147976
     13          1           0        2.714372   -1.317373   -0.068293
     14          1           0       -0.305544   -1.424196   -1.943022
     15          1           0       -0.136718   -2.547882   -0.468696
     16          1           0       -2.548694    0.731143   -0.461637
     17          1           0       -1.553405   -0.141078    1.635796
 ---------------------------------------------------------------------

 SCF Done:  E(RHF) =  -345.000875124     A.U. after    2 cycles

 The electronic state is 1-A.
 Alpha  occ. eigenvalues --  -20.60716 -20.57884 -11.34326 -11.31267 -11.25206
 Alpha  occ. eigenvalues --  -11.23623 -11.21716  -1.37283  -1.36514  -1.07251
 Alpha  occ. eigenvalues --   -1.00223  -0.87432  -0.85583  -0.79825  -0.70780
 Alpha  occ. eigenvalues --   -0.69419  -0.66002  -0.65719  -0.62392  -0.59721
 Alpha  occ. eigenvalues --   -0.57492  -0.56884  -0.54714  -0.52801  -0.50648
 Alpha  occ. eigenvalues --   -0.49576  -0.44251  -0.34898
 Alpha virt. eigenvalues --    0.03089   0.04156   0.04531   0.05073   0.06074
 Alpha virt. eigenvalues --    0.06243   0.06663   0.07664   0.08455   0.09255
 Alpha virt. eigenvalues --    0.10924   0.12009   0.12124   0.13072   0.14000

 Mulliken charges:
               1
     1  C    0.528703
     2  C   -0.098920
     3  O   -0.415180
     4  C    0.711911
     5  C    0.858017
     6  C    0.482169
     7  O   -0.655680
     8  H   -0.189000
     9  H   -0.157592
    10  H   -0.048180
    11  H   -0.149186
    12  H   -0.145929
    13  H   -0.152420
    14  H   -0.350904
    15  H   -0.386401
    16  H    0.000852
    17  H    0.167738
 Sum of Mulliken charges =  -0.00000

 Dipole moment (field-independent basis, Debye):
    X=             -1.8324    Y=             -0.2860    Z=              0.8113  Tot=              2.0243

 Test job not archived.
 1\1\GINC-SE100\SP\RHF\Aug-CC-pVDZ\C5H10O2\OHZDE\09-Apr-2025\0\\#t hf a
 ug-cc-pvdz iop(5/13=1,5/36=2,99/5=2) pseudo=read geom=check guess=(rea
 d,tcheck) scf=(maxcycle=1)\\title\\0,1\C,0,1.82590533,-0.15654295,-0.3
 4783708\C,0,0.98345008,-0.8609711,0.71697933\O,0,-0.25441363,2.7396005
 5,-0.75091451\C,0,-1.22431451,2.05325553,-0.91003884\C,0,-1.44084752,-
 0.39663105,1.16851576\C,0,-0.48292626,-0.90081509,0.3987822\O,0,-0.823
 07907,-1.50053658,-0.77931216\H,0,1.4913421,0.87049775,-0.50063237\H,0
 ,1.78754295,-0.66660084,-1.31440202\H,0,2.87356719,-0.13364322,-0.0459

 Normal termination of Gaussian 16 at Wed Apr  9 15:48:17 2025.
