 Gaussian 16, Revision C.01,

 ----------------------------------------------------------------------
 #t hf aug-cc-pvdz symm=none int=(grid=ultrafine) guess=(read,tcheck) s
 table=(opt,rrhf)
 ----------------------------------------------------------------------
 -----
 title
 -----
 Symbolic Z-matrix:
 Charge =  0 Multiplicity = 1

 SCF Done:  E(RHF) =  -304.629641185     A.U. after   15 cycles
 Normal termination of Gaussian 16 at Wed Apr  9 14:17:05 2025.
 Gaussian 16:  ES64L-G16RevC.01  3-Jul-2019

 ----------------------------------------------------------------------
 #t hf aug-cc-pvdz iop(5/13=1,5/36=2,99/5=2) pseudo=read geom=check gue
 ss=(read,tcheck) scf=(maxcycle=1)
 ----------------------------------------------------------------------
 -----
 title
 -----
 Structure from the checkpoint file:  "Grambow2020_b97d3_006926_reverse_mol2.chk"
 Charge =  0 Multiplicity = 1

                         Standard orientation:
 ---------------------------------------------------------------------
 Center     Atomic      Atomic             Coordinates (Angstroms)
 Number     Number       Type             X           Y           Z
 ---------------------------------------------------------------------
      1          8           0        1.558525    1.286511   -0.162049
      2          6           0        1.090338    0.166440   -0.158309
      3          6           0        0.954064   -1.070251    0.651844
      4          6           0       -0.033814   -0.708056   -0.545606
      5          8           0       -1.390455   -0.418122   -0.440093
      6          6           0       -1.715577    0.683973    0.409939
      7          1           0       -1.254081    1.619001    0.057688
      8          1           0        1.544226   -1.971217    0.472096
      9          1           0        0.680095   -0.919870    1.699977
     10          1           0        0.127095   -1.383942   -1.388656
     11          1           0       -1.405626    0.500091    1.452271
     12          1           0       -2.806333    0.776195    0.376541
 ---------------------------------------------------------------------

 SCF Done:  E(RHF) =  -304.725854428     A.U. after    2 cycles

 The electronic state is 1-A.
 Alpha  occ. eigenvalues --  -20.60210 -20.59106 -11.36921 -11.33156 -11.29930
 Alpha  occ. eigenvalues --  -11.27099  -1.37122  -1.35387  -1.13646  -0.96254
 Alpha  occ. eigenvalues --   -0.84586  -0.77143  -0.71479  -0.69747  -0.66542
 Alpha  occ. eigenvalues --   -0.63869  -0.61126  -0.57155  -0.54366  -0.53748
 Alpha  occ. eigenvalues --   -0.51913  -0.42899  -0.40214
 Alpha virt. eigenvalues --    0.03213   0.04076   0.04552   0.06086   0.06502
 Alpha virt. eigenvalues --    0.07617   0.08104   0.09453   0.10393   0.11805
 Alpha virt. eigenvalues --    0.13129   0.13668   0.14599   0.15143   0.15455

 Mulliken charges:
               1
     1  O   -0.447519
     2  C    0.091061
     3  C    0.510791
     4  C    0.907058
     5  O   -0.680172
     6  C    0.690624
     7  H   -0.053271
     8  H   -0.196299
     9  H   -0.231942
    10  H   -0.266749
    11  H   -0.079018
    12  H   -0.244564
 Sum of Mulliken charges =   0.00000

 Dipole moment (field-independent basis, Debye):
    X=             -0.8830    Y=             -2.2918    Z=              1.0612  Tot=              2.6755

 Test job not archived.
 1\1\GINC-SE009\SP\RHF\Aug-CC-pVDZ\C4H6O2\OHZDE\09-Apr-2025\0\\#t hf au
 g-cc-pvdz iop(5/13=1,5/36=2,99/5=2) pseudo=read geom=check guess=(read
 ,tcheck) scf=(maxcycle=1)\\title\\0,1\O,0,-0.70934126,-1.76283947,-1.2
 8379441\C,0,-0.93924861,-0.70385685,-0.73655456\C,0,-1.49029307,-0.090
 35021,0.49806343\C,0,-0.49669,0.68084613,-0.48121247\O,0,0.7958463,1.1
 0187206,-0.18497327\C,0,1.6971988,0.06926071,0.22018003\H,0,1.82175035
 ,-0.6925176,-0.56436896\H,0,-2.48461009,0.35784371,0.55094273\H,0,-1.1
 5332064,-0.53705682,1.43782927\H,0,-1.02530391,1.47888773,-1.00765727\

 Normal termination of Gaussian 16 at Wed Apr  9 14:17:09 2025.
