 Gaussian 16, Revision C.01,

 ----------------------------------------------------------------------
 #t hf aug-cc-pvdz symm=none int=(grid=ultrafine) guess=(read,tcheck) s
 table=(opt,rrhf)
 ----------------------------------------------------------------------
 -----
 title
 -----
 Symbolic Z-matrix:
 Charge =  0 Multiplicity = 1

 SCF Done:  E(RHF) =  -302.761034191     A.U. after   15 cycles
 Normal termination of Gaussian 16 at Wed Apr  9 16:15:09 2025.
 Gaussian 16:  ES64L-G16RevC.01  3-Jul-2019

 ----------------------------------------------------------------------
 #t hf aug-cc-pvdz iop(5/13=1,5/36=2,99/5=2) pseudo=read geom=check gue
 ss=(read,tcheck) scf=(maxcycle=1)
 ----------------------------------------------------------------------
 -----
 title
 -----
 Structure from the checkpoint file:  "Grambow2020_wb97xd3_008035_reverse_mol1.chk"
 Charge =  0 Multiplicity = 1

                         Standard orientation:
 ---------------------------------------------------------------------
 Center     Atomic      Atomic             Coordinates (Angstroms)
 Number     Number       Type             X           Y           Z
 ---------------------------------------------------------------------
      1          6           0        1.250099    1.409473    0.135738
      2          6           0       -0.058678    1.108258    0.473840
      3          6           0       -1.127397    0.838808   -0.567942
      4          7           0       -1.665861   -0.421304   -0.077783
      5          6           0       -0.560006   -1.015223    0.618254
      6          6           0        0.604096   -1.338118   -0.006629
      7          7           0        1.675953   -1.131812   -0.480814
      8          1           0        1.451479    1.733512   -0.882907
      9          1           0        1.908417    1.821402    0.892650
     10          1           0        1.753839    0.096847   -0.158110
     11          1           0       -0.416302    1.275965    1.483198
     12          1           0       -0.654161    0.759949   -1.556131
     13          1           0       -1.888731    1.623600   -0.622766
     14          1           0       -2.125213   -1.008777   -0.759458
     15          1           0       -0.748649   -1.449870    1.594132
 ---------------------------------------------------------------------

 SCF Done:  E(RHF) =  -302.850201925     A.U. after    2 cycles

 The electronic state is 1-A.
 Alpha  occ. eigenvalues --  -15.63678 -15.63443 -11.29547 -11.29105 -11.29037
 Alpha  occ. eigenvalues --  -11.28356 -11.22811  -1.23453  -1.19160  -1.05466
 Alpha  occ. eigenvalues --   -0.97624  -0.90683  -0.79368  -0.71898  -0.69348
 Alpha  occ. eigenvalues --   -0.66463  -0.64552  -0.59576  -0.58720  -0.56000
 Alpha  occ. eigenvalues --   -0.53994  -0.50995  -0.46083  -0.39930  -0.36817
 Alpha  occ. eigenvalues --   -0.33917
 Alpha virt. eigenvalues --    0.03190   0.03666   0.04189   0.04955   0.06311
 Alpha virt. eigenvalues --    0.06831   0.07275   0.08180   0.09118   0.10538
 Alpha virt. eigenvalues --    0.12253   0.12399   0.13508   0.14090   0.14226

 Mulliken charges:
               1
     1  C    0.037841
     2  C    0.320624
     3  C    0.837751
     4  N   -0.595272
     5  C    1.127620
     6  C   -0.632293
     7  N   -0.316207
     8  H   -0.069886
     9  H   -0.195647
    10  H    0.445015
    11  H   -0.324619
    12  H   -0.244182
    13  H   -0.120977
    14  H   -0.040010
    15  H   -0.229756
 Sum of Mulliken charges =  -0.00000

 Dipole moment (field-independent basis, Debye):
    X=             -1.9716    Y=              1.4837    Z=              0.3064  Tot=              2.4864

 Test job not archived.
 1\1\GINC-SE043\SP\RHF\Aug-CC-pVDZ\C5H8N2\OHZDE\09-Apr-2025\0\\#t hf au
 g-cc-pvdz iop(5/13=1,5/36=2,99/5=2) pseudo=read geom=check guess=(read
 ,tcheck) scf=(maxcycle=1)\\title\\0,1\C,0,1.50904227,-0.30939149,-0.71
 975868\C,0,0.76975604,0.50192996,0.12472609\C,0,-0.4859802,1.22068251,
 -0.32979877\N,0,-1.41436156,0.82424976,0.71854789\C,0,-0.90875611,-0.4
 4530839,1.15753425\C,0,-0.82018403,-1.51938401,0.32784222\N,0,-0.33808
 859,-2.19849744,-0.52226326\H,0,1.35051174,-0.20833615,-1.7911358\H,0,
 2.5098993,-0.60435332,-0.42434697\H,0,0.7168737,-1.50723123,-0.6925916

 Normal termination of Gaussian 16 at Wed Apr  9 16:15:32 2025.
