 Gaussian 16, Revision C.01,

 ----------------------------------------------------------------------
 #t hf aug-cc-pvdz symm=none int=(grid=ultrafine) guess=(read,tcheck) s
 table=(opt,rrhf)
 ----------------------------------------------------------------------
 -----
 title
 -----
 Symbolic Z-matrix:
 Charge =  0 Multiplicity = 1

 SCF Done:  E(RHF) =  -283.478101577     A.U. after   15 cycles
 Normal termination of Gaussian 16 at Wed Apr  9 14:25:09 2025.
 Gaussian 16:  ES64L-G16RevC.01  3-Jul-2019

 ----------------------------------------------------------------------
 #t hf aug-cc-pvdz iop(5/13=1,5/36=2,99/5=2) pseudo=read geom=check gue
 ss=(read,tcheck) scf=(maxcycle=1)
 ----------------------------------------------------------------------
 -----
 title
 -----
 Structure from the checkpoint file:  "Grambow2020_wb97xd3_006234_forward_mol1.chk"
 Charge =  0 Multiplicity = 1

                         Standard orientation:
 ---------------------------------------------------------------------
 Center     Atomic      Atomic             Coordinates (Angstroms)
 Number     Number       Type             X           Y           Z
 ---------------------------------------------------------------------
      1          8           0       -2.101866    0.064347   -0.039239
      2          6           0       -0.921984   -0.057998   -0.026993
      3          6           0        0.310029    1.276033    0.065041
      4          6           0        1.741685    0.568484   -0.052785
      5          6           0        1.369754   -0.726830   -0.015086
      6          7           0       -0.047020   -1.053518    0.060828
      7          1           0        0.077817    1.041763    1.105587
      8          1           0        0.076823    2.311669   -0.156307
      9          1           0        0.353174    0.736724   -0.907247
     10          1           0        2.022387   -1.588013    0.008929
     11          1           0       -0.383033   -2.000435    0.016091
 ---------------------------------------------------------------------

 SCF Done:  E(RHF) =  -283.562853401     A.U. after    2 cycles

 The electronic state is 1-A.
 Alpha  occ. eigenvalues --  -20.60631 -15.70910 -11.45059 -11.30476 -11.27593
 Alpha  occ. eigenvalues --  -11.23006  -1.42239  -1.28414  -1.09605  -0.98324
 Alpha  occ. eigenvalues --   -0.84231  -0.77837  -0.74149  -0.73191  -0.67426
 Alpha  occ. eigenvalues --   -0.62588  -0.61405  -0.56899  -0.51589  -0.48967
 Alpha  occ. eigenvalues --   -0.34084  -0.32749
 Alpha virt. eigenvalues --    0.02575   0.03387   0.04627   0.05134   0.05768
 Alpha virt. eigenvalues --    0.09199   0.09868   0.10117   0.11047   0.12688
 Alpha virt. eigenvalues --    0.13287   0.13804   0.14226   0.14684   0.15309

 Mulliken charges:
               1
     1  O   -0.368039
     2  C    0.030593
     3  C   -0.322485
     4  C   -0.531984
     5  C    0.861520
     6  N   -0.376904
     7  H    0.390027
     8  H   -0.228720
     9  H    0.920270
    10  H   -0.311062
    11  H   -0.063217
 Sum of Mulliken charges =  -0.00000

 Dipole moment (field-independent basis, Debye):
    X=             -1.3865    Y=             -1.8769    Z=              0.2220  Tot=              2.3440

 Test job not archived.
 1\1\GINC-SE037\SP\RHF\Aug-CC-pVDZ\C4H5N1O1\OHZDE\09-Apr-2025\0\\#t hf
 aug-cc-pvdz iop(5/13=1,5/36=2,99/5=2) pseudo=read geom=check guess=(re
 ad,tcheck) scf=(maxcycle=1)\\title\\0,1\O,0,-1.47584505,1.84857216,0.1
 1069729\C,0,-0.64178921,1.0056746,0.07732349\C,0,-0.90359602,-0.775599
 02,-0.17661879\C,0,0.53579116,-1.46206783,-0.03145413\C,0,1.31302345,-
 0.36476835,0.06568702\N,0,0.68517629,0.94882288,0.06103363\H,0,-0.8068
 1346,-0.36405635,-1.18300082\H,0,-1.86794352,-1.25489787,-0.04922839\H
 ,0,-0.51289695,-0.5538517,0.84134153\H,0,2.39271087,-0.33690952,0.1061

 Normal termination of Gaussian 16 at Wed Apr  9 14:25:13 2025.
