 Gaussian 16, Revision C.01,

 ----------------------------------------------------------------------
 #t hf aug-cc-pvdz symm=none int=(grid=ultrafine) guess=(read,tcheck) s
 table=(opt,rrhf)
 ----------------------------------------------------------------------
 -----
 title
 -----
 Symbolic Z-matrix:
 Charge =  0 Multiplicity = 1

 SCF Done:  E(RHF) =  -380.667779925     A.U. after   14 cycles
 Normal termination of Gaussian 16 at Wed Apr  9 03:40:28 2025.
 Gaussian 16:  ES64L-G16RevC.01  3-Jul-2019

 ----------------------------------------------------------------------
 #t hf aug-cc-pvdz iop(5/13=1,5/36=2,99/5=2) pseudo=read geom=check gue
 ss=(read,tcheck) scf=(maxcycle=1)
 ----------------------------------------------------------------------
 -----
 title
 -----
 Structure from the checkpoint file:  "Grambow2020_wb97xd3_007515_reverse_mol2.chk"
 Charge =  0 Multiplicity = 1

                         Standard orientation:
 ---------------------------------------------------------------------
 Center     Atomic      Atomic             Coordinates (Angstroms)
 Number     Number       Type             X           Y           Z
 ---------------------------------------------------------------------
      1          8           0        2.172756   -0.935979    0.664564
      2          6           0        2.164655   -0.080127   -0.454509
      3          6           0        1.142158    0.999115   -0.222741
      4          6           0       -0.991192    0.728655    0.703710
      5          8           0       -0.175930    0.425088   -0.259858
      6          6           0       -2.271386   -0.001072    0.480599
      7          8           0       -2.430698   -0.794995   -0.668665
      8          1           0        2.715470   -1.701676    0.474391
      9          1           0        1.918162   -0.622580   -1.375721
     10          1           0        3.138246    0.406668   -0.598743
     11          1           0        1.190571    1.741419   -1.021435
     12          1           0        1.268889    1.478522    0.748017
     13          1           0       -2.401574   -0.596592    1.398390
     14          1           0       -3.060541    0.760426    0.513893
     15          1           0       -1.563658   -0.898529   -1.069484
 ---------------------------------------------------------------------

 SCF Done:  E(RHF) =  -380.789553885     A.U. after    2 cycles

 The electronic state is 1-A.
 Alpha  occ. eigenvalues --  -20.64298 -20.58975 -20.56483 -11.31044 -11.30943
 Alpha  occ. eigenvalues --  -11.30250 -11.28144  -1.42125  -1.34468  -1.31877
 Alpha  occ. eigenvalues --   -1.06160  -0.97244  -0.88234  -0.80484  -0.75071
 Alpha  occ. eigenvalues --   -0.72802  -0.68234  -0.66442  -0.64896  -0.62390
 Alpha  occ. eigenvalues --   -0.60476  -0.57752  -0.55075  -0.52495  -0.51326
 Alpha  occ. eigenvalues --   -0.48241  -0.46018  -0.36331
 Alpha virt. eigenvalues --    0.02695   0.04033   0.04600   0.05045   0.06282
 Alpha virt. eigenvalues --    0.06673   0.07020   0.07896   0.10591   0.10771
 Alpha virt. eigenvalues --    0.12085   0.12633   0.13211   0.13916   0.14880

 Mulliken charges:
               1
     1  O   -0.555648
     2  C    0.795712
     3  C    0.646328
     4  C   -0.322212
     5  O   -0.464253
     6  C    0.729153
     7  O   -0.571029
     8  H    0.143519
     9  H   -0.162436
    10  H   -0.072416
    11  H   -0.172066
    12  H   -0.113539
    13  H   -0.016929
    14  H   -0.038682
    15  H    0.174498
 Sum of Mulliken charges =  -0.00000

 Dipole moment (field-independent basis, Debye):
    X=              3.8064    Y=              0.0616    Z=             -1.7765  Tot=              4.2009

 Test job not archived.
 1\1\GINC-SE162\SP\RHF\Aug-CC-pVDZ\C4H8O3\OHZDE\09-Apr-2025\0\\#t hf au
 g-cc-pvdz iop(5/13=1,5/36=2,99/5=2) pseudo=read geom=check guess=(read
 ,tcheck) scf=(maxcycle=1)\\title\\0,1\O,0,-1.63891362,1.60075737,-0.09
 709\C,0,-1.66207035,0.37342172,-0.78845359\C,0,-1.13481046,-0.69932791
 ,0.12542958\C,0,0.70010512,-0.52838065,1.56990332\O,0,0.27122251,-0.49
 189104,0.34516009\C,0,2.16495681,-0.25396167,1.56088512\O,0,2.83323257
 ,-0.07266382,0.33734888\H,0,-1.83976602,2.31180731,-0.70623934\H,0,-1.
 04865214,0.41048822,-1.69729444\H,0,-2.68264428,0.09255504,-1.08033413

 Normal termination of Gaussian 16 at Wed Apr  9 03:40:32 2025.
