 Gaussian 16, Revision C.01,

 ----------------------------------------------------------------------
 #t hf aug-cc-pvdz symm=none int=(grid=ultrafine) guess=(read,tcheck) s
 table=(opt,rrhf)
 ----------------------------------------------------------------------
 -----
 title
 -----
 Symbolic Z-matrix:
 Charge =  0 Multiplicity = 1

 SCF Done:  E(RHF) =  -354.786196148     A.U. after   14 cycles
 Normal termination of Gaussian 16 at Wed Apr  9 16:06:48 2025.
 Gaussian 16:  ES64L-G16RevC.01  3-Jul-2019

 ----------------------------------------------------------------------
 #t hf aug-cc-pvdz iop(5/13=1,5/36=2,99/5=2) pseudo=read geom=check gue
 ss=(read,tcheck) scf=(maxcycle=1)
 ----------------------------------------------------------------------
 -----
 title
 -----
 Structure from the checkpoint file:  "Grambow2020_wb97xd3_007773_forward_mol2.chk"
 Charge =  0 Multiplicity = 1

                         Standard orientation:
 ---------------------------------------------------------------------
 Center     Atomic      Atomic             Coordinates (Angstroms)
 Number     Number       Type             X           Y           Z
 ---------------------------------------------------------------------
      1          6           0        2.443059   -0.397609    0.001424
      2          6           0        1.014131   -0.001264   -0.000984
      3          7           0        0.585168    1.213849   -0.000298
      4          7           0       -0.779831    1.101259   -0.001246
      5          6           0       -1.229856   -0.189548   -0.000125
      6          8           0       -2.359713   -0.620953    0.001600
      7          7           0       -0.029792   -0.893032   -0.001955
      8          1           0        2.685191   -0.981260    0.891730
      9          1           0        3.056395    0.500554   -0.008418
     10          1           0        2.683335   -0.999635   -0.876928
     11          1           0       -1.359238    1.918703    0.005299
     12          1           0        0.019203   -1.894746   -0.001886
 ---------------------------------------------------------------------

 SCF Done:  E(RHF) =  -354.893257354     A.U. after    2 cycles

 The electronic state is 1-A.
 Alpha  occ. eigenvalues --  -20.53422 -15.68919 -15.68737 -15.66794 -11.40048
 Alpha  occ. eigenvalues --  -11.34293 -11.26969  -1.40147  -1.32571  -1.19964
 Alpha  occ. eigenvalues --   -1.11027  -1.00121  -0.88151  -0.83036  -0.74612
 Alpha  occ. eigenvalues --   -0.69156  -0.67802  -0.64709  -0.60824  -0.60407
 Alpha  occ. eigenvalues --   -0.58097  -0.51780  -0.51185  -0.46768  -0.44467
 Alpha  occ. eigenvalues --   -0.34408
 Alpha virt. eigenvalues --    0.02350   0.04091   0.04553   0.04569   0.06967
 Alpha virt. eigenvalues --    0.09243   0.09675   0.09905   0.12819   0.13281
 Alpha virt. eigenvalues --    0.14335   0.14815   0.15022   0.15575   0.15935

 Mulliken charges:
               1
     1  C    0.504556
     2  C    0.408625
     3  N   -0.390870
     4  N   -0.167865
     5  C    0.626097
     6  O   -0.446775
     7  N   -0.423096
     8  H    0.029353
     9  H   -0.038815
    10  H    0.026157
    11  H   -0.030448
    12  H   -0.096919
 Sum of Mulliken charges =  -0.00000

 Dipole moment (field-independent basis, Debye):
    X=              4.2427    Y=             -0.8312    Z=              0.0077  Tot=              4.3234

 Test job not archived.
 1\1\GINC-SE043\SP\RHF\Aug-CC-pVDZ\C3H5N3O1\OHZDE\09-Apr-2025\0\\#t hf
 aug-cc-pvdz iop(5/13=1,5/36=2,99/5=2) pseudo=read geom=check guess=(re
 ad,tcheck) scf=(maxcycle=1)\\title\\0,1\C,0,1.89879622,-0.15367653,0.0
 2752139\C,0,0.41709056,-0.19218439,0.07218043\N,0,-0.28313141,-1.19069
 569,0.48832273\N,0,-1.58412237,-0.78594966,0.34866987\C,0,-1.72096658,
 0.47516274,-0.16081777\O,0,-2.71908197,1.11360316,-0.40340458\N,0,-0.3
 9016205,0.84247424,-0.33136586\H,0,2.25548032,-0.01634493,-0.99514108\
 H,0,2.28606214,-1.09442946,0.41220797\H,0,2.28723415,0.66440353,0.6370

 Normal termination of Gaussian 16 at Wed Apr  9 16:06:54 2025.
