 Gaussian 16, Revision C.01,

 ----------------------------------------------------------------------
 #t hf aug-cc-pvdz symm=none int=(grid=ultrafine) guess=(read,tcheck) s
 table=(opt,rrhf)
 ----------------------------------------------------------------------
 -----
 title
 -----
 Symbolic Z-matrix:
 Charge =  0 Multiplicity = 1

 SCF Done:  E(RHF) =  -375.736124204     A.U. after   14 cycles
 Normal termination of Gaussian 16 at Wed Apr  9 03:45:26 2025.
 Gaussian 16:  ES64L-G16RevC.01  3-Jul-2019

 ----------------------------------------------------------------------
 #t hf aug-cc-pvdz iop(5/13=1,5/36=2,99/5=2) pseudo=read geom=check gue
 ss=(read,tcheck) scf=(maxcycle=1)
 ----------------------------------------------------------------------
 -----
 title
 -----
 Structure from the checkpoint file:  "Grambow2020_wb97xd3_007858_reverse_mol2.chk"
 Charge =  0 Multiplicity = 1

                         Standard orientation:
 ---------------------------------------------------------------------
 Center     Atomic      Atomic             Coordinates (Angstroms)
 Number     Number       Type             X           Y           Z
 ---------------------------------------------------------------------
      1          7           0        1.310495   -0.724626   -1.019139
      2          6           0        1.179311    0.055669    0.073348
      3          8           0        1.892571    1.004132    0.324726
      4          6           0        0.073325   -0.365431    1.036267
      5          8           0       -1.056110   -0.956128    0.392577
      6          6           0       -1.932868   -0.240009   -0.324068
      7          7           0       -1.648331    1.054021   -0.399407
      8          1           0        1.996125   -0.473727   -1.708592
      9          1           0        0.627553   -1.429798   -1.231966
     10          1           0       -0.200870    0.493048    1.651548
     11          1           0        0.470378   -1.137511    1.695780
     12          1           0       -2.285381    1.618856   -0.930814
     13          1           0       -0.853255    1.537954    0.002148
 ---------------------------------------------------------------------

 SCF Done:  E(RHF) =  -375.854649652     A.U. after    2 cycles

 The electronic state is 1-A.
 Alpha  occ. eigenvalues --  -20.62700 -20.55471 -15.66950 -15.66238 -11.38271
 Alpha  occ. eigenvalues --  -11.32415 -11.32219  -1.40770  -1.36707  -1.20519
 Alpha  occ. eigenvalues --   -1.19560  -1.02198  -0.86035  -0.81157  -0.76656
 Alpha  occ. eigenvalues --   -0.75652  -0.72871  -0.67592  -0.65264  -0.64216
 Alpha  occ. eigenvalues --   -0.59269  -0.57936  -0.53677  -0.47634  -0.44964
 Alpha  occ. eigenvalues --   -0.43492  -0.37413
 Alpha virt. eigenvalues --    0.03053   0.03716   0.04199   0.05516   0.06716
 Alpha virt. eigenvalues --    0.07650   0.09726   0.10644   0.11305   0.13357
 Alpha virt. eigenvalues --    0.13505   0.13960   0.14370   0.14867   0.15335

 Mulliken charges:
               1
     1  N   -0.116914
     2  C    0.414195
     3  O   -0.533809
     4  C    0.775816
     5  O   -0.543768
     6  C    0.107483
     7  N    0.027272
     8  H   -0.029990
     9  H    0.024552
    10  H   -0.048071
    11  H   -0.140238
    12  H    0.012484
    13  H    0.050988
 Sum of Mulliken charges =  -0.00000

 Dipole moment (field-independent basis, Debye):
    X=              0.1738    Y=              0.2379    Z=             -0.9157  Tot=              0.9620

 Test job not archived.
 1\1\GINC-SE049\SP\RHF\Aug-CC-pVDZ\C3H6N2O2\OHZDE\09-Apr-2025\0\\#t hf
 aug-cc-pvdz iop(5/13=1,5/36=2,99/5=2) pseudo=read geom=check guess=(re
 ad,tcheck) scf=(maxcycle=1)\\title\\0,1\N,0,-1.56811903,0.92418573,-0.
 18979561\C,0,-1.16629659,-0.34961304,-0.00118794\O,0,-1.66613082,-1.31
 114262,-0.54629394\C,0,-0.03783565,-0.52565884,1.01040812\O,0,0.881145
 75,0.56671065,1.04335835\C,0,1.77149735,0.78868836,0.06708424\N,0,1.70
 922655,-0.07821602,-0.93578661\H,0,-2.28113007,1.10633294,-0.87303908\
 H,0,-1.05069985,1.68986667,0.20388446\H,0,0.45699663,-1.4795026,0.8205

 Normal termination of Gaussian 16 at Wed Apr  9 03:45:30 2025.
