 Gaussian 16, Revision C.01,

 ----------------------------------------------------------------------
 #t hf aug-cc-pvdz symm=none int=(grid=ultrafine) guess=(read,tcheck) s
 table=(opt,rrhf)
 ----------------------------------------------------------------------
 -----
 title
 -----
 Symbolic Z-matrix:
 Charge =  0 Multiplicity = 1

 SCF Done:  E(RHF) =  -264.972326227     A.U. after   15 cycles
 Normal termination of Gaussian 16 at Wed Apr  9 03:07:55 2025.
 Gaussian 16:  ES64L-G16RevC.01  3-Jul-2019

 ----------------------------------------------------------------------
 #t hf aug-cc-pvdz iop(5/13=1,5/36=2,99/5=2) pseudo=read geom=check gue
 ss=(read,tcheck) scf=(maxcycle=1)
 ----------------------------------------------------------------------
 -----
 title
 -----
 Structure from the checkpoint file:  "Grambow2020_b97d3_006626_forward_mol1.chk"
 Charge =  0 Multiplicity = 1

                         Standard orientation:
 ---------------------------------------------------------------------
 Center     Atomic      Atomic             Coordinates (Angstroms)
 Number     Number       Type             X           Y           Z
 ---------------------------------------------------------------------
      1          6           0       -2.083560    0.157363    0.163852
      2          6           0       -0.930093   -0.719640   -0.324903
      3          6           0        0.387219   -0.497778    0.394216
      4          7           0        1.426243   -1.271225   -0.020709
      5          6           0        0.991587    1.536937    0.506815
      6          7           0        0.677828    1.460822   -0.645332
      7          1           0       -1.846024    1.215168    0.017197
      8          1           0       -2.283543   -0.015826    1.230896
      9          1           0       -2.999088   -0.081988   -0.393202
     10          1           0       -1.174835   -1.783112   -0.146830
     11          1           0       -0.783942   -0.605127   -1.406481
     12          1           0        0.312309   -0.416327    1.475347
     13          1           0        1.549315   -1.340432   -1.029120
     14          1           0        2.306393   -1.160825    0.474604
 ---------------------------------------------------------------------

 SCF Done:  E(RHF) =  -265.050876674     A.U. after    2 cycles

 The electronic state is 1-A.
 Alpha  occ. eigenvalues --  -15.68051 -15.60629 -11.38872 -11.27094 -11.23933
 Alpha  occ. eigenvalues --  -11.22127  -1.24361  -1.14225  -1.06047  -0.92519
 Alpha  occ. eigenvalues --   -0.84239  -0.73853  -0.68947  -0.64698  -0.60264
 Alpha  occ. eigenvalues --   -0.56681  -0.55595  -0.53751  -0.52042  -0.49803
 Alpha  occ. eigenvalues --   -0.42519  -0.41423  -0.39988
 Alpha virt. eigenvalues --    0.02692   0.03520   0.03634   0.05398   0.06421
 Alpha virt. eigenvalues --    0.06643   0.07930   0.09043   0.09767   0.10250
 Alpha virt. eigenvalues --    0.11582   0.13073   0.13476   0.14541   0.14880

 Mulliken charges:
               1
     1  C    0.312310
     2  C    0.196667
     3  C    0.675687
     4  N   -0.349297
     5  C   -0.185120
     6  N   -0.396713
     7  H    0.005271
     8  H   -0.020198
     9  H   -0.049864
    10  H    0.028094
    11  H   -0.101985
    12  H   -0.202256
    13  H    0.060559
    14  H    0.026846
 Sum of Mulliken charges =   0.00000

 Dipole moment (field-independent basis, Debye):
    X=             -0.5653    Y=             -5.1260    Z=              0.1741  Tot=              5.1601

 Test job not archived.
 1\1\GINC-SE021\SP\RHF\Aug-CC-pVDZ\C4H8N2\OHZDE\09-Apr-2025\0\\#t hf au
 g-cc-pvdz iop(5/13=1,5/36=2,99/5=2) pseudo=read geom=check guess=(read
 ,tcheck) scf=(maxcycle=1)\\title\\0,1\C,0,-1.81059536,0.17325724,0.087
 76945\C,0,-0.53709676,-0.5874422,-0.28376759\C,0,0.7228361,-0.0923443,
 0.40115044\N,0,1.86720556,-0.75810103,0.08947427\C,0,1.03474886,2.0048
 4503,0.25111129\N,0,0.7559434,1.73913832,-0.88173809\H,0,-1.72056219,1
 .22659898,-0.19373858\H,0,-2.00399715,0.11094706,1.16817872\H,0,-2.673
 29059,-0.26173594,-0.43407913\H,0,-0.6340489,-1.64336192,0.02962521\H,

 Normal termination of Gaussian 16 at Wed Apr  9 03:07:59 2025.
