 Gaussian 16, Revision C.01,

 ----------------------------------------------------------------------
 #t hf aug-cc-pvdz symm=none int=(grid=ultrafine) guess=(read,tcheck) s
 table=(opt,rrhf)
 ----------------------------------------------------------------------
 -----
 title
 -----
 Symbolic Z-matrix:
 Charge =  0 Multiplicity = 1

 SCF Done:  E(RHF) =  -323.867274093     A.U. after   13 cycles
 Normal termination of Gaussian 16 at Wed Apr  9 15:58:05 2025.
 Gaussian 16:  ES64L-G16RevC.01  3-Jul-2019

 ----------------------------------------------------------------------
 #t hf aug-cc-pvdz iop(5/13=1,5/36=2,99/5=2) pseudo=read geom=check gue
 ss=(read,tcheck) scf=(maxcycle=1)
 ----------------------------------------------------------------------
 -----
 title
 -----
 Structure from the checkpoint file:  "Grambow2020_wb97xd3_007622_reverse_mol2.chk"
 Charge =  0 Multiplicity = 1

                         Standard orientation:
 ---------------------------------------------------------------------
 Center     Atomic      Atomic             Coordinates (Angstroms)
 Number     Number       Type             X           Y           Z
 ---------------------------------------------------------------------
      1          6           0       -1.176908    1.499671   -0.515681
      2          6           0       -1.318170    0.344719    0.434956
      3          7           0       -1.733427   -0.929101   -0.134905
      4          6           0       -0.392477   -0.830641    0.432587
      5          6           0        0.752879   -0.958160   -0.505716
      6          6           0        1.865022   -0.242437   -0.388434
      7          8           0        2.103553    0.699847    0.556431
      8          1           0       -2.158092    1.916406   -0.750644
      9          1           0       -0.564899    2.295433   -0.084411
     10          1           0        1.319501    0.796498    1.105931
     11          1           0       -1.739895    0.598807    1.405045
     12          1           0       -2.354637   -1.427697    0.488689
     13          1           0       -0.249343   -1.305016    1.402852
     14          1           0       -0.712204    1.174826   -1.445814
     15          1           0        0.677360   -1.675047   -1.312496
     16          1           0        2.705695   -0.348192   -1.062536
 ---------------------------------------------------------------------

 SCF Done:  E(RHF) =  -323.966796536     A.U. after    2 cycles

 The electronic state is 1-A.
 Alpha  occ. eigenvalues --  -20.60281 -15.62563 -11.30284 -11.27793 -11.27676
 Alpha  occ. eigenvalues --  -11.22731 -11.22588  -1.36728  -1.24974  -1.03476
 Alpha  occ. eigenvalues --   -0.98844  -0.89301  -0.82621  -0.78133  -0.72497
 Alpha  occ. eigenvalues --   -0.68822  -0.66553  -0.60234  -0.58114  -0.57499
 Alpha  occ. eigenvalues --   -0.56852  -0.55049  -0.50984  -0.47487  -0.46082
 Alpha  occ. eigenvalues --   -0.39615  -0.34208
 Alpha virt. eigenvalues --    0.02966   0.04127   0.04262   0.04583   0.05993
 Alpha virt. eigenvalues --    0.06666   0.07107   0.07761   0.08046   0.12346
 Alpha virt. eigenvalues --    0.12406   0.12749   0.13242   0.13767   0.14428

 Mulliken charges:
               1
     1  C    0.567217
     2  C   -0.264975
     3  N   -0.600862
     4  C    0.573320
     5  C    0.700457
     6  C    0.618908
     7  O   -0.505659
     8  H   -0.012532
     9  H    0.017283
    10  H    0.179442
    11  H   -0.348153
    12  H   -0.000677
    13  H   -0.311826
    14  H    0.037656
    15  H   -0.345718
    16  H   -0.303881
 Sum of Mulliken charges =   0.00000

 Dipole moment (field-independent basis, Debye):
    X=             -1.1269    Y=             -0.1160    Z=              1.5824  Tot=              1.9461

 Test job not archived.
 1\1\GINC-SE114\SP\RHF\Aug-CC-pVDZ\C5H9N1O1\OHZDE\09-Apr-2025\0\\#t hf
 aug-cc-pvdz iop(5/13=1,5/36=2,99/5=2) pseudo=read geom=check guess=(re
 ad,tcheck) scf=(maxcycle=1)\\title\\0,1\C,0,-1.0872245,0.48821801,1.25
 35041\C,0,-1.1470357,0.32207853,-0.23860928\N,0,-0.60452121,1.40731674
 ,-1.04342761\C,0,0.06904945,0.11329852,-1.08473618\C,0,1.44394144,0.04
 53894,-0.52475729\C,0,1.89417352,-1.00042473,0.15820587\O,0,1.18247828
 ,-2.11378631,0.46066709\H,0,-1.88790785,1.14875736,1.59142557\H,0,-1.2
 0081852,-0.47109409,1.76399662\H,0,0.28309444,-2.00740408,0.13536657\H

 Normal termination of Gaussian 16 at Wed Apr  9 15:58:11 2025.
