 Gaussian 16, Revision C.01,

 ----------------------------------------------------------------------
 #t hf aug-cc-pvdz symm=none int=(grid=ultrafine) guess=(read,tcheck) s
 table=(opt,rrhf)
 ----------------------------------------------------------------------
 -----
 title
 -----
 Symbolic Z-matrix:
 Charge =  0 Multiplicity = 1

 SCF Done:  E(RHF) =  -231.661912106     A.U. after   15 cycles
 Normal termination of Gaussian 16 at Wed Apr  9 14:15:15 2025.
 Gaussian 16:  ES64L-G16RevC.01  3-Jul-2019

 ----------------------------------------------------------------------
 #t hf aug-cc-pvdz iop(5/13=1,5/36=2,99/5=2) pseudo=read geom=check gue
 ss=(read,tcheck) scf=(maxcycle=1)
 ----------------------------------------------------------------------
 -----
 title
 -----
 Structure from the checkpoint file:  "Grambow2020_b97d3_006869_reverse_mol1.chk"
 Charge =  0 Multiplicity = 1

                         Standard orientation:
 ---------------------------------------------------------------------
 Center     Atomic      Atomic             Coordinates (Angstroms)
 Number     Number       Type             X           Y           Z
 ---------------------------------------------------------------------
      1          6           0        1.228148   -0.690982   -0.214109
      2          6           0        0.763641    0.718719   -0.474250
      3          6           0       -0.777963    0.702380   -0.476112
      4          6           0       -1.212829   -0.716874   -0.213598
      5          6           0        0.014740   -1.089697    0.676341
      6          6           0       -0.012874    1.003105    0.788818
      7          1           0        2.167693   -0.743278    0.353399
      8          1           0        1.297856   -1.357298   -1.087768
      9          1           0        1.301884    1.496960   -1.020311
     10          1           0       -1.331386    1.467473   -1.025857
     11          1           0       -2.150713   -0.785289    0.356340
     12          1           0       -1.276524   -1.384237   -1.086936
     13          1           0       -0.002422   -0.126373    1.541733
     14          1           0       -0.023567    1.872144    1.446857
 ---------------------------------------------------------------------

 SCF Done:  E(RHF) =  -231.726121853     A.U. after    2 cycles

 The electronic state is 1-A.
 Alpha  occ. eigenvalues --  -11.28645 -11.25876 -11.25832 -11.25271 -11.23768
 Alpha  occ. eigenvalues --  -11.23742  -1.20726  -0.98116  -0.96871  -0.85825
 Alpha  occ. eigenvalues --   -0.75841  -0.73602  -0.65663  -0.63065  -0.59251
 Alpha  occ. eigenvalues --   -0.58621  -0.52834  -0.50422  -0.46467  -0.42295
 Alpha  occ. eigenvalues --   -0.41533  -0.30517
 Alpha virt. eigenvalues --    0.03024   0.04129   0.04339   0.04944   0.06452
 Alpha virt. eigenvalues --    0.06457   0.07270   0.07871   0.09485   0.10656
 Alpha virt. eigenvalues --    0.12059   0.12201   0.14121   0.14576   0.14969

 Mulliken charges:
               1
     1  C    0.546516
     2  C    0.394410
     3  C    0.395872
     4  C    0.543989
     5  C   -0.762975
     6  C    0.122732
     7  H   -0.097519
     8  H   -0.102599
     9  H   -0.360968
    10  H   -0.360175
    11  H   -0.096154
    12  H   -0.109747
    13  H    0.350886
    14  H   -0.464267
 Sum of Mulliken charges =  -0.00000

 Dipole moment (field-independent basis, Debye):
    X=             -0.0290    Y=              2.3948    Z=             -1.2847  Tot=              2.7178

 Test job not archived.
 1\1\GINC-SE168\SP\RHF\Aug-CC-pVDZ\C6H8\OHZDE\09-Apr-2025\0\\#t hf aug-
 cc-pvdz iop(5/13=1,5/36=2,99/5=2) pseudo=read geom=check guess=(read,t
 check) scf=(maxcycle=1)\\title\\0,1\C,0,-1.18302371,-0.26122552,0.7624
 9602\C,0,-0.48434289,0.97896531,0.26805711\C,0,0.96199565,0.58137695,-
 0.08809321\C,0,1.10600367,-0.89208917,0.19556829\C,0,-0.37823869,-1.25
 448254,-0.12632109\C,0,-0.12178475,0.56356017,-1.13735474\H,0,-2.25310
 494,-0.28784161,0.51397877\H,0,-1.05461028,-0.5092344,1.82744538\H,0,-
 0.71658406,2.01304979,0.53316039\H,0,1.75451173,1.33339853,-0.07245203

 Normal termination of Gaussian 16 at Wed Apr  9 14:15:19 2025.
