 Gaussian 16, Revision C.01,

 ----------------------------------------------------------------------
 #t hf aug-cc-pvdz symm=none int=(grid=ultrafine) guess=(read,tcheck) s
 table=(opt,rrhf)
 ----------------------------------------------------------------------
 -----
 title
 -----
 Symbolic Z-matrix:
 Charge =  0 Multiplicity = 1

 SCF Done:  E(RHF) =  -339.837424665     A.U. after   15 cycles
 Normal termination of Gaussian 16 at Wed Apr  9 14:27:46 2025.
 Gaussian 16:  ES64L-G16RevC.01  3-Jul-2019

 ----------------------------------------------------------------------
 #t hf aug-cc-pvdz iop(5/13=1,5/36=2,99/5=2) pseudo=read geom=check gue
 ss=(read,tcheck) scf=(maxcycle=1)
 ----------------------------------------------------------------------
 -----
 title
 -----
 Structure from the checkpoint file:  "Grambow2020_wb97xd3_006550_forward_mol1.chk"
 Charge =  0 Multiplicity = 1

                         Standard orientation:
 ---------------------------------------------------------------------
 Center     Atomic      Atomic             Coordinates (Angstroms)
 Number     Number       Type             X           Y           Z
 ---------------------------------------------------------------------
      1          6           0        1.886967   -1.421994   -0.075070
      2          7           0        0.605806   -0.938634    0.402068
      3          6           0       -0.102504   -0.079696   -0.307388
      4          6           0       -1.469100    0.330013    0.178218
      5          8           0       -2.393563   -0.649310   -0.247594
      6          6           0        1.206620    1.654427   -0.516113
      7          7           0        0.587223    2.030212    0.404375
      8          1           0        2.606880   -0.597760   -0.093430
      9          1           0        2.239530   -2.220192    0.574481
     10          1           0        1.775537   -1.810782   -1.085994
     11          1           0        0.509430   -0.859784    1.403947
     12          1           0        0.016815   -0.140535   -1.380869
     13          1           0       -1.752422    1.270758   -0.281992
     14          1           0       -1.469855    0.468506    1.263188
     15          1           0       -2.260515   -1.453274    0.258443
 ---------------------------------------------------------------------

 SCF Done:  E(RHF) =  -339.941376917     A.U. after    2 cycles

 The electronic state is 1-A.
 Alpha  occ. eigenvalues --  -20.60794 -15.70261 -15.58394 -11.38649 -11.32608
 Alpha  occ. eigenvalues --  -11.30048 -11.19973  -1.36451  -1.28326  -1.13997
 Alpha  occ. eigenvalues --   -1.04355  -0.95494  -0.88429  -0.75951  -0.73086
 Alpha  occ. eigenvalues --   -0.69190  -0.67063  -0.63880  -0.61775  -0.58891
 Alpha  occ. eigenvalues --   -0.54984  -0.54465  -0.51756  -0.50137  -0.41985
 Alpha  occ. eigenvalues --   -0.40554  -0.39465
 Alpha virt. eigenvalues --    0.01781   0.03181   0.03586   0.05438   0.06537
 Alpha virt. eigenvalues --    0.06641   0.07023   0.08680   0.09600   0.10827
 Alpha virt. eigenvalues --    0.11733   0.12325   0.12482   0.13513   0.14228

 Mulliken charges:
               1
     1  C    0.728059
     2  N   -0.456463
     3  C    0.684763
     4  C    0.896864
     5  O   -0.544365
     6  C   -0.245064
     7  N   -0.400142
     8  H   -0.010410
     9  H   -0.191087
    10  H   -0.103234
    11  H   -0.030562
    12  H   -0.254401
    13  H   -0.114979
    14  H   -0.127278
    15  H    0.168298
 Sum of Mulliken charges =  -0.00000

 Dipole moment (field-independent basis, Debye):
    X=             -0.5039    Y=             -6.4831    Z=              1.6639  Tot=              6.7121

 Test job not archived.
 1\1\GINC-SE174\SP\RHF\Aug-CC-pVDZ\C4H8N2O1\OHZDE\09-Apr-2025\0\\#t hf
 aug-cc-pvdz iop(5/13=1,5/36=2,99/5=2) pseudo=read geom=check guess=(re
 ad,tcheck) scf=(maxcycle=1)\\title\\0,1\C,0,-1.89669553,0.63786689,0.6
 6079139\N,0,-0.52896834,0.16453296,0.74994087\C,0,0.23715415,0.0970610
 3,-0.32304973\C,0,1.67964918,-0.31394584,-0.17627643\O,0,2.42493865,0.
 83302534,0.17588981\C,0,-0.83024911,-1.25654246,-1.66206594\N,0,-0.098
 06333,-2.04027461,-1.19107444\H,0,-2.49449836,-0.07315738,0.08195514\H
 ,0,-2.30752,0.75382057,1.66134877\H,0,-1.91569415,1.60233239,0.1558318

 Normal termination of Gaussian 16 at Wed Apr  9 14:27:51 2025.
