 Gaussian 16, Revision C.01,

 ----------------------------------------------------------------------
 #t hf aug-cc-pvdz symm=none int=(grid=ultrafine) guess=(read,tcheck) s
 table=(opt,rrhf)
 ----------------------------------------------------------------------
 -----
 title
 -----
 Symbolic Z-matrix:
 Charge =  0 Multiplicity = 1

 SCF Done:  E(RHF) =  -306.586713481     A.U. after   16 cycles
 Normal termination of Gaussian 16 at Wed Apr  9 16:23:08 2025.
 Gaussian 16:  ES64L-G16RevC.01  3-Jul-2019

 ----------------------------------------------------------------------
 #t hf aug-cc-pvdz iop(5/13=1,5/36=2,99/5=2) pseudo=read geom=check gue
 ss=(read,tcheck) scf=(maxcycle=1)
 ----------------------------------------------------------------------
 -----
 title
 -----
 Structure from the checkpoint file:  "Grambow2020_wb97xd3_008170_reverse_mol2.chk"
 Charge =  0 Multiplicity = 1

                         Standard orientation:
 ---------------------------------------------------------------------
 Center     Atomic      Atomic             Coordinates (Angstroms)
 Number     Number       Type             X           Y           Z
 ---------------------------------------------------------------------
      1          6           0        0.910711    1.202476   -0.054973
      2          6           0        1.473251    0.050844   -0.809588
      3          8           0        1.203687   -1.035337   -0.146477
      4          6           0        0.383630   -0.859572    0.878381
      5          6           0       -2.163579   -0.488975   -0.535474
      6          6           0       -1.536858    0.544837    0.000568
      7          6           0       -0.217972    0.509409    0.751349
      8          1           0        1.675622    1.573757    0.649437
      9          1           0        0.572056    2.036484   -0.668430
     10          1           0        2.270690   -0.005150   -1.531312
     11          1           0       -0.058131   -1.763249    1.265895
     12          1           0       -3.097389   -0.364921   -1.069238
     13          1           0       -1.763416   -1.494742   -0.466222
     14          1           0       -1.968944    1.539115   -0.102044
     15          1           0       -0.355090    1.007284    1.712155
 ---------------------------------------------------------------------

 SCF Done:  E(RHF) =  -306.681124140     A.U. after    2 cycles

 The electronic state is 1-A.
 Alpha  occ. eigenvalues --  -20.70049 -11.29989 -11.26673 -11.25524 -11.25400
 Alpha  occ. eigenvalues --  -11.24252 -11.23031  -1.46865  -1.09718  -1.03282
 Alpha  occ. eigenvalues --   -1.00032  -0.86611  -0.80427  -0.75068  -0.74492
 Alpha  occ. eigenvalues --   -0.68775  -0.64121  -0.62872  -0.59410  -0.57122
 Alpha  occ. eigenvalues --   -0.55507  -0.53054  -0.50379  -0.48502  -0.36913
 Alpha  occ. eigenvalues --   -0.23523
 Alpha virt. eigenvalues --    0.03377   0.04247   0.04413   0.04720   0.06123
 Alpha virt. eigenvalues --    0.06390   0.06513   0.07484   0.07895   0.10203
 Alpha virt. eigenvalues --    0.11822   0.12190   0.13292   0.13642   0.14041

 Mulliken charges:
               1
     1  C    0.184722
     2  C    0.594466
     3  O   -0.310667
     4  C    0.649771
     5  C    0.424300
     6  C    0.509437
     7  C    0.001427
     8  H   -0.068597
     9  H   -0.135982
    10  H   -0.336005
    11  H   -0.382938
    12  H   -0.310416
    13  H   -0.330045
    14  H   -0.429037
    15  H   -0.060437
 Sum of Mulliken charges =  -0.00000

 Dipole moment (field-independent basis, Debye):
    X=             -0.0223    Y=              1.4941    Z=             -0.5625  Tot=              1.5966

 Test job not archived.
 1\1\GINC-SE131\SP\RHF\Aug-CC-pVDZ\C6H8O1\OHZDE\09-Apr-2025\0\\#t hf au
 g-cc-pvdz iop(5/13=1,5/36=2,99/5=2) pseudo=read geom=check guess=(read
 ,tcheck) scf=(maxcycle=1)\\title\\0,1\C,0,-1.49980841,-0.08701479,0.09
 912484\C,0,-1.01986406,-1.35895793,0.70241967\O,0,-0.07162839,-1.83032
 794,-0.05311317\C,0,0.32352711,-1.00572138,-1.01102622\C,0,1.85696051,
 0.9426644,0.56281441\C,0,0.65511437,1.24807189,0.10327141\C,0,-0.25324
 794,0.34758789,-0.71428208\H,0,-2.32172268,-0.31407715,-0.60232538\H,0
 ,-1.84946783,0.65965634,0.81102726\H,0,-1.49828643,-2.05319271,1.37255

 Normal termination of Gaussian 16 at Wed Apr  9 16:23:13 2025.
