 Gaussian 16, Revision C.01,

 ----------------------------------------------------------------------
 #t hf aug-cc-pvdz symm=none int=(grid=ultrafine) guess=(read,tcheck) s
 table=(opt,rrhf)
 ----------------------------------------------------------------------
 -----
 title
 -----
 Symbolic Z-matrix:
 Charge =  0 Multiplicity = 1

 SCF Done:  E(RHF) =  -352.255047602     A.U. after   18 cycles
 Normal termination of Gaussian 16 at Wed Apr  9 16:25:42 2025.
 Gaussian 16:  ES64L-G16RevC.01  3-Jul-2019

 ----------------------------------------------------------------------
 #t hf aug-cc-pvdz iop(5/13=1,5/36=2,99/5=2) pseudo=read geom=check gue
 ss=(read,tcheck) scf=(maxcycle=1)
 ----------------------------------------------------------------------
 -----
 title
 -----
 Structure from the checkpoint file:  "Grambow2020_wb97xd3_008228_forward_mol1.chk"
 Charge =  0 Multiplicity = 1

                         Standard orientation:
 ---------------------------------------------------------------------
 Center     Atomic      Atomic             Coordinates (Angstroms)
 Number     Number       Type             X           Y           Z
 ---------------------------------------------------------------------
      1          7           0        1.946370   -0.523372    0.579252
      2          6           0        1.740531   -0.348284   -0.574079
      3          6           0        0.237971   -0.118651   -0.195055
      4          6           0       -0.772443   -1.157792   -0.068145
      5          8           0       -1.940595   -0.923931    0.112764
      6          7           0       -0.551072    2.159576    0.075100
      7          7           0       -0.158501    1.123887   -0.042897
      8          1           0       -0.369168   -2.180820   -0.158620
 ---------------------------------------------------------------------

 SCF Done:  E(RHF) =  -352.360077126     A.U. after    2 cycles

 The electronic state is 1-A.
 Alpha  occ. eigenvalues --  -20.58826 -15.86898 -15.81267 -15.74009 -11.38177
 Alpha  occ. eigenvalues --  -11.37383 -11.31285  -1.49732  -1.38500  -1.30459
 Alpha  occ. eigenvalues --   -1.16213  -0.93867  -0.78328  -0.75740  -0.73082
 Alpha  occ. eigenvalues --   -0.71406  -0.68026  -0.66609  -0.60736  -0.58357
 Alpha  occ. eigenvalues --   -0.54192  -0.52800  -0.47451  -0.36025
 Alpha virt. eigenvalues --    0.03037   0.04102   0.05000   0.06355   0.06968
 Alpha virt. eigenvalues --    0.07392   0.09202   0.10463   0.10892   0.11194
 Alpha virt. eigenvalues --    0.12315   0.12912   0.15150   0.15484   0.16514

 Mulliken charges:
               1
     1  N   -0.164069
     2  C    0.097162
     3  C    0.449087
     4  C    0.461880
     5  O   -0.480506
     6  N   -0.252929
     7  N   -0.029816
     8  H   -0.080809
 Sum of Mulliken charges =  -0.00000

 Dipole moment (field-independent basis, Debye):
    X=              1.3412    Y=              0.7644    Z=             -0.2300  Tot=              1.5607

 Test job not archived.
 1\1\GINC-SE037\SP\RHF\Aug-CC-pVDZ\C3H1N3O1\OHZDE\09-Apr-2025\0\\#t hf
 aug-cc-pvdz iop(5/13=1,5/36=2,99/5=2) pseudo=read geom=check guess=(re
 ad,tcheck) scf=(maxcycle=1)\\title\\0,1\N,0,1.8084143,-0.3323342,-0.76
 59172\C,0,1.73134048,-0.45146154,0.41012129\C,0,0.19335961,-0.19372648
 ,0.26090641\C,0,-0.45003926,1.11116565,0.24860387\O,0,-1.64613437,1.25
 728819,0.24687689\N,0,-1.29709533,-2.10636379,0.18183141\N,0,-0.588451
 54,-1.24739802,0.20809864\H,0,0.26063312,1.95516919,0.24650869\\Versio
 n=ES64L-G16RevC.01\State=1-A\HF=-352.3600771\RMSD=4.717e-03\Dipole=0.4

 Normal termination of Gaussian 16 at Wed Apr  9 16:25:45 2025.
