 Gaussian 16, Revision C.01,

 ----------------------------------------------------------------------
 #t hf aug-cc-pvdz symm=none int=(grid=ultrafine) guess=(read,tcheck) s
 table=(opt,rrhf)
 ----------------------------------------------------------------------
 -----
 title
 -----
 Symbolic Z-matrix:
 Charge =  0 Multiplicity = 1

 SCF Done:  E(RHF) =  -360.704444009     A.U. after   15 cycles
 Normal termination of Gaussian 16 at Wed Apr  9 16:00:07 2025.
 Gaussian 16:  ES64L-G16RevC.01  3-Jul-2019

 ----------------------------------------------------------------------
 #t hf aug-cc-pvdz iop(5/13=1,5/36=2,99/5=2) pseudo=read geom=check gue
 ss=(read,tcheck) scf=(maxcycle=1)
 ----------------------------------------------------------------------
 -----
 title
 -----
 Structure from the checkpoint file:  "Grambow2020_wb97xd3_007664_reverse_mol2.chk"
 Charge =  0 Multiplicity = 1

                         Standard orientation:
 ---------------------------------------------------------------------
 Center     Atomic      Atomic             Coordinates (Angstroms)
 Number     Number       Type             X           Y           Z
 ---------------------------------------------------------------------
      1          6           0        2.113917    0.200904   -1.015164
      2          8           0        2.121710   -0.524796    0.059472
      3          6           0        1.576291   -0.295713    1.207148
      4          6           0       -1.232559   -0.332507   -0.297040
      5          7           0       -1.710297    0.721055    0.213231
      6          8           0       -0.869713    1.813810    0.005408
      7          6           0       -1.968488   -1.619690   -0.167751
      8          1           0        1.655954    1.180317   -0.989798
      9          1           0        2.676700   -0.202860   -1.838640
     10          1           0       -0.289345   -0.300460   -0.852319
     11          1           0        1.058068    0.639158    1.373252
     12          1           0        1.716281   -1.071121    1.940351
     13          1           0       -1.352493    2.538389    0.407690
     14          1           0       -1.348204   -2.355684    0.349008
     15          1           0       -2.202463   -2.028159   -1.153528
     16          1           0       -2.893359   -1.477043    0.389166
 ---------------------------------------------------------------------

 SCF Done:  E(RHF) =  -360.820032685     A.U. after    2 cycles

 The electronic state is 1-A.
 Alpha  occ. eigenvalues --  -20.71199 -20.60975 -15.68055 -11.28973 -11.28295
 Alpha  occ. eigenvalues --  -11.28146 -11.24124  -1.46819  -1.38213  -1.14623
 Alpha  occ. eigenvalues --   -1.03670  -0.97518  -0.83342  -0.77461  -0.74637
 Alpha  occ. eigenvalues --   -0.73060  -0.71422  -0.66966  -0.65651  -0.61629
 Alpha  occ. eigenvalues --   -0.58554  -0.57273  -0.56676  -0.54545  -0.52886
 Alpha  occ. eigenvalues --   -0.43824  -0.39311  -0.24909
 Alpha virt. eigenvalues --    0.03498   0.03964   0.04661   0.04698   0.05769
 Alpha virt. eigenvalues --    0.06551   0.07251   0.07587   0.08020   0.09710
 Alpha virt. eigenvalues --    0.10962   0.12886   0.13890   0.14303   0.14481

 Mulliken charges:
               1
     1  C    0.703728
     2  O   -0.218558
     3  C    0.709585
     4  C    0.703472
     5  N   -0.288510
     6  O   -0.527707
     7  C    0.115389
     8  H   -0.240413
     9  H   -0.361175
    10  H   -0.253278
    11  H   -0.198080
    12  H   -0.349827
    13  H    0.200113
    14  H    0.022377
    15  H    0.014384
    16  H   -0.031499
 Sum of Mulliken charges =  -0.00000

 Dipole moment (field-independent basis, Debye):
    X=             -0.3421    Y=             -0.3574    Z=              0.1577  Tot=              0.5193

 Test job not archived.
 1\1\GINC-SE138\SP\RHF\Aug-CC-pVDZ\C4H9N1O2\OHZDE\09-Apr-2025\0\\#t hf
 aug-cc-pvdz iop(5/13=1,5/36=2,99/5=2) pseudo=read geom=check guess=(re
 ad,tcheck) scf=(maxcycle=1)\\title\\0,1\C,0,2.37436019,0.26367142,0.17
 895943\O,0,1.82289965,-0.2197365,1.24842204\C,0,0.80998244,0.21898655,
 1.91823122\C,0,-0.93326035,-0.26254122,-0.70527966\N,0,-1.53176204,0.8
 5113753,-0.71615011\O,0,-0.62945167,1.91402002,-0.71465451\C,0,-1.7181
 5262,-1.52690603,-0.68352061\H,0,2.02065186,1.20430473,-0.22069599\H,0
 ,3.2367551,-0.27696796,-0.17010622\H,0,0.16061984,-0.30366394,-0.73265

 Normal termination of Gaussian 16 at Wed Apr  9 16:00:12 2025.
