 Gaussian 16, Revision C.01,

 ----------------------------------------------------------------------
 #t hf aug-cc-pvdz symm=none int=(grid=ultrafine) guess=(read,tcheck) s
 table=(opt,rrhf)
 ----------------------------------------------------------------------
 -----
 title
 -----
 Symbolic Z-matrix:
 Charge =  0 Multiplicity = 1

 SCF Done:  E(RHF) =  -344.703863368     A.U. after   17 cycles

 1\1\GINC-SE009\Stability\RHF\Aug-CC-pVDZ\C5H10O2\OHZDE\09-Apr-2025\0\\
 #t hf aug-cc-pvdz symm=none int=(grid=ultrafine) guess=(read,tcheck) s
 table=(opt,rrhf)\\title\\0,1\C,0,-2.18770419,-0.46589815,-0.63703089\C
 ,0,-0.80323686,0.14377672,-0.78824539\C,0,-0.05433084,-0.15085196,0.68
 822019\O,0,0.22413953,-1.40315238,0.85659807\C,0,1.02822436,0.72279011
 ,0.30599841\C,0,2.15165341,0.3725994,-0.59692616\O,0,2.11418085,-0.418
 52952,-1.49964134\H,0,-2.72018417,-0.36355818,-1.58566078\H,0,-2.10681
 277,-1.52171553,-0.38426168\H,0,-2.77006163,0.03828613,0.13517988\H,0,

 Normal termination of Gaussian 16 at Wed Apr  9 16:11:23 2025.
 Gaussian 16:  ES64L-G16RevC.01  3-Jul-2019

 ----------------------------------------------------------------------
 #t hf aug-cc-pvdz iop(5/13=1,5/36=2,99/5=2) pseudo=read geom=check gue
 ss=(read,tcheck) scf=(maxcycle=1)
 ----------------------------------------------------------------------
 -----
 title
 -----
 Structure from the checkpoint file:  "Grambow2020_wb97xd3_007840_reverse_mol1.chk"
 Charge =  0 Multiplicity = 1

                         Standard orientation:
 ---------------------------------------------------------------------
 Center     Atomic      Atomic             Coordinates (Angstroms)
 Number     Number       Type             X           Y           Z
 ---------------------------------------------------------------------
      1          6           0        2.490561   -0.566849   -0.136418
      2          6           0        1.033257   -0.760410    0.251032
      3          6           0        0.412754    0.800315    0.333054
      4          8           0        0.306451    1.348703   -0.834046
      5          6           0       -0.792361    0.282570    0.933811
      6          6           0       -1.911088   -0.373374    0.213958
      7          8           0       -1.823967   -1.007965   -0.801860
      8          1           0        2.951145   -1.549155   -0.266208
      9          1           0        2.559579   -0.013034   -1.071144
     10          1           0        3.046466   -0.030399    0.633545
     11          1           0        0.469640   -1.270933   -0.524196
     12          1           0        0.960811   -1.305236    1.192628
     13          1           0        1.058347    1.296226    1.079984
     14          1           0       -1.006706    1.982162   -0.434207
     15          1           0       -1.605425    1.952881    0.161292
     16          1           0       -0.809813    0.155249    2.015488
     17          1           0       -2.882651   -0.237177    0.727448
 ---------------------------------------------------------------------

 SCF Done:  E(RHF) =  -344.813253517     A.U. after    2 cycles

 The electronic state is 1-A.
 Alpha  occ. eigenvalues --  -20.60619 -20.50741 -11.38303 -11.36273 -11.31577
 Alpha  occ. eigenvalues --  -11.28419 -11.24263  -1.39560  -1.29028  -1.09655
 Alpha  occ. eigenvalues --   -1.03374  -0.91850  -0.83915  -0.78115  -0.74207
 Alpha  occ. eigenvalues --   -0.69173  -0.68143  -0.65128  -0.61457  -0.59722
 Alpha  occ. eigenvalues --   -0.57516  -0.55990  -0.53647  -0.52031  -0.48194
 Alpha  occ. eigenvalues --   -0.45767  -0.40637  -0.37970
 Alpha virt. eigenvalues --   -0.00135   0.02087   0.03635   0.04281   0.04820
 Alpha virt. eigenvalues --    0.06247   0.06734   0.07349   0.08057   0.09118
 Alpha virt. eigenvalues --    0.09891   0.10260   0.11660   0.12558   0.12656

 Mulliken charges:
               1
     1  C    0.313063
     2  C    0.145480
     3  C    0.902056
     4  O   -0.876026
     5  C    0.132774
     6  C    0.690542
     7  O   -0.423843
     8  H   -0.027051
     9  H    0.034803
    10  H   -0.057572
    11  H   -0.249041
    12  H   -0.135178
    13  H   -0.155101
    14  H    0.247714
    15  H   -0.057521
    16  H   -0.353517
    17  H   -0.131581
 Sum of Mulliken charges =  -0.00000

 Dipole moment (field-independent basis, Debye):
    X=              0.0401    Y=             -2.1636    Z=              5.9494  Tot=              6.3308

 Test job not archived.
 1\1\GINC-SE009\SP\RHF\Aug-CC-pVDZ\C5H10O2\OHZDE\09-Apr-2025\0\\#t hf a
 ug-cc-pvdz iop(5/13=1,5/36=2,99/5=2) pseudo=read geom=check guess=(rea
 d,tcheck) scf=(maxcycle=1)\\title\\0,1\C,0,-2.18770419,-0.46589815,-0.
 63703089\C,0,-0.80323686,0.14377672,-0.78824539\C,0,-0.05433084,-0.150
 85196,0.68822019\O,0,0.22413953,-1.40315238,0.85659807\C,0,1.02822436,
 0.72279011,0.30599841\C,0,2.15165341,0.3725994,-0.59692616\O,0,2.11418
 085,-0.41852952,-1.49964134\H,0,-2.72018417,-0.36355818,-1.58566078\H,
 0,-2.10681277,-1.52171553,-0.38426168\H,0,-2.77006163,0.03828613,0.135

 Normal termination of Gaussian 16 at Wed Apr  9 16:11:31 2025.
