 Gaussian 16, Revision C.01,

 ----------------------------------------------------------------------
 #t hf aug-cc-pvdz symm=none int=(grid=ultrafine) guess=(read,tcheck) s
 table=(opt,rrhf)
 ----------------------------------------------------------------------
 -----
 title
 -----
 Symbolic Z-matrix:
 Charge =  0 Multiplicity = 1

 SCF Done:  E(RHF) =  -380.660608574     A.U. after   14 cycles
 Normal termination of Gaussian 16 at Wed Apr  9 16:31:05 2025.
 Gaussian 16:  ES64L-G16RevC.01  3-Jul-2019

 ----------------------------------------------------------------------
 #t hf aug-cc-pvdz iop(5/13=1,5/36=2,99/5=2) pseudo=read geom=check gue
 ss=(read,tcheck) scf=(maxcycle=1)
 ----------------------------------------------------------------------
 -----
 title
 -----
 Structure from the checkpoint file:  "Grambow2020_wb97xd3_008487_reverse_mol1.chk"
 Charge =  0 Multiplicity = 1

                         Standard orientation:
 ---------------------------------------------------------------------
 Center     Atomic      Atomic             Coordinates (Angstroms)
 Number     Number       Type             X           Y           Z
 ---------------------------------------------------------------------
      1          6           0        2.696119   -0.220626   -0.063445
      2          8           0        1.590057    0.672493   -0.125257
      3          6           0        0.382559    0.129205    0.073695
      4          8           0        0.256713   -1.069958    0.358628
      5          6           0       -0.735302    0.999238   -0.135872
      6          6           0       -1.971933    0.461643    0.473806
      7          8           0       -2.202664   -0.694472   -0.511570
      8          1           0        2.603011   -1.008507   -0.811922
      9          1           0        3.576077    0.385733   -0.265154
     10          1           0        2.772225   -0.679733    0.922392
     11          1           0       -0.579711    2.061413   -0.254052
     12          1           0       -1.506533   -0.019520   -1.108672
     13          1           0       -1.909821   -0.011002    1.454852
     14          1           0       -2.842803    1.104765    0.393807
     15          1           0       -1.493943   -1.314408   -0.194764
 ---------------------------------------------------------------------

 SCF Done:  E(RHF) =  -380.783453861     A.U. after    2 cycles

 The electronic state is 1-A.
 Alpha  occ. eigenvalues --  -20.65659 -20.60286 -20.53697 -11.37627 -11.32760
 Alpha  occ. eigenvalues --  -11.28640 -11.20470  -1.41640  -1.39979  -1.30096
 Alpha  occ. eigenvalues --   -1.04857  -0.97241  -0.88188  -0.79020  -0.77739
 Alpha  occ. eigenvalues --   -0.71068  -0.69441  -0.67553  -0.66901  -0.62776
 Alpha  occ. eigenvalues --   -0.59731  -0.56970  -0.54859  -0.53198  -0.52291
 Alpha  occ. eigenvalues --   -0.47248  -0.46190  -0.33310
 Alpha virt. eigenvalues --    0.03389   0.04226   0.04996   0.05295   0.06180
 Alpha virt. eigenvalues --    0.06755   0.07140   0.07831   0.10980   0.11700
 Alpha virt. eigenvalues --    0.12416   0.13695   0.14244   0.15628   0.15852

 Mulliken charges:
               1
     1  C    0.758572
     2  O   -0.536606
     3  C    0.213428
     4  O   -0.624256
     5  C    0.195765
     6  C    0.922355
     7  O   -0.605310
     8  H   -0.062758
     9  H   -0.253816
    10  H   -0.087050
    11  H   -0.431475
    12  H    0.650541
    13  H   -0.207581
    14  H   -0.255205
    15  H    0.323397
 Sum of Mulliken charges =  -0.00000

 Dipole moment (field-independent basis, Debye):
    X=             -0.8334    Y=              0.6369    Z=              0.2442  Tot=              1.0770

 Test job not archived.
 1\1\GINC-SE087\SP\RHF\Aug-CC-pVDZ\C4H8O3\OHZDE\09-Apr-2025\0\\#t hf au
 g-cc-pvdz iop(5/13=1,5/36=2,99/5=2) pseudo=read geom=check guess=(read
 ,tcheck) scf=(maxcycle=1)\\title\\0,1\C,0,-2.65117606,-0.25604836,0.01
 290092\O,0,-1.53378809,0.57166507,0.31487581\C,0,-0.33359673,0.0909830
 1,-0.03337834\O,0,-0.22341885,-0.98310289,-0.64100956\C,0,0.79553827,0
 .85531126,0.40405223\C,0,2.02426251,0.49392927,-0.33730578\O,0,2.24193
 444,-0.89315328,0.28673449\H,0,-2.56683708,-1.22197129,0.51242511\H,0,
 -3.52305077,0.28060934,0.37966621\H,0,-2.73470131,-0.42209814,-1.06129

 Normal termination of Gaussian 16 at Wed Apr  9 16:31:10 2025.
