 Gaussian 16, Revision C.01,

 ----------------------------------------------------------------------
 #t hf aug-cc-pvdz symm=none int=(grid=ultrafine) guess=(read,tcheck) s
 table=(opt,rrhf)
 ----------------------------------------------------------------------
 -----
 title
 -----
 Symbolic Z-matrix:
 Charge =  0 Multiplicity = 1

 SCF Done:  E(RHF) =  -268.700793061     A.U. after   16 cycles
 Normal termination of Gaussian 16 at Wed Apr  9 03:16:03 2025.
 Gaussian 16:  ES64L-G16RevC.01  3-Jul-2019

 ----------------------------------------------------------------------
 #t hf aug-cc-pvdz iop(5/13=1,5/36=2,99/5=2) pseudo=read geom=check gue
 ss=(read,tcheck) scf=(maxcycle=1)
 ----------------------------------------------------------------------
 -----
 title
 -----
 Structure from the checkpoint file:  "Grambow2020_b97d3_007070_forward_mol1.chk"
 Charge =  0 Multiplicity = 1

                         Standard orientation:
 ---------------------------------------------------------------------
 Center     Atomic      Atomic             Coordinates (Angstroms)
 Number     Number       Type             X           Y           Z
 ---------------------------------------------------------------------
      1          6           0        2.203408   -0.134118   -0.049234
      2          6           0        0.704750   -0.131677   -0.042645
      3          6           0       -0.154564   -1.174117    0.080435
      4          6           0       -1.552638   -0.650882    0.080021
      5          8           0       -1.391709    0.784422   -0.139035
      6          6           0       -0.085778    1.092400   -0.228676
      7          1           0        2.587968    0.310354   -0.978181
      8          1           0        2.606186   -1.149675    0.046484
      9          1           0        2.582365    0.475927    0.783851
     10          1           0        0.097263   -2.227245    0.177503
     11          1           0       -2.094309   -0.816701    1.026510
     12          1           0       -2.177629   -1.014150   -0.748701
     13          1           0        0.546662    2.053163    1.404603
     14          1           0        0.294099    2.083316    0.360799
 ---------------------------------------------------------------------

 SCF Done:  E(RHF) =  -268.784883951     A.U. after    2 cycles

 The electronic state is 1-A.
 Alpha  occ. eigenvalues --  -20.62770 -11.32988 -11.32203 -11.27435 -11.26977
 Alpha  occ. eigenvalues --  -11.24786  -1.39841  -1.10549  -1.02273  -0.94780
 Alpha  occ. eigenvalues --   -0.83226  -0.77487  -0.71253  -0.68537  -0.63160
 Alpha  occ. eigenvalues --   -0.60075  -0.58099  -0.57522  -0.54013  -0.53090
 Alpha  occ. eigenvalues --   -0.51045  -0.39685  -0.29600
 Alpha virt. eigenvalues --    0.02765   0.03700   0.04187   0.04807   0.05660
 Alpha virt. eigenvalues --    0.06659   0.07554   0.08071   0.09461   0.10376
 Alpha virt. eigenvalues --    0.11602   0.12495   0.13163   0.13533   0.14186

 Mulliken charges:
               1
     1  C    0.392524
     2  C   -0.423386
     3  C   -0.105967
     4  C    0.856302
     5  O   -0.575030
     6  C    0.412532
     7  H    0.065232
     8  H   -0.082253
     9  H    0.067581
    10  H   -0.279130
    11  H   -0.040370
    12  H   -0.055832
    13  H   -0.197569
    14  H   -0.034635
 Sum of Mulliken charges =  -0.00000

 Dipole moment (field-independent basis, Debye):
    X=              0.1490    Y=             -3.9475    Z=             -0.7123  Tot=              4.0140

 Test job not archived.
 1\1\GINC-SE460\SP\RHF\Aug-CC-pVDZ\C5H8O1\OHZDE\09-Apr-2025\0\\#t hf au
 g-cc-pvdz iop(5/13=1,5/36=2,99/5=2) pseudo=read geom=check guess=(read
 ,tcheck) scf=(maxcycle=1)\\title\\0,1\C,0,-1.80536709,0.25678368,-0.59
 669424\C,0,-0.35528861,0.06584257,-0.26983329\C,0,0.66688752,0.9539864
 8,-0.35111902\C,0,1.91659878,0.29875908,0.13599937\O,0,1.50665241,-1.0
 7404881,0.42117538\C,0,0.19358555,-1.22305597,0.17219003\H,0,-2.128737
 37,-0.46354579,-1.36150929\H,0,-2.00691418,1.27080747,-0.96259315\H,0,
 -2.41783866,0.07642073,0.29892989\H,0,0.61884774,1.98349412,-0.6971310

 Normal termination of Gaussian 16 at Wed Apr  9 03:16:06 2025.
