 Gaussian 16, Revision C.01,

 ----------------------------------------------------------------------
 #t hf aug-cc-pvdz symm=none int=(grid=ultrafine) guess=(read,tcheck) s
 table=(opt,rrhf)
 ----------------------------------------------------------------------
 -----
 title
 -----
 Symbolic Z-matrix:
 Charge =  0 Multiplicity = 1

 SCF Done:  E(RHF) =  -307.682315475     A.U. after   17 cycles

 1\1\GINC-SE037\Stability\RHF\Aug-CC-pVDZ\C6H10O1\OHZDE\09-Apr-2025\0\\
 #t hf aug-cc-pvdz symm=none int=(grid=ultrafine) guess=(read,tcheck) s
 table=(opt,rrhf)\\title\\0,1\C,0,2.09785378,0.38911627,-0.16120798\C,0
 ,0.91073737,-0.50837477,-0.09909064\C,0,-0.01769278,-0.6587512,1.20700
 389\C,0,-1.24764912,-0.24852646,0.52723986\O,0,-2.22122553,-1.14789878
 ,0.36346554\C,0,-1.11202045,0.9622091,-0.27161316\C,0,-0.00516076,0.24
 728897,-1.07613294\H,0,3.09861606,-0.011322,0.01705139\H,0,1.95523479,
 1.33131161,0.37318558\H,0,1.16719457,0.84760296,-1.31741236\H,0,1.1296

 Normal termination of Gaussian 16 at Wed Apr  9 16:35:26 2025.
 Gaussian 16:  ES64L-G16RevC.01  3-Jul-2019

 ----------------------------------------------------------------------
 #t hf aug-cc-pvdz iop(5/13=1,5/36=2,99/5=2) pseudo=read geom=check gue
 ss=(read,tcheck) scf=(maxcycle=1)
 ----------------------------------------------------------------------
 -----
 title
 -----
 Structure from the checkpoint file:  "Grambow2020_wb97xd3_008610_reverse_mol1.chk"
 Charge =  0 Multiplicity = 1

                         Standard orientation:
 ---------------------------------------------------------------------
 Center     Atomic      Atomic             Coordinates (Angstroms)
 Number     Number       Type             X           Y           Z
 ---------------------------------------------------------------------
      1          6           0        2.394441   -0.062100    0.066422
      2          6           0        1.044069   -0.420383   -0.450031
      3          6           0       -0.055911   -1.209167    0.420798
      4          6           0       -1.070143   -0.159122    0.311737
      5          8           0       -2.185010   -0.412604   -0.378453
      6          6           0       -0.574777    1.180474    0.599026
      7          6           0        0.446672    0.993444   -0.543410
      8          1           0        3.253807   -0.699171   -0.155578
      9          1           0        2.390196    0.232273    1.118551
     10          1           0        1.741927    1.280817   -0.362464
     11          1           0        1.084476   -0.904893   -1.425280
     12          1           0        0.293478   -1.352876    1.440470
     13          1           0       -0.379102   -2.157880   -0.002345
     14          1           0       -2.696790    0.394115   -0.490763
     15          1           0       -1.286234    1.987895    0.428289
     16          1           0       -0.101357    1.295682    1.575661
     17          1           0        0.073577    1.286002   -1.526173
 ---------------------------------------------------------------------

 SCF Done:  E(RHF) =  -307.775418984     A.U. after    2 cycles

 The electronic state is 1-A.
 Alpha  occ. eigenvalues --  -20.66555 -11.38786 -11.27208 -11.25001 -11.23600
 Alpha  occ. eigenvalues --  -11.21631 -11.16897  -1.43385  -1.15622  -1.00595
 Alpha  occ. eigenvalues --   -0.98859  -0.85694  -0.83441  -0.75235  -0.72896
 Alpha  occ. eigenvalues --   -0.70174  -0.66669  -0.62314  -0.59098  -0.56771
 Alpha  occ. eigenvalues --   -0.56361  -0.55216  -0.50387  -0.45290  -0.44879
 Alpha  occ. eigenvalues --   -0.38751  -0.22202
 Alpha virt. eigenvalues --    0.02054   0.04240   0.04265   0.05078   0.06094
 Alpha virt. eigenvalues --    0.06191   0.06708   0.06934   0.07388   0.08735
 Alpha virt. eigenvalues --    0.09467   0.10609   0.12326   0.12780   0.13830

 Mulliken charges:
               1
     1  C    0.202513
     2  C   -0.161835
     3  C    0.655822
     4  C    0.334203
     5  O   -0.574149
     6  C    0.646281
     7  C   -0.076142
     8  H   -0.305316
     9  H   -0.215568
    10  H    0.434555
    11  H   -0.277852
    12  H   -0.049949
    13  H   -0.182221
    14  H    0.202098
    15  H   -0.191071
    16  H   -0.125944
    17  H   -0.315425
 Sum of Mulliken charges =  -0.00000

 Dipole moment (field-independent basis, Debye):
    X=             -5.3615    Y=              0.3850    Z=              0.8529  Tot=              5.4426

 Test job not archived.
 1\1\GINC-SE037\SP\RHF\Aug-CC-pVDZ\C6H10O1\OHZDE\09-Apr-2025\0\\#t hf a
 ug-cc-pvdz iop(5/13=1,5/36=2,99/5=2) pseudo=read geom=check guess=(rea
 d,tcheck) scf=(maxcycle=1)\\title\\0,1\C,0,2.09785378,0.38911627,-0.16
 120798\C,0,0.91073737,-0.50837477,-0.09909064\C,0,-0.01769278,-0.65875
 12,1.20700389\C,0,-1.24764912,-0.24852646,0.52723986\O,0,-2.22122553,-
 1.14789878,0.36346554\C,0,-1.11202045,0.9622091,-0.27161316\C,0,-0.005
 16076,0.24728897,-1.07613294\H,0,3.09861606,-0.011322,0.01705139\H,0,1
 .95523479,1.33131161,0.37318558\H,0,1.16719457,0.84760296,-1.31741236\

 Normal termination of Gaussian 16 at Wed Apr  9 16:35:33 2025.
