 Gaussian 16, Revision C.01,

 ----------------------------------------------------------------------
 #t hf aug-cc-pvdz symm=none int=(grid=ultrafine) guess=(read,tcheck) s
 table=(opt,rrhf)
 ----------------------------------------------------------------------
 -----
 title
 -----
 Symbolic Z-matrix:
 Charge =  0 Multiplicity = 1

 SCF Done:  E(RHF) =  -333.730686431     A.U. after   15 cycles
 Normal termination of Gaussian 16 at Wed Apr  9 15:33:41 2025.
 Gaussian 16:  ES64L-G16RevC.01  3-Jul-2019

 ----------------------------------------------------------------------
 #t hf aug-cc-pvdz iop(5/13=1,5/36=2,99/5=2) pseudo=read geom=check gue
 ss=(read,tcheck) scf=(maxcycle=1)
 ----------------------------------------------------------------------
 -----
 title
 -----
 Structure from the checkpoint file:  "Grambow2020_wb97xd3_006981_forward_mol2.chk"
 Charge =  0 Multiplicity = 1

                         Standard orientation:
 ---------------------------------------------------------------------
 Center     Atomic      Atomic             Coordinates (Angstroms)
 Number     Number       Type             X           Y           Z
 ---------------------------------------------------------------------
      1          7           0        2.225996   -0.018565   -0.061807
      2          6           0        0.860234   -0.006807   -0.006220
      3          6           0        0.117705    1.190524   -0.004766
      4          7           0       -1.187481    1.161181    0.003234
      5          6           0       -1.736937   -0.061180    0.002420
      6          7           0       -1.080865   -1.200430    0.003788
      7          7           0        0.240485   -1.176906    0.005876
      8          1           0        2.722740    0.785083    0.276769
      9          1           0        2.652507   -0.910574    0.124626
     10          1           0        0.609906    2.160050   -0.010571
     11          1           0       -2.818107   -0.126742    0.002940
 ---------------------------------------------------------------------

 SCF Done:  E(RHF) =  -333.826219541     A.U. after    2 cycles

 The electronic state is 1-A.
 Alpha  occ. eigenvalues --  -15.68032 -15.67896 -15.66849 -15.65633 -11.34610
 Alpha  occ. eigenvalues --  -11.31777 -11.31446  -1.34871  -1.23060  -1.21354
 Alpha  occ. eigenvalues --   -1.07717  -0.93977  -0.90073  -0.77076  -0.73915
 Alpha  occ. eigenvalues --   -0.70854  -0.67159  -0.62178  -0.61120  -0.51356
 Alpha  occ. eigenvalues --   -0.50447  -0.49281  -0.45307  -0.39300  -0.34191
 Alpha virt. eigenvalues --    0.02228   0.03860   0.04694   0.06179   0.06750
 Alpha virt. eigenvalues --    0.08657   0.09696   0.10937   0.11190   0.12360
 Alpha virt. eigenvalues --    0.12678   0.13648   0.14336   0.15299   0.15524

 Mulliken charges:
               1
     1  N   -0.271615
     2  C    0.938388
     3  C    0.536221
     4  N   -0.406633
     5  C    0.583356
     6  N   -0.235211
     7  N   -0.558838
     8  H   -0.022830
     9  H   -0.009417
    10  H   -0.287010
    11  H   -0.266410
 Sum of Mulliken charges =  -0.00000

 Dipole moment (field-independent basis, Debye):
    X=              2.7791    Y=              2.3628    Z=              0.7744  Tot=              3.7290

 Test job not archived.
 1\1\GINC-SE141\SP\RHF\Aug-CC-pVDZ\C3H4N4\OHZDE\09-Apr-2025\0\\#t hf au
 g-cc-pvdz iop(5/13=1,5/36=2,99/5=2) pseudo=read geom=check guess=(read
 ,tcheck) scf=(maxcycle=1)\\title\\0,1\N,0,1.86171148,-0.14543683,-0.71
 474726\C,0,0.55944571,-0.12645983,-0.29968398\C,0,0.08329564,0.8080078
 3,0.64106178\N,0,-1.17756013,0.82455953,0.97929724\C,0,-1.95004803,-0.
 08575084,0.37047197\N,0,-1.54504675,-0.97497118,-0.50906372\N,0,-0.267
 93918,-1.00303585,-0.84778574\H,0,2.56199347,0.22919938,-0.10115836\H,
 0,2.1288688,-0.95897498,-1.2430766\H,0,0.74910984,1.5323088,1.10404835

 Normal termination of Gaussian 16 at Wed Apr  9 15:33:45 2025.
