 Gaussian 16, Revision C.01,

 ----------------------------------------------------------------------
 #t hf aug-cc-pvdz symm=none int=(grid=ultrafine) guess=(read,tcheck) s
 table=(opt,rrhf)
 ----------------------------------------------------------------------
 -----
 title
 -----
 Symbolic Z-matrix:
 Charge =  0 Multiplicity = 1

 SCF Done:  E(RHF) =  -264.899871349     A.U. after   17 cycles
 Normal termination of Gaussian 16 at Wed Apr  9 03:07:56 2025.
 Gaussian 16:  ES64L-G16RevC.01  3-Jul-2019

 ----------------------------------------------------------------------
 #t hf aug-cc-pvdz iop(5/13=1,5/36=2,99/5=2) pseudo=read geom=check gue
 ss=(read,tcheck) scf=(maxcycle=1)
 ----------------------------------------------------------------------
 -----
 title
 -----
 Structure from the checkpoint file:  "Grambow2020_b97d3_006635_forward_mol1.chk"
 Charge =  0 Multiplicity = 1

                         Standard orientation:
 ---------------------------------------------------------------------
 Center     Atomic      Atomic             Coordinates (Angstroms)
 Number     Number       Type             X           Y           Z
 ---------------------------------------------------------------------
      1          6           0        2.269207    0.150182   -0.082269
      2          6           0        1.039803   -0.711952    0.295727
      3          6           0       -0.146153   -0.197760   -0.481350
      4          7           0       -1.703478   -1.555871   -0.032190
      5          6           0       -0.700235    1.029491   -0.068287
      6          7           0       -1.158563    2.094326    0.169010
      7          1           0        2.117793    1.198216    0.206476
      8          1           0        2.456344    0.110336   -1.162492
      9          1           0        3.155292   -0.230207    0.443531
     10          1           0        1.242415   -1.755737    0.014376
     11          1           0        0.904212   -0.667441    1.390785
     12          1           0       -1.073109   -1.164692   -0.897659
     13          1           0       -1.190890   -2.015266    0.720654
     14          1           0       -2.353510   -0.864163    0.343667
 ---------------------------------------------------------------------

 SCF Done:  E(RHF) =  -264.979359083     A.U. after    2 cycles

 The electronic state is 1-A.
 Alpha  occ. eigenvalues --  -15.66746 -15.65612 -11.32217 -11.30017 -11.27790
 Alpha  occ. eigenvalues --  -11.25523  -1.19339  -1.15330  -1.07818  -0.95899
 Alpha  occ. eigenvalues --   -0.85774  -0.71900  -0.68180  -0.65248  -0.63282
 Alpha  occ. eigenvalues --   -0.56688  -0.55507  -0.53819  -0.53099  -0.49374
 Alpha  occ. eigenvalues --   -0.49011  -0.43250  -0.35419
 Alpha virt. eigenvalues --    0.02698   0.03400   0.04390   0.05080   0.05418
 Alpha virt. eigenvalues --    0.06497   0.06980   0.07509   0.08281   0.10872
 Alpha virt. eigenvalues --    0.11907   0.12801   0.13515   0.14087   0.14865

 Mulliken charges:
               1
     1  C    0.291644
     2  C    0.317735
     3  C    0.019141
     4  N   -0.482435
     5  C   -0.192431
     6  N   -0.281123
     7  H   -0.054604
     8  H   -0.002764
     9  H   -0.021602
    10  H   -0.158659
    11  H   -0.112632
    12  H    0.381582
    13  H    0.159316
    14  H    0.136831
 Sum of Mulliken charges =  -0.00000

 Dipole moment (field-independent basis, Debye):
    X=              1.9514    Y=             -3.2246    Z=              1.4063  Tot=              4.0229

 Test job not archived.
 1\1\GINC-SE127\SP\RHF\Aug-CC-pVDZ\C4H8N2\OHZDE\09-Apr-2025\0\\#t hf au
 g-cc-pvdz iop(5/13=1,5/36=2,99/5=2) pseudo=read geom=check guess=(read
 ,tcheck) scf=(maxcycle=1)\\title\\0,1\C,0,-1.96470188,0.20347903,0.010
 98963\C,0,-0.61304598,-0.52202178,-0.19940446\C,0,0.45031373,0.2509155
 4,0.53989655\N,0,2.196228,-0.92518844,0.33981337\C,0,0.85800586,1.4771
 7722,-0.02032051\N,0,1.18299798,2.5541718,-0.38734952\H,0,-1.9384354,1
 .21447611,-0.41547198\H,0,-2.20304971,0.28229884,1.07891601\H,0,-2.762
 65682,-0.36300136,-0.48768435\H,0,-0.69014462,-1.53695,0.2173366\H,0,-

 Normal termination of Gaussian 16 at Wed Apr  9 03:08:00 2025.
