 Gaussian 16, Revision C.01,

 ----------------------------------------------------------------------
 #t hf aug-cc-pvdz symm=none int=(grid=ultrafine) guess=(read,tcheck) s
 table=(opt,rrhf)
 ----------------------------------------------------------------------
 -----
 title
 -----
 Symbolic Z-matrix:
 Charge =  0 Multiplicity = 1

 SCF Done:  E(RHF) =  -317.617141015     A.U. after   16 cycles
 Normal termination of Gaussian 16 at Wed Apr  9 16:11:47 2025.
 Gaussian 16:  ES64L-G16RevC.01  3-Jul-2019

 ----------------------------------------------------------------------
 #t hf aug-cc-pvdz iop(5/13=1,5/36=2,99/5=2) pseudo=read geom=check gue
 ss=(read,tcheck) scf=(maxcycle=1)
 ----------------------------------------------------------------------
 -----
 title
 -----
 Structure from the checkpoint file:  "Grambow2020_wb97xd3_007983_reverse_mol1.chk"
 Charge =  0 Multiplicity = 1

                         Standard orientation:
 ---------------------------------------------------------------------
 Center     Atomic      Atomic             Coordinates (Angstroms)
 Number     Number       Type             X           Y           Z
 ---------------------------------------------------------------------
      1          7           0        2.172529    0.247376   -0.201652
      2          6           0        0.862445   -0.042397   -0.019901
      3          7           0        0.358319   -1.242541   -0.225851
      4          6           0       -0.790665   -0.926185    0.406222
      5          6           0       -1.836985   -0.175924   -0.292788
      6          6           0       -1.244930    1.012500   -0.135946
      7          7           0        0.041737    0.966912    0.435230
      8          1           0        2.470531    1.149481    0.122282
      9          1           0        2.834790   -0.505919   -0.195162
     10          1           0       -0.889144   -1.133335    1.478535
     11          1           0       -2.716812   -0.508893   -0.817333
     12          1           0       -1.646649    1.988482   -0.387932
 ---------------------------------------------------------------------

 SCF Done:  E(RHF) =  -317.709580413     A.U. after    2 cycles

 The electronic state is 1-A.
 Alpha  occ. eigenvalues --  -15.64188 -15.60486 -15.59605 -11.39702 -11.37484
 Alpha  occ. eigenvalues --  -11.29631 -11.24011  -1.32638  -1.18956  -1.14081
 Alpha  occ. eigenvalues --   -1.03541  -0.88158  -0.83067  -0.74770  -0.72653
 Alpha  occ. eigenvalues --   -0.68204  -0.67050  -0.62482  -0.57942  -0.54143
 Alpha  occ. eigenvalues --   -0.51246  -0.44953  -0.38044  -0.36069  -0.32083
 Alpha virt. eigenvalues --    0.03357   0.03518   0.03907   0.05027   0.06543
 Alpha virt. eigenvalues --    0.07193   0.09990   0.10606   0.11465   0.11700
 Alpha virt. eigenvalues --    0.13038   0.13868   0.14640   0.14757   0.15500

 Mulliken charges:
               1
     1  N   -0.206174
     2  C    0.661795
     3  N   -0.695107
     4  C    0.677865
     5  C    0.365815
     6  C    0.717231
     7  N   -0.939977
     8  H   -0.014265
     9  H   -0.034636
    10  H   -0.078273
    11  H   -0.231785
    12  H   -0.222488
 Sum of Mulliken charges =  -0.00000

 Dipole moment (field-independent basis, Debye):
    X=             -0.2874    Y=             -0.4911    Z=              0.7000  Tot=              0.9021

 Test job not archived.
 1\1\GINC-SE026\SP\RHF\Aug-CC-pVDZ\C4H5N3\OHZDE\09-Apr-2025\0\\#t hf au
 g-cc-pvdz iop(5/13=1,5/36=2,99/5=2) pseudo=read geom=check guess=(read
 ,tcheck) scf=(maxcycle=1)\\title\\0,1\N,0,2.17554487,-0.27742852,-0.37
 792355\C,0,0.84679247,-0.290594,-0.11798998\N,0,0.07338919,-1.32271116
 ,-0.38907382\C,0,-0.93543832,-0.83048904,0.35908809\C,0,-1.82421771,0.
 1999236,-0.18369303\C,0,-0.97083379,1.20656552,0.03051969\N,0,0.303394
 71,0.82048225,0.48998993\H,0,2.68807405,0.49834712,0.00025275\H,0,2.64
 969988,-1.15392253,-0.49202118\H,0,-1.0153118,-1.12246217,1.41305082\H

 Normal termination of Gaussian 16 at Wed Apr  9 16:11:52 2025.
