 Gaussian 16, Revision C.01,

 ----------------------------------------------------------------------
 #t hf aug-cc-pvdz symm=none int=(grid=ultrafine) guess=(read,tcheck) s
 table=(opt,rrhf)
 ----------------------------------------------------------------------
 -----
 title
 -----
 Symbolic Z-matrix:
 Charge =  0 Multiplicity = 1

 SCF Done:  E(RHF) =  -288.003580612     A.U. after   15 cycles

 1\1\GINC-SE292\Stability\RHF\Aug-CC-pVDZ\C6H11N1\OHZDE\09-Apr-2025\0\\
 #t hf aug-cc-pvdz symm=none int=(grid=ultrafine) guess=(read,tcheck) s
 table=(opt,rrhf)\\title\\0,1\C,0,2.28523992,0.04178837,0.37331896\C,0,
 2.01233968,-1.13218527,0.91857253\C,0,-1.32751528,0.65037598,0.2058944
 3\C,0,-1.71265689,-0.75132808,-0.16492845\C,0,-1.31531916,1.68575888,-
 0.62667817\C,0,-0.93520432,0.8533762,1.57731619\N,0,-0.62108973,0.9838
 8002,2.67477231\H,0,1.97790081,0.96740275,0.84652306\H,0,0.72225366,-0
 .49131368,-2.15939145\H,0,2.82907805,0.12273133,-0.56124474\H,0,1.4758

 Normal termination of Gaussian 16 at Wed Apr  9 03:40:44 2025.
 Gaussian 16:  ES64L-G16RevC.01  3-Jul-2019

 ----------------------------------------------------------------------
 #t hf aug-cc-pvdz iop(5/13=1,5/36=2,99/5=2) pseudo=read geom=check gue
 ss=(read,tcheck) scf=(maxcycle=1)
 ----------------------------------------------------------------------
 -----
 title
 -----
 Structure from the checkpoint file:  "Grambow2020_wb97xd3_007527_reverse_mol2.chk"
 Charge =  0 Multiplicity = 1

                         Standard orientation:
 ---------------------------------------------------------------------
 Center     Atomic      Atomic             Coordinates (Angstroms)
 Number     Number       Type             X           Y           Z
 ---------------------------------------------------------------------
      1          6           0        2.323924   -0.178496   -0.763324
      2          6           0        2.542037    0.032157    0.524326
      3          6           0       -1.266536   -0.175812   -0.015660
      4          6           0       -1.162600   -0.908728    1.289196
      5          6           0       -1.706126   -0.700360   -1.154499
      6          6           0       -0.838117    1.199742   -0.000761
      7          7           0       -0.483756    2.291942    0.039697
      8          1           0        1.755982    0.525589   -1.360691
      9          1           0        0.809810   -2.761055   -0.339536
     10          1           0        2.707804   -1.057282   -1.269380
     11          1           0        2.162267    0.918210    1.020854
     12          1           0        3.115839   -0.664490    1.125534
     13          1           0       -0.123824   -0.936575    1.625057
     14          1           0       -1.746824   -0.405228    2.061531
     15          1           0       -1.524248   -1.930220    1.181886
     16          1           0       -2.028191   -1.733551   -1.195663
     17          1           0       -1.751532   -0.119448   -2.066090
     18          1           0        0.653716   -3.490563   -0.337044
 ---------------------------------------------------------------------

 SCF Done:  E(RHF) =  -288.099192717     A.U. after    2 cycles

 The electronic state is 1-A.
 Alpha  occ. eigenvalues --  -15.64055 -11.30074 -11.28879 -11.27459 -11.25709
 Alpha  occ. eigenvalues --  -11.23976 -11.23789  -1.20130  -1.11144  -1.03063
 Alpha  occ. eigenvalues --   -0.96798  -0.85812  -0.79056  -0.70040  -0.64809
 Alpha  occ. eigenvalues --   -0.64301  -0.61144  -0.59384  -0.59145  -0.57942
 Alpha  occ. eigenvalues --   -0.55590  -0.53854  -0.50765  -0.50164  -0.46881
 Alpha  occ. eigenvalues --   -0.38683  -0.38130
 Alpha virt. eigenvalues --    0.03115   0.03896   0.04410   0.04956   0.05964
 Alpha virt. eigenvalues --    0.06363   0.06774   0.07059   0.07849   0.08558
 Alpha virt. eigenvalues --    0.09019   0.10288   0.12049   0.12313   0.12816

 Mulliken charges:
               1
     1  C    0.719545
     2  C    0.583559
     3  C    0.687345
     4  C    0.304718
     5  C    0.832489
     6  C   -0.904960
     7  N   -0.175825
     8  H   -0.340138
     9  H   -0.149150
    10  H   -0.306203
    11  H   -0.318866
    12  H   -0.291537
    13  H    0.102479
    14  H    0.022692
    15  H   -0.142013
    16  H   -0.350468
    17  H   -0.399396
    18  H    0.125730
 Sum of Mulliken charges =   0.00000

 Dipole moment (field-independent basis, Debye):
    X=             -1.1473    Y=             -3.9181    Z=             -0.0717  Tot=              4.0832

 Test job not archived.
 1\1\GINC-SE292\SP\RHF\Aug-CC-pVDZ\C6H11N1\OHZDE\09-Apr-2025\0\\#t hf a
 ug-cc-pvdz iop(5/13=1,5/36=2,99/5=2) pseudo=read geom=check guess=(rea
 d,tcheck) scf=(maxcycle=1)\\title\\0,1\C,0,2.28523992,0.04178837,0.373
 31896\C,0,2.01233968,-1.13218527,0.91857253\C,0,-1.32751528,0.65037598
 ,0.20589443\C,0,-1.71265689,-0.75132808,-0.16492845\C,0,-1.31531916,1.
 68575888,-0.62667817\C,0,-0.93520432,0.8533762,1.57731619\N,0,-0.62108
 973,0.98388002,2.67477231\H,0,1.97790081,0.96740275,0.84652306\H,0,0.7
 2225366,-0.49131368,-2.15939145\H,0,2.82907805,0.12273133,-0.56124474\

 Normal termination of Gaussian 16 at Wed Apr  9 03:40:50 2025.
