 Gaussian 16, Revision C.01,

 ----------------------------------------------------------------------
 #t hf aug-cc-pvdz symm=none int=(grid=ultrafine) guess=(read,tcheck) s
 table=(opt,rrhf)
 ----------------------------------------------------------------------
 -----
 title
 -----
 Symbolic Z-matrix:
 Charge =  0 Multiplicity = 1

 SCF Done:  E(RHF) =  -302.739555807     A.U. after   16 cycles
 Normal termination of Gaussian 16 at Wed Apr  9 03:34:29 2025.
 Gaussian 16:  ES64L-G16RevC.01  3-Jul-2019

 ----------------------------------------------------------------------
 #t hf aug-cc-pvdz iop(5/13=1,5/36=2,99/5=2) pseudo=read geom=check gue
 ss=(read,tcheck) scf=(maxcycle=1)
 ----------------------------------------------------------------------
 -----
 title
 -----
 Structure from the checkpoint file:  "Grambow2020_wb97xd3_007173_reverse_mol2.chk"
 Charge =  0 Multiplicity = 1

                         Standard orientation:
 ---------------------------------------------------------------------
 Center     Atomic      Atomic             Coordinates (Angstroms)
 Number     Number       Type             X           Y           Z
 ---------------------------------------------------------------------
      1          6           0       -1.370535    1.673656   -0.075227
      2          6           0       -1.225639    0.275579    0.461088
      3          6           0       -1.628752   -0.926820   -0.277491
      4          7           0       -0.375624   -0.674524   -0.277733
      5          6           0        0.899612   -0.887918   -0.551961
      6          6           0        1.850180    0.044975   -0.096675
      7          7           0        2.629869    0.810098    0.275986
      8          1           0       -1.420693    1.668958   -1.164530
      9          1           0       -0.534688    2.300044    0.240544
     10          1           0       -2.290642    2.115338    0.311765
     11          1           0       -1.094743    0.204052    1.542760
     12          1           0       -0.578325   -2.552288    2.007808
     13          1           0       -2.317486   -1.681012   -0.606478
     14          1           0        0.133337   -2.333400    2.063240
     15          1           0        1.174331   -1.747535   -1.141274
 ---------------------------------------------------------------------

 SCF Done:  E(RHF) =  -302.835741969     A.U. after    2 cycles

 The electronic state is 1-A.
 Alpha  occ. eigenvalues --  -15.76741 -15.61285 -11.33709 -11.31345 -11.28769
 Alpha  occ. eigenvalues --  -11.27320 -11.25146  -1.36676  -1.17529  -1.09678
 Alpha  occ. eigenvalues --   -1.01481  -0.86250  -0.83806  -0.76475  -0.70490
 Alpha  occ. eigenvalues --   -0.67943  -0.61268  -0.60105  -0.59426  -0.55083
 Alpha  occ. eigenvalues --   -0.53139  -0.52422  -0.49186  -0.46540  -0.44938
 Alpha  occ. eigenvalues --   -0.28302
 Alpha virt. eigenvalues --    0.02438   0.03434   0.04144   0.04892   0.06521
 Alpha virt. eigenvalues --    0.06823   0.07296   0.07817   0.08501   0.09484
 Alpha virt. eigenvalues --    0.11325   0.11939   0.12928   0.13366   0.14055

 Mulliken charges:
               1
     1  C    0.275824
     2  C    0.331577
     3  C   -0.144995
     4  N    0.311769
     5  C    1.006532
     6  C   -0.519860
     7  N   -0.238462
     8  H   -0.055564
     9  H    0.010555
    10  H    0.017194
    11  H   -0.415241
    12  H    0.024634
    13  H   -0.296189
    14  H    0.017557
    15  H   -0.325333
 Sum of Mulliken charges =   0.00000

 Dipole moment (field-independent basis, Debye):
    X=             -5.6086    Y=             -1.9536    Z=             -0.7753  Tot=              5.9895

 Test job not archived.
 1\1\GINC-SE455\SP\RHF\Aug-CC-pVDZ\C5H8N2\OHZDE\09-Apr-2025\0\\#t hf au
 g-cc-pvdz iop(5/13=1,5/36=2,99/5=2) pseudo=read geom=check guess=(read
 ,tcheck) scf=(maxcycle=1)\\title\\0,1\C,0,-1.65435884,-1.18909859,0.17
 036663\C,0,-0.90504429,0.0425895,-0.25942317\C,0,-0.71556612,1.2210697
 7,0.59441885\N,0,0.29103011,0.43831892,0.50469838\C,0,1.53011317,0.033
 7725,0.72374403\C,0,1.95467727,-1.17602071,0.14297048\N,0,2.30296188,-
 2.16835058,-0.33261828\H,0,-1.68198818,-1.26777642,1.25764088\H,0,-1.1
 9285985,-2.08844797,-0.240612\H,0,-2.68008603,-1.13503995,-0.19896303\

 Normal termination of Gaussian 16 at Wed Apr  9 03:34:34 2025.
