 Gaussian 16, Revision C.01,

 ----------------------------------------------------------------------
 #t hf aug-cc-pvdz symm=none int=(grid=ultrafine) guess=(read,tcheck) s
 table=(opt,rrhf)
 ----------------------------------------------------------------------
 -----
 title
 -----
 Symbolic Z-matrix:
 Charge =  0 Multiplicity = 1

 SCF Done:  E(RHF) =  -307.911717139     A.U. after   14 cycles

 1\1\GINC-SE162\Stability\RHF\Aug-CC-pVDZ\C6H10O1\OHZDE\09-Apr-2025\0\\
 #t hf aug-cc-pvdz symm=none int=(grid=ultrafine) guess=(read,tcheck) s
 table=(opt,rrhf)\\title\\0,1\C,0,-2.24206405,0.24418059,0.34736277\C,0
 ,-0.74469139,0.14069466,0.52590906\C,0,-0.10040702,-0.93938485,-0.3316
 709\C,0,1.40448088,-0.98655544,-0.08269019\C,0,1.94497347,0.41211573,-
 0.0205993\C,0,1.14616834,1.46854637,0.08195908\O,0,-0.20090018,1.42571
 222,0.21311556\H,0,-2.72594474,-0.68076441,0.6653861\H,0,-2.48841846,0
 .42518169,-0.70069167\H,0,-2.6417951,1.06666041,0.94110267\H,0,-0.5078

 Normal termination of Gaussian 16 at Wed Apr  9 16:52:25 2025.
 Gaussian 16:  ES64L-G16RevC.01  3-Jul-2019

 ----------------------------------------------------------------------
 #t hf aug-cc-pvdz iop(5/13=1,5/36=2,99/5=2) pseudo=read geom=check gue
 ss=(read,tcheck) scf=(maxcycle=1)
 ----------------------------------------------------------------------
 -----
 title
 -----
 Structure from the checkpoint file:  "Grambow2020_wb97xd3_009028_reverse_mol2.chk"
 Charge =  0 Multiplicity = 1

                         Standard orientation:
 ---------------------------------------------------------------------
 Center     Atomic      Atomic             Coordinates (Angstroms)
 Number     Number       Type             X           Y           Z
 ---------------------------------------------------------------------
      1          6           0        2.358949    0.035829   -0.015287
      2          6           0        0.888269    0.052890    0.333314
      3          6           0        0.124500    1.209156   -0.296624
      4          6           0       -1.344355    1.160836    0.114515
      5          6           0       -1.837112   -0.254921    0.043165
      6          6           0       -1.003932   -1.281732   -0.083810
      7          8           0        0.347751   -1.200964   -0.091550
      8          1           0        2.850142    0.929905    0.372219
      9          1           0        2.492667    0.005070   -1.098358
     10          1           0        2.843701   -0.840595    0.415622
     11          1           0        0.764193    0.102489    1.424503
     12          1           0        0.212888    1.126119   -1.384343
     13          1           0        0.588291    2.153333   -0.002820
     14          1           0       -1.471350    1.564284    1.125035
     15          1           0       -2.900105   -0.458116    0.053600
     16          1           0       -1.339341   -2.305164   -0.201138
     17          1           0       -1.941018    1.798051   -0.543556
 ---------------------------------------------------------------------

 SCF Done:  E(RHF) =  -308.008646539     A.U. after    2 cycles

 The electronic state is 1-A.
 Alpha  occ. eigenvalues --  -20.58562 -11.29261 -11.28995 -11.23576 -11.23219
 Alpha  occ. eigenvalues --  -11.22574 -11.22059  -1.36325  -1.07857  -1.05538
 Alpha  occ. eigenvalues --   -0.95098  -0.87100  -0.84479  -0.73867  -0.69611
 Alpha  occ. eigenvalues --   -0.64582  -0.63634  -0.60470  -0.57391  -0.56985
 Alpha  occ. eigenvalues --   -0.54889  -0.54130  -0.52152  -0.48018  -0.46573
 Alpha  occ. eigenvalues --   -0.45301  -0.33364
 Alpha virt. eigenvalues --    0.03533   0.04291   0.04503   0.04770   0.06020
 Alpha virt. eigenvalues --    0.06373   0.06696   0.07004   0.08521   0.09605
 Alpha virt. eigenvalues --    0.11188   0.12091   0.13663   0.14073   0.14971

 Mulliken charges:
               1
     1  C    0.554842
     2  C    0.093733
     3  C    0.195691
     4  C    0.168466
     5  C    0.496678
     6  C    0.533102
     7  O   -0.609615
     8  H   -0.024268
     9  H   -0.008373
    10  H   -0.037114
    11  H   -0.292367
    12  H   -0.132548
    13  H   -0.081578
    14  H   -0.030317
    15  H   -0.400379
    16  H   -0.408268
    17  H   -0.017682
 Sum of Mulliken charges =   0.00000

 Dipole moment (field-independent basis, Debye):
    X=             -0.0598    Y=              1.4070    Z=              0.3482  Tot=              1.4507

 Test job not archived.
 1\1\GINC-SE162\SP\RHF\Aug-CC-pVDZ\C6H10O1\OHZDE\09-Apr-2025\0\\#t hf a
 ug-cc-pvdz iop(5/13=1,5/36=2,99/5=2) pseudo=read geom=check guess=(rea
 d,tcheck) scf=(maxcycle=1)\\title\\0,1\C,0,-2.24206405,0.24418059,0.34
 736277\C,0,-0.74469139,0.14069466,0.52590906\C,0,-0.10040702,-0.939384
 85,-0.3316709\C,0,1.40448088,-0.98655544,-0.08269019\C,0,1.94497347,0.
 41211573,-0.0205993\C,0,1.14616834,1.46854637,0.08195908\O,0,-0.200900
 18,1.42571222,0.21311556\H,0,-2.72594474,-0.68076441,0.6653861\H,0,-2.
 48841846,0.42518169,-0.70069167\H,0,-2.6417951,1.06666041,0.94110267\H

 Normal termination of Gaussian 16 at Wed Apr  9 16:52:32 2025.
