 Gaussian 16, Revision C.01,

 ----------------------------------------------------------------------
 #t hf aug-cc-pvdz symm=none int=(grid=ultrafine) guess=(read,tcheck) s
 table=(opt,rrhf)
 ----------------------------------------------------------------------
 -----
 title
 -----
 Symbolic Z-matrix:
 Charge =  0 Multiplicity = 1

 SCF Done:  E(RHF) =  -265.004781324     A.U. after   14 cycles
 Normal termination of Gaussian 16 at Wed Apr  9 14:21:18 2025.
 Gaussian 16:  ES64L-G16RevC.01  3-Jul-2019

 ----------------------------------------------------------------------
 #t hf aug-cc-pvdz iop(5/13=1,5/36=2,99/5=2) pseudo=read geom=check gue
 ss=(read,tcheck) scf=(maxcycle=1)
 ----------------------------------------------------------------------
 -----
 title
 -----
 Structure from the checkpoint file:  "Grambow2020_wb97xd3_006059_reverse_mol2.chk"
 Charge =  0 Multiplicity = 1

                         Standard orientation:
 ---------------------------------------------------------------------
 Center     Atomic      Atomic             Coordinates (Angstroms)
 Number     Number       Type             X           Y           Z
 ---------------------------------------------------------------------
      1          6           0       -1.299728   -1.269941   -0.255079
      2          6           0       -0.534609    0.000600    0.035410
      3          6           0       -1.293315    1.278752   -0.238497
      4          7           0        2.093025   -0.038779   -0.495429
      5          6           0        0.899713   -0.002851    0.117606
      6          7           0        0.377488   -0.009918    1.260553
      7          1           0       -0.704298   -2.148926   -0.008396
      8          1           0       -1.585005   -1.329699   -1.309100
      9          1           0       -2.217484   -1.300332    0.338346
     10          1           0       -1.595560    1.346131   -1.287325
     11          1           0       -0.688975    2.152878    0.004456
     12          1           0       -2.201315    1.314357    0.369482
     13          1           0        2.143931    0.166433   -1.474748
     14          1           0        2.922750    0.100678    0.054783
 ---------------------------------------------------------------------

 SCF Done:  E(RHF) =  -265.084871688     A.U. after    2 cycles

 The electronic state is 1-A.
 Alpha  occ. eigenvalues --  -15.66356 -15.60466 -11.32070 -11.27766 -11.22318
 Alpha  occ. eigenvalues --  -11.22190  -1.28346  -1.18214  -1.01104  -0.93524
 Alpha  occ. eigenvalues --   -0.79563  -0.78007  -0.70363  -0.63756  -0.61560
 Alpha  occ. eigenvalues --   -0.59151  -0.55107  -0.53772  -0.51988  -0.48940
 Alpha  occ. eigenvalues --   -0.48281  -0.37068  -0.35520
 Alpha virt. eigenvalues --    0.02524   0.03874   0.04600   0.05041   0.06631
 Alpha virt. eigenvalues --    0.07295   0.07602   0.08216   0.11054   0.12403
 Alpha virt. eigenvalues --    0.13270   0.13432   0.15078   0.15561   0.16032

 Mulliken charges:
               1
     1  C    0.529991
     2  C    0.163709
     3  C    0.556943
     4  N   -0.057828
     5  C   -0.453530
     6  N   -0.674938
     7  H   -0.050683
     8  H    0.021821
     9  H    0.019605
    10  H    0.017489
    11  H   -0.057123
    12  H    0.012183
    13  H   -0.020355
    14  H   -0.007284
 Sum of Mulliken charges =  -0.00000

 Dipole moment (field-independent basis, Debye):
    X=              1.5167    Y=              0.5467    Z=             -3.2962  Tot=              3.6693

 Test job not archived.
 1\1\GINC-SE219\SP\RHF\Aug-CC-pVDZ\C4H8N2\OHZDE\09-Apr-2025\0\\#t hf au
 g-cc-pvdz iop(5/13=1,5/36=2,99/5=2) pseudo=read geom=check guess=(read
 ,tcheck) scf=(maxcycle=1)\\title\\0,1\C,0,-0.63136299,1.37903928,-0.67
 208727\C,0,0.06753432,0.32910837,0.16053024\C,0,1.57713309,0.40015565,
 0.14061541\N,0,-1.07506858,-2.09517833,0.23192685\C,0,-0.60927787,-0.8
 7714891,0.54900966\N,0,-0.58699564,-0.04377828,1.48927221\H,0,-1.71412
 546,1.28619108,-0.58837237\H,0,-0.3573653,1.29625629,-1.72754221\H,0,-
 0.3460988,2.37874294,-0.33360375\H,0,1.96842886,0.28488259,-0.8740437\

 Normal termination of Gaussian 16 at Wed Apr  9 14:21:22 2025.
