 Gaussian 16, Revision C.01,

 ----------------------------------------------------------------------
 #t hf aug-cc-pvdz symm=none int=(grid=ultrafine) guess=(read,tcheck) s
 table=(opt,rrhf)
 ----------------------------------------------------------------------
 -----
 title
 -----
 Symbolic Z-matrix:
 Charge =  0 Multiplicity = 1

 SCF Done:  E(RHF) =  -268.734490052     A.U. after   14 cycles
 Normal termination of Gaussian 16 at Wed Apr  9 14:23:19 2025.
 Gaussian 16:  ES64L-G16RevC.01  3-Jul-2019

 ----------------------------------------------------------------------
 #t hf aug-cc-pvdz iop(5/13=1,5/36=2,99/5=2) pseudo=read geom=check gue
 ss=(read,tcheck) scf=(maxcycle=1)
 ----------------------------------------------------------------------
 -----
 title
 -----
 Structure from the checkpoint file:  "Grambow2020_wb97xd3_006182_reverse_mol2.chk"
 Charge =  0 Multiplicity = 1

                         Standard orientation:
 ---------------------------------------------------------------------
 Center     Atomic      Atomic             Coordinates (Angstroms)
 Number     Number       Type             X           Y           Z
 ---------------------------------------------------------------------
      1          8           0       -1.925459   -0.750746    0.204661
      2          6           0        0.678500   -0.551269   -0.646664
      3          6           0       -1.530928    0.547772   -0.135110
      4          6           0       -0.030715    0.648549   -0.312470
      5          6           0        0.998323    0.192195    0.873225
      6          6           0        2.035911   -0.266518   -0.236703
      7          1           0       -1.226430   -1.329565   -0.144888
      8          1           0       -2.000145    0.875297   -1.074579
      9          1           0       -1.869756    1.233084    0.648098
     10          1           0        0.319576    1.640312   -0.617186
     11          1           0        1.350471    1.134759    1.274492
     12          1           0        0.664793   -0.495363    1.636886
     13          1           0        2.564793    0.630925   -0.569055
     14          1           0        2.693818   -1.107862   -0.044731
 ---------------------------------------------------------------------

 SCF Done:  E(RHF) =  -268.817093736     A.U. after    2 cycles

 The electronic state is 1-A.
 Alpha  occ. eigenvalues --  -20.55195 -11.29078 -11.28507 -11.27269 -11.26612
 Alpha  occ. eigenvalues --  -11.25285  -1.31484  -1.19213  -0.98741  -0.87999
 Alpha  occ. eigenvalues --   -0.86274  -0.75892  -0.70856  -0.64687  -0.63466
 Alpha  occ. eigenvalues --   -0.60717  -0.56661  -0.53833  -0.52885  -0.49663
 Alpha  occ. eigenvalues --   -0.47035  -0.43645  -0.34119
 Alpha virt. eigenvalues --    0.02868   0.04036   0.04418   0.04951   0.06674
 Alpha virt. eigenvalues --    0.06864   0.07033   0.07904   0.09290   0.11846
 Alpha virt. eigenvalues --    0.12219   0.13016   0.13653   0.14138   0.14392

 Mulliken charges:
               1
     1  O   -0.567466
     2  C   -0.482737
     3  C    0.972945
     4  C    0.085849
     5  C    0.237192
     6  C    0.875662
     7  H    0.236198
     8  H   -0.042838
     9  H   -0.050874
    10  H   -0.357476
    11  H   -0.049036
    12  H   -0.341702
    13  H   -0.247141
    14  H   -0.268577
 Sum of Mulliken charges =  -0.00000

 Dipole moment (field-independent basis, Debye):
    X=              2.9043    Y=              2.8500    Z=              0.3285  Tot=              4.0823

 Test job not archived.
 1\1\GINC-SE168\SP\RHF\Aug-CC-pVDZ\C5H8O1\OHZDE\09-Apr-2025\0\\#t hf au
 g-cc-pvdz iop(5/13=1,5/36=2,99/5=2) pseudo=read geom=check guess=(read
 ,tcheck) scf=(maxcycle=1)\\title\\0,1\O,0,1.97220201,0.99844945,-0.683
 22359\C,0,0.34615412,-0.50294453,0.94371598\C,0,0.7112114,1.56036551,-
 0.4565102\C,0,-0.23358946,0.57155078,0.19298846\C,0,-0.53706936,-0.885
 3063,-0.48414949\C,0,-0.70100219,-1.5001892,0.96980701\H,0,2.05562963,
 0.28549695,-0.02702549\H,0,0.77758614,2.4392581,0.20165627\H,0,0.30466
 42,1.90580313,-1.41215897\H,0,-1.22241096,0.98119688,0.42444006\H,0,-1

 Normal termination of Gaussian 16 at Wed Apr  9 14:23:23 2025.
