 Gaussian 16, Revision C.01,

 ----------------------------------------------------------------------
 #t hf aug-cc-pvdz symm=none int=(grid=ultrafine) guess=(read,tcheck) s
 table=(opt,rrhf)
 ----------------------------------------------------------------------
 -----
 title
 -----
 Symbolic Z-matrix:
 Charge =  0 Multiplicity = 1

 SCF Done:  E(RHF) =  -323.792997491     A.U. after   15 cycles
 Normal termination of Gaussian 16 at Wed Apr  9 15:39:07 2025.
 Gaussian 16:  ES64L-G16RevC.01  3-Jul-2019

 ----------------------------------------------------------------------
 #t hf aug-cc-pvdz iop(5/13=1,5/36=2,99/5=2) pseudo=read geom=check gue
 ss=(read,tcheck) scf=(maxcycle=1)
 ----------------------------------------------------------------------
 -----
 title
 -----
 Structure from the checkpoint file:  "Grambow2020_wb97xd3_007249_forward_mol1.chk"
 Charge =  0 Multiplicity = 1

                         Standard orientation:
 ---------------------------------------------------------------------
 Center     Atomic      Atomic             Coordinates (Angstroms)
 Number     Number       Type             X           Y           Z
 ---------------------------------------------------------------------
      1          6           0        0.821797    1.553753   -0.208588
      2          6           0        1.094104    0.152948    0.243373
      3          6           0        2.179001   -0.578820   -0.480318
      4          6           0        0.437051   -0.402959    1.284505
      5          8           0       -2.401183    0.571855    0.058168
      6          6           0       -1.783267   -0.371579   -0.344322
      7          7           0       -0.748100   -1.103637   -0.398152
      8          1           0        0.608078    1.575746   -1.279407
      9          1           0        1.712820    2.167172   -0.047370
     10          1           0       -0.018039    1.997720    0.322469
     11          1           0        3.124763   -0.040179   -0.375766
     12          1           0        2.307515   -1.592108   -0.103230
     13          1           0        1.950735   -0.631732   -1.546929
     14          1           0        0.703261   -1.385008    1.652240
     15          1           0       -0.299658    0.160464    1.844538
     16          1           0       -2.135436   -1.221523   -1.112731
 ---------------------------------------------------------------------

 SCF Done:  E(RHF) =  -323.893980219     A.U. after    2 cycles

 The electronic state is 1-A.
 Alpha  occ. eigenvalues --  -20.56511 -15.71030 -11.38195 -11.28897 -11.25400
 Alpha  occ. eigenvalues --  -11.24611 -11.24241  -1.36944  -1.20691  -1.10955
 Alpha  occ. eigenvalues --   -0.95858  -0.95318  -0.74659  -0.73340  -0.68469
 Alpha  occ. eigenvalues --   -0.65499  -0.63856  -0.62521  -0.60893  -0.58913
 Alpha  occ. eigenvalues --   -0.55544  -0.54272  -0.53832  -0.50895  -0.46462
 Alpha  occ. eigenvalues --   -0.43274  -0.35839
 Alpha virt. eigenvalues --    0.03034   0.04171   0.04285   0.04624   0.06348
 Alpha virt. eigenvalues --    0.06711   0.07084   0.07627   0.08474   0.09561
 Alpha virt. eigenvalues --    0.10058   0.11904   0.12432   0.12850   0.14151

 Mulliken charges:
               1
     1  C    0.511540
     2  C   -0.931375
     3  C    0.387194
     4  C    1.202806
     5  O   -0.351000
     6  C    0.114397
     7  N   -0.115080
     8  H    0.055144
     9  H   -0.000811
    10  H   -0.120108
    11  H    0.051731
    12  H   -0.108825
    13  H    0.030772
    14  H   -0.388277
    15  H   -0.456205
    16  H    0.118095
 Sum of Mulliken charges =   0.00000

 Dipole moment (field-independent basis, Debye):
    X=              3.2271    Y=             -0.9228    Z=             -0.5022  Tot=              3.3938

 Test job not archived.
 1\1\GINC-SE226\SP\RHF\Aug-CC-pVDZ\C5H9N1O1\OHZDE\09-Apr-2025\0\\#t hf
 aug-cc-pvdz iop(5/13=1,5/36=2,99/5=2) pseudo=read geom=check guess=(re
 ad,tcheck) scf=(maxcycle=1)\\title\\0,1\C,0,0.84709155,1.06932922,0.74
 337282\C,0,0.54496134,-0.32112275,0.27857514\C,0,1.47448591,-0.8964559
 4,-0.74181195\C,0,-0.47656934,-1.0405608,0.79198503\O,0,-2.49044784,1.
 46792117,0.3900557\C,0,-2.13179359,0.74509663,-0.49469119\N,0,-1.40235
 593,-0.17563718,-0.97484555\H,0,0.90437294,1.75301749,-0.10639321\H,0,
 1.82509758,1.08432021,1.23273512\H,0,0.09504671,1.43989968,1.43731602\

 Normal termination of Gaussian 16 at Wed Apr  9 15:39:14 2025.
