 Gaussian 16, Revision C.01,

 ----------------------------------------------------------------------
 #t hf aug-cc-pvdz symm=none int=(grid=ultrafine) guess=(read,tcheck) s
 table=(opt,rrhf)
 ----------------------------------------------------------------------
 -----
 title
 -----
 Symbolic Z-matrix:
 Charge =  0 Multiplicity = 1

 SCF Done:  E(RHF) =  -307.874423947     A.U. after   13 cycles

 1\1\GINC-SE173\Stability\RHF\Aug-CC-pVDZ\C6H10O1\OHZDE\09-Apr-2025\0\\
 #t hf aug-cc-pvdz symm=none int=(grid=ultrafine) guess=(read,tcheck) s
 table=(opt,rrhf)\\title\\0,1\C,0,2.056611,0.03434252,-1.39408409\C,0,1
 .06932687,-0.1063429,-0.26389156\C,0,0.2704056,1.13538148,0.15471951\C
 ,0,-0.96346212,0.28478693,-0.20508351\O,0,-0.13540413,-0.78981858,-0.6
 6676882\C,0,-1.93221059,-1.28903856,1.47088023\C,0,-1.8620001,-0.08410
 25,0.93020774\H,0,2.38846463,-0.94790502,-1.73495753\H,0,2.93288762,0.
 59725014,-1.06370326\H,0,1.60196441,0.55548686,-2.2388932\H,0,1.529844

 Normal termination of Gaussian 16 at Wed Apr  9 16:31:12 2025.
 Gaussian 16:  ES64L-G16RevC.01  3-Jul-2019

 ----------------------------------------------------------------------
 #t hf aug-cc-pvdz iop(5/13=1,5/36=2,99/5=2) pseudo=read geom=check gue
 ss=(read,tcheck) scf=(maxcycle=1)
 ----------------------------------------------------------------------
 -----
 title
 -----
 Structure from the checkpoint file:  "Grambow2020_wb97xd3_008502_reverse_mol2.chk"
 Charge =  0 Multiplicity = 1

                         Standard orientation:
 ---------------------------------------------------------------------
 Center     Atomic      Atomic             Coordinates (Angstroms)
 Number     Number       Type             X           Y           Z
 ---------------------------------------------------------------------
      1          6           0       -2.574564   -0.361465   -0.000062
      2          6           0       -1.139365   -0.221753   -0.438857
      3          6           0       -0.494553    1.168967   -0.364666
      4          6           0        0.511221    0.492886    0.587559
      5          8           0       -0.212221   -0.743050    0.535555
      6          6           0        2.488186   -0.718858   -0.333062
      7          6           0        1.918805    0.395006    0.096169
      8          1           0       -2.839403   -1.414697    0.108080
      9          1           0       -3.242217    0.086229   -0.740120
     10          1           0       -2.732582    0.132754    0.960550
     11          1           0       -0.985430   -0.717608   -1.403645
     12          1           0       -0.075541    1.552598   -1.292919
     13          1           0       -1.121867    1.928292    0.100753
     14          1           0        0.507546    0.901097    1.604964
     15          1           0        3.514628   -0.729938   -0.677490
     16          1           0        1.938921   -1.652706   -0.339123
     17          1           0        2.475339    1.329674    0.112024
 ---------------------------------------------------------------------

 SCF Done:  E(RHF) =  -307.971393964     A.U. after    2 cycles

 The electronic state is 1-A.
 Alpha  occ. eigenvalues --  -20.55920 -11.29458 -11.29110 -11.23938 -11.23619
 Alpha  occ. eigenvalues --  -11.22807 -11.22660  -1.34695  -1.05652  -1.02748
 Alpha  occ. eigenvalues --   -0.97630  -0.88306  -0.79013  -0.72948  -0.69609
 Alpha  occ. eigenvalues --   -0.66945  -0.63364  -0.61741  -0.57825  -0.55227
 Alpha  occ. eigenvalues --   -0.53486  -0.52902  -0.51317  -0.47730  -0.46078
 Alpha  occ. eigenvalues --   -0.42488  -0.36297
 Alpha virt. eigenvalues --    0.03415   0.04221   0.04448   0.04920   0.05896
 Alpha virt. eigenvalues --    0.06113   0.06907   0.07144   0.07698   0.08572
 Alpha virt. eigenvalues --    0.11042   0.11972   0.12801   0.13559   0.14448

 Mulliken charges:
               1
     1  C    0.353419
     2  C    0.313877
     3  C    0.366829
     4  C    0.920223
     5  O   -0.880351
     6  C    0.523942
     7  C    0.391452
     8  H   -0.007821
     9  H    0.033428
    10  H   -0.000228
    11  H   -0.325128
    12  H   -0.219594
    13  H   -0.225033
    14  H   -0.223182
    15  H   -0.301368
    16  H   -0.306839
    17  H   -0.413626
 Sum of Mulliken charges =  -0.00000

 Dipole moment (field-independent basis, Debye):
    X=             -0.6036    Y=              1.8126    Z=             -0.9498  Tot=              2.1335

 Test job not archived.
 1\1\GINC-SE173\SP\RHF\Aug-CC-pVDZ\C6H10O1\OHZDE\09-Apr-2025\0\\#t hf a
 ug-cc-pvdz iop(5/13=1,5/36=2,99/5=2) pseudo=read geom=check guess=(rea
 d,tcheck) scf=(maxcycle=1)\\title\\0,1\C,0,2.056611,0.03434252,-1.3940
 8409\C,0,1.06932687,-0.1063429,-0.26389156\C,0,0.2704056,1.13538148,0.
 15471951\C,0,-0.96346212,0.28478693,-0.20508351\O,0,-0.13540413,-0.789
 81858,-0.66676882\C,0,-1.93221059,-1.28903856,1.47088023\C,0,-1.862000
 1,-0.0841025,0.93020774\H,0,2.38846463,-0.94790502,-1.73495753\H,0,2.9
 3288762,0.59725014,-1.06370326\H,0,1.60196441,0.55548686,-2.2388932\H,

 Normal termination of Gaussian 16 at Wed Apr  9 16:31:18 2025.
