 Gaussian 16, Revision C.01,

 ----------------------------------------------------------------------
 #t hf aug-cc-pvdz symm=none int=(grid=ultrafine) guess=(read,tcheck) s
 table=(opt,rrhf)
 ----------------------------------------------------------------------
 -----
 title
 -----
 Symbolic Z-matrix:
 Charge =  0 Multiplicity = 1

 SCF Done:  E(RHF) =  -309.003559409     A.U. after   14 cycles

 1\1\GINC-SE045\Stability\RHF\Aug-CC-pVDZ\C6H12O1\OHZDE\09-Apr-2025\0\\
 #t hf aug-cc-pvdz symm=none int=(grid=ultrafine) guess=(read,tcheck) s
 table=(opt,rrhf)\\title\\0,1\C,0,3.32005959,-0.25802452,-0.09961511\O,
 0,2.03114523,0.11461168,-0.5995584\C,0,1.22918621,0.70958308,0.2293375
 7\C,0,-0.02358217,1.0707086,-0.50535979\C,0,-1.25449225,1.03137434,0.3
 9739019\C,0,-1.61775565,-0.37429633,0.87360034\C,0,-2.06910204,-1.3121
 8447,-0.24011988\H,0,3.37796745,-0.00613173,0.95818732\H,0,4.07141551,
 0.2846966,-0.672292\H,0,3.4409165,-1.3290819,-0.25773389\H,0,-0.754888

 Normal termination of Gaussian 16 at Wed Apr  9 03:54:00 2025.
 Gaussian 16:  ES64L-G16RevC.01  3-Jul-2019

 ----------------------------------------------------------------------
 #t hf aug-cc-pvdz iop(5/13=1,5/36=2,99/5=2) pseudo=read geom=check gue
 ss=(read,tcheck) scf=(maxcycle=1)
 ----------------------------------------------------------------------
 -----
 title
 -----
 Structure from the checkpoint file:  "Grambow2020_wb97xd3_008406_reverse_mol2.chk"
 Charge =  0 Multiplicity = 1

                         Standard orientation:
 ---------------------------------------------------------------------
 Center     Atomic      Atomic             Coordinates (Angstroms)
 Number     Number       Type             X           Y           Z
 ---------------------------------------------------------------------
      1          6           0       -3.059407    0.610654    0.265148
      2          8           0       -1.867838    0.161511   -0.389477
      3          6           0       -1.040176   -0.545289    0.317351
      4          6           0        0.092188   -0.966355   -0.565867
      5          6           0        1.408930   -1.082161    0.198610
      6          6           0        1.943495    0.258356    0.700507
      7          6           0        2.358233    1.218362   -0.408592
      8          1           0       -3.029142    0.303550    1.309427
      9          1           0       -3.911598    0.166566   -0.248270
     10          1           0       -3.100198    1.695418    0.173523
     11          1           0        1.181148    0.727697    1.331645
     12          1           0       -0.215970   -1.969167   -0.897275
     13          1           0        0.177121   -0.350674   -1.469421
     14          1           0        2.159869   -1.558735   -0.439706
     15          1           0        1.249429   -1.745077    1.052757
     16          1           0        2.802316    0.069761    1.351002
     17          1           0        3.111326    0.764605   -1.058358
     18          1           0        1.512737    1.508517   -1.036151
     19          1           0        2.786088    2.134046    0.003705
 ---------------------------------------------------------------------

 SCF Done:  E(RHF) =  -309.103427498     A.U. after    2 cycles

 The electronic state is 1-A.
 Alpha  occ. eigenvalues --  -20.63012 -11.29561 -11.29237 -11.22435 -11.22380
 Alpha  occ. eigenvalues --  -11.22223 -11.21816  -1.40418  -1.07621  -1.01759
 Alpha  occ. eigenvalues --   -0.96139  -0.88154  -0.80512  -0.76445  -0.67414
 Alpha  occ. eigenvalues --   -0.67040  -0.65057  -0.62663  -0.59077  -0.55450
 Alpha  occ. eigenvalues --   -0.54591  -0.53617  -0.51488  -0.50863  -0.47124
 Alpha  occ. eigenvalues --   -0.46053  -0.45854  -0.34505
 Alpha virt. eigenvalues --    0.03553   0.04230   0.04402   0.04941   0.05905
 Alpha virt. eigenvalues --    0.06299   0.06523   0.07134   0.07279   0.08532
 Alpha virt. eigenvalues --    0.08973   0.09575   0.11063   0.11698   0.14104

 Mulliken charges:
               1
     1  C    0.799314
     2  O   -0.458895
     3  C   -0.104400
     4  C    0.111206
     5  C    0.363054
     6  C    0.179565
     7  C    0.357655
     8  H   -0.076866
     9  H   -0.150057
    10  H   -0.145256
    11  H   -0.106914
    12  H    0.047782
    13  H   -0.222787
    14  H   -0.077560
    15  H   -0.125571
    16  H   -0.092254
    17  H   -0.080345
    18  H   -0.126682
    19  H   -0.090989
 Sum of Mulliken charges =  -0.00000

 Dipole moment (field-independent basis, Debye):
    X=             -0.7949    Y=              0.5632    Z=             -0.5515  Tot=              1.1194

 Test job not archived.
 1\1\GINC-SE045\SP\RHF\Aug-CC-pVDZ\C6H12O1\OHZDE\09-Apr-2025\0\\#t hf a
 ug-cc-pvdz iop(5/13=1,5/36=2,99/5=2) pseudo=read geom=check guess=(rea
 d,tcheck) scf=(maxcycle=1)\\title\\0,1\C,0,3.32005959,-0.25802452,-0.0
 9961511\O,0,2.03114523,0.11461168,-0.5995584\C,0,1.22918621,0.70958308
 ,0.22933757\C,0,-0.02358217,1.0707086,-0.50535979\C,0,-1.25449225,1.03
 137434,0.39739019\C,0,-1.61775565,-0.37429633,0.87360034\C,0,-2.069102
 04,-1.31218447,-0.24011988\H,0,3.37796745,-0.00613173,0.95818732\H,0,4
 .07141551,0.2846966,-0.672292\H,0,3.4409165,-1.3290819,-0.25773389\H,0

 Normal termination of Gaussian 16 at Wed Apr  9 03:54:08 2025.
