 Gaussian 16, Revision C.01,

 ----------------------------------------------------------------------
 #t hf aug-cc-pvdz symm=none int=(grid=ultrafine) guess=(read,tcheck) s
 table=(opt,rrhf)
 ----------------------------------------------------------------------
 -----
 title
 -----
 Symbolic Z-matrix:
 Charge =  0 Multiplicity = 1

 SCF Done:  E(RHF) =  -284.709396774     A.U. after   16 cycles
 Normal termination of Gaussian 16 at Wed Apr  9 03:05:27 2025.
 Gaussian 16:  ES64L-G16RevC.01  3-Jul-2019

 ----------------------------------------------------------------------
 #t hf aug-cc-pvdz iop(5/13=1,5/36=2,99/5=2) pseudo=read geom=check gue
 ss=(read,tcheck) scf=(maxcycle=1)
 ----------------------------------------------------------------------
 -----
 title
 -----
 Structure from the checkpoint file:  "Grambow2020_b97d3_006542_forward_mol1.chk"
 Charge =  0 Multiplicity = 1

                         Standard orientation:
 ---------------------------------------------------------------------
 Center     Atomic      Atomic             Coordinates (Angstroms)
 Number     Number       Type             X           Y           Z
 ---------------------------------------------------------------------
      1          6           0        1.063993    1.160874    0.251767
      2          6           0        1.434879   -0.230158   -0.200754
      3          8           0        0.484277   -1.300092    0.057120
      4          6           0       -0.863163   -1.093627    0.078854
      5          7           0       -1.509634    0.008856    0.015791
      6          6           0       -1.155817    1.255255   -0.284328
      7          1           0        0.845350    1.265333    1.314225
      8          1           0        1.789141    1.906234   -0.096053
      9          1           0        1.625366   -0.238619   -1.284867
     10          1           0        2.351967   -0.574364    0.298900
     11          1           0       -1.380372   -2.038985    0.235156
     12          1           0       -1.433885    1.979305    0.499336
     13          1           0        0.016309    1.485776   -0.607427
 ---------------------------------------------------------------------

 SCF Done:  E(RHF) =  -284.797153879     A.U. after    2 cycles

 The electronic state is 1-A.
 Alpha  occ. eigenvalues --  -20.61377 -15.63649 -11.35669 -11.31952 -11.28720
 Alpha  occ. eigenvalues --  -11.27074  -1.37826  -1.20720  -1.05437  -0.94077
 Alpha  occ. eigenvalues --   -0.89918  -0.74824  -0.71294  -0.69497  -0.67111
 Alpha  occ. eigenvalues --   -0.60589  -0.59599  -0.58131  -0.53917  -0.52367
 Alpha  occ. eigenvalues --   -0.45770  -0.41069  -0.28834
 Alpha virt. eigenvalues --    0.03100   0.04306   0.04502   0.05030   0.06263
 Alpha virt. eigenvalues --    0.06830   0.07967   0.09309   0.10339   0.10950
 Alpha virt. eigenvalues --    0.12703   0.13262   0.14212   0.14926   0.15479

 Mulliken charges:
               1
     1  C   -0.059805
     2  C    0.687067
     3  O   -0.539257
     4  C    0.569790
     5  N   -0.219912
     6  C    0.240505
     7  H   -0.149772
     8  H   -0.122522
     9  H   -0.119074
    10  H   -0.168338
    11  H   -0.347027
    12  H   -0.204557
    13  H    0.432901
 Sum of Mulliken charges =   0.00000

 Dipole moment (field-independent basis, Debye):
    X=              2.3567    Y=              0.4351    Z=              0.7316  Tot=              2.5057

 Test job not archived.
 1\1\GINC-SE339\SP\RHF\Aug-CC-pVDZ\C4H7N1O1\OHZDE\09-Apr-2025\0\\#t hf
 aug-cc-pvdz iop(5/13=1,5/36=2,99/5=2) pseudo=read geom=check guess=(re
 ad,tcheck) scf=(maxcycle=1)\\title\\0,1\C,0,0.59907396,-0.98408394,0.4
 2498085\C,0,-0.80121978,-1.03024843,-0.13568385\O,0,-1.57742483,0.1993
 9247,-0.11589406\C,0,-1.00297189,1.43044171,-0.2308532\N,0,0.23819618,
 1.74139287,-0.2442969\C,0,1.354136,1.02664862,-0.35649147\H,0,0.679079
 2,-0.64927237,1.45892284\H,0,1.13500979,-1.92509248,0.25277512\H,0,-0.
 77981867,-1.36712991,-1.18340164\H,0,-1.42645063,-1.73866586,0.4268218

 Normal termination of Gaussian 16 at Wed Apr  9 03:05:31 2025.
