 Gaussian 16, Revision C.01,

 ----------------------------------------------------------------------
 #t hf aug-cc-pvdz symm=none int=(grid=ultrafine) guess=(read,tcheck) s
 table=(opt,rrhf)
 ----------------------------------------------------------------------
 -----
 title
 -----
 Symbolic Z-matrix:
 Charge =  0 Multiplicity = 1

 SCF Done:  E(RHF) =  -358.381092447     A.U. after   15 cycles
 Normal termination of Gaussian 16 at Wed Apr  9 03:33:10 2025.
 Gaussian 16:  ES64L-G16RevC.01  3-Jul-2019

 ----------------------------------------------------------------------
 #t hf aug-cc-pvdz iop(5/13=1,5/36=2,99/5=2) pseudo=read geom=check gue
 ss=(read,tcheck) scf=(maxcycle=1)
 ----------------------------------------------------------------------
 -----
 title
 -----
 Structure from the checkpoint file:  "Grambow2020_wb97xd3_007064_reverse_mol1.chk"
 Charge =  0 Multiplicity = 1

                         Standard orientation:
 ---------------------------------------------------------------------
 Center     Atomic      Atomic             Coordinates (Angstroms)
 Number     Number       Type             X           Y           Z
 ---------------------------------------------------------------------
      1          8           0       -2.214812   -0.232987    0.036187
      2          6           0       -1.041694    0.036414   -0.042956
      3          7           0       -0.471691    1.278935    0.083853
      4          6           0        0.915003    1.149623   -0.161092
      5          6           0        1.305982   -0.289610   -0.418287
      6          8           0        0.994974   -1.091310    0.699954
      7          6           0        0.035721   -1.004403   -0.354379
      8          1           0        0.743507    1.446926    1.073643
      9          1           0        1.655896    1.377602    0.954861
     10          1           0        1.381903    1.943610   -0.746713
     11          1           0        2.172230   -0.558120   -1.009994
     12          1           0       -0.183062   -1.920322   -0.887606
 ---------------------------------------------------------------------

 SCF Done:  E(RHF) =  -358.489581575     A.U. after    2 cycles

 The electronic state is 1-A.
 Alpha  occ. eigenvalues --  -20.63505 -20.52801 -15.60560 -11.39347 -11.35102
 Alpha  occ. eigenvalues --  -11.34960 -11.33109  -1.44298  -1.33591  -1.23104
 Alpha  occ. eigenvalues --   -1.01779  -0.98523  -0.87886  -0.79673  -0.75864
 Alpha  occ. eigenvalues --   -0.73544  -0.68279  -0.64687  -0.61585  -0.60003
 Alpha  occ. eigenvalues --   -0.55788  -0.53799  -0.50057  -0.45408  -0.40280
 Alpha  occ. eigenvalues --   -0.36740
 Alpha virt. eigenvalues --    0.01331   0.02996   0.03905   0.04620   0.06278
 Alpha virt. eigenvalues --    0.08872   0.09649   0.10294   0.10466   0.11622
 Alpha virt. eigenvalues --    0.12003   0.13370   0.13624   0.14341   0.14845

 Mulliken charges:
               1
     1  O   -0.474023
     2  C    0.368948
     3  N   -0.805527
     4  C    0.613914
     5  C    0.485679
     6  O   -0.694141
     7  C    0.615536
     8  H    0.149041
     9  H    0.307521
    10  H   -0.126156
    11  H   -0.206583
    12  H   -0.234210
 Sum of Mulliken charges =  -0.00000

 Dipole moment (field-independent basis, Debye):
    X=              7.6558    Y=              1.1550    Z=             -1.6363  Tot=              7.9134

 Test job not archived.
 1\1\GINC-SE219\SP\RHF\Aug-CC-pVDZ\C4H5N1O2\OHZDE\09-Apr-2025\0\\#t hf
 aug-cc-pvdz iop(5/13=1,5/36=2,99/5=2) pseudo=read geom=check guess=(re
 ad,tcheck) scf=(maxcycle=1)\\title\\0,1\O,0,0.80942542,2.51751027,0.47
 769235\C,0,0.50356509,1.38652247,0.19070181\N,0,1.3000712,0.44644372,-
 0.4148348\C,0,0.51749191,-0.71014996,-0.63732301\C,0,-0.88610681,-0.54
 894835,-0.09480073\O,0,-0.85243385,-0.31932147,1.2966198\C,0,-0.895079
 43,0.81319405,0.42775505\H,0,1.40638057,-0.9810153,0.24521938\H,0,0.92
 391528,-1.75839438,0.12573196\H,0,0.66756651,-1.22372586,-1.58867916\H

 Normal termination of Gaussian 16 at Wed Apr  9 03:33:15 2025.
