 Gaussian 16, Revision C.01,

 ----------------------------------------------------------------------
 #t hf aug-cc-pvdz symm=none int=(grid=ultrafine) guess=(read,tcheck) s
 table=(opt,rrhf)
 ----------------------------------------------------------------------
 -----
 title
 -----
 Symbolic Z-matrix:
 Charge =  0 Multiplicity = 1

 SCF Done:  E(RHF) =  -286.830884047     A.U. after   14 cycles
 Normal termination of Gaussian 16 at Wed Apr  9 16:14:09 2025.
 Gaussian 16:  ES64L-G16RevC.01  3-Jul-2019

 ----------------------------------------------------------------------
 #t hf aug-cc-pvdz iop(5/13=1,5/36=2,99/5=2) pseudo=read geom=check gue
 ss=(read,tcheck) scf=(maxcycle=1)
 ----------------------------------------------------------------------
 -----
 title
 -----
 Structure from the checkpoint file:  "Grambow2020_wb97xd3_007993_forward_mol2.chk"
 Charge =  0 Multiplicity = 1

                         Standard orientation:
 ---------------------------------------------------------------------
 Center     Atomic      Atomic             Coordinates (Angstroms)
 Number     Number       Type             X           Y           Z
 ---------------------------------------------------------------------
      1          6           0        3.491717    0.434583    0.083017
      2          6           0        2.125337   -0.065005   -0.021643
      3          6           0        1.005484   -0.482816   -0.114563
      4          6           0       -0.368020   -0.975279   -0.215326
      5          6           0       -1.363451   -0.056274    0.454884
      6          6           0       -2.004148    1.048462   -0.280469
      7          7           0       -2.742596   -0.181940    0.005721
      8          1           0        3.503755    1.522954    0.160566
      9          1           0        4.074309    0.152615   -0.795480
     10          1           0        3.988948    0.026863    0.964535
     11          1           0       -0.435070   -1.970181    0.234467
     12          1           0       -0.651020   -1.088933   -1.264808
     13          1           0       -1.191137    0.102832    1.515555
     14          1           0       -1.763362    1.200991   -1.326543
     15          1           0       -2.260095    1.949792    0.264832
     16          1           0       -3.389674   -0.045375    0.771430
 ---------------------------------------------------------------------

 SCF Done:  E(RHF) =  -286.919449076     A.U. after    2 cycles

 The electronic state is 1-A.
 Alpha  occ. eigenvalues --  -15.62224 -11.27299 -11.26321 -11.25531 -11.25430
 Alpha  occ. eigenvalues --  -11.23016 -11.22509  -1.24340  -1.06216  -1.01143
 Alpha  occ. eigenvalues --   -0.93099  -0.87615  -0.80636  -0.71830  -0.65678
 Alpha  occ. eigenvalues --   -0.62400  -0.60824  -0.59471  -0.58687  -0.57969
 Alpha  occ. eigenvalues --   -0.52450  -0.48031  -0.46815  -0.39182  -0.36909
 Alpha  occ. eigenvalues --   -0.36686
 Alpha virt. eigenvalues --    0.03187   0.03784   0.04432   0.04811   0.05812
 Alpha virt. eigenvalues --    0.06502   0.06717   0.07133   0.07931   0.10051
 Alpha virt. eigenvalues --    0.11863   0.13017   0.13602   0.13765   0.14458

 Mulliken charges:
               1
     1  C    0.149693
     2  C   -0.845989
     3  C   -0.003699
     4  C   -0.043594
     5  C    0.546259
     6  C    0.936305
     7  N   -0.562863
     8  H    0.132657
     9  H    0.149775
    10  H    0.151740
    11  H    0.183784
    12  H    0.138775
    13  H   -0.371794
    14  H   -0.298021
    15  H   -0.273199
    16  H    0.010172
 Sum of Mulliken charges =  -0.00000

 Dipole moment (field-independent basis, Debye):
    X=              0.6228    Y=              1.1745    Z=              1.2318  Tot=              1.8123

 Test job not archived.
 1\1\GINC-SE114\SP\RHF\Aug-CC-pVDZ\C6H9N1\OHZDE\09-Apr-2025\0\\#t hf au
 g-cc-pvdz iop(5/13=1,5/36=2,99/5=2) pseudo=read geom=check guess=(read
 ,tcheck) scf=(maxcycle=1)\\title\\0,1\C,0,2.66798758,0.78729197,2.0899
 2509\C,0,1.71059111,0.13292126,1.20520635\C,0,0.93154798,-0.41001113,0
 .47336845\C,0,-0.03537408,-1.05928473,-0.41132957\C,0,-1.41378374,-0.4
 4718449,-0.31155232\C,0,-1.81506009,0.68396929,-1.16662314\N,0,-2.2892
 9332,-0.67031934,-1.45316283\H,0,2.3878308,1.82703947,2.26641388\H,0,3
 .66759079,0.77695412,1.65247364\H,0,2.71529465,0.28089817,3.05526201\H

 Normal termination of Gaussian 16 at Wed Apr  9 16:14:14 2025.
