 Gaussian 16, Revision C.01,

 ----------------------------------------------------------------------
 #t hf aug-cc-pvdz symm=none int=(grid=ultrafine) guess=(read,tcheck) s
 table=(opt,rrhf)
 ----------------------------------------------------------------------
 -----
 title
 -----
 Symbolic Z-matrix:
 Charge =  0 Multiplicity = 1

 SCF Done:  E(RHF) =  -344.702255239     A.U. after   15 cycles

 1\1\GINC-SE113\Stability\RHF\Aug-CC-pVDZ\C5H10O2\OHZDE\09-Apr-2025\0\\
 #t hf aug-cc-pvdz symm=none int=(grid=ultrafine) guess=(read,tcheck) s
 table=(opt,rrhf)\\title\\0,1\C,0,1.25541519,0.4387932,1.19664881\O,0,1
 .01909902,0.82738881,-0.98276087\C,0,0.20079297,-0.16662141,-1.3351614
 \C,0,0.64273445,-1.46318862,-0.61605336\O,0,-0.00683687,-0.93436527,0.
 59381304\C,0,-0.97781541,-0.25573351,-0.30856455\C,0,-1.61599936,0.974
 31505,0.25501669\H,0,0.95508131,0.01987247,2.14948627\H,0,2.23230566,0
 .14847927,0.8459932\H,0,1.03746386,1.48492951,1.06521017\H,0,-0.055521

 Normal termination of Gaussian 16 at Wed Apr  9 15:01:32 2025.
 Gaussian 16:  ES64L-G16RevC.01  3-Jul-2019

 ----------------------------------------------------------------------
 #t hf aug-cc-pvdz iop(5/13=1,5/36=2,99/5=2) pseudo=read geom=check gue
 ss=(read,tcheck) scf=(maxcycle=1)
 ----------------------------------------------------------------------
 -----
 title
 -----
 Structure from the checkpoint file:  "Grambow2020_wb97xd3_006662_reverse_mol1.chk"
 Charge =  0 Multiplicity = 1

                         Standard orientation:
 ---------------------------------------------------------------------
 Center     Atomic      Atomic             Coordinates (Angstroms)
 Number     Number       Type             X           Y           Z
 ---------------------------------------------------------------------
      1          6           0       -0.639616    1.717665   -0.202187
      2          8           0       -0.555023    0.213933    1.437421
      3          6           0       -0.325902   -0.906441    0.748849
      4          6           0       -1.198999   -0.901404   -0.528332
      5          8           0       -0.222537    0.032143   -1.111758
      6          6           0        0.815854   -0.650672   -0.291311
      7          6           0        2.008081    0.186330    0.049198
      8          1           0       -0.431635    2.082590   -1.200770
      9          1           0       -1.680709    1.680625    0.074053
     10          1           0        0.003812    2.101722    0.570911
     11          1           0       -0.274758   -1.836185    1.333830
     12          1           0       -2.193703   -0.464748   -0.471723
     13          1           0       -1.189358   -1.814146   -1.126502
     14          1           0        1.083673   -1.541735   -0.864783
     15          1           0        2.822098   -0.465690    0.370092
     16          1           0        2.356033    0.753490   -0.816937
     17          1           0        1.768516    0.862605    0.869220
 ---------------------------------------------------------------------

 SCF Done:  E(RHF) =  -344.809265268     A.U. after    2 cycles

 The electronic state is 1-A.
 Alpha  occ. eigenvalues --  -20.62451 -20.44193 -11.35921 -11.29066 -11.28611
 Alpha  occ. eigenvalues --  -11.26085 -11.22717  -1.37890  -1.20107  -1.02203
 Alpha  occ. eigenvalues --   -0.99107  -0.93642  -0.86765  -0.75117  -0.70782
 Alpha  occ. eigenvalues --   -0.66821  -0.65464  -0.62511  -0.61215  -0.59364
 Alpha  occ. eigenvalues --   -0.54797  -0.53247  -0.52570  -0.51059  -0.49227
 Alpha  occ. eigenvalues --   -0.45567  -0.34601  -0.34457
 Alpha virt. eigenvalues --    0.02774   0.04026   0.04353   0.05107   0.05745
 Alpha virt. eigenvalues --    0.06265   0.06440   0.07154   0.08391   0.09217
 Alpha virt. eigenvalues --    0.09978   0.11452   0.12580   0.13432   0.13910

 Mulliken charges:
               1
     1  C    0.750634
     2  O   -0.934002
     3  C    0.922998
     4  C    0.928511
     5  O   -0.834754
     6  C    0.088020
     7  C    0.390807
     8  H   -0.079260
     9  H   -0.042925
    10  H   -0.000737
    11  H   -0.223170
    12  H   -0.251886
    13  H   -0.294656
    14  H   -0.456411
    15  H   -0.027427
    16  H    0.054790
    17  H    0.009468
 Sum of Mulliken charges =  -0.00000

 Dipole moment (field-independent basis, Debye):
    X=              0.3886    Y=              0.9194    Z=             -3.5677  Tot=              3.7047

 Test job not archived.
 1\1\GINC-SE113\SP\RHF\Aug-CC-pVDZ\C5H10O2\OHZDE\09-Apr-2025\0\\#t hf a
 ug-cc-pvdz iop(5/13=1,5/36=2,99/5=2) pseudo=read geom=check guess=(rea
 d,tcheck) scf=(maxcycle=1)\\title\\0,1\C,0,1.25541519,0.4387932,1.1966
 4881\O,0,1.01909902,0.82738881,-0.98276087\C,0,0.20079297,-0.16662141,
 -1.3351614\C,0,0.64273445,-1.46318862,-0.61605336\O,0,-0.00683687,-0.9
 3436527,0.59381304\C,0,-0.97781541,-0.25573351,-0.30856455\C,0,-1.6159
 9936,0.97431505,0.25501669\H,0,0.95508131,0.01987247,2.14948627\H,0,2.
 23230566,0.14847927,0.8459932\H,0,1.03746386,1.48492951,1.06521017\H,0

 Normal termination of Gaussian 16 at Wed Apr  9 15:01:39 2025.
