 Gaussian 16, Revision C.01,

 ----------------------------------------------------------------------
 #t hf aug-cc-pvdz symm=none int=(grid=ultrafine) guess=(read,tcheck) s
 table=(opt,rrhf)
 ----------------------------------------------------------------------
 -----
 title
 -----
 Symbolic Z-matrix:
 Charge =  0 Multiplicity = 1

 SCF Done:  E(RHF) =  -317.598683520     A.U. after   16 cycles
 Normal termination of Gaussian 16 at Wed Apr  9 16:49:58 2025.
 Gaussian 16:  ES64L-G16RevC.01  3-Jul-2019

 ----------------------------------------------------------------------
 #t hf aug-cc-pvdz iop(5/13=1,5/36=2,99/5=2) pseudo=read geom=check gue
 ss=(read,tcheck) scf=(maxcycle=1)
 ----------------------------------------------------------------------
 -----
 title
 -----
 Structure from the checkpoint file:  "Grambow2020_wb97xd3_008972_reverse_mol1.chk"
 Charge =  0 Multiplicity = 1

                         Standard orientation:
 ---------------------------------------------------------------------
 Center     Atomic      Atomic             Coordinates (Angstroms)
 Number     Number       Type             X           Y           Z
 ---------------------------------------------------------------------
      1          7           0        1.657382    0.101249   -0.881715
      2          6           0        0.565858   -0.028237    0.039011
      3          6           0        1.332317   -0.166622    1.345108
      4          7           0       -0.326182   -1.189153   -0.059579
      5          6           0       -1.498722   -0.693432   -0.081651
      6          7           0       -1.619975    0.729138   -0.045532
      7          6           0       -0.406408    1.121107   -0.020329
      8          1           0        2.223955   -0.735072   -0.875608
      9          1           0        1.370368    0.345559   -1.819592
     10          1           0        0.990498    0.631695    2.036296
     11          1           0       -2.397641   -1.296711   -0.139132
     12          1           0       -0.124027    2.168998    0.012982
 ---------------------------------------------------------------------

 SCF Done:  E(RHF) =  -317.686731468     A.U. after    2 cycles

 The electronic state is 1-A.
 Alpha  occ. eigenvalues --  -15.65324 -15.64132 -15.63649 -11.33488 -11.33131
 Alpha  occ. eigenvalues --  -11.32061 -11.30986  -1.32169  -1.19603  -1.14079
 Alpha  occ. eigenvalues --   -1.00361  -0.89173  -0.80818  -0.78725  -0.72410
 Alpha  occ. eigenvalues --   -0.66154  -0.64608  -0.60232  -0.59049  -0.51294
 Alpha  occ. eigenvalues --   -0.48367  -0.45148  -0.42110  -0.40635  -0.38047
 Alpha virt. eigenvalues --    0.02693   0.03596   0.03853   0.04922   0.04991
 Alpha virt. eigenvalues --    0.06969   0.07415   0.09552   0.10364   0.10727
 Alpha virt. eigenvalues --    0.11661   0.13954   0.14071   0.14757   0.15280

 Mulliken charges:
               1
     1  N   -0.415907
     2  C    0.584746
     3  C    0.149816
     4  N   -0.564827
     5  C    0.638444
     6  N   -0.568174
     7  C    0.581567
     8  H    0.043509
     9  H    0.014563
    10  H   -0.101133
    11  H   -0.226524
    12  H   -0.136079
 Sum of Mulliken charges =  -0.00000

 Dipole moment (field-independent basis, Debye):
    X=             -0.3820    Y=              1.5960    Z=             -1.1602  Tot=              2.0098

 Test job not archived.
 1\1\GINC-SE043\SP\RHF\Aug-CC-pVDZ\C4H5N3\OHZDE\09-Apr-2025\0\\#t hf au
 g-cc-pvdz iop(5/13=1,5/36=2,99/5=2) pseudo=read geom=check guess=(read
 ,tcheck) scf=(maxcycle=1)\\title\\0,1\N,0,-1.58665246,0.06994983,-0.65
 615413\C,0,-0.30110018,0.30525542,-0.06631066\C,0,-0.55791907,1.642455
 39,0.61077047\N,0,0.86860475,0.48204122,-0.93448075\C,0,1.73612165,-0.
 32884635,-0.4751855\N,0,1.36135709,-1.14466844,0.63553515\C,0,0.150275
 07,-0.80468447,0.84698455\H,0,-1.80017487,0.78888308,-1.33292328\H,0,-
 1.68741243,-0.85347441,-1.05466795\H,0,-0.32943724,1.53561808,1.691637

 Normal termination of Gaussian 16 at Wed Apr  9 16:50:03 2025.
