 Gaussian 16, Revision C.01,

 ----------------------------------------------------------------------
 #t hf aug-cc-pvdz symm=none int=(grid=ultrafine) guess=(read,tcheck) s
 table=(opt,rrhf)
 ----------------------------------------------------------------------
 -----
 title
 -----
 Symbolic Z-matrix:
 Charge =  0 Multiplicity = 1

 SCF Done:  E(RHF) =  -322.656305224     A.U. after   16 cycles
 Normal termination of Gaussian 16 at Wed Apr  9 15:21:57 2025.
 Gaussian 16:  ES64L-G16RevC.01  3-Jul-2019

 ----------------------------------------------------------------------
 #t hf aug-cc-pvdz iop(5/13=1,5/36=2,99/5=2) pseudo=read geom=check gue
 ss=(read,tcheck) scf=(maxcycle=1)
 ----------------------------------------------------------------------
 -----
 title
 -----
 Structure from the checkpoint file:  "Grambow2020_wb97xd3_006859_reverse_mol2.chk"
 Charge =  0 Multiplicity = 1

                         Standard orientation:
 ---------------------------------------------------------------------
 Center     Atomic      Atomic             Coordinates (Angstroms)
 Number     Number       Type             X           Y           Z
 ---------------------------------------------------------------------
      1          6           0        2.509485   -0.381631   -0.157952
      2          6           0        1.053054   -0.194425    0.010824
      3          6           0        0.012533   -0.984428    0.190146
      4          6           0       -1.193029   -0.105544    0.343093
      5          7           0       -2.369084   -0.438247   -0.433434
      6          6           0       -0.677358    1.292439    0.078302
      7          8           0        0.617004    1.167137   -0.034240
      8          1           0        2.842072    0.057723   -1.100268
      9          1           0        2.754083   -1.442380   -0.155883
     10          1           0        3.057496    0.108439    0.649029
     11          1           0        0.034352   -2.060499    0.257702
     12          1           0       -2.969642   -1.085361    0.056404
     13          1           0       -2.897457    0.405033   -0.616939
     14          1           0       -1.401461   -0.010791    1.431441
 ---------------------------------------------------------------------

 SCF Done:  E(RHF) =  -322.754846803     A.U. after    2 cycles

 The electronic state is 1-A.
 Alpha  occ. eigenvalues --  -20.64408 -15.61814 -11.31562 -11.30467 -11.27921
 Alpha  occ. eigenvalues --  -11.25549 -11.24306  -1.42727  -1.17120  -1.08313
 Alpha  occ. eigenvalues --   -1.01739  -0.92376  -0.82248  -0.76946  -0.68213
 Alpha  occ. eigenvalues --   -0.67861  -0.64526  -0.61296  -0.59928  -0.57524
 Alpha  occ. eigenvalues --   -0.57329  -0.54482  -0.54028  -0.40063  -0.37268
 Alpha  occ. eigenvalues --   -0.36051
 Alpha virt. eigenvalues --    0.03014   0.03647   0.04664   0.04937   0.06429
 Alpha virt. eigenvalues --    0.06655   0.07077   0.09621   0.10316   0.11328
 Alpha virt. eigenvalues --    0.11653   0.13230   0.13865   0.14660   0.15230

 Mulliken charges:
               1
     1  C    0.379712
     2  C   -0.255522
     3  C    0.539905
     4  C    0.346818
     5  N   -0.426510
     6  C   -0.035038
     7  O   -0.595339
     8  H    0.062392
     9  H    0.003276
    10  H    0.072997
    11  H   -0.268211
    12  H   -0.006727
    13  H    0.025337
    14  H    0.156909
 Sum of Mulliken charges =  -0.00000

 Dipole moment (field-independent basis, Debye):
    X=              0.6704    Y=             -3.0239    Z=              1.3500  Tot=              3.3788

 Test job not archived.
 1\1\GINC-SE100\SP\RHF\Aug-CC-pVDZ\C5H7N1O1\OHZDE\09-Apr-2025\0\\#t hf
 aug-cc-pvdz iop(5/13=1,5/36=2,99/5=2) pseudo=read geom=check guess=(re
 ad,tcheck) scf=(maxcycle=1)\\title\\0,1\C,0,2.41444705,-0.018987,-0.07
 341609\C,0,0.94374383,0.10408481,0.00786884\C,0,-0.06230891,-0.7154874
 9,0.2426097\C,0,-1.31762118,0.10502851,0.23017672\N,0,-2.43512116,-0.3
 8958305,-0.54657626\C,0,-0.86215952,1.48589092,-0.18953911\O,0,0.44091
 887,1.42190032,-0.22993628\H,0,2.77018054,0.3167585,-1.04929262\H,0,2.
 71294502,-1.05526516,0.07506943\H,0,2.89589551,0.59927849,0.68662227\H

 Normal termination of Gaussian 16 at Wed Apr  9 15:22:02 2025.
