 Gaussian 16, Revision C.01,

 ----------------------------------------------------------------------
 #t hf aug-cc-pvdz symm=none int=(grid=ultrafine) guess=(read,tcheck) s
 table=(opt,rrhf)
 ----------------------------------------------------------------------
 -----
 title
 -----
 Symbolic Z-matrix:
 Charge =  0 Multiplicity = 1

 SCF Done:  E(RHF) =  -286.700200647     A.U. after   15 cycles
 Normal termination of Gaussian 16 at Wed Apr  9 16:14:10 2025.
 Gaussian 16:  ES64L-G16RevC.01  3-Jul-2019

 ----------------------------------------------------------------------
 #t hf aug-cc-pvdz iop(5/13=1,5/36=2,99/5=2) pseudo=read geom=check gue
 ss=(read,tcheck) scf=(maxcycle=1)
 ----------------------------------------------------------------------
 -----
 title
 -----
 Structure from the checkpoint file:  "Grambow2020_wb97xd3_007995_forward_mol1.chk"
 Charge =  0 Multiplicity = 1

                         Standard orientation:
 ---------------------------------------------------------------------
 Center     Atomic      Atomic             Coordinates (Angstroms)
 Number     Number       Type             X           Y           Z
 ---------------------------------------------------------------------
      1          6           0       -3.430012    0.459767   -0.040412
      2          6           0       -2.078972   -0.083272    0.034925
      3          6           0       -0.972718   -0.540849    0.095963
      4          6           0        0.395206   -1.056994    0.140542
      5          6           0        1.237364   -0.101689   -0.704705
      6          6           0        1.720353    1.022838    0.130108
      7          7           0        2.819920    0.040003    0.233048
      8          1           0       -3.633189    1.119431    0.804540
      9          1           0       -4.169366   -0.342584   -0.031449
     10          1           0       -3.562719    1.032541   -0.959542
     11          1           0        0.414782   -2.065663   -0.276341
     12          1           0        0.733376   -1.112240    1.182840
     13          1           0        2.467933   -0.662813   -0.663355
     14          1           0        1.235352    1.183066    1.090701
     15          1           0        1.974718    1.952699   -0.370483
     16          1           0        3.572345    0.416744   -0.346773
 ---------------------------------------------------------------------

 SCF Done:  E(RHF) =  -286.785354760     A.U. after    2 cycles

 The electronic state is 1-A.
 Alpha  occ. eigenvalues --  -15.67527 -11.27743 -11.26992 -11.25913 -11.25528
 Alpha  occ. eigenvalues --  -11.23388 -11.22911  -1.23460  -1.06820  -1.01783
 Alpha  occ. eigenvalues --   -0.93918  -0.90516  -0.80202  -0.67875  -0.65406
 Alpha  occ. eigenvalues --   -0.62163  -0.60741  -0.59874  -0.58777  -0.58325
 Alpha  occ. eigenvalues --   -0.56137  -0.50090  -0.44355  -0.37620  -0.37146
 Alpha  occ. eigenvalues --   -0.34270
 Alpha virt. eigenvalues --    0.03355   0.03657   0.04337   0.05046   0.05768
 Alpha virt. eigenvalues --    0.06333   0.06963   0.07783   0.08744   0.09437
 Alpha virt. eigenvalues --    0.11504   0.12484   0.13697   0.13810   0.14220

 Mulliken charges:
               1
     1  C    0.158692
     2  C   -0.967217
     3  C   -0.056699
     4  C    0.201913
     5  C   -0.592429
     6  C    1.121067
     7  N   -0.616615
     8  H    0.143576
     9  H    0.146264
    10  H    0.144934
    11  H    0.051498
    12  H    0.219106
    13  H    0.441424
    14  H   -0.240018
    15  H   -0.198559
    16  H    0.043063
 Sum of Mulliken charges =  -0.00000

 Dipole moment (field-independent basis, Debye):
    X=              0.2789    Y=              1.0716    Z=              0.4338  Tot=              1.1892

 Test job not archived.
 1\1\GINC-SE162\SP\RHF\Aug-CC-pVDZ\C6H9N1\OHZDE\09-Apr-2025\0\\#t hf au
 g-cc-pvdz iop(5/13=1,5/36=2,99/5=2) pseudo=read geom=check guess=(read
 ,tcheck) scf=(maxcycle=1)\\title\\0,1\C,0,2.57634832,1.30277328,1.8895
 8495\C,0,1.73348303,0.47711485,1.03299749\C,0,1.04924858,-0.20996199,0
 .32826518\C,0,0.17056891,-1.03293967,-0.50254237\C,0,-1.22980564,-0.89
 522288,0.09433637\C,0,-1.91578245,0.28187533,-0.48757993\N,0,-2.333835
 56,-0.81861629,-1.38187141\H,0,2.68280182,2.30836192,1.47990105\H,0,3.
 57210043,0.86730612,1.98621805\H,0,2.14438466,1.38555186,2.88810101\H,

 Normal termination of Gaussian 16 at Wed Apr  9 16:14:15 2025.
