 Gaussian 16, Revision C.01,

 ----------------------------------------------------------------------
 #t hf aug-cc-pvdz symm=none int=(grid=ultrafine) guess=(read,tcheck) s
 table=(opt,rrhf)
 ----------------------------------------------------------------------
 -----
 title
 -----
 Symbolic Z-matrix:
 Charge =  0 Multiplicity = 1

 SCF Done:  E(RHF) =  -262.626838833     A.U. after   15 cycles
 Normal termination of Gaussian 16 at Wed Apr  9 14:16:01 2025.
 Gaussian 16:  ES64L-G16RevC.01  3-Jul-2019

 ----------------------------------------------------------------------
 #t hf aug-cc-pvdz iop(5/13=1,5/36=2,99/5=2) pseudo=read geom=check gue
 ss=(read,tcheck) scf=(maxcycle=1)
 ----------------------------------------------------------------------
 -----
 title
 -----
 Structure from the checkpoint file:  "Grambow2020_b97d3_006901_reverse_mol2.chk"
 Charge =  0 Multiplicity = 1

                         Standard orientation:
 ---------------------------------------------------------------------
 Center     Atomic      Atomic             Coordinates (Angstroms)
 Number     Number       Type             X           Y           Z
 ---------------------------------------------------------------------
      1          6           0       -1.072710   -0.899354    0.001374
      2          6           0        0.248033   -1.482177    0.000100
      3          7           0        1.180780   -0.492928   -0.001505
      4          7           0        1.089166    0.866469    0.001567
      5          6           0       -0.153613    1.318750    0.000230
      6          6           0       -1.286223    0.466876   -0.002230
      7          1           0       -1.927243   -1.579512    0.005757
      8          1           0        2.162566   -0.770107   -0.002531
      9          1           0       -0.251593    2.405019    0.003748
     10          1           0       -2.286271    0.905244   -0.004245
 ---------------------------------------------------------------------

 SCF Done:  E(RHF) =  -262.700819776     A.U. after    2 cycles

 The electronic state is 1-A.
 Alpha  occ. eigenvalues --  -15.73020 -15.70397 -11.30969 -11.28873 -11.27134
 Alpha  occ. eigenvalues --  -11.26079  -1.32891  -1.12511  -1.08979  -0.90253
 Alpha  occ. eigenvalues --   -0.88572  -0.76182  -0.69334  -0.66605  -0.59971
 Alpha  occ. eigenvalues --   -0.59479  -0.58566  -0.47425  -0.42234  -0.38131
 Alpha  occ. eigenvalues --   -0.35458
 Alpha virt. eigenvalues --    0.02820   0.04132   0.04426   0.05499   0.06123
 Alpha virt. eigenvalues --    0.08912   0.09640   0.11710   0.12310   0.12727
 Alpha virt. eigenvalues --    0.13806   0.13862   0.14523   0.15354   0.15440

 Mulliken charges:
               1
     1  C    0.423973
     2  C   -0.097476
     3  N   -0.187685
     4  N   -0.319225
     5  C    0.569407
     6  C    0.512274
     7  H   -0.340880
     8  H    0.056268
     9  H   -0.265484
    10  H   -0.351174
 Sum of Mulliken charges =  -0.00000

 Dipole moment (field-independent basis, Debye):
    X=             -1.4275    Y=              2.4683    Z=              0.0003  Tot=              2.8513

 Test job not archived.
 1\1\GINC-SE141\SP\RHF\Aug-CC-pVDZ\C4H4N2\OHZDE\09-Apr-2025\0\\#t hf au
 g-cc-pvdz iop(5/13=1,5/36=2,99/5=2) pseudo=read geom=check guess=(read
 ,tcheck) scf=(maxcycle=1)\\title\\0,1\C,0,0.66665149,1.05202146,-0.266
 98466\C,0,1.6104402,-0.03293825,-0.13982072\N,0,0.94464766,-1.18194907
 ,0.15194752\N,0,-0.37559825,-1.46779982,0.3297195\C,0,-1.1720034,-0.42
 011672,0.19872599\C,0,-0.69541335,0.88045657,-0.10106021\H,0,1.0612606
 ,2.0423056,-0.5046404\H,0,1.49778855,-2.03110826,0.26897568\H,0,-2.234
 38792,-0.62539784,0.33580911\H,0,-1.40696959,1.70335134,-0.19485781\\V

 Normal termination of Gaussian 16 at Wed Apr  9 14:16:04 2025.
