 Gaussian 16, Revision C.01,

 ----------------------------------------------------------------------
 #t hf aug-cc-pvdz symm=none int=(grid=ultrafine) guess=(read,tcheck) s
 table=(opt,rrhf)
 ----------------------------------------------------------------------
 -----
 title
 -----
 Symbolic Z-matrix:
 Charge =  0 Multiplicity = 1

 SCF Done:  E(RHF) =  -287.965451447     A.U. after   16 cycles

 1\1\GINC-SE125\Stability\RHF\Aug-CC-pVDZ\C6H11N1\OHZDE\09-Apr-2025\0\\
 #t hf aug-cc-pvdz symm=none int=(grid=ultrafine) guess=(read,tcheck) s
 table=(opt,rrhf)\\title\\0,1\C,0,2.35258491,-0.45243422,-0.19724361\C,
 0,0.89472674,-0.10767567,0.25615067\C,0,0.58886684,1.37167766,0.050923
 72\C,0,0.16792762,-1.10152494,-0.53588316\C,0,-2.72091812,-0.37855286,
 0.95350935\C,0,-0.24780794,-0.70793401,-1.80991849\N,0,-0.64728615,-0.
 4988578,-2.88017523\H,0,2.60221305,-1.49701709,-0.01974902\H,0,3.01842
 131,0.1760176,0.39482625\H,0,2.50582875,-0.21991618,-1.25184554\H,0,0.

 Normal termination of Gaussian 16 at Wed Apr  9 03:45:53 2025.
 Gaussian 16:  ES64L-G16RevC.01  3-Jul-2019

 ----------------------------------------------------------------------
 #t hf aug-cc-pvdz iop(5/13=1,5/36=2,99/5=2) pseudo=read geom=check gue
 ss=(read,tcheck) scf=(maxcycle=1)
 ----------------------------------------------------------------------
 -----
 title
 -----
 Structure from the checkpoint file:  "Grambow2020_wb97xd3_007881_reverse_mol2.chk"
 Charge =  0 Multiplicity = 1

                         Standard orientation:
 ---------------------------------------------------------------------
 Center     Atomic      Atomic             Coordinates (Angstroms)
 Number     Number       Type             X           Y           Z
 ---------------------------------------------------------------------
      1          6           0        2.225556   -0.512229   -0.580910
      2          6           0        0.733009   -0.812556   -0.217757
      3          6           0        0.559644   -1.007906    1.284221
      4          6           0        0.104101    0.341364   -0.862919
      5          6           0       -2.958826   -0.822459   -0.270970
      6          6           0       -0.047825    1.491111   -0.084514
      7          7           0       -0.232099    2.500732    0.459043
      8          1           0        2.375061   -0.410279   -1.654328
      9          1           0        2.809017   -1.360247   -0.221363
     10          1           0        2.582275    0.388987   -0.080614
     11          1           0        0.467025   -1.720012   -0.765306
     12          1           0        1.112236   -1.887664    1.619597
     13          1           0       -0.491046   -1.153715    1.538089
     14          1           0        0.924243   -0.140158    1.837905
     15          1           0       -2.343363   -0.554008   -1.130702
     16          1           0       -4.007851   -0.791647   -0.560648
     17          1           0       -2.706114   -1.828252    0.063117
     18          1           0       -2.790750   -0.112079    0.538037
 ---------------------------------------------------------------------

 SCF Done:  E(RHF) =  -288.056086684     A.U. after    2 cycles

 The electronic state is 1-A.
 Alpha  occ. eigenvalues --  -15.66695 -11.31933 -11.29664 -11.27909 -11.26523
 Alpha  occ. eigenvalues --  -11.24675 -11.22427  -1.21165  -1.12506  -0.96925
 Alpha  occ. eigenvalues --   -0.95836  -0.94595  -0.83457  -0.67344  -0.65028
 Alpha  occ. eigenvalues --   -0.59908  -0.57688  -0.57367  -0.55820  -0.55488
 Alpha  occ. eigenvalues --   -0.55274  -0.54327  -0.52706  -0.51582  -0.50342
 Alpha  occ. eigenvalues --   -0.48289  -0.37453
 Alpha virt. eigenvalues --    0.01587   0.02952   0.04047   0.04418   0.05048
 Alpha virt. eigenvalues --    0.06088   0.06706   0.06865   0.07183   0.08320
 Alpha virt. eigenvalues --    0.08638   0.09880   0.10647   0.12114   0.13006

 Mulliken charges:
               1
     1  C    0.698557
     2  C   -0.805038
     3  C    0.768054
     4  C    0.033115
     5  C    0.739294
     6  C   -0.080163
     7  N   -0.273894
     8  H   -0.029656
     9  H   -0.043226
    10  H   -0.060628
    11  H   -0.153280
    12  H   -0.030640
    13  H   -0.058401
    14  H   -0.013864
    15  H   -0.142523
    16  H   -0.200638
    17  H   -0.162501
    18  H   -0.184568
 Sum of Mulliken charges =  -0.00000

 Dipole moment (field-independent basis, Debye):
    X=              1.6105    Y=             -3.5881    Z=              0.3768  Tot=              3.9510

 Test job not archived.
 1\1\GINC-SE125\SP\RHF\Aug-CC-pVDZ\C6H11N1\OHZDE\09-Apr-2025\0\\#t hf a
 ug-cc-pvdz iop(5/13=1,5/36=2,99/5=2) pseudo=read geom=check guess=(rea
 d,tcheck) scf=(maxcycle=1)\\title\\0,1\C,0,2.35258491,-0.45243422,-0.1
 9724361\C,0,0.89472674,-0.10767567,0.25615067\C,0,0.58886684,1.3716776
 6,0.05092372\C,0,0.16792762,-1.10152494,-0.53588316\C,0,-2.72091812,-0
 .37855286,0.95350935\C,0,-0.24780794,-0.70793401,-1.80991849\N,0,-0.64
 728615,-0.4988578,-2.88017523\H,0,2.60221305,-1.49701709,-0.01974902\H
 ,0,3.01842131,0.1760176,0.39482625\H,0,2.50582875,-0.21991618,-1.25184

 Normal termination of Gaussian 16 at Wed Apr  9 03:46:00 2025.
