 Gaussian 16, Revision C.01,

 ----------------------------------------------------------------------
 #t hf aug-cc-pvdz symm=none int=(grid=ultrafine) guess=(read,tcheck) s
 table=(opt,rrhf)
 ----------------------------------------------------------------------
 -----
 title
 -----
 Symbolic Z-matrix:
 Charge =  0 Multiplicity = 1

 SCF Done:  E(RHF) =  -359.570370268     A.U. after   14 cycles
 Normal termination of Gaussian 16 at Wed Apr  9 17:13:27 2025.
 Gaussian 16:  ES64L-G16RevC.01  3-Jul-2019

 ----------------------------------------------------------------------
 #t hf aug-cc-pvdz iop(5/13=1,5/36=2,99/5=2) pseudo=read geom=check gue
 ss=(read,tcheck) scf=(maxcycle=1)
 ----------------------------------------------------------------------
 -----
 title
 -----
 Structure from the checkpoint file:  "Grambow2020_wb97xd3_009399_forward_mol1.chk"
 Charge =  0 Multiplicity = 1

                         Standard orientation:
 ---------------------------------------------------------------------
 Center     Atomic      Atomic             Coordinates (Angstroms)
 Number     Number       Type             X           Y           Z
 ---------------------------------------------------------------------
      1          8           0       -1.708484   -0.295466   -0.959779
      2          6           0       -1.281320   -0.041281    0.260576
      3          6           0        0.164147   -1.324921    0.569483
      4          8           0        1.312543   -0.943725   -0.141175
      5          6           0        1.501716    0.378078   -0.385641
      6          7           0        0.780529    1.366053   -0.116751
      7          6           0       -0.501972    1.226827    0.539425
      8          1           0       -0.849466   -1.122085   -0.333760
      9          1           0       -1.922727   -0.345191    1.105932
     10          1           0        0.233297   -1.130376    1.639220
     11          1           0        0.027229   -2.399998    0.412342
     12          1           0        2.451228    0.512174   -0.895472
     13          1           0       -0.375098    1.377419    1.615550
     14          1           0       -1.156064    2.027000    0.178024
 ---------------------------------------------------------------------

 SCF Done:  E(RHF) =  -359.681073196     A.U. after    2 cycles

 The electronic state is 1-A.
 Alpha  occ. eigenvalues --  -20.63614 -20.52495 -15.62809 -11.38066 -11.36214
 Alpha  occ. eigenvalues --  -11.33380 -11.29098  -1.41726  -1.32514  -1.20883
 Alpha  occ. eigenvalues --   -1.04857  -0.97188  -0.88771  -0.76731  -0.74903
 Alpha  occ. eigenvalues --   -0.73481  -0.70047  -0.66240  -0.63764  -0.61628
 Alpha  occ. eigenvalues --   -0.59297  -0.56109  -0.55051  -0.46564  -0.42455
 Alpha  occ. eigenvalues --   -0.40631  -0.37904
 Alpha virt. eigenvalues --    0.02467   0.04019   0.04327   0.04933   0.05912
 Alpha virt. eigenvalues --    0.06964   0.08110   0.09486   0.10301   0.11994
 Alpha virt. eigenvalues --    0.12243   0.12869   0.13674   0.14192   0.14710

 Mulliken charges:
               1
     1  O   -0.934109
     2  C    0.532010
     3  C    0.530478
     4  O   -0.493749
     5  C    0.566317
     6  N   -0.323016
     7  C    0.675870
     8  H    0.482135
     9  H   -0.082419
    10  H   -0.169969
    11  H   -0.261143
    12  H   -0.343830
    13  H   -0.099766
    14  H   -0.078807
 Sum of Mulliken charges =  -0.00000

 Dipole moment (field-independent basis, Debye):
    X=              0.9541    Y=             -1.4234    Z=              4.1512  Tot=              4.4910

 Test job not archived.
 1\1\GINC-SE112\SP\RHF\Aug-CC-pVDZ\C4H7N1O2\OHZDE\09-Apr-2025\0\\#t hf
 aug-cc-pvdz iop(5/13=1,5/36=2,99/5=2) pseudo=read geom=check guess=(re
 ad,tcheck) scf=(maxcycle=1)\\title\\0,1\O,0,-1.22798488,-0.89853106,1.
 34038352\C,0,-1.12018394,-0.36005059,0.14256787\C,0,-0.07992221,1.2760
 3201,0.41388988\O,0,1.27104347,0.96284334,0.62827716\C,0,1.76021175,-0
 .17066336,0.0638385\N,0,1.18661887,-1.05542995,-0.61194758\C,0,-0.2310
 9102,-1.00635027,-0.89908877\H,0,-0.745244,0.34759002,1.17529885\H,0,-
 2.01687444,0.11372345,-0.29317875\H,0,-0.27831514,1.67732696,-0.579372

 Normal termination of Gaussian 16 at Wed Apr  9 17:13:32 2025.
