 Gaussian 16, Revision C.01,

 ----------------------------------------------------------------------
 #t hf aug-cc-pvdz symm=none int=(grid=ultrafine) guess=(read,tcheck) s
 table=(opt,rrhf)
 ----------------------------------------------------------------------
 -----
 title
 -----
 Symbolic Z-matrix:
 Charge =  0 Multiplicity = 1

 SCF Done:  E(RHF) =  -299.608761840     A.U. after   16 cycles
 Normal termination of Gaussian 16 at Wed Apr  9 03:06:39 2025.
 Gaussian 16:  ES64L-G16RevC.01  3-Jul-2019

 ----------------------------------------------------------------------
 #t hf aug-cc-pvdz iop(5/13=1,5/36=2,99/5=2) pseudo=read geom=check gue
 ss=(read,tcheck) scf=(maxcycle=1)
 ----------------------------------------------------------------------
 -----
 title
 -----
 Structure from the checkpoint file:  "Grambow2020_b97d3_006601_forward_mol1.chk"
 Charge =  0 Multiplicity = 1

                         Standard orientation:
 ---------------------------------------------------------------------
 Center     Atomic      Atomic             Coordinates (Angstroms)
 Number     Number       Type             X           Y           Z
 ---------------------------------------------------------------------
      1          6           0       -2.168051   -0.235142   -0.000778
      2          6           0       -0.694586    0.117544   -0.000886
      3          7           0        0.156542   -1.010087   -0.000231
      4          6           0        1.355041   -0.522356    0.000517
      5          7           0        2.195376    0.398684   -0.001165
      6          8           0       -0.280378    1.279733    0.000891
      7          1           0       -2.390074   -0.878406   -0.862132
      8          1           0       -2.776266    0.673344   -0.038677
      9          1           0       -2.403885   -0.808740    0.905636
     10          1           0        2.395398   -1.104514    0.004694
 ---------------------------------------------------------------------

 SCF Done:  E(RHF) =  -299.695903761     A.U. after    2 cycles

 The electronic state is 1-A.
 Alpha  occ. eigenvalues --  -20.56453 -15.77110 -15.64534 -11.40933 -11.38243
 Alpha  occ. eigenvalues --  -11.25211  -1.36991  -1.29399  -1.18866  -1.00897
 Alpha  occ. eigenvalues --   -0.83434  -0.72898  -0.68574  -0.65946  -0.64082
 Alpha  occ. eigenvalues --   -0.61175  -0.58572  -0.56097  -0.51960  -0.50142
 Alpha  occ. eigenvalues --   -0.44687  -0.40912
 Alpha virt. eigenvalues --    0.02057   0.03725   0.04533   0.05514   0.06284
 Alpha virt. eigenvalues --    0.08830   0.09297   0.09660   0.11079   0.13308
 Alpha virt. eigenvalues --    0.13804   0.14723   0.15197   0.15795   0.16132

 Mulliken charges:
               1
     1  C    0.222601
     2  C    0.417541
     3  N   -0.346238
     4  C    0.091138
     5  N   -0.096273
     6  O   -0.548484
     7  H    0.059842
     8  H   -0.011063
     9  H    0.065793
    10  H    0.145144
 Sum of Mulliken charges =  -0.00000

 Dipole moment (field-independent basis, Debye):
    X=              0.5054    Y=             -2.7189    Z=              0.0061  Tot=              2.7655

 Test job not archived.
 1\1\GINC-SE344\SP\RHF\Aug-CC-pVDZ\C3H4N2O1\OHZDE\09-Apr-2025\0\\#t hf
 aug-cc-pvdz iop(5/13=1,5/36=2,99/5=2) pseudo=read geom=check guess=(re
 ad,tcheck) scf=(maxcycle=1)\\title\\0,1\C,0,-1.70583623,0.06323421,0.0
 3790916\C,0,-0.24315201,-0.29542412,-0.1276413\N,0,0.64006793,0.716178
 33,0.31116765\C,0,1.82401224,0.24095486,0.09501681\N,0,2.63748401,-0.6
 2311264,-0.28725482\O,0,0.13741591,-1.36844378,-0.60308927\H,0,-1.9048
 7935,0.3109156,1.08864659\H,0,-2.33974968,-0.76868823,-0.28266392\H,0,
 -1.92965554,0.95850973,-0.55757835\H,0,2.88066072,0.75014304,0.3082974

 Normal termination of Gaussian 16 at Wed Apr  9 03:06:42 2025.
