 Gaussian 16, Revision C.01,

 ----------------------------------------------------------------------
 #t hf aug-cc-pvdz symm=none int=(grid=ultrafine) guess=(read,tcheck) s
 table=(opt,rrhf)
 ----------------------------------------------------------------------
 -----
 title
 -----
 Symbolic Z-matrix:
 Charge =  0 Multiplicity = 1

 SCF Done:  E(RHF) =  -308.926886169     A.U. after   16 cycles

 1\1\GINC-SE162\Stability\RHF\Aug-CC-pVDZ\C6H12O1\OHZDE\09-Apr-2025\0\\
 #t hf aug-cc-pvdz symm=none int=(grid=ultrafine) guess=(read,tcheck) s
 table=(opt,rrhf)\\title\\0,1\C,0,1.64923097,1.26654477,-0.30222042\C,0
 ,0.62016724,0.17750463,-0.0963015\C,0,1.19025574,-1.20895926,0.1037961
 6\C,0,-0.61408741,0.34331818,-0.71885719\C,0,-1.707808,-0.67906804,-0.
 75788028\C,0,-2.01676214,0.02754979,0.50551599\O,0,-1.62776883,-0.3567
 9066,1.64675964\H,0,1.17945734,2.2471988,-0.37918143\H,0,2.37146728,1.
 29236021,0.51411937\H,0,2.20165261,1.07947897,-1.22744004\H,0,0.372015

 Normal termination of Gaussian 16 at Wed Apr  9 16:26:34 2025.
 Gaussian 16:  ES64L-G16RevC.01  3-Jul-2019

 ----------------------------------------------------------------------
 #t hf aug-cc-pvdz iop(5/13=1,5/36=2,99/5=2) pseudo=read geom=check gue
 ss=(read,tcheck) scf=(maxcycle=1)
 ----------------------------------------------------------------------
 -----
 title
 -----
 Structure from the checkpoint file:  "Grambow2020_wb97xd3_008288_reverse_mol1.chk"
 Charge =  0 Multiplicity = 1

                         Standard orientation:
 ---------------------------------------------------------------------
 Center     Atomic      Atomic             Coordinates (Angstroms)
 Number     Number       Type             X           Y           Z
 ---------------------------------------------------------------------
      1          6           0        2.195962   -0.668320   -0.593885
      2          6           0        0.948897   -0.037268   -0.015970
      3          6           0        1.180787    1.242550    0.755790
      4          6           0       -0.088236   -0.893402    0.344370
      5          6           0       -1.338294   -0.484653    1.060821
      6          6           0       -1.729319   -0.268451   -0.350309
      7          8           0       -1.645848    0.844367   -0.947083
      8          1           0        1.955889   -1.550502   -1.187529
      9          1           0        2.743089    0.033672   -1.223616
     10          1           0        2.862416   -0.974310    0.217536
     11          1           0        0.472439    0.702172   -1.302365
     12          1           0        1.898856    1.882605    0.242650
     13          1           0        1.583210    1.002817    1.744550
     14          1           0        0.259872    1.807706    0.888586
     15          1           0       -0.015134   -1.931394    0.044986
     16          1           0       -1.847041   -1.298947    1.567187
     17          1           0       -1.282099    0.414490    1.664840
     18          1           0       -2.110210   -1.140483   -0.893446
     19          1           0       -0.373286    0.954508   -1.391619
 ---------------------------------------------------------------------

 SCF Done:  E(RHF) =  -309.025368025     A.U. after    2 cycles

 The electronic state is 1-A.
 Alpha  occ. eigenvalues --  -20.55123 -11.32561 -11.29359 -11.24891 -11.24256
 Alpha  occ. eigenvalues --  -11.23667 -11.23553  -1.32752  -1.12321  -1.04999
 Alpha  occ. eigenvalues --   -0.95154  -0.89076  -0.80275  -0.73324  -0.70316
 Alpha  occ. eigenvalues --   -0.68429  -0.63015  -0.61769  -0.60146  -0.57542
 Alpha  occ. eigenvalues --   -0.55752  -0.55239  -0.53460  -0.51867  -0.49624
 Alpha  occ. eigenvalues --   -0.43286  -0.40664  -0.32423
 Alpha virt. eigenvalues --    0.03227   0.03963   0.04248   0.04923   0.05967
 Alpha virt. eigenvalues --    0.06260   0.06490   0.07380   0.08105   0.08832
 Alpha virt. eigenvalues --    0.09579   0.10554   0.11490   0.12388   0.13378

 Mulliken charges:
               1
     1  C    0.998939
     2  C   -2.002485
     3  C    0.631758
     4  C    0.474350
     5  C    0.731649
     6  C    0.774715
     7  O   -0.727384
     8  H   -0.081480
     9  H   -0.077846
    10  H    0.028382
    11  H    0.611382
    12  H   -0.053510
    13  H    0.030423
    14  H   -0.082447
    15  H   -0.550307
    16  H   -0.192552
    17  H   -0.238505
    18  H   -0.223015
    19  H   -0.052066
 Sum of Mulliken charges =  -0.00000

 Dipole moment (field-independent basis, Debye):
    X=              1.8295    Y=             -2.0933    Z=              1.7203  Tot=              3.2693

 Test job not archived.
 1\1\GINC-SE162\SP\RHF\Aug-CC-pVDZ\C6H12O1\OHZDE\09-Apr-2025\0\\#t hf a
 ug-cc-pvdz iop(5/13=1,5/36=2,99/5=2) pseudo=read geom=check guess=(rea
 d,tcheck) scf=(maxcycle=1)\\title\\0,1\C,0,1.64923097,1.26654477,-0.30
 222042\C,0,0.62016724,0.17750463,-0.0963015\C,0,1.19025574,-1.20895926
 ,0.10379616\C,0,-0.61408741,0.34331818,-0.71885719\C,0,-1.707808,-0.67
 906804,-0.75788028\C,0,-2.01676214,0.02754979,0.50551599\O,0,-1.627768
 83,-0.35679066,1.64675964\H,0,1.17945734,2.2471988,-0.37918143\H,0,2.3
 7146728,1.29236021,0.51411937\H,0,2.20165261,1.07947897,-1.22744004\H,

 Normal termination of Gaussian 16 at Wed Apr  9 16:26:41 2025.
