 Gaussian 16, Revision C.01,

 ----------------------------------------------------------------------
 #t hf aug-cc-pvdz symm=none int=(grid=ultrafine) guess=(read,tcheck) s
 table=(opt,rrhf)
 ----------------------------------------------------------------------
 -----
 title
 -----
 Symbolic Z-matrix:
 Charge =  0 Multiplicity = 1

 SCF Done:  E(RHF) =  -306.535796901     A.U. after   17 cycles
 Normal termination of Gaussian 16 at Wed Apr  9 16:52:21 2025.
 Gaussian 16:  ES64L-G16RevC.01  3-Jul-2019

 ----------------------------------------------------------------------
 #t hf aug-cc-pvdz iop(5/13=1,5/36=2,99/5=2) pseudo=read geom=check gue
 ss=(read,tcheck) scf=(maxcycle=1)
 ----------------------------------------------------------------------
 -----
 title
 -----
 Structure from the checkpoint file:  "Grambow2020_wb97xd3_009027_forward_mol1.chk"
 Charge =  0 Multiplicity = 1

                         Standard orientation:
 ---------------------------------------------------------------------
 Center     Atomic      Atomic             Coordinates (Angstroms)
 Number     Number       Type             X           Y           Z
 ---------------------------------------------------------------------
      1          6           0        2.181826   -0.055161    0.367470
      2          6           0        0.780729   -0.085269   -0.139088
      3          8           0        0.131103   -1.217954   -0.043240
      4          6           0       -1.184813   -0.944972   -0.379852
      5          6           0       -1.669869    0.176278    0.478407
      6          6           0       -0.634405    1.204093    0.277858
      7          6           0        0.099984    0.943781   -0.898353
      8          1           0        2.766636   -0.814756   -0.157444
      9          1           0        2.631068    0.918782    0.183020
     10          1           0        2.235136   -0.269093    1.435672
     11          1           0       -1.759188   -1.862737   -0.437360
     12          1           0       -2.594223    0.591050    0.062295
     13          1           0       -1.869476   -0.116108    1.521063
     14          1           0       -0.594377    2.127509    0.849922
     15          1           0        0.694884    1.736487   -1.349897
 ---------------------------------------------------------------------

 SCF Done:  E(RHF) =  -306.629564410     A.U. after    2 cycles

 The electronic state is 1-A.
 Alpha  occ. eigenvalues --  -20.62638 -11.34616 -11.27907 -11.26366 -11.25751
 Alpha  occ. eigenvalues --  -11.25478 -11.23832  -1.42241  -1.12672  -1.05632
 Alpha  occ. eigenvalues --   -0.96530  -0.87804  -0.81872  -0.73101  -0.68209
 Alpha  occ. eigenvalues --   -0.66627  -0.65627  -0.62614  -0.58459  -0.57542
 Alpha  occ. eigenvalues --   -0.56581  -0.53567  -0.49901  -0.48706  -0.35619
 Alpha  occ. eigenvalues --   -0.24341
 Alpha virt. eigenvalues --    0.03009   0.04147   0.04396   0.04817   0.06277
 Alpha virt. eigenvalues --    0.06521   0.06765   0.06901   0.06995   0.10272
 Alpha virt. eigenvalues --    0.11599   0.12116   0.12992   0.13558   0.14035

 Mulliken charges:
               1
     1  C    0.482561
     2  C   -0.004887
     3  O   -0.591837
     4  C    0.520886
     5  C    0.148814
     6  C    0.328609
     7  C    0.233292
     8  H    0.019559
     9  H   -0.019476
    10  H    0.050673
    11  H   -0.441203
    12  H    0.082733
    13  H   -0.113130
    14  H   -0.334803
    15  H   -0.361791
 Sum of Mulliken charges =  -0.00000

 Dipole moment (field-independent basis, Debye):
    X=              1.4848    Y=              2.2073    Z=              1.8890  Tot=              3.2627

 Test job not archived.
 1\1\GINC-SE114\SP\RHF\Aug-CC-pVDZ\C6H8O1\OHZDE\09-Apr-2025\0\\#t hf au
 g-cc-pvdz iop(5/13=1,5/36=2,99/5=2) pseudo=read geom=check guess=(read
 ,tcheck) scf=(maxcycle=1)\\title\\0,1\C,0,2.08058735,0.35446669,-0.253
 97474\C,0,0.63374537,0.4521271,0.08908775\O,0,-0.11714156,1.20006915,-
 0.67963054\C,0,-1.42710398,0.97026358,-0.29149688\C,0,-1.68299042,-0.4
 9995959,-0.33682397\C,0,-0.57505395,-1.04274306,0.467334\C,0,-0.019074
 91,-0.03731605,1.28621432\H,0,2.51359144,1.35795553,-0.26015093\H,0,2.
 60608679,-0.24667327,0.48554331\H,0,2.23837991,-0.08544695,-1.23949125

 Normal termination of Gaussian 16 at Wed Apr  9 16:52:27 2025.
