 Gaussian 16, Revision C.01,

 ----------------------------------------------------------------------
 #t hf aug-cc-pvdz symm=none int=(grid=ultrafine) guess=(read,tcheck) s
 table=(opt,rrhf)
 ----------------------------------------------------------------------
 -----
 title
 -----
 Symbolic Z-matrix:
 Charge =  0 Multiplicity = 1

 SCF Done:  E(RHF) =  -302.161569303     A.U. after   15 cycles
 Normal termination of Gaussian 16 at Wed Apr  9 03:09:09 2025.
 Gaussian 16:  ES64L-G16RevC.01  3-Jul-2019

 ----------------------------------------------------------------------
 #t hf aug-cc-pvdz iop(5/13=1,5/36=2,99/5=2) pseudo=read geom=check gue
 ss=(read,tcheck) scf=(maxcycle=1)
 ----------------------------------------------------------------------
 -----
 title
 -----
 Structure from the checkpoint file:  "Grambow2020_b97d3_006718_reverse_mol1.chk"
 Charge =  0 Multiplicity = 1

                         Standard orientation:
 ---------------------------------------------------------------------
 Center     Atomic      Atomic             Coordinates (Angstroms)
 Number     Number       Type             X           Y           Z
 ---------------------------------------------------------------------
      1          8           0       -2.338444   -0.727677   -0.006091
      2          6           0       -1.295513   -0.102316    0.004789
      3          6           0       -0.841472    1.291113   -0.003698
      4          6           0        0.261728    0.553332    0.011362
      5          6           0        1.709590    0.276238   -0.003232
      6          8           0        2.216424   -0.828112   -0.001577
      7          1           0       -0.310968   -0.896821    0.025402
      8          1           0        2.281135    1.232932   -0.019384
 ---------------------------------------------------------------------

 SCF Done:  E(RHF) =  -302.251361059     A.U. after    2 cycles

 The electronic state is 1-A.
 Alpha  occ. eigenvalues --  -20.64512 -20.62167 -11.44353 -11.43289 -11.39603
 Alpha  occ. eigenvalues --  -11.30686  -1.42324  -1.40110  -1.22401  -1.00089
 Alpha  occ. eigenvalues --   -0.83224  -0.79529  -0.73015  -0.72281  -0.65310
 Alpha  occ. eigenvalues --   -0.63819  -0.60176  -0.54739  -0.49984  -0.46762
 Alpha  occ. eigenvalues --   -0.42297
 Alpha virt. eigenvalues --   -0.00131   0.02612   0.04674   0.06776   0.07585
 Alpha virt. eigenvalues --    0.08262   0.09267   0.10214   0.10315   0.12174
 Alpha virt. eigenvalues --    0.12331   0.13593   0.15024   0.15472   0.15749

 Mulliken charges:
               1
     1  O   -0.382772
     2  C    0.177189
     3  C   -0.301687
     4  C    0.122211
     5  C    0.657199
     6  O   -0.423073
     7  H    0.131586
     8  H    0.019346
 Sum of Mulliken charges =  -0.00000

 Dipole moment (field-independent basis, Debye):
    X=              3.3549    Y=              1.5064    Z=              0.0389  Tot=              3.6778

 Test job not archived.
 1\1\GINC-SE188\SP\RHF\Aug-CC-pVDZ\C4H2O2\OHZDE\09-Apr-2025\0\\#t hf au
 g-cc-pvdz iop(5/13=1,5/36=2,99/5=2) pseudo=read geom=check guess=(read
 ,tcheck) scf=(maxcycle=1)\\title\\0,1\O,0,-2.55971842,-0.61649953,0.39
 948934\C,0,-1.50547141,-0.11925133,0.05277976\C,0,-1.0258326,1.0374913
 ,-0.70864253\C,0,0.0630664,0.38306884,-0.32442103\C,0,1.50394851,0.089
 86059,-0.21865298\O,0,1.98958098,-0.86031584,0.36255135\H,0,-0.5359937
 3,-0.81443462,0.4744743\H,0,2.09247226,0.86933658,-0.7555372\\Version=
 ES64L-G16RevC.01\State=1-A\HF=-302.2513611\RMSD=5.600e-03\Dipole=1.330

 Normal termination of Gaussian 16 at Wed Apr  9 03:09:11 2025.
