 Gaussian 16, Revision C.01,

 ----------------------------------------------------------------------
 #t hf aug-cc-pvdz symm=none int=(grid=ultrafine) guess=(read,tcheck) s
 table=(opt,rrhf)
 ----------------------------------------------------------------------
 -----
 title
 -----
 Symbolic Z-matrix:
 Charge =  0 Multiplicity = 1

 SCF Done:  E(RHF) =  -394.316560729     A.U. after   15 cycles
 Normal termination of Gaussian 16 at Wed Apr  9 15:36:45 2025.
 Gaussian 16:  ES64L-G16RevC.01  3-Jul-2019

 ----------------------------------------------------------------------
 #t hf aug-cc-pvdz iop(5/13=1,5/36=2,99/5=2) pseudo=read geom=check gue
 ss=(read,tcheck) scf=(maxcycle=1)
 ----------------------------------------------------------------------
 -----
 title
 -----
 Structure from the checkpoint file:  "Grambow2020_wb97xd3_007199_forward_mol1.chk"
 Charge =  0 Multiplicity = 1

                         Standard orientation:
 ---------------------------------------------------------------------
 Center     Atomic      Atomic             Coordinates (Angstroms)
 Number     Number       Type             X           Y           Z
 ---------------------------------------------------------------------
      1          7           0       -1.259619    1.117347    0.302996
      2          6           0       -0.179560    0.418971    0.360103
      3          8           0        0.885328    0.794994   -0.365363
      4          6           0        2.020383    0.004634   -0.287656
      5          8           0        2.162190   -0.929882    0.416600
      6          6           0       -1.650879   -0.447125    0.353796
      7          8           0       -2.015006   -1.022365   -0.634430
      8          1           0       -1.429888    1.827108   -0.411418
      9          1           0        2.754329    0.413798   -0.991742
     10          1           0       -1.906872   -0.663186    1.390273
 ---------------------------------------------------------------------

 SCF Done:  E(RHF) =  -394.441982804     A.U. after    2 cycles

 The electronic state is 1-A.
 Alpha  occ. eigenvalues --  -20.68143 -20.61324 -20.55846 -15.69320 -11.43581
 Alpha  occ. eigenvalues --  -11.41234 -11.37951  -1.48229  -1.40080  -1.37427
 Alpha  occ. eigenvalues --   -1.26461  -0.97417  -0.89636  -0.80463  -0.77484
 Alpha  occ. eigenvalues --   -0.75608  -0.72041  -0.67727  -0.67214  -0.63929
 Alpha  occ. eigenvalues --   -0.59286  -0.56348  -0.52464  -0.49711  -0.44954
 Alpha  occ. eigenvalues --   -0.39807
 Alpha virt. eigenvalues --    0.02837   0.04010   0.04540   0.06775   0.07210
 Alpha virt. eigenvalues --    0.09458   0.09887   0.10109   0.11890   0.12762
 Alpha virt. eigenvalues --    0.13347   0.14212   0.14622   0.15457   0.16702

 Mulliken charges:
               1
     1  N   -0.270380
     2  C    0.184640
     3  O   -0.530463
     4  C    0.764248
     5  O   -0.301195
     6  C    0.909742
     7  O   -0.524888
     8  H   -0.008215
     9  H   -0.167650
    10  H   -0.055839
 Sum of Mulliken charges =  -0.00000

 Dipole moment (field-independent basis, Debye):
    X=              1.4799    Y=              4.1910    Z=             -0.0070  Tot=              4.4446

 Test job not archived.
 1\1\GINC-SE129\SP\RHF\Aug-CC-pVDZ\C3H3N1O3\OHZDE\09-Apr-2025\0\\#t hf
 aug-cc-pvdz iop(5/13=1,5/36=2,99/5=2) pseudo=read geom=check guess=(re
 ad,tcheck) scf=(maxcycle=1)\\title\\0,1\N,0,-1.0277241,0.88160087,-0.7
 809731\C,0,-0.09981133,0.43815636,-0.00647125\O,0,1.07613759,0.0660366
 4,-0.53595423\C,0,2.03959996,-0.42183979,0.33167072\O,0,1.94773575,-0.
 47126527,1.50577621\C,0,-1.69581311,-0.04793914,0.35606169\O,0,-2.0665
 7893,-1.16047043,0.10133382\H,0,-1.00308192,0.78273734,-1.79722044\H,0
 ,2.89533521,-0.74194142,-0.27420165\H,0,-2.07864613,0.63048983,1.11742

 Normal termination of Gaussian 16 at Wed Apr  9 15:36:49 2025.
