 Gaussian 16, Revision C.01,

 ----------------------------------------------------------------------
 #t hf aug-cc-pvdz symm=none int=(grid=ultrafine) guess=(read,tcheck) s
 table=(opt,rrhf)
 ----------------------------------------------------------------------
 -----
 title
 -----
 Symbolic Z-matrix:
 Charge =  0 Multiplicity = 1

 SCF Done:  E(RHF) =  -307.799108874     A.U. after   15 cycles

 1\1\GINC-SE009\Stability\RHF\Aug-CC-pVDZ\C6H10O1\OHZDE\09-Apr-2025\0\\
 #t hf aug-cc-pvdz symm=none int=(grid=ultrafine) guess=(read,tcheck) s
 table=(opt,rrhf)\\title\\0,1\C,0,2.21788756,0.01395321,0.22266956\C,0,
 0.74424116,-0.23663155,0.09173022\C,0,0.0290974,-1.23402972,0.78071062
 \C,0,-1.42606477,-0.95696806,0.45827134\C,0,-1.49003184,0.08760138,-0.
 67331124\C,0,-0.15170847,0.81456348,-0.57690626\O,0,-0.17584276,1.9811
 5552,0.22983334\H,0,2.3569913,0.91774847,0.8183088\H,0,2.68962778,0.18
 814324,-0.74658119\H,0,2.70445498,-0.81783995,0.72965456\H,0,0.6423480

 Normal termination of Gaussian 16 at Wed Apr  9 16:06:17 2025.
 Gaussian 16:  ES64L-G16RevC.01  3-Jul-2019

 ----------------------------------------------------------------------
 #t hf aug-cc-pvdz iop(5/13=1,5/36=2,99/5=2) pseudo=read geom=check gue
 ss=(read,tcheck) scf=(maxcycle=1)
 ----------------------------------------------------------------------
 -----
 title
 -----
 Structure from the checkpoint file:  "Grambow2020_wb97xd3_007742_forward_mol1.chk"
 Charge =  0 Multiplicity = 1

                         Standard orientation:
 ---------------------------------------------------------------------
 Center     Atomic      Atomic             Coordinates (Angstroms)
 Number     Number       Type             X           Y           Z
 ---------------------------------------------------------------------
      1          6           0       -2.216480   -0.399136    0.105787
      2          6           0       -0.716704   -0.443106    0.123460
      3          6           0        0.068518   -1.477961   -0.418230
      4          6           0        1.493916   -0.970879   -0.321600
      5          6           0        1.507864    0.296670    0.555224
      6          6           0        0.079627    0.825347    0.457667
      7          8           0       -0.121860    1.781389   -0.570795
      8          1           0       -2.525951    0.329768   -0.645151
      9          1           0       -2.626188   -0.072243    1.063705
     10          1           0       -2.625237   -1.372330   -0.161557
     11          1           0       -0.418312   -1.444787    0.826862
     12          1           0        1.772271   -0.751428   -1.360291
     13          1           0        2.196128   -1.737697    0.006231
     14          1           0        1.721265    0.023178    1.592030
     15          1           0        2.237180    1.051824    0.259836
     16          1           0       -0.261667    1.317926    1.369136
     17          1           0        0.204947    1.419072   -1.398291
 ---------------------------------------------------------------------

 SCF Done:  E(RHF) =  -307.890624724     A.U. after    2 cycles

 The electronic state is 1-A.
 Alpha  occ. eigenvalues --  -20.58635 -11.30379 -11.28514 -11.24047 -11.23757
 Alpha  occ. eigenvalues --  -11.23706 -11.23566  -1.34189  -1.15324  -1.02983
 Alpha  occ. eigenvalues --   -0.96442  -0.91799  -0.82298  -0.73119  -0.68587
 Alpha  occ. eigenvalues --   -0.66556  -0.62798  -0.59983  -0.58845  -0.57425
 Alpha  occ. eigenvalues --   -0.55422  -0.52827  -0.49840  -0.48817  -0.46681
 Alpha  occ. eigenvalues --   -0.44799  -0.33716
 Alpha virt. eigenvalues --    0.03240   0.04052   0.04349   0.04995   0.06231
 Alpha virt. eigenvalues --    0.06337   0.06595   0.07337   0.07690   0.09336
 Alpha virt. eigenvalues --    0.11273   0.11357   0.12473   0.13981   0.14179

 Mulliken charges:
               1
     1  C    0.785926
     2  C   -0.143577
     3  C   -1.399473
     4  C    0.373307
     5  C    0.434296
     6  C    0.713467
     7  O   -0.645449
     8  H    0.047861
     9  H    0.077910
    10  H   -0.050656
    11  H    0.198737
    12  H   -0.071269
    13  H   -0.073625
    14  H   -0.082062
    15  H   -0.101877
    16  H   -0.221730
    17  H    0.158214
 Sum of Mulliken charges =  -0.00000

 Dipole moment (field-independent basis, Debye):
    X=              0.5153    Y=              0.8319    Z=              1.2996  Tot=              1.6269

 Test job not archived.
 1\1\GINC-SE009\SP\RHF\Aug-CC-pVDZ\C6H10O1\OHZDE\09-Apr-2025\0\\#t hf a
 ug-cc-pvdz iop(5/13=1,5/36=2,99/5=2) pseudo=read geom=check guess=(rea
 d,tcheck) scf=(maxcycle=1)\\title\\0,1\C,0,2.21788756,0.01395321,0.222
 66956\C,0,0.74424116,-0.23663155,0.09173022\C,0,0.0290974,-1.23402972,
 0.78071062\C,0,-1.42606477,-0.95696806,0.45827134\C,0,-1.49003184,0.08
 760138,-0.67331124\C,0,-0.15170847,0.81456348,-0.57690626\O,0,-0.17584
 276,1.98115552,0.22983334\H,0,2.3569913,0.91774847,0.8183088\H,0,2.689
 62778,0.18814324,-0.74658119\H,0,2.70445498,-0.81783995,0.72965456\H,0

 Normal termination of Gaussian 16 at Wed Apr  9 16:06:26 2025.
