 Gaussian 16, Revision C.01,

 ----------------------------------------------------------------------
 #t hf aug-cc-pvdz symm=none int=(grid=ultrafine) guess=(read,tcheck) s
 table=(opt,rrhf)
 ----------------------------------------------------------------------
 -----
 title
 -----
 Symbolic Z-matrix:
 Charge =  0 Multiplicity = 1

 SCF Done:  E(RHF) =  -284.677762292     A.U. after   16 cycles
 Normal termination of Gaussian 16 at Wed Apr  9 14:20:16 2025.
 Gaussian 16:  ES64L-G16RevC.01  3-Jul-2019

 ----------------------------------------------------------------------
 #t hf aug-cc-pvdz iop(5/13=1,5/36=2,99/5=2) pseudo=read geom=check gue
 ss=(read,tcheck) scf=(maxcycle=1)
 ----------------------------------------------------------------------
 -----
 title
 -----
 Structure from the checkpoint file:  "Grambow2020_b97d3_007211_forward_mol1.chk"
 Charge =  0 Multiplicity = 1

                         Standard orientation:
 ---------------------------------------------------------------------
 Center     Atomic      Atomic             Coordinates (Angstroms)
 Number     Number       Type             X           Y           Z
 ---------------------------------------------------------------------
      1          6           0       -1.533554    1.323320    0.279976
      2          6           0       -1.086674   -0.570832   -0.855324
      3          8           0       -0.490726   -1.273176    0.095365
      4          6           0        0.431129   -0.533806    0.854719
      5          6           0        1.484274    0.093370    0.117990
      6          7           0        2.255298    0.698885   -0.531414
      7          1           0       -1.976741    1.550341    1.262736
      8          1           0       -0.913173    2.159659   -0.067438
      9          1           0       -2.386620    1.240300   -0.405977
     10          1           0       -0.483373    0.041974   -1.526983
     11          1           0       -1.987139   -1.044581   -1.245626
     12          1           0        0.697607   -1.088216    1.752216
     13          1           0       -0.582896    0.561416    0.803878
 ---------------------------------------------------------------------

 SCF Done:  E(RHF) =  -284.767027667     A.U. after    2 cycles

 The electronic state is 1-A.
 Alpha  occ. eigenvalues --  -20.67295 -15.63762 -11.39570 -11.31285 -11.28869
 Alpha  occ. eigenvalues --  -11.24388  -1.44348  -1.17685  -1.03231  -0.96533
 Alpha  occ. eigenvalues --   -0.89916  -0.76171  -0.75378  -0.71422  -0.62982
 Alpha  occ. eigenvalues --   -0.59520  -0.57994  -0.55739  -0.53907  -0.48924
 Alpha  occ. eigenvalues --   -0.45867  -0.45301  -0.32406
 Alpha virt. eigenvalues --    0.02521   0.03434   0.04240   0.05311   0.06509
 Alpha virt. eigenvalues --    0.06800   0.07631   0.08978   0.09170   0.10283
 Alpha virt. eigenvalues --    0.12101   0.13235   0.14580   0.14674   0.15130

 Mulliken charges:
               1
     1  C    0.275232
     2  C    0.765540
     3  O   -0.546077
     4  C    0.524555
     5  C   -0.243267
     6  N   -0.313387
     7  H   -0.018890
     8  H    0.008389
     9  H   -0.166940
    10  H    0.022796
    11  H   -0.309056
    12  H   -0.277087
    13  H    0.278192
 Sum of Mulliken charges =  -0.00000

 Dipole moment (field-independent basis, Debye):
    X=             -4.1815    Y=             -1.2957    Z=             -0.2512  Tot=              4.3849

 Test job not archived.
 1\1\GINC-SE173\SP\RHF\Aug-CC-pVDZ\C4H7N1O1\OHZDE\09-Apr-2025\0\\#t hf
 aug-cc-pvdz iop(5/13=1,5/36=2,99/5=2) pseudo=read geom=check guess=(re
 ad,tcheck) scf=(maxcycle=1)\\title\\0,1\C,0,-1.45629291,0.36435082,-0.
 39393324\C,0,-0.04999787,-1.32088314,0.11472993\O,0,0.77709591,-0.6904
 755,0.93372558\C,0,1.15358465,0.58733749,0.48813265\C,0,1.76915712,0.6
 4107804,-0.80160223\N,0,2.14989856,0.66167228,-1.91401611\H,0,-1.99798
 229,1.123938,0.19204629\H,0,-1.33694731,0.69115487,-1.43507967\H,0,-2.
 11356479,-0.51491765,-0.39915985\H,0,0.18422007,-1.37044227,-0.9498430

 Normal termination of Gaussian 16 at Wed Apr  9 14:20:20 2025.
