 Gaussian 16, Revision C.01,

 ----------------------------------------------------------------------
 #t hf aug-cc-pvdz symm=none int=(grid=ultrafine) guess=(read,tcheck) s
 table=(opt,rrhf)
 ----------------------------------------------------------------------
 -----
 title
 -----
 Symbolic Z-matrix:
 Charge =  0 Multiplicity = 1

 SCF Done:  E(RHF) =  -360.805843945     A.U. after   15 cycles
 Normal termination of Gaussian 16 at Wed Apr  9 14:48:03 2025.
 Gaussian 16:  ES64L-G16RevC.01  3-Jul-2019

 ----------------------------------------------------------------------
 #t hf aug-cc-pvdz iop(5/13=1,5/36=2,99/5=2) pseudo=read geom=check gue
 ss=(read,tcheck) scf=(maxcycle=1)
 ----------------------------------------------------------------------
 -----
 title
 -----
 Structure from the checkpoint file:  "Grambow2020_wb97xd3_006614_forward_mol1.chk"
 Charge =  0 Multiplicity = 1

                         Standard orientation:
 ---------------------------------------------------------------------
 Center     Atomic      Atomic             Coordinates (Angstroms)
 Number     Number       Type             X           Y           Z
 ---------------------------------------------------------------------
      1          6           0       -2.562428   -0.232331    0.091809
      2          6           0       -1.172877   -0.164753   -0.452973
      3          8           0       -0.741376    1.527658   -0.101839
      4          6           0       -0.207707   -0.965214    0.364074
      5          7           0        1.136806   -1.111102   -0.182912
      6          6           0        2.055097   -0.140952   -0.143365
      7          8           0        1.879035    0.971117    0.331402
      8          1           0       -2.978092   -1.204563   -0.192176
      9          1           0       -3.201064    0.528518   -0.354628
     10          1           0       -2.621203   -0.139882    1.185501
     11          1           0       -0.777960    1.059677   -1.060507
     12          1           0        0.209032    1.490694    0.155041
     13          1           0       -0.118015   -0.581821    1.389552
     14          1           0       -0.628471   -1.970992    0.441480
     15          1           0        1.360664   -1.943024   -0.698931
     16          1           0        3.023691   -0.431592   -0.578727
 ---------------------------------------------------------------------

 SCF Done:  E(RHF) =  -360.918312344     A.U. after    2 cycles

 The electronic state is 1-A.
 Alpha  occ. eigenvalues --  -20.58781 -20.56186 -15.67246 -11.38364 -11.29098
 Alpha  occ. eigenvalues --  -11.26352 -11.22705  -1.37356  -1.32277  -1.22513
 Alpha  occ. eigenvalues --   -1.04578  -0.95624  -0.83837  -0.78881  -0.76689
 Alpha  occ. eigenvalues --   -0.72826  -0.66634  -0.64099  -0.62256  -0.60268
 Alpha  occ. eigenvalues --   -0.59366  -0.56686  -0.54473  -0.52478  -0.50744
 Alpha  occ. eigenvalues --   -0.47125  -0.41805  -0.32769
 Alpha virt. eigenvalues --    0.02439   0.03873   0.04759   0.05100   0.06533
 Alpha virt. eigenvalues --    0.07032   0.07668   0.08049   0.08851   0.10573
 Alpha virt. eigenvalues --    0.10940   0.12215   0.13594   0.14986   0.15348

 Mulliken charges:
               1
     1  C    0.505102
     2  C   -0.850673
     3  O   -0.516780
     4  C    0.745380
     5  N   -0.218393
     6  C    0.654932
     7  O   -0.501764
     8  H    0.040936
     9  H   -0.105783
    10  H   -0.008083
    11  H    0.394308
    12  H    0.305352
    13  H   -0.094000
    14  H   -0.077576
    15  H   -0.056545
    16  H   -0.216413
 Sum of Mulliken charges =  -0.00000

 Dipole moment (field-independent basis, Debye):
    X=              1.0562    Y=             -4.6174    Z=             -0.6385  Tot=              4.7795

 Test job not archived.
 1\1\GINC-SE129\SP\RHF\Aug-CC-pVDZ\C4H9N1O2\OHZDE\09-Apr-2025\0\\#t hf
 aug-cc-pvdz iop(5/13=1,5/36=2,99/5=2) pseudo=read geom=check guess=(re
 ad,tcheck) scf=(maxcycle=1)\\title\\0,1\C,0,-2.04305674,-0.85990452,-0
 .23034809\C,0,-0.595762,-0.57611339,-0.46911288\O,0,-0.68292194,0.9717
 7553,-1.34671364\C,0,0.12857112,-0.23866394,0.79632229\N,0,1.57938518,
 -0.12089365,0.69907041\C,0,2.19647643,0.94219403,0.17461281\O,0,1.6317
 7262,1.91928244,-0.29390266\H,0,-2.11329185,-1.86711147,0.19304332\H,0
 ,-2.60497762,-0.86786405,-1.16321191\H,0,-2.52936085,-0.16060278,0.464

 Normal termination of Gaussian 16 at Wed Apr  9 14:48:09 2025.
