 Gaussian 16, Revision C.01,

 ----------------------------------------------------------------------
 #t hf aug-cc-pvdz symm=none int=(grid=ultrafine) guess=(read,tcheck) s
 table=(opt,rrhf)
 ----------------------------------------------------------------------
 -----
 title
 -----
 Symbolic Z-matrix:
 Charge =  0 Multiplicity = 1

 SCF Done:  E(RHF) =  -355.841823797     A.U. after   15 cycles
 Normal termination of Gaussian 16 at Wed Apr  9 03:58:13 2025.
 Gaussian 16:  ES64L-G16RevC.01  3-Jul-2019

 ----------------------------------------------------------------------
 #t hf aug-cc-pvdz iop(5/13=1,5/36=2,99/5=2) pseudo=read geom=check gue
 ss=(read,tcheck) scf=(maxcycle=1)
 ----------------------------------------------------------------------
 -----
 title
 -----
 Structure from the checkpoint file:  "Grambow2020_wb97xd3_008710_forward_mol1.chk"
 Charge =  0 Multiplicity = 1

                         Standard orientation:
 ---------------------------------------------------------------------
 Center     Atomic      Atomic             Coordinates (Angstroms)
 Number     Number       Type             X           Y           Z
 ---------------------------------------------------------------------
      1          6           0       -2.006196   -1.256479    0.187600
      2          7           0       -1.824799    0.090535   -0.251551
      3          6           0       -0.850031    0.808478   -0.094148
      4          7           0       -0.246563    1.918053   -0.044435
      5          6           0        1.082062   -0.308761    0.000697
      6          8           0        1.899182    0.677371    0.142613
      7          7           0        1.687688   -1.481117   -0.103136
      8          1           0       -2.581907   -1.287935    1.115849
      9          1           0       -1.037123   -1.734114    0.377088
     10          1           0       -2.552868   -1.824746   -0.565886
     11          1           0        1.257271    1.481941    0.132775
     12          1           0       -0.791565    2.666959    0.357921
     13          1           0        1.147173   -2.313807   -0.237570
     14          1           0        2.696280   -1.558995   -0.092126
 ---------------------------------------------------------------------

 SCF Done:  E(RHF) =  -355.953584064     A.U. after    2 cycles

 The electronic state is 1-A.
 Alpha  occ. eigenvalues --  -20.59652 -15.66616 -15.61556 -15.60545 -11.37458
 Alpha  occ. eigenvalues --  -11.33117 -11.27279  -1.39335  -1.23883  -1.19972
 Alpha  occ. eigenvalues --   -1.15027  -0.95363  -0.85840  -0.77086  -0.73719
 Alpha  occ. eigenvalues --   -0.69059  -0.67866  -0.66307  -0.61645  -0.60843
 Alpha  occ. eigenvalues --   -0.60310  -0.52357  -0.50283  -0.45627  -0.42907
 Alpha  occ. eigenvalues --   -0.37401  -0.34215
 Alpha virt. eigenvalues --    0.02664   0.03999   0.04252   0.05561   0.06410
 Alpha virt. eigenvalues --    0.07085   0.08937   0.10517   0.11557   0.12494
 Alpha virt. eigenvalues --    0.13565   0.14096   0.14547   0.15281   0.15517

 Mulliken charges:
               1
     1  C    0.920467
     2  N   -0.281864
     3  C   -0.105968
     4  N   -0.331349
     5  C    0.624453
     6  O   -0.604733
     7  N   -0.210238
     8  H   -0.070693
     9  H   -0.196438
    10  H   -0.191010
    11  H    0.457503
    12  H    0.019011
    13  H    0.007294
    14  H   -0.036436
 Sum of Mulliken charges =  -0.00000

 Dipole moment (field-independent basis, Debye):
    X=              0.4957    Y=             -3.0209    Z=              1.0009  Tot=              3.2208

 Test job not archived.
 1\1\GINC-SE041\SP\RHF\Aug-CC-pVDZ\C3H7N3O1\OHZDE\09-Apr-2025\0\\#t hf
 aug-cc-pvdz iop(5/13=1,5/36=2,99/5=2) pseudo=read geom=check guess=(re
 ad,tcheck) scf=(maxcycle=1)\\title\\0,1\C,0,1.73836202,1.04432597,-0.4
 9499015\N,0,1.57202276,-0.36657671,-0.64293939\C,0,0.72660801,-1.08246
 442,-0.12994003\N,0,0.24793083,-2.18769701,0.25363676\C,0,-1.21473658,
 -0.04606547,0.25380579\O,0,-1.88867122,-1.02182102,0.75778554\N,0,-1.9
 2426937,1.06187318,0.10883008\H,0,2.51331932,1.26864892,0.24203094\H,0
 ,0.80532874,1.50888633,-0.15326323\H,0,2.04052891,1.48661869,-1.445037

 Normal termination of Gaussian 16 at Wed Apr  9 03:58:18 2025.
