 Gaussian 16, Revision C.01,

 ----------------------------------------------------------------------
 #t hf aug-cc-pvdz symm=none int=(grid=ultrafine) guess=(read,tcheck) s
 table=(opt,rrhf)
 ----------------------------------------------------------------------
 -----
 title
 -----
 Symbolic Z-matrix:
 Charge =  0 Multiplicity = 1

 SCF Done:  E(RHF) =  -299.715909957     A.U. after   15 cycles
 Normal termination of Gaussian 16 at Wed Apr  9 03:06:39 2025.
 Gaussian 16:  ES64L-G16RevC.01  3-Jul-2019

 ----------------------------------------------------------------------
 #t hf aug-cc-pvdz iop(5/13=1,5/36=2,99/5=2) pseudo=read geom=check gue
 ss=(read,tcheck) scf=(maxcycle=1)
 ----------------------------------------------------------------------
 -----
 title
 -----
 Structure from the checkpoint file:  "Grambow2020_b97d3_006601_reverse_mol2.chk"
 Charge =  0 Multiplicity = 1

                         Standard orientation:
 ---------------------------------------------------------------------
 Center     Atomic      Atomic             Coordinates (Angstroms)
 Number     Number       Type             X           Y           Z
 ---------------------------------------------------------------------
      1          6           0        2.132017   -0.655232    0.100580
      2          6           0        0.887643    0.192262   -0.029035
      3          7           0       -0.279532   -0.614837   -0.225158
      4          6           0       -1.449468   -0.243294   -0.063290
      5          7           0       -2.628532   -0.078229    0.223200
      6          8           0        0.863327    1.408731   -0.007422
      7          1           0        2.021498   -1.357364    0.938833
      8          1           0        3.006548   -0.016669    0.257209
      9          1           0        2.264323   -1.260684   -0.807292
     10          1           0       -3.263684    0.453921   -0.365197
 ---------------------------------------------------------------------

 SCF Done:  E(RHF) =  -299.808029886     A.U. after    2 cycles

 The electronic state is 1-A.
 Alpha  occ. eigenvalues --  -20.57688 -15.67068 -15.66181 -11.41275 -11.40208
 Alpha  occ. eigenvalues --  -11.26059  -1.37615  -1.26994  -1.19305  -1.02499
 Alpha  occ. eigenvalues --   -0.86830  -0.78035  -0.70831  -0.66697  -0.63849
 Alpha  occ. eigenvalues --   -0.58905  -0.58253  -0.56814  -0.52807  -0.48645
 Alpha  occ. eigenvalues --   -0.43151  -0.42051
 Alpha virt. eigenvalues --    0.03291   0.03567   0.05445   0.05855   0.08161
 Alpha virt. eigenvalues --    0.09480   0.09547   0.09818   0.12104   0.13310
 Alpha virt. eigenvalues --    0.13955   0.14282   0.15288   0.16159   0.16256

 Mulliken charges:
               1
     1  C    0.246282
     2  C    0.525572
     3  N   -0.246745
     4  C   -0.193589
     5  N   -0.043494
     6  O   -0.475126
     7  H    0.050141
     8  H   -0.007180
     9  H    0.061791
    10  H    0.082349
 Sum of Mulliken charges =  -0.00000

 Dipole moment (field-independent basis, Debye):
    X=             -0.2472    Y=             -1.6301    Z=             -0.8693  Tot=              1.8639

 Test job not archived.
 1\1\GINC-SE403\SP\RHF\Aug-CC-pVDZ\C3H4N2O1\OHZDE\09-Apr-2025\0\\#t hf
 aug-cc-pvdz iop(5/13=1,5/36=2,99/5=2) pseudo=read geom=check guess=(re
 ad,tcheck) scf=(maxcycle=1)\\title\\0,1\C,0,-1.8311482,0.03718402,0.04
 710282\C,0,-0.43306501,-0.38522049,-0.34077672\N,0,0.54805845,0.541180
 88,0.14021038\C,0,1.76127923,0.31761503,0.24560869\N,0,2.9348554,0.187
 31789,0.57004115\O,0,-0.1569895,-1.36556613,-1.00677866\H,0,-1.9068383
 4,0.1233355,1.14013481\H,0,-2.55966571,-0.68960914,-0.32456025\H,0,-2.
 04588715,1.03256065,-0.36692703\H,0,3.69254683,0.19765079,-0.1071652\\

 Normal termination of Gaussian 16 at Wed Apr  9 03:06:42 2025.
