 Gaussian 16, Revision C.01,

 ----------------------------------------------------------------------
 #t hf aug-cc-pvdz symm=none int=(grid=ultrafine) guess=(read,tcheck) s
 table=(opt,rrhf)
 ----------------------------------------------------------------------
 -----
 title
 -----
 Symbolic Z-matrix:
 Charge =  0 Multiplicity = 1

 SCF Done:  E(RHF) =  -233.966790823     A.U. after   16 cycles
 Normal termination of Gaussian 16 at Wed Apr  9 14:13:40 2025.
 Gaussian 16:  ES64L-G16RevC.01  3-Jul-2019

 ----------------------------------------------------------------------
 #t hf aug-cc-pvdz iop(5/13=1,5/36=2,99/5=2) pseudo=read geom=check gue
 ss=(read,tcheck) scf=(maxcycle=1)
 ----------------------------------------------------------------------
 -----
 title
 -----
 Structure from the checkpoint file:  "Grambow2020_b97d3_006831_reverse_mol1.chk"
 Charge =  0 Multiplicity = 1

                         Standard orientation:
 ---------------------------------------------------------------------
 Center     Atomic      Atomic             Coordinates (Angstroms)
 Number     Number       Type             X           Y           Z
 ---------------------------------------------------------------------
      1          6           0       -0.933523    1.316976    0.367280
      2          6           0       -0.689322   -0.020048    0.224164
      3          6           0       -1.431106   -0.862034   -0.772792
      4          6           0        1.227061    0.761619   -0.832220
      5          6           0        1.593635   -0.460054   -0.006730
      6          6           0        0.418969   -0.666121    1.015185
      7          1           0       -1.984217    0.292743    1.525758
      8          1           0       -0.430810    1.897678    1.135317
      9          1           0       -1.634658    1.830507   -0.288176
     10          1           0       -2.083364   -1.550360   -0.214343
     11          1           0       -0.732156   -1.465300   -1.365710
     12          1           0       -2.049005   -0.256204   -1.445555
     13          1           0        1.190110    0.660765   -1.917038
     14          1           0        1.602723    1.725899   -0.484529
     15          1           0        2.553508   -0.380146    0.528898
     16          1           0        1.654876   -1.348346   -0.650896
     17          1           0        0.586947   -0.112978    1.947573
     18          1           0        0.211764   -1.716287    1.259377
 ---------------------------------------------------------------------

 SCF Done:  E(RHF) =  -234.039159946     A.U. after    2 cycles

 The electronic state is 1-A.
 Alpha  occ. eigenvalues --  -11.32975 -11.31711 -11.25396 -11.24742 -11.23945
 Alpha  occ. eigenvalues --  -11.21398  -1.14220  -1.02036  -0.96958  -0.91388
 Alpha  occ. eigenvalues --   -0.79642  -0.74943  -0.66895  -0.66246  -0.61743
 Alpha  occ. eigenvalues --   -0.60173  -0.56680  -0.55546  -0.54184  -0.50375
 Alpha  occ. eigenvalues --   -0.49194  -0.47330  -0.42145  -0.22327
 Alpha virt. eigenvalues --    0.03258   0.04121   0.04214   0.05111   0.05884
 Alpha virt. eigenvalues --    0.06061   0.06188   0.06810   0.06919   0.08822
 Alpha virt. eigenvalues --    0.09058   0.09597   0.10569   0.11999   0.12526

 Mulliken charges:
               1
     1  C    1.279900
     2  C   -1.503323
     3  C    0.412346
     4  C    0.801098
     5  C    0.109431
     6  C    0.684013
     7  H    0.012702
     8  H   -0.351271
     9  H   -0.337501
    10  H    0.086378
    11  H   -0.003108
    12  H   -0.060240
    13  H   -0.377701
    14  H   -0.308685
    15  H   -0.142960
    16  H   -0.128960
    17  H   -0.132795
    18  H   -0.039327
 Sum of Mulliken charges =  -0.00000

 Dipole moment (field-independent basis, Debye):
    X=              0.1254    Y=             -0.1343    Z=             -0.9042  Tot=              0.9227

 Test job not archived.
 1\1\GINC-SE120\SP\RHF\Aug-CC-pVDZ\C6H12\OHZDE\09-Apr-2025\0\\#t hf aug
 -cc-pvdz iop(5/13=1,5/36=2,99/5=2) pseudo=read geom=check guess=(read,
 tcheck) scf=(maxcycle=1)\\title\\0,1\C,0,-1.23628097,-0.82069034,0.706
 25874\C,0,-0.59465975,-0.13166334,-0.28435446\C,0,-1.0789262,1.2050251
 9,-0.76586683\C,0,0.93765259,0.26807983,1.41614448\C,0,1.70016492,0.02
 926142,0.12392354\C,0,0.69169031,-0.66974021,-0.85637742\H,0,-1.866916
 92,-1.295436,-0.98843805\H,0,-0.90735413,-1.81345685,0.9995835\H,0,-2.
 08914302,-0.38792242,1.22612789\H,0,-1.46082597,1.07678436,-1.7899788\

 Normal termination of Gaussian 16 at Wed Apr  9 14:13:47 2025.
