 Gaussian 16, Revision C.01,

 ----------------------------------------------------------------------
 #t hf aug-cc-pvdz symm=none int=(grid=ultrafine) guess=(read,tcheck) s
 table=(opt,rrhf)
 ----------------------------------------------------------------------
 -----
 title
 -----
 Symbolic Z-matrix:
 Charge =  0 Multiplicity = 1

 SCF Done:  E(RHF) =  -284.846104009     A.U. after   13 cycles
 Normal termination of Gaussian 16 at Wed Apr  9 14:20:13 2025.
 Gaussian 16:  ES64L-G16RevC.01  3-Jul-2019

 ----------------------------------------------------------------------
 #t hf aug-cc-pvdz iop(5/13=1,5/36=2,99/5=2) pseudo=read geom=check gue
 ss=(read,tcheck) scf=(maxcycle=1)
 ----------------------------------------------------------------------
 -----
 title
 -----
 Structure from the checkpoint file:  "Grambow2020_b97d3_007214_reverse_mol2.chk"
 Charge =  0 Multiplicity = 1

                         Standard orientation:
 ---------------------------------------------------------------------
 Center     Atomic      Atomic             Coordinates (Angstroms)
 Number     Number       Type             X           Y           Z
 ---------------------------------------------------------------------
      1          6           0        2.506786   -0.382551   -0.157872
      2          6           0        1.091643   -0.309420    0.391157
      3          8           0        0.383623    0.698479   -0.355663
      4          6           0       -0.893915    0.966841    0.133501
      5          6           0       -2.462965   -1.121783   -0.146461
      6          7           0       -1.800629   -0.145122   -0.014517
      7          1           0        3.018951    0.581479   -0.042281
      8          1           0        3.077584   -1.150204    0.381823
      9          1           0        2.491873   -0.645016   -1.223576
     10          1           0        1.093274   -0.038128    1.462829
     11          1           0        0.575512   -1.277272    0.287125
     12          1           0       -1.287319    1.809539   -0.447365
     13          1           0       -0.883746    1.229103    1.206415
 ---------------------------------------------------------------------

 SCF Done:  E(RHF) =  -284.937126946     A.U. after    2 cycles

 The electronic state is 1-A.
 Alpha  occ. eigenvalues --  -20.60092 -15.66468 -11.37273 -11.30430 -11.30115
 Alpha  occ. eigenvalues --  -11.23943  -1.37033  -1.22457  -1.04704  -0.97461
 Alpha  occ. eigenvalues --   -0.85901  -0.76219  -0.71060  -0.68978  -0.64327
 Alpha  occ. eigenvalues --   -0.57567  -0.54882  -0.54199  -0.52001  -0.48784
 Alpha  occ. eigenvalues --   -0.48530  -0.46940  -0.46409
 Alpha virt. eigenvalues --    0.03148   0.04106   0.04460   0.05360   0.06341
 Alpha virt. eigenvalues --    0.07030   0.08072   0.09198   0.10370   0.11925
 Alpha virt. eigenvalues --    0.12125   0.12508   0.13700   0.14491   0.15742

 Mulliken charges:
               1
     1  C    0.188810
     2  C    0.535216
     3  O   -0.650658
     4  C    1.034753
     5  C   -0.332411
     6  N   -0.178500
     7  H   -0.030465
     8  H   -0.012244
     9  H   -0.013955
    10  H   -0.091626
    11  H   -0.124923
    12  H   -0.216214
    13  H   -0.107783
 Sum of Mulliken charges =  -0.00000

 Dipole moment (field-independent basis, Debye):
    X=              2.0067    Y=              1.6602    Z=              1.5578  Tot=              3.0348

 Test job not archived.
 1\1\GINC-SE226\SP\RHF\Aug-CC-pVDZ\C4H7N1O1\OHZDE\09-Apr-2025\0\\#t hf
 aug-cc-pvdz iop(5/13=1,5/36=2,99/5=2) pseudo=read geom=check guess=(re
 ad,tcheck) scf=(maxcycle=1)\\title\\0,1\C,0,-1.91477909,-0.665861,-0.0
 2762674\C,0,-0.59686093,-0.10673353,-0.5374105\O,0,0.22196629,0.197884
 05,0.60785013\C,0,1.41417622,0.8466772,0.28987834\C,0,2.99214941,-0.72
 269543,-1.10644349\N,0,2.32468612,0.01871141,-0.46241424\H,0,-2.431407
 14,0.06970933,0.60249936\H,0,-2.56527639,-0.92049137,-0.87520451\H,0,-
 1.74299276,-1.57412247,0.56430679\H,0,-0.75633968,0.81329543,-1.129184

 Normal termination of Gaussian 16 at Wed Apr  9 14:20:17 2025.
