 Gaussian 16, Revision C.01,

 ----------------------------------------------------------------------
 #t hf aug-cc-pvdz symm=none int=(grid=ultrafine) guess=(read,tcheck) s
 table=(opt,rrhf)
 ----------------------------------------------------------------------
 -----
 title
 -----
 Symbolic Z-matrix:
 Charge =  0 Multiplicity = 1

 SCF Done:  E(RHF) =  -306.697631826     A.U. after   15 cycles
 Normal termination of Gaussian 16 at Wed Apr  9 04:04:50 2025.
 Gaussian 16:  ES64L-G16RevC.01  3-Jul-2019

 ----------------------------------------------------------------------
 #t hf aug-cc-pvdz iop(5/13=1,5/36=2,99/5=2) pseudo=read geom=check gue
 ss=(read,tcheck) scf=(maxcycle=1)
 ----------------------------------------------------------------------
 -----
 title
 -----
 Structure from the checkpoint file:  "Grambow2020_wb97xd3_009208_reverse_mol2.chk"
 Charge =  0 Multiplicity = 1

                         Standard orientation:
 ---------------------------------------------------------------------
 Center     Atomic      Atomic             Coordinates (Angstroms)
 Number     Number       Type             X           Y           Z
 ---------------------------------------------------------------------
      1          6           0       -1.868569   -1.468895   -0.046849
      2          6           0       -0.769119   -0.441377   -0.003611
      3          6           0       -1.020785    0.837688   -0.022388
      4          6           0       -1.270623    2.114067   -0.041095
      5          6           0        1.692895    0.066632    0.330408
      6          6           0        0.644482   -0.974183    0.037103
      7          8           0        2.705659    0.197104   -0.298482
      8          1           0       -2.848958   -1.000136   -0.108682
      9          1           0       -1.741519   -2.126263   -0.911093
     10          1           0       -1.838913   -2.097263    0.847532
     11          1           0       -1.417243    2.672509    0.876823
     12          1           0       -1.338777    2.658659   -0.976240
     13          1           0        1.480279    0.716816    1.203343
     14          1           0        0.711611   -1.727358    0.833858
     15          1           0        0.898566   -1.477389   -0.899095
 ---------------------------------------------------------------------

 SCF Done:  E(RHF) =  -306.795005050     A.U. after    2 cycles

 The electronic state is 1-A.
 Alpha  occ. eigenvalues --  -20.57364 -11.34427 -11.27154 -11.26633 -11.26214
 Alpha  occ. eigenvalues --  -11.25397 -11.24907  -1.36479  -1.12134  -1.02697
 Alpha  occ. eigenvalues --   -0.98574  -0.89362  -0.81091  -0.71022  -0.67852
 Alpha  occ. eigenvalues --   -0.65755  -0.63196  -0.61828  -0.60068  -0.58041
 Alpha  occ. eigenvalues --   -0.56841  -0.54405  -0.51984  -0.43704  -0.38643
 Alpha  occ. eigenvalues --   -0.36858
 Alpha virt. eigenvalues --    0.03141   0.03831   0.04305   0.05106   0.05979
 Alpha virt. eigenvalues --    0.06540   0.06777   0.07902   0.09234   0.11149
 Alpha virt. eigenvalues --    0.11351   0.11928   0.12897   0.13478   0.14219

 Mulliken charges:
               1
     1  C    0.212279
     2  C   -0.463154
     3  C   -0.362719
     4  C    0.779104
     5  C    0.859541
     6  C   -0.047488
     7  O   -0.473657
     8  H   -0.111004
     9  H    0.024451
    10  H    0.021960
    11  H   -0.249395
    12  H   -0.244354
    13  H   -0.100205
    14  H    0.149643
    15  H    0.005000
 Sum of Mulliken charges =   0.00000

 Dipole moment (field-independent basis, Debye):
    X=             -3.1352    Y=             -1.0159    Z=              1.4017  Tot=              3.5814

 Test job not archived.
 1\1\GINC-SE103\SP\RHF\Aug-CC-pVDZ\C6H8O1\OHZDE\09-Apr-2025\0\\#t hf au
 g-cc-pvdz iop(5/13=1,5/36=2,99/5=2) pseudo=read geom=check guess=(read
 ,tcheck) scf=(maxcycle=1)\\title\\0,1\C,0,1.53691275,-1.03081067,-0.84
 178446\C,0,0.38906582,-0.24279603,-0.26912756\C,0,0.55516179,0.9473400
 8,0.23652254\C,0,0.71963546,2.13479958,0.74130241\C,0,-2.11524625,-0.0
 1162595,0.05665131\C,0,-0.96294036,-0.91768732,-0.28937724\O,0,-2.9768
 3018,-0.28957145,0.84318503\H,0,2.47529227,-0.48593329,-0.75649585\H,0
 ,1.64020963,-1.98632765,-0.32071954\H,0,1.35809873,-1.25307175,-1.8973

 Normal termination of Gaussian 16 at Wed Apr  9 04:04:56 2025.
