 Gaussian 16, Revision C.01,

 ----------------------------------------------------------------------
 #t hf aug-cc-pvdz symm=none int=(grid=ultrafine) guess=(read,tcheck) s
 table=(opt,rrhf)
 ----------------------------------------------------------------------
 -----
 title
 -----
 Symbolic Z-matrix:
 Charge =  0 Multiplicity = 1

 SCF Done:  E(RHF) =  -307.871429428     A.U. after   13 cycles

 1\1\GINC-SE041\Stability\RHF\Aug-CC-pVDZ\C6H10O1\OHZDE\09-Apr-2025\0\\
 #t hf aug-cc-pvdz symm=none int=(grid=ultrafine) guess=(read,tcheck) s
 table=(opt,rrhf)\\title\\0,1\C,0,1.81405142,-0.18127135,0.27274505\C,0
 ,0.85184462,0.935003,0.58385165\C,0,0.25791324,1.7497321,-0.52455588\C
 ,0,-0.62736107,0.84914971,0.29423833\C,0,-1.27347501,-0.33926252,-0.32
 367483\C,0,-1.17721902,-1.56918742,0.16539861\O,0,-1.77016783,-2.68391
 092,-0.32894362\H,0,1.53504851,-0.70638981,-0.64112524\H,0,2.82292207,
 0.21536534,0.1376034\H,0,1.85261563,-0.91630933,1.08055079\H,0,1.09566

 Normal termination of Gaussian 16 at Wed Apr  9 16:09:12 2025.
 Gaussian 16:  ES64L-G16RevC.01  3-Jul-2019

 ----------------------------------------------------------------------
 #t hf aug-cc-pvdz iop(5/13=1,5/36=2,99/5=2) pseudo=read geom=check gue
 ss=(read,tcheck) scf=(maxcycle=1)
 ----------------------------------------------------------------------
 -----
 title
 -----
 Structure from the checkpoint file:  "Grambow2020_wb97xd3_007822_reverse_mol2.chk"
 Charge =  0 Multiplicity = 1

                         Standard orientation:
 ---------------------------------------------------------------------
 Center     Atomic      Atomic             Coordinates (Angstroms)
 Number     Number       Type             X           Y           Z
 ---------------------------------------------------------------------
      1          6           0        1.307038    1.596847    0.226882
      2          6           0        1.625952    0.258187   -0.385475
      3          6           0        1.801955   -0.947489    0.486577
      4          6           0        0.628383   -0.873017   -0.452767
      5          6           0       -0.757750   -0.775431    0.077058
      6          6           0       -1.621248    0.165290   -0.284314
      7          8           0       -2.905583    0.286533    0.133244
      8          1           0        0.639528    1.495910    1.083033
      9          1           0        2.222685    2.083677    0.570380
     10          1           0        0.826862    2.264565   -0.492772
     11          1           0        2.292715    0.312502   -1.239674
     12          1           0        1.591233   -0.818706    1.542254
     13          1           0        2.596996   -1.648889    0.269167
     14          1           0        0.725192   -1.500595   -1.333777
     15          1           0       -1.082716   -1.551158    0.769625
     16          1           0       -1.359506    0.960517   -0.972930
     17          1           0       -3.114306   -0.436413    0.730974
 ---------------------------------------------------------------------

 SCF Done:  E(RHF) =  -307.969559430     A.U. after    2 cycles

 The electronic state is 1-A.
 Alpha  occ. eigenvalues --  -20.60090 -11.30038 -11.23922 -11.23765 -11.22723
 Alpha  occ. eigenvalues --  -11.22588 -11.22262  -1.36432  -1.14511  -1.02179
 Alpha  occ. eigenvalues --   -0.95899  -0.85523  -0.80272  -0.77119  -0.68534
 Alpha  occ. eigenvalues --   -0.67680  -0.65583  -0.59634  -0.58900  -0.56698
 Alpha  occ. eigenvalues --   -0.55297  -0.53979  -0.51111  -0.49421  -0.42287
 Alpha  occ. eigenvalues --   -0.40381  -0.33769
 Alpha virt. eigenvalues --    0.03392   0.03955   0.04575   0.04686   0.06169
 Alpha virt. eigenvalues --    0.06520   0.06820   0.06963   0.07730   0.09220
 Alpha virt. eigenvalues --    0.11945   0.12223   0.13367   0.13824   0.14643

 Mulliken charges:
               1
     1  C    0.398338
     2  C    0.159656
     3  C    0.709611
     4  C    0.448759
     5  C    0.610313
     6  C    0.474693
     7  O   -0.469998
     8  H   -0.023241
     9  H   -0.071850
    10  H   -0.008993
    11  H   -0.404702
    12  H   -0.353036
    13  H   -0.344031
    14  H   -0.375744
    15  H   -0.522011
    16  H   -0.349388
    17  H    0.121625
 Sum of Mulliken charges =  -0.00000

 Dipole moment (field-independent basis, Debye):
    X=              0.6662    Y=             -0.8987    Z=              0.4501  Tot=              1.2058

 Test job not archived.
 1\1\GINC-SE041\SP\RHF\Aug-CC-pVDZ\C6H10O1\OHZDE\09-Apr-2025\0\\#t hf a
 ug-cc-pvdz iop(5/13=1,5/36=2,99/5=2) pseudo=read geom=check guess=(rea
 d,tcheck) scf=(maxcycle=1)\\title\\0,1\C,0,1.81405142,-0.18127135,0.27
 274505\C,0,0.85184462,0.935003,0.58385165\C,0,0.25791324,1.7497321,-0.
 52455588\C,0,-0.62736107,0.84914971,0.29423833\C,0,-1.27347501,-0.3392
 6252,-0.32367483\C,0,-1.17721902,-1.56918742,0.16539861\O,0,-1.7701678
 3,-2.68391092,-0.32894362\H,0,1.53504851,-0.70638981,-0.64112524\H,0,2
 .82292207,0.21536534,0.1376034\H,0,1.85261563,-0.91630933,1.08055079\H

 Normal termination of Gaussian 16 at Wed Apr  9 16:09:20 2025.
