 Gaussian 16, Revision C.01,

 ----------------------------------------------------------------------
 #t hf aug-cc-pvdz symm=none int=(grid=ultrafine) guess=(read,tcheck) s
 table=(opt,rrhf)
 ----------------------------------------------------------------------
 -----
 title
 -----
 Symbolic Z-matrix:
 Charge =  0 Multiplicity = 1

 SCF Done:  E(RHF) =  -321.301681687     A.U. after   19 cycles
 Normal termination of Gaussian 16 at Wed Apr  9 03:39:47 2025.
 Gaussian 16:  ES64L-G16RevC.01  3-Jul-2019

 ----------------------------------------------------------------------
 #t hf aug-cc-pvdz iop(5/13=1,5/36=2,99/5=2) pseudo=read geom=check gue
 ss=(read,tcheck) scf=(maxcycle=1)
 ----------------------------------------------------------------------
 -----
 title
 -----
 Structure from the checkpoint file:  "Grambow2020_wb97xd3_007506_forward_mol1.chk"
 Charge =  0 Multiplicity = 1

                         Standard orientation:
 ---------------------------------------------------------------------
 Center     Atomic      Atomic             Coordinates (Angstroms)
 Number     Number       Type             X           Y           Z
 ---------------------------------------------------------------------
      1          8           0        0.698296    1.842591    0.149590
      2          6           0        0.795750    0.682616   -0.061304
      3          6           0        1.884349   -0.359778    0.031918
      4          6           0        1.189043   -1.432371   -0.022925
      5          6           0       -0.207966   -0.398078   -0.393421
      6          6           0       -1.416357   -0.519199    0.593506
      7          7           0       -2.132618    0.131960   -0.383661
      8          1           0        1.119602   -2.502822    0.053924
      9          1           0       -0.373520   -0.554978   -1.454869
     10          1           0       -1.180418   -0.020110    1.536906
     11          1           0       -1.690970   -1.564021    0.736716
     12          1           0       -2.001644    1.138337   -0.270401
 ---------------------------------------------------------------------

 SCF Done:  E(RHF) =  -321.395443674     A.U. after    2 cycles

 The electronic state is 1-A.
 Alpha  occ. eigenvalues --  -20.60323 -15.66788 -11.38862 -11.33440 -11.33000
 Alpha  occ. eigenvalues --  -11.31967 -11.26608  -1.40357  -1.22809  -1.15677
 Alpha  occ. eigenvalues --   -0.94877  -0.89332  -0.84469  -0.74549  -0.72722
 Alpha  occ. eigenvalues --   -0.66996  -0.64893  -0.63662  -0.61331  -0.56401
 Alpha  occ. eigenvalues --   -0.53086  -0.46653  -0.45362  -0.42455  -0.30164
 Alpha virt. eigenvalues --   -0.00637   0.02541   0.03907   0.04400   0.05171
 Alpha virt. eigenvalues --    0.06649   0.06814   0.09231   0.09778   0.11037
 Alpha virt. eigenvalues --    0.11239   0.13095   0.13481   0.14157   0.14758

 Mulliken charges:
               1
     1  O   -0.388575
     2  C    0.194187
     3  C   -0.395614
     4  C    0.705685
     5  C   -0.216753
     6  C    0.936680
     7  N   -0.477795
     8  H   -0.171940
     9  H   -0.042390
    10  H   -0.055933
    11  H   -0.179407
    12  H    0.091852
 Sum of Mulliken charges =  -0.00000

 Dipole moment (field-independent basis, Debye):
    X=             -2.0281    Y=             -3.5365    Z=              0.5081  Tot=              4.1083

 Test job not archived.
 1\1\GINC-SE058\SP\RHF\Aug-CC-pVDZ\C5H5N1O1\OHZDE\09-Apr-2025\0\\#t hf
 aug-cc-pvdz iop(5/13=1,5/36=2,99/5=2) pseudo=read geom=check guess=(re
 ad,tcheck) scf=(maxcycle=1)\\title\\0,1\O,0,0.12818539,0.30409598,2.32
 975271\C,0,0.6663681,0.18775482,1.28269051\C,0,1.97744858,-0.3688141,0
 .7810711\C,0,1.72931507,-0.46516819,-0.47035208\C,0,0.21676774,0.40899
 251,-0.14369016\C,0,-1.09517774,-0.33663786,-0.55810378\N,0,-1.7017930
 8,0.88949738,-0.41491075\H,0,2.00982039,-0.80081482,-1.45282362\H,0,0.
 40382648,1.40601961,-0.53052752\H,0,-1.30351273,-1.14652917,0.14576612

 Normal termination of Gaussian 16 at Wed Apr  9 03:39:52 2025.
