 Gaussian 16, Revision C.01,

 ----------------------------------------------------------------------
 #t hf aug-cc-pvdz symm=none int=(grid=ultrafine) guess=(read,tcheck) s
 table=(opt,rrhf)
 ----------------------------------------------------------------------
 -----
 title
 -----
 Symbolic Z-matrix:
 Charge =  0 Multiplicity = 1

 SCF Done:  E(RHF) =  -375.751752185     A.U. after   15 cycles
 Normal termination of Gaussian 16 at Wed Apr  9 16:10:59 2025.
 Gaussian 16:  ES64L-G16RevC.01  3-Jul-2019

 ----------------------------------------------------------------------
 #t hf aug-cc-pvdz iop(5/13=1,5/36=2,99/5=2) pseudo=read geom=check gue
 ss=(read,tcheck) scf=(maxcycle=1)
 ----------------------------------------------------------------------
 -----
 title
 -----
 Structure from the checkpoint file:  "Grambow2020_wb97xd3_007912_reverse_mol2.chk"
 Charge =  0 Multiplicity = 1

                         Standard orientation:
 ---------------------------------------------------------------------
 Center     Atomic      Atomic             Coordinates (Angstroms)
 Number     Number       Type             X           Y           Z
 ---------------------------------------------------------------------
      1          6           0        2.052249   -1.130747    0.163385
      2          8           0        2.019140    0.144870   -0.535812
      3          6           0        1.225818    1.019554   -0.048493
      4          7           0        0.522820    1.837177    0.361082
      5          7           0       -2.639278    0.345835   -0.343045
      6          6           0       -1.737023   -0.339975    0.386581
      7          8           0       -1.196428   -1.364346    0.026104
      8          1           0        2.695293   -1.763589   -0.440178
      9          1           0        1.042296   -1.534454    0.225019
     10          1           0        2.482598   -0.980971    1.153145
     11          1           0       -2.894819    1.276479   -0.067801
     12          1           0       -2.795207    0.067178   -1.296838
     13          1           0       -1.542917    0.117081    1.369228
 ---------------------------------------------------------------------

 SCF Done:  E(RHF) =  -375.874522048     A.U. after    2 cycles

 The electronic state is 1-A.
 Alpha  occ. eigenvalues --  -20.66544 -20.54708 -15.65629 -15.63048 -11.37019
 Alpha  occ. eigenvalues --  -11.35016 -11.32129  -1.44263  -1.35654  -1.19035
 Alpha  occ. eigenvalues --   -1.18782  -1.00201  -0.84844  -0.79875  -0.75278
 Alpha  occ. eigenvalues --   -0.71396  -0.70049  -0.68294  -0.62403  -0.58870
 Alpha  occ. eigenvalues --   -0.57745  -0.56677  -0.55154  -0.45969  -0.45414
 Alpha  occ. eigenvalues --   -0.43897  -0.42819
 Alpha virt. eigenvalues --    0.03387   0.03723   0.04529   0.05890   0.06226
 Alpha virt. eigenvalues --    0.07454   0.08826   0.11020   0.11595   0.12023
 Alpha virt. eigenvalues --    0.13365   0.13733   0.14562   0.15261   0.15796

 Mulliken charges:
               1
     1  C    0.945590
     2  O   -0.388129
     3  C   -0.133864
     4  N   -0.080991
     5  N   -0.121685
     6  C    0.867945
     7  O   -0.540790
     8  H   -0.170475
     9  H   -0.112057
    10  H   -0.080552
    11  H    0.015559
    12  H   -0.019943
    13  H   -0.180607
 Sum of Mulliken charges =  -0.00000

 Dipole moment (field-independent basis, Debye):
    X=             -0.3893    Y=             -0.4172    Z=              0.1283  Tot=              0.5849

 Test job not archived.
 1\1\GINC-SE219\SP\RHF\Aug-CC-pVDZ\C3H6N2O2\OHZDE\09-Apr-2025\0\\#t hf
 aug-cc-pvdz iop(5/13=1,5/36=2,99/5=2) pseudo=read geom=check guess=(re
 ad,tcheck) scf=(maxcycle=1)\\title\\0,1\C,0,-1.75565797,-0.94224149,-0
 .98716353\O,0,-1.81957398,0.50909516,-0.90525519\C,0,-0.69681778,1.114
 54439,-0.97426297\N,0,0.29580839,1.69898763,-1.0341279\N,0,1.7946891,0
 .69200876,2.04127729\C,0,1.39429528,-0.25105962,1.16545744\O,0,0.49626
 882,-1.04104861,1.36791098\H,0,-2.77408203,-1.2768439,-0.8164683\H,0,-
 1.08031854,-1.31733157,-0.21904485\H,0,-1.4216235,-1.22623764,-1.98467

 Normal termination of Gaussian 16 at Wed Apr  9 16:11:03 2025.
