 Gaussian 16, Revision C.01,

 ----------------------------------------------------------------------
 #t hf aug-cc-pvdz symm=none int=(grid=ultrafine) guess=(read,tcheck) s
 table=(opt,rrhf)
 ----------------------------------------------------------------------
 -----
 title
 -----
 Symbolic Z-matrix:
 Charge =  0 Multiplicity = 1

 SCF Done:  E(RHF) =  -299.676501852     A.U. after   14 cycles
 Normal termination of Gaussian 16 at Wed Apr  9 03:20:52 2025.
 Gaussian 16:  ES64L-G16RevC.01  3-Jul-2019

 ----------------------------------------------------------------------
 #t hf aug-cc-pvdz iop(5/13=1,5/36=2,99/5=2) pseudo=read geom=check gue
 ss=(read,tcheck) scf=(maxcycle=1)
 ----------------------------------------------------------------------
 -----
 title
 -----
 Structure from the checkpoint file:  "Grambow2020_wb97xd3_006149_reverse_mol2.chk"
 Charge =  0 Multiplicity = 1

                         Standard orientation:
 ---------------------------------------------------------------------
 Center     Atomic      Atomic             Coordinates (Angstroms)
 Number     Number       Type             X           Y           Z
 ---------------------------------------------------------------------
      1          7           0        1.875432   -0.611395   -0.034557
      2          6           0        0.746131    0.143061   -0.025255
      3          6           0       -0.531030   -0.629825   -0.167551
      4          6           0       -1.742713    0.100220   -0.471137
      5          7           0       -1.681241   -0.196158    0.730974
      6          8           0        0.756358    1.351223    0.063898
      7          1           0        2.754446   -0.148423    0.113020
      8          1           0        1.840089   -1.611280    0.026755
      9          1           0       -0.462757   -1.695939   -0.367281
     10          1           0       -2.376311    0.617991   -1.174935
 ---------------------------------------------------------------------

 SCF Done:  E(RHF) =  -299.766225398     A.U. after    2 cycles

 The electronic state is 1-A.
 Alpha  occ. eigenvalues --  -20.53906 -15.67566 -15.65708 -11.36989 -11.32340
 Alpha  occ. eigenvalues --  -11.30219  -1.36031  -1.30539  -1.18854  -0.94656
 Alpha  occ. eigenvalues --   -0.81339  -0.79725  -0.73784  -0.70654  -0.65288
 Alpha  occ. eigenvalues --   -0.62613  -0.59330  -0.55132  -0.47574  -0.43349
 Alpha  occ. eigenvalues --   -0.42534  -0.41778
 Alpha virt. eigenvalues --    0.02509   0.03496   0.04393   0.06801   0.08234
 Alpha virt. eigenvalues --    0.09280   0.11041   0.11766   0.12456   0.13251
 Alpha virt. eigenvalues --    0.14068   0.14574   0.15334   0.16045   0.16857

 Mulliken charges:
               1
     1  N   -0.128871
     2  C    0.424514
     3  C    0.861505
     4  C    0.413297
     5  N   -0.505955
     6  O   -0.502713
     7  H   -0.000727
     8  H   -0.020370
     9  H   -0.413922
    10  H   -0.126757
 Sum of Mulliken charges =  -0.00000

 Dipole moment (field-independent basis, Debye):
    X=              0.6687    Y=             -3.7476    Z=             -2.1797  Tot=              4.3866

 Test job not archived.
 1\1\GINC-SE080\SP\RHF\Aug-CC-pVDZ\C3H4N2O1\OHZDE\09-Apr-2025\0\\#t hf
 aug-cc-pvdz iop(5/13=1,5/36=2,99/5=2) pseudo=read geom=check guess=(re
 ad,tcheck) scf=(maxcycle=1)\\title\\0,1\N,0,1.76738202,-0.11785562,-0.
 24499404\C,0,0.57675253,-0.29320274,0.38450105\C,0,-0.61662469,0.21433
 041,-0.36849531\C,0,-1.86942897,0.34669521,0.34302888\N,0,-1.84949551,
 -0.67907968,-0.35272907\O,0,0.47451199,-0.79569249,1.48211684\H,0,2.59
 207291,-0.48967067,0.1913837\H,0,1.817676,0.174028,-1.20262348\H,0,-0.
 44273374,0.76438362,-1.28955757\H,0,-2.50599555,0.87810396,1.03386301\

 Normal termination of Gaussian 16 at Wed Apr  9 03:20:55 2025.
