 Gaussian 16, Revision C.01,

 ----------------------------------------------------------------------
 #t hf aug-cc-pvdz symm=none int=(grid=ultrafine) guess=(read,tcheck) s
 table=(opt,rrhf)
 ----------------------------------------------------------------------
 -----
 title
 -----
 Symbolic Z-matrix:
 Charge =  0 Multiplicity = 1

 SCF Done:  E(RHF) =  -322.684744185     A.U. after   14 cycles
 Normal termination of Gaussian 16 at Wed Apr  9 14:29:40 2025.
 Gaussian 16:  ES64L-G16RevC.01  3-Jul-2019

 ----------------------------------------------------------------------
 #t hf aug-cc-pvdz iop(5/13=1,5/36=2,99/5=2) pseudo=read geom=check gue
 ss=(read,tcheck) scf=(maxcycle=1)
 ----------------------------------------------------------------------
 -----
 title
 -----
 Structure from the checkpoint file:  "Grambow2020_wb97xd3_006559_reverse_mol2.chk"
 Charge =  0 Multiplicity = 1

                         Standard orientation:
 ---------------------------------------------------------------------
 Center     Atomic      Atomic             Coordinates (Angstroms)
 Number     Number       Type             X           Y           Z
 ---------------------------------------------------------------------
      1          8           0        2.912498    0.219542   -0.322412
      2          6           0        1.592370    0.337393   -0.046776
      3          6           0        0.777916   -0.629969    0.357239
      4          6           0       -0.677424   -0.434244    0.624777
      5          6           0       -1.708286   -0.790512   -0.491791
      6          7           0       -2.164458    0.622512   -0.486077
      7          6           0       -1.301650    0.917173    0.407414
      8          1           0        3.189099   -0.691346   -0.191996
      9          1           0        1.256396    1.356991   -0.198870
     10          1           0        1.170566   -1.636281    0.491554
     11          1           0       -0.949912   -0.870941    1.590431
     12          1           0       -1.265800   -1.079946   -1.445753
     13          1           0       -2.500142   -1.490960   -0.220832
     14          1           0       -1.146538    1.899519    0.852127
 ---------------------------------------------------------------------

 SCF Done:  E(RHF) =  -322.782331600     A.U. after    2 cycles

 The electronic state is 1-A.
 Alpha  occ. eigenvalues --  -20.61088 -15.62808 -11.31410 -11.28828 -11.26791
 Alpha  occ. eigenvalues --  -11.26026 -11.24135  -1.37529  -1.25540  -1.06159
 Alpha  occ. eigenvalues --   -0.95001  -0.90356  -0.84078  -0.73834  -0.70830
 Alpha  occ. eigenvalues --   -0.68928  -0.65706  -0.60585  -0.60336  -0.58489
 Alpha  occ. eigenvalues --   -0.55404  -0.52918  -0.48215  -0.41589  -0.41212
 Alpha  occ. eigenvalues --   -0.34984
 Alpha virt. eigenvalues --    0.02842   0.03994   0.04127   0.05087   0.06394
 Alpha virt. eigenvalues --    0.06584   0.07304   0.09583   0.11051   0.12168
 Alpha virt. eigenvalues --    0.12560   0.13033   0.13724   0.14225   0.14413

 Mulliken charges:
               1
     1  O   -0.455479
     2  C    0.413317
     3  C    0.795049
     4  C   -0.038610
     5  C    0.851718
     6  N   -0.702254
     7  C    0.597879
     8  H    0.128298
     9  H   -0.311212
    10  H   -0.508207
    11  H   -0.109289
    12  H   -0.244141
    13  H   -0.212107
    14  H   -0.204961
 Sum of Mulliken charges =  -0.00000

 Dipole moment (field-independent basis, Debye):
    X=              1.3559    Y=             -2.2080    Z=              1.5968  Tot=              3.0436

 Test job not archived.
 1\1\GINC-SE226\SP\RHF\Aug-CC-pVDZ\C5H7N1O1\OHZDE\09-Apr-2025\0\\#t hf
 aug-cc-pvdz iop(5/13=1,5/36=2,99/5=2) pseudo=read geom=check guess=(re
 ad,tcheck) scf=(maxcycle=1)\\title\\0,1\O,0,2.76958342,-0.318975,-1.15
 73812\C,0,1.64170658,0.08392223,-0.52637596\C,0,0.71880307,-0.69684995
 ,0.02225705\C,0,-0.51551293,-0.1847032,0.6871398\C,0,-1.84572115,-0.12
 352199,-0.12718719\N,0,-1.88208603,1.34474026,0.09108638\C,0,-0.779770
 6,1.29559961,0.73301769\H,0,2.80969402,-1.27896168,-1.16456709\H,0,1.5
 7079126,1.16580724,-0.51703432\H,0,0.84170017,-1.77763396,-0.01873078\

 Normal termination of Gaussian 16 at Wed Apr  9 14:29:45 2025.
