 Gaussian 16, Revision C.01,

 ----------------------------------------------------------------------
 #t hf aug-cc-pvdz symm=none int=(grid=ultrafine) guess=(read,tcheck) s
 table=(opt,rrhf)
 ----------------------------------------------------------------------
 -----
 title
 -----
 Symbolic Z-matrix:
 Charge =  0 Multiplicity = 1

 SCF Done:  E(RHF) =  -317.603776279     A.U. after   17 cycles
 Normal termination of Gaussian 16 at Wed Apr  9 16:17:46 2025.
 Gaussian 16:  ES64L-G16RevC.01  3-Jul-2019

 ----------------------------------------------------------------------
 #t hf aug-cc-pvdz iop(5/13=1,5/36=2,99/5=2) pseudo=read geom=check gue
 ss=(read,tcheck) scf=(maxcycle=1)
 ----------------------------------------------------------------------
 -----
 title
 -----
 Structure from the checkpoint file:  "Grambow2020_wb97xd3_008062_reverse_mol1.chk"
 Charge =  0 Multiplicity = 1

                         Standard orientation:
 ---------------------------------------------------------------------
 Center     Atomic      Atomic             Coordinates (Angstroms)
 Number     Number       Type             X           Y           Z
 ---------------------------------------------------------------------
      1          7           0        2.955103    0.282165   -0.408275
      2          6           0        1.910130    0.138483    0.047941
      3          6           0        0.588925   -0.024307    0.595422
      4          6           0       -1.435878    1.416099    0.061330
      5          7           0       -1.992746    0.295916   -0.213804
      6          6           0       -1.507749   -0.901555   -0.116197
      7          7           0       -0.156200   -1.067973    0.013987
      8          1           0        0.591280   -0.037838    1.685183
      9          1           0       -0.184099    1.060488    0.523102
     10          1           0       -1.551484    2.170457   -0.725992
     11          1           0       -2.140780   -1.773488   -0.208054
     12          1           0        0.309411   -1.762700   -0.548574
 ---------------------------------------------------------------------

 SCF Done:  E(RHF) =  -317.697625057     A.U. after    2 cycles

 The electronic state is 1-A.
 Alpha  occ. eigenvalues --  -15.69475 -15.67033 -15.64206 -11.36319 -11.32080
 Alpha  occ. eigenvalues --  -11.29758 -11.29194  -1.31124  -1.21543  -1.19074
 Alpha  occ. eigenvalues --   -1.03322  -0.94002  -0.80960  -0.78620  -0.70404
 Alpha  occ. eigenvalues --   -0.68359  -0.65784  -0.62578  -0.56899  -0.54536
 Alpha  occ. eigenvalues --   -0.50729  -0.47258  -0.46161  -0.40144  -0.31654
 Alpha virt. eigenvalues --    0.02367   0.03738   0.04259   0.04693   0.05321
 Alpha virt. eigenvalues --    0.08151   0.08653   0.09413   0.09739   0.11049
 Alpha virt. eigenvalues --    0.12718   0.12948   0.13845   0.14386   0.14968

 Mulliken charges:
               1
     1  N   -0.154416
     2  C   -0.415943
     3  C    0.763432
     4  C    0.239699
     5  N   -0.276263
     6  C    0.707840
     7  N   -0.364928
     8  H   -0.070982
     9  H    0.149248
    10  H   -0.282517
    11  H   -0.253369
    12  H   -0.041800
 Sum of Mulliken charges =  -0.00000

 Dipole moment (field-independent basis, Debye):
    X=             -2.9757    Y=             -2.5204    Z=              0.1946  Tot=              3.9045

 Test job not archived.
 1\1\GINC-SE037\SP\RHF\Aug-CC-pVDZ\C4H5N3\OHZDE\09-Apr-2025\0\\#t hf au
 g-cc-pvdz iop(5/13=1,5/36=2,99/5=2) pseudo=read geom=check guess=(read
 ,tcheck) scf=(maxcycle=1)\\title\\0,1\N,0,3.05434753,-0.76567988,0.691
 74954\C,0,2.08736371,-0.42129001,0.17494933\C,0,0.85948245,-0.00881617
 ,-0.4527381\C,0,-1.36048765,-1.24147707,-0.34260524\N,0,-1.81373917,-0
 .11398302,0.06227853\C,0,-1.18907909,1.01206692,0.20544397\N,0,0.17872
 909,1.02131935,0.22395492\H,0,0.98042465,0.16977979,-1.52102771\H,0,-0
 .03425888,-0.98359963,-0.62766484\H,0,-1.64438336,-2.08556337,0.297096

 Normal termination of Gaussian 16 at Wed Apr  9 16:17:51 2025.
