 Gaussian 16, Revision C.01,

 ----------------------------------------------------------------------
 #t hf aug-cc-pvdz symm=none int=(grid=ultrafine) guess=(read,tcheck) s
 table=(opt,rrhf)
 ----------------------------------------------------------------------
 -----
 title
 -----
 Symbolic Z-matrix:
 Charge =  0 Multiplicity = 1

 SCF Done:  E(RHF) =  -231.661841770     A.U. after   15 cycles
 Normal termination of Gaussian 16 at Wed Apr  9 14:21:20 2025.
 Gaussian 16:  ES64L-G16RevC.01  3-Jul-2019

 ----------------------------------------------------------------------
 #t hf aug-cc-pvdz iop(5/13=1,5/36=2,99/5=2) pseudo=read geom=check gue
 ss=(read,tcheck) scf=(maxcycle=1)
 ----------------------------------------------------------------------
 -----
 title
 -----
 Structure from the checkpoint file:  "Grambow2020_wb97xd3_006054_forward_mol1.chk"
 Charge =  0 Multiplicity = 1

                         Standard orientation:
 ---------------------------------------------------------------------
 Center     Atomic      Atomic             Coordinates (Angstroms)
 Number     Number       Type             X           Y           Z
 ---------------------------------------------------------------------
      1          6           0       -1.395982   -0.167813    0.696950
      2          6           0       -0.761199   -0.602928   -0.602557
      3          6           0       -0.709631    0.835508   -0.159236
      4          6           0        0.816007    0.891596   -0.068942
      5          6           0        1.339471   -0.346889    0.615339
      6          6           0        0.766162   -0.824562   -0.685092
      7          1           0       -1.017845   -0.466173    1.665355
      8          1           0       -2.476600   -0.119686    0.655190
      9          1           0       -1.384243   -0.979788   -1.400646
     10          1           0       -1.254445    1.639598   -0.634024
     11          1           0        1.412039    1.799211   -0.076546
     12          1           0        2.423035   -0.383744    0.673561
     13          1           0        0.866583   -0.633135    1.544352
     14          1           0        1.102510    0.434251   -1.206009
 ---------------------------------------------------------------------

 SCF Done:  E(RHF) =  -231.729197609     A.U. after    2 cycles

 The electronic state is 1-A.
 Alpha  occ. eigenvalues --  -11.28148 -11.26067 -11.25630 -11.24494 -11.24222
 Alpha  occ. eigenvalues --  -11.23926  -1.21484  -1.07003  -0.89707  -0.87377
 Alpha  occ. eigenvalues --   -0.77410  -0.73239  -0.69987  -0.65397  -0.57715
 Alpha  occ. eigenvalues --   -0.55406  -0.53453  -0.50840  -0.48028  -0.45911
 Alpha  occ. eigenvalues --   -0.38946  -0.31143
 Alpha virt. eigenvalues --    0.03178   0.03992   0.04392   0.05154   0.06103
 Alpha virt. eigenvalues --    0.06544   0.07335   0.09079   0.09407   0.10423
 Alpha virt. eigenvalues --    0.12754   0.13849   0.14024   0.14414   0.14793

 Mulliken charges:
               1
     1  C    0.871315
     2  C    0.431021
     3  C    0.357927
     4  C   -0.159081
     5  C    1.036769
     6  C   -0.749360
     7  H   -0.351972
     8  H   -0.371902
     9  H   -0.371992
    10  H   -0.380318
    11  H   -0.259294
    12  H   -0.255923
    13  H   -0.245966
    14  H    0.448773
 Sum of Mulliken charges =   0.00000

 Dipole moment (field-independent basis, Debye):
    X=             -0.8201    Y=              1.9595    Z=              1.3173  Tot=              2.4995

 Test job not archived.
 1\1\GINC-SE226\SP\RHF\Aug-CC-pVDZ\C6H8\OHZDE\09-Apr-2025\0\\#t hf aug-
 cc-pvdz iop(5/13=1,5/36=2,99/5=2) pseudo=read geom=check guess=(read,t
 check) scf=(maxcycle=1)\\title\\0,1\C,0,1.22884563,-0.81057711,-0.4259
 7442\C,0,0.93680827,0.0729266,0.76361689\C,0,0.65566165,0.54477332,-0.
 63874118\C,0,-0.8512493,0.69774597,-0.42734093\C,0,-1.39373087,-0.4993
 8052,0.3134038\C,0,-0.50810261,0.20691319,1.29563867\H,0,0.67774421,-1
 .71752578,-0.634654\H,0,2.28315317,-0.88655847,-0.65933582\H,0,1.75156
 765,0.42394795,1.38014178\H,0,1.21362189,1.32066529,-1.14419044\H,0,-1

 Normal termination of Gaussian 16 at Wed Apr  9 14:21:24 2025.
