 Gaussian 16, Revision C.01,

 ----------------------------------------------------------------------
 #t hf aug-cc-pvdz symm=none int=(grid=ultrafine) guess=(read,tcheck) s
 table=(opt,rrhf)
 ----------------------------------------------------------------------
 -----
 title
 -----
 Symbolic Z-matrix:
 Charge =  0 Multiplicity = 1

 SCF Done:  E(RHF) =  -338.559312778     A.U. after   15 cycles
 Normal termination of Gaussian 16 at Wed Apr  9 03:39:25 2025.
 Gaussian 16:  ES64L-G16RevC.01  3-Jul-2019

 ----------------------------------------------------------------------
 #t hf aug-cc-pvdz iop(5/13=1,5/36=2,99/5=2) pseudo=read geom=check gue
 ss=(read,tcheck) scf=(maxcycle=1)
 ----------------------------------------------------------------------
 -----
 title
 -----
 Structure from the checkpoint file:  "Grambow2020_wb97xd3_007483_reverse_mol1.chk"
 Charge =  0 Multiplicity = 1

                         Standard orientation:
 ---------------------------------------------------------------------
 Center     Atomic      Atomic             Coordinates (Angstroms)
 Number     Number       Type             X           Y           Z
 ---------------------------------------------------------------------
      1          6           0       -1.287715   -0.104786    0.951277
      2          8           0       -1.731473    0.140860   -0.447628
      3          6           0       -0.393750    0.144237   -0.558406
      4          6           0        0.532126    1.191501   -0.276509
      5          7           0        1.579692    0.648548    0.283623
      6          6           0        1.317011   -0.703849    0.336027
      7          7           0        0.365543   -1.001933   -0.682253
      8          1           0       -1.536599    0.759813    1.556143
      9          1           0        0.156500   -0.525638    1.236733
     10          1           0       -1.734886   -1.041126    1.277856
     11          1           0        0.347406    2.255016   -0.319610
     12          1           0        2.134754   -1.389582    0.519085
     13          1           0       -0.138059   -1.874286   -0.613105
 ---------------------------------------------------------------------

 SCF Done:  E(RHF) =  -338.658957707     A.U. after    2 cycles

 The electronic state is 1-A.
 Alpha  occ. eigenvalues --  -20.62746 -15.66438 -15.64575 -11.38073 -11.31312
 Alpha  occ. eigenvalues --  -11.30641 -11.28373  -1.42508  -1.31076  -1.15788
 Alpha  occ. eigenvalues --   -0.98591  -0.92911  -0.84935  -0.79970  -0.75388
 Alpha  occ. eigenvalues --   -0.68468  -0.68430  -0.64040  -0.62207  -0.60455
 Alpha  occ. eigenvalues --   -0.57933  -0.51533  -0.44275  -0.43706  -0.39372
 Alpha  occ. eigenvalues --   -0.34029
 Alpha virt. eigenvalues --    0.02960   0.03918   0.04723   0.04841   0.06887
 Alpha virt. eigenvalues --    0.07489   0.08916   0.10123   0.10551   0.11697
 Alpha virt. eigenvalues --    0.13046   0.13361   0.13618   0.14409   0.14936

 Mulliken charges:
               1
     1  C    0.662824
     2  O   -0.737326
     3  C    0.289946
     4  C    0.736116
     5  N   -0.605925
     6  C    0.451357
     7  N   -0.461425
     8  H   -0.281351
     9  H    0.644662
    10  H   -0.302870
    11  H   -0.180904
    12  H   -0.237716
    13  H    0.022610
 Sum of Mulliken charges =  -0.00000

 Dipole moment (field-independent basis, Debye):
    X=             -1.0207    Y=             -1.5881    Z=              0.7641  Tot=              2.0366

 Test job not archived.
 1\1\GINC-SE454\SP\RHF\Aug-CC-pVDZ\C4H6N2O1\OHZDE\09-Apr-2025\0\\#t hf
 aug-cc-pvdz iop(5/13=1,5/36=2,99/5=2) pseudo=read geom=check guess=(re
 ad,tcheck) scf=(maxcycle=1)\\title\\0,1\C,0,-1.32635826,0.41510929,-0.
 28892453\O,0,-0.89042847,-0.17619139,-1.58295951\C,0,0.23061149,-0.221
 86394,-0.8460957\C,0,1.17561591,0.8114527,-0.57646545\N,0,1.5439226,0.
 69034092,0.6707803\C,0,0.85528162,-0.39924305,1.15996716\N,0,0.5129324
 1,-1.2299327,0.05371557\H,0,-1.54004001,1.46755002,-0.43740488\H,0,-0.
 46292396,0.2439567,0.96389122\H,0,-2.16077133,-0.17823941,0.07855241\H

 Normal termination of Gaussian 16 at Wed Apr  9 03:39:29 2025.
