 Gaussian 16, Revision C.01,

 ----------------------------------------------------------------------
 #t hf aug-cc-pvdz symm=none int=(grid=ultrafine) guess=(read,tcheck) s
 table=(opt,rrhf)
 ----------------------------------------------------------------------
 -----
 title
 -----
 Symbolic Z-matrix:
 Charge =  0 Multiplicity = 1

 SCF Done:  E(RHF) =  -302.791444686     A.U. after   16 cycles
 Normal termination of Gaussian 16 at Wed Apr  9 16:47:17 2025.
 Gaussian 16:  ES64L-G16RevC.01  3-Jul-2019

 ----------------------------------------------------------------------
 #t hf aug-cc-pvdz iop(5/13=1,5/36=2,99/5=2) pseudo=read geom=check gue
 ss=(read,tcheck) scf=(maxcycle=1)
 ----------------------------------------------------------------------
 -----
 title
 -----
 Structure from the checkpoint file:  "Grambow2020_wb97xd3_008887_forward_mol1.chk"
 Charge =  0 Multiplicity = 1

                         Standard orientation:
 ---------------------------------------------------------------------
 Center     Atomic      Atomic             Coordinates (Angstroms)
 Number     Number       Type             X           Y           Z
 ---------------------------------------------------------------------
      1          6           0       -2.425392   -0.557986    0.046650
      2          7           0       -1.064163   -0.099763   -0.084952
      3          6           0       -0.627195    1.219006   -0.037258
      4          6           0        0.815954    1.298937   -0.091335
      5          6           0        1.173004   -0.089242    0.004487
      6          7           0        2.500089   -0.528914    0.116263
      7          6           0        0.051994   -0.880024   -0.027874
      8          1           0       -3.098793    0.230082   -0.288503
      9          1           0       -2.587666   -1.434248   -0.581552
     10          1           0       -2.673212   -0.812421    1.080941
     11          1           0       -1.317482    2.012041   -0.297205
     12          1           0       -0.120363    1.515932    1.010355
     13          1           0        3.133982    0.231292   -0.078407
     14          1           0        2.723978   -1.329038   -0.454187
     15          1           0       -0.042117   -1.957038    0.021359
 ---------------------------------------------------------------------

 SCF Done:  E(RHF) =  -302.881837591     A.U. after    2 cycles

 The electronic state is 1-A.
 Alpha  occ. eigenvalues --  -15.66680 -15.60559 -11.29166 -11.28703 -11.28155
 Alpha  occ. eigenvalues --  -11.25332 -11.22014  -1.28366  -1.15912  -1.06583
 Alpha  occ. eigenvalues --   -0.99301  -0.92058  -0.78088  -0.76837  -0.70424
 Alpha  occ. eigenvalues --   -0.66117  -0.64832  -0.61796  -0.58929  -0.57557
 Alpha  occ. eigenvalues --   -0.56144  -0.51592  -0.46840  -0.40153  -0.34134
 Alpha  occ. eigenvalues --   -0.28665
 Alpha virt. eigenvalues --    0.02650   0.03536   0.04419   0.04673   0.06127
 Alpha virt. eigenvalues --    0.06794   0.07972   0.08434   0.10043   0.10339
 Alpha virt. eigenvalues --    0.11308   0.12442   0.13772   0.14215   0.14570

 Mulliken charges:
               1
     1  C    0.814550
     2  N   -0.402942
     3  C    0.640772
     4  C   -0.897747
     5  C    0.337999
     6  N   -0.392236
     7  C    0.877857
     8  H   -0.222406
     9  H   -0.176448
    10  H   -0.068498
    11  H   -0.250617
    12  H    0.223772
    13  H    0.007339
    14  H   -0.042237
    15  H   -0.449159
 Sum of Mulliken charges =  -0.00000

 Dipole moment (field-independent basis, Debye):
    X=             -3.6379    Y=             -2.6674    Z=             -0.5216  Tot=              4.5411

 Test job not archived.
 1\1\GINC-SE118\SP\RHF\Aug-CC-pVDZ\C5H8N2\OHZDE\09-Apr-2025\0\\#t hf au
 g-cc-pvdz iop(5/13=1,5/36=2,99/5=2) pseudo=read geom=check guess=(read
 ,tcheck) scf=(maxcycle=1)\\title\\0,1\C,0,2.24359982,0.15395281,0.0522
 8505\N,0,0.83208321,-0.10647993,-0.08923323\C,0,0.20591605,-1.34399315
 ,0.00479694\C,0,-1.23237618,-1.21512867,-0.07707945\C,0,-1.38357632,0.
 21315508,-0.04788835\N,0,-2.63345734,0.84610319,0.01640741\C,0,-0.1584
 3123,0.82987093,-0.08943226\H,0,2.79927966,-0.73812532,-0.23453193\H,0
 ,2.54206922,0.96800674,-0.60880257\H,0,2.51025032,0.41590475,1.0799963

 Normal termination of Gaussian 16 at Wed Apr  9 16:47:24 2025.
