 Gaussian 16, Revision C.01,

 ----------------------------------------------------------------------
 #t hf aug-cc-pvdz symm=none int=(grid=ultrafine) guess=(read,tcheck) s
 table=(opt,rrhf)
 ----------------------------------------------------------------------
 -----
 title
 -----
 Symbolic Z-matrix:
 Charge =  0 Multiplicity = 1

 SCF Done:  E(RHF) =  -342.273907557     A.U. after   18 cycles
 Normal termination of Gaussian 16 at Wed Apr  9 16:54:15 2025.
 Gaussian 16:  ES64L-G16RevC.01  3-Jul-2019

 ----------------------------------------------------------------------
 #t hf aug-cc-pvdz iop(5/13=1,5/36=2,99/5=2) pseudo=read geom=check gue
 ss=(read,tcheck) scf=(maxcycle=1)
 ----------------------------------------------------------------------
 -----
 title
 -----
 Structure from the checkpoint file:  "Grambow2020_wb97xd3_009062_reverse_mol1.chk"
 Charge =  0 Multiplicity = 1

                         Standard orientation:
 ---------------------------------------------------------------------
 Center     Atomic      Atomic             Coordinates (Angstroms)
 Number     Number       Type             X           Y           Z
 ---------------------------------------------------------------------
      1          8           0        1.756688    0.092260   -0.605661
      2          6           0       -0.312795    1.331313   -0.464070
      3          6           0       -1.302936    0.188974   -0.817110
      4          6           0       -1.263842   -0.944264    0.267949
      5          6           0        0.089956   -0.457407    0.663127
      6          8           0        1.049902   -0.973269    0.019576
      7          6           0        0.106237    0.987016    0.948557
      8          1           0       -1.109568   -0.173873   -1.824868
      9          1           0       -2.273549    0.694764   -0.842778
     10          1           0       -1.249317   -1.949452   -0.141117
     11          1           0       -2.024171   -0.837209    1.037287
     12          1           0        1.039356    1.430344    1.267797
     13          1           0       -0.735183    1.249713    1.601636
 ---------------------------------------------------------------------

 SCF Done:  E(RHF) =  -342.374894038     A.U. after    2 cycles

 The electronic state is 1-A.
 Alpha  occ. eigenvalues --  -20.66996 -20.54356 -11.40869 -11.31271 -11.29392
 Alpha  occ. eigenvalues --  -11.28542 -11.27873  -1.47236  -1.18990  -1.13104
 Alpha  occ. eigenvalues --   -1.02836  -0.95073  -0.81185  -0.76903  -0.72938
 Alpha  occ. eigenvalues --   -0.69907  -0.67245  -0.63352  -0.59630  -0.58569
 Alpha  occ. eigenvalues --   -0.55848  -0.54399  -0.50573  -0.43925  -0.42213
 Alpha  occ. eigenvalues --   -0.36270
 Alpha virt. eigenvalues --    0.02122   0.03045   0.03871   0.04988   0.05319
 Alpha virt. eigenvalues --    0.06671   0.06923   0.07697   0.08394   0.10500
 Alpha virt. eigenvalues --    0.11475   0.13075   0.13665   0.14104   0.14471

 Mulliken charges:
               1
     1  O   -0.551577
     2  C   -0.403546
     3  C    0.215028
     4  C    0.586726
     5  C    0.173135
     6  O   -0.431339
     7  C    0.783280
     8  H   -0.084605
     9  H    0.022053
    10  H   -0.098241
    11  H   -0.104617
    12  H   -0.100402
    13  H   -0.005894
 Sum of Mulliken charges =   0.00000

 Dipole moment (field-independent basis, Debye):
    X=             -5.9065    Y=             -1.3224    Z=              3.5248  Tot=              7.0043

 Test job not archived.
 1\1\GINC-SE219\SP\RHF\Aug-CC-pVDZ\C5H6O2\OHZDE\09-Apr-2025\0\\#t hf au
 g-cc-pvdz iop(5/13=1,5/36=2,99/5=2) pseudo=read geom=check guess=(read
 ,tcheck) scf=(maxcycle=1)\\title\\0,1\O,0,1.40689091,-1.04266844,1.481
 03276\C,0,0.3850509,-1.17025842,-0.70474497\C,0,-1.0219689,-0.62108128
 ,-0.34605945\C,0,-0.93729694,0.86993459,0.13644683\C,0,0.50094986,0.63
 729995,0.4578377\O,0,0.72128951,0.19646792,1.62355028\C,0,1.24663895,0
 .07339897,-0.67972742\H,0,-1.50674081,-1.27877635,0.37300857\H,0,-1.57
 658815,-0.71416742,-1.28536994\H,0,-1.53743743,1.08657065,1.01442709\H

 Normal termination of Gaussian 16 at Wed Apr  9 16:54:19 2025.
